  99  99   0   0
  0.1430410E+02  0.1177748E-08  0.1177748E-08  0.1058004E-08  0.5000000E-15
  1.000000000000000E-004
  CAR 
 unknown system                          
     17.94400528    -54.33755977  301      5.23449676      1.00000000
    -54.338  0.0000E+00  0.0000E+00  0.0000E+00  0.0000E+00
    -54.097  0.0000E+00  0.0000E+00  0.0000E+00  0.0000E+00
    -53.856  0.0000E+00  0.0000E+00  0.0000E+00  0.0000E+00
    -53.615  0.0000E+00  0.0000E+00  0.0000E+00  0.0000E+00
    -53.374  0.0000E+00  0.0000E+00  0.0000E+00  0.0000E+00
    -53.133  0.0000E+00  0.0000E+00  0.0000E+00  0.0000E+00
    -52.892  0.0000E+00  0.0000E+00  0.0000E+00  0.0000E+00
    -52.651  0.0000E+00  0.0000E+00  0.0000E+00  0.0000E+00
    -52.410  0.0000E+00  0.0000E+00  0.0000E+00  0.0000E+00
    -52.169  0.0000E+00  0.0000E+00  0.0000E+00  0.0000E+00
    -51.928  0.0000E+00  0.0000E+00  0.0000E+00  0.0000E+00
    -51.687  0.0000E+00  0.0000E+00  0.0000E+00  0.0000E+00
    -51.446  0.0000E+00  0.0000E+00  0.0000E+00  0.0000E+00
    -51.205  0.4329E-03  0.0000E+00  0.1043E-03  0.0000E+00
    -50.964  0.1472E+03  0.0000E+00  0.3547E+02  0.0000E+00
    -50.723  0.2209E+01  0.0000E+00  0.3600E+02  0.0000E+00
    -50.483  0.0000E+00  0.0000E+00  0.3600E+02  0.0000E+00
    -50.242  0.0000E+00  0.0000E+00  0.3600E+02  0.0000E+00
    -50.001  0.0000E+00  0.0000E+00  0.3600E+02  0.0000E+00
    -49.760  0.1723E+01  0.0000E+00  0.3642E+02  0.0000E+00
    -49.519  0.2705E+03  0.0000E+00  0.1016E+03  0.0000E+00
    -49.278  0.2662E+02  0.0000E+00  0.1080E+03  0.0000E+00
    -49.037  0.0000E+00  0.0000E+00  0.1080E+03  0.0000E+00
    -48.796  0.0000E+00  0.0000E+00  0.1080E+03  0.0000E+00
    -48.555  0.0000E+00  0.0000E+00  0.1080E+03  0.0000E+00
    -48.314  0.0000E+00  0.0000E+00  0.1080E+03  0.0000E+00
    -48.073  0.0000E+00  0.0000E+00  0.1080E+03  0.0000E+00
    -47.832  0.0000E+00  0.0000E+00  0.1080E+03  0.0000E+00
    -47.591  0.0000E+00  0.0000E+00  0.1080E+03  0.0000E+00
    -47.350  0.0000E+00  0.0000E+00  0.1080E+03  0.0000E+00
    -47.109  0.0000E+00  0.0000E+00  0.1080E+03  0.0000E+00
    -46.868  0.0000E+00  0.0000E+00  0.1080E+03  0.0000E+00
    -46.628  0.0000E+00  0.0000E+00  0.1080E+03  0.0000E+00
    -46.387  0.0000E+00  0.3531E+00  0.1080E+03  0.8507E-01
    -46.146  0.0000E+00  0.1490E+03  0.1080E+03  0.3599E+02
    -45.905  0.0000E+00  0.6911E+02  0.1080E+03  0.5264E+02
    -45.664  0.0000E+00  0.2298E+03  0.1080E+03  0.1080E+03
    -45.423  0.0000E+00  0.0000E+00  0.1080E+03  0.1080E+03
    -45.182  0.0000E+00  0.0000E+00  0.1080E+03  0.1080E+03
    -44.941  0.0000E+00  0.0000E+00  0.1080E+03  0.1080E+03
    -44.700  0.0000E+00  0.0000E+00  0.1080E+03  0.1080E+03
    -44.459  0.0000E+00  0.0000E+00  0.1080E+03  0.1080E+03
    -44.218  0.0000E+00  0.0000E+00  0.1080E+03  0.1080E+03
    -43.977  0.0000E+00  0.0000E+00  0.1080E+03  0.1080E+03
    -43.736  0.0000E+00  0.0000E+00  0.1080E+03  0.1080E+03
    -43.495  0.0000E+00  0.0000E+00  0.1080E+03  0.1080E+03
    -43.254  0.0000E+00  0.0000E+00  0.1080E+03  0.1080E+03
    -43.013  0.0000E+00  0.0000E+00  0.1080E+03  0.1080E+03
    -42.773  0.0000E+00  0.0000E+00  0.1080E+03  0.1080E+03
    -42.532  0.0000E+00  0.0000E+00  0.1080E+03  0.1080E+03
    -42.291  0.0000E+00  0.0000E+00  0.1080E+03  0.1080E+03
    -42.050  0.0000E+00  0.0000E+00  0.1080E+03  0.1080E+03
    -41.809  0.0000E+00  0.0000E+00  0.1080E+03  0.1080E+03
    -41.568  0.0000E+00  0.0000E+00  0.1080E+03  0.1080E+03
    -41.327  0.0000E+00  0.0000E+00  0.1080E+03  0.1080E+03
    -41.086  0.0000E+00  0.0000E+00  0.1080E+03  0.1080E+03
    -40.845  0.0000E+00  0.0000E+00  0.1080E+03  0.1080E+03
    -40.604  0.0000E+00  0.0000E+00  0.1080E+03  0.1080E+03
    -40.363  0.0000E+00  0.0000E+00  0.1080E+03  0.1080E+03
    -40.122  0.9576E-11  0.6143E-11  0.1080E+03  0.1080E+03
    -39.881  0.2298E+02  0.2144E+02  0.1135E+03  0.1132E+03
    -39.640  0.5173E+02  0.5327E+02  0.1260E+03  0.1260E+03
    -39.399  0.0000E+00  0.0000E+00  0.1260E+03  0.1260E+03
    -39.158  0.0000E+00  0.0000E+00  0.1260E+03  0.1260E+03
    -38.917  0.0000E+00  0.0000E+00  0.1260E+03  0.1260E+03
    -38.677  0.0000E+00  0.0000E+00  0.1260E+03  0.1260E+03
    -38.436  0.0000E+00  0.0000E+00  0.1260E+03  0.1260E+03
    -38.195  0.0000E+00  0.0000E+00  0.1260E+03  0.1260E+03
    -37.954  0.0000E+00  0.0000E+00  0.1260E+03  0.1260E+03
    -37.713  0.0000E+00  0.0000E+00  0.1260E+03  0.1260E+03
    -37.472  0.0000E+00  0.0000E+00  0.1260E+03  0.1260E+03
    -37.231  0.0000E+00  0.0000E+00  0.1260E+03  0.1260E+03
    -36.990  0.0000E+00  0.0000E+00  0.1260E+03  0.1260E+03
    -36.749  0.0000E+00  0.0000E+00  0.1260E+03  0.1260E+03
    -36.508  0.0000E+00  0.0000E+00  0.1260E+03  0.1260E+03
    -36.267  0.0000E+00  0.0000E+00  0.1260E+03  0.1260E+03
    -36.026  0.0000E+00  0.0000E+00  0.1260E+03  0.1260E+03
    -35.785  0.0000E+00  0.0000E+00  0.1260E+03  0.1260E+03
    -35.544  0.0000E+00  0.0000E+00  0.1260E+03  0.1260E+03
    -35.303  0.0000E+00  0.0000E+00  0.1260E+03  0.1260E+03
    -35.062  0.0000E+00  0.0000E+00  0.1260E+03  0.1260E+03
    -34.822  0.0000E+00  0.0000E+00  0.1260E+03  0.1260E+03
    -34.581  0.0000E+00  0.0000E+00  0.1260E+03  0.1260E+03
    -34.340  0.0000E+00  0.0000E+00  0.1260E+03  0.1260E+03
    -34.099  0.0000E+00  0.0000E+00  0.1260E+03  0.1260E+03
    -33.858  0.0000E+00  0.0000E+00  0.1260E+03  0.1260E+03
    -33.617  0.0000E+00  0.0000E+00  0.1260E+03  0.1260E+03
    -33.376  0.0000E+00  0.0000E+00  0.1260E+03  0.1260E+03
    -33.135  0.0000E+00  0.0000E+00  0.1260E+03  0.1260E+03
    -32.894  0.0000E+00  0.0000E+00  0.1260E+03  0.1260E+03
    -32.653  0.0000E+00  0.0000E+00  0.1260E+03  0.1260E+03
    -32.412  0.0000E+00  0.0000E+00  0.1260E+03  0.1260E+03
    -32.171  0.0000E+00  0.0000E+00  0.1260E+03  0.1260E+03
    -31.930  0.0000E+00  0.0000E+00  0.1260E+03  0.1260E+03
    -31.689  0.0000E+00  0.0000E+00  0.1260E+03  0.1260E+03
    -31.448  0.0000E+00  0.0000E+00  0.1260E+03  0.1260E+03
    -31.207  0.0000E+00  0.0000E+00  0.1260E+03  0.1260E+03
    -30.967  0.0000E+00  0.0000E+00  0.1260E+03  0.1260E+03
    -30.726  0.0000E+00  0.0000E+00  0.1260E+03  0.1260E+03
    -30.485  0.0000E+00  0.0000E+00  0.1260E+03  0.1260E+03
    -30.244  0.0000E+00  0.0000E+00  0.1260E+03  0.1260E+03
    -30.003  0.0000E+00  0.0000E+00  0.1260E+03  0.1260E+03
    -29.762  0.0000E+00  0.0000E+00  0.1260E+03  0.1260E+03
    -29.521  0.0000E+00  0.0000E+00  0.1260E+03  0.1260E+03
    -29.280  0.0000E+00  0.0000E+00  0.1260E+03  0.1260E+03
    -29.039  0.0000E+00  0.0000E+00  0.1260E+03  0.1260E+03
    -28.798  0.0000E+00  0.0000E+00  0.1260E+03  0.1260E+03
    -28.557  0.0000E+00  0.0000E+00  0.1260E+03  0.1260E+03
    -28.316  0.0000E+00  0.0000E+00  0.1260E+03  0.1260E+03
    -28.075  0.0000E+00  0.0000E+00  0.1260E+03  0.1260E+03
    -27.834  0.0000E+00  0.0000E+00  0.1260E+03  0.1260E+03
    -27.593  0.0000E+00  0.0000E+00  0.1260E+03  0.1260E+03
    -27.352  0.0000E+00  0.0000E+00  0.1260E+03  0.1260E+03
    -27.112  0.0000E+00  0.0000E+00  0.1260E+03  0.1260E+03
    -26.871  0.0000E+00  0.0000E+00  0.1260E+03  0.1260E+03
    -26.630  0.0000E+00  0.0000E+00  0.1260E+03  0.1260E+03
    -26.389  0.0000E+00  0.0000E+00  0.1260E+03  0.1260E+03
    -26.148  0.0000E+00  0.0000E+00  0.1260E+03  0.1260E+03
    -25.907  0.0000E+00  0.0000E+00  0.1260E+03  0.1260E+03
    -25.666  0.0000E+00  0.0000E+00  0.1260E+03  0.1260E+03
    -25.425  0.0000E+00  0.0000E+00  0.1260E+03  0.1260E+03
    -25.184  0.0000E+00  0.0000E+00  0.1260E+03  0.1260E+03
    -24.943  0.0000E+00  0.0000E+00  0.1260E+03  0.1260E+03
    -24.702  0.0000E+00  0.0000E+00  0.1260E+03  0.1260E+03
    -24.461  0.0000E+00  0.0000E+00  0.1260E+03  0.1260E+03
    -24.220  0.0000E+00  0.0000E+00  0.1260E+03  0.1260E+03
    -23.979  0.0000E+00  0.0000E+00  0.1260E+03  0.1260E+03
    -23.738  0.0000E+00  0.0000E+00  0.1260E+03  0.1260E+03
    -23.497  0.0000E+00  0.0000E+00  0.1260E+03  0.1260E+03
    -23.256  0.0000E+00  0.0000E+00  0.1260E+03  0.1260E+03
    -23.016  0.0000E+00  0.0000E+00  0.1260E+03  0.1260E+03
    -22.775  0.0000E+00  0.0000E+00  0.1260E+03  0.1260E+03
    -22.534  0.0000E+00  0.0000E+00  0.1260E+03  0.1260E+03
    -22.293  0.0000E+00  0.0000E+00  0.1260E+03  0.1260E+03
    -22.052  0.0000E+00  0.0000E+00  0.1260E+03  0.1260E+03
    -21.811  0.0000E+00  0.0000E+00  0.1260E+03  0.1260E+03
    -21.570  0.0000E+00  0.0000E+00  0.1260E+03  0.1260E+03
    -21.329  0.0000E+00  0.0000E+00  0.1260E+03  0.1260E+03
    -21.088  0.0000E+00  0.0000E+00  0.1260E+03  0.1260E+03
    -20.847  0.0000E+00  0.0000E+00  0.1260E+03  0.1260E+03
    -20.606  0.0000E+00  0.0000E+00  0.1260E+03  0.1260E+03
    -20.365  0.0000E+00  0.0000E+00  0.1260E+03  0.1260E+03
    -20.124  0.0000E+00  0.0000E+00  0.1260E+03  0.1260E+03
    -19.883  0.0000E+00  0.0000E+00  0.1260E+03  0.1260E+03
    -19.642  0.0000E+00  0.0000E+00  0.1260E+03  0.1260E+03
    -19.401  0.0000E+00  0.0000E+00  0.1260E+03  0.1260E+03
    -19.161  0.0000E+00  0.0000E+00  0.1260E+03  0.1260E+03
    -18.920  0.0000E+00  0.0000E+00  0.1260E+03  0.1260E+03
    -18.679  0.0000E+00  0.0000E+00  0.1260E+03  0.1260E+03
    -18.438  0.0000E+00  0.0000E+00  0.1260E+03  0.1260E+03
    -18.197  0.0000E+00  0.0000E+00  0.1260E+03  0.1260E+03
    -17.956  0.0000E+00  0.0000E+00  0.1260E+03  0.1260E+03
    -17.715  0.0000E+00  0.0000E+00  0.1260E+03  0.1260E+03
    -17.474  0.0000E+00  0.0000E+00  0.1260E+03  0.1260E+03
    -17.233  0.0000E+00  0.0000E+00  0.1260E+03  0.1260E+03
    -16.992  0.0000E+00  0.0000E+00  0.1260E+03  0.1260E+03
    -16.751  0.0000E+00  0.0000E+00  0.1260E+03  0.1260E+03
    -16.510  0.0000E+00  0.0000E+00  0.1260E+03  0.1260E+03
    -16.269  0.0000E+00  0.0000E+00  0.1260E+03  0.1260E+03
    -16.028  0.0000E+00  0.0000E+00  0.1260E+03  0.1260E+03
    -15.787  0.0000E+00  0.0000E+00  0.1260E+03  0.1260E+03
    -15.546  0.0000E+00  0.0000E+00  0.1260E+03  0.1260E+03
    -15.306  0.0000E+00  0.0000E+00  0.1260E+03  0.1260E+03
    -15.065  0.0000E+00  0.0000E+00  0.1260E+03  0.1260E+03
    -14.824  0.0000E+00  0.0000E+00  0.1260E+03  0.1260E+03
    -14.583  0.0000E+00  0.0000E+00  0.1260E+03  0.1260E+03
    -14.342  0.0000E+00  0.0000E+00  0.1260E+03  0.1260E+03
    -14.101  0.0000E+00  0.0000E+00  0.1260E+03  0.1260E+03
    -13.860  0.0000E+00  0.0000E+00  0.1260E+03  0.1260E+03
    -13.619  0.0000E+00  0.0000E+00  0.1260E+03  0.1260E+03
    -13.378  0.1864E-03  0.0000E+00  0.1260E+03  0.1260E+03
    -13.137  0.3025E+02  0.0000E+00  0.1333E+03  0.1260E+03
    -12.896  0.4422E+02  0.2259E+00  0.1439E+03  0.1261E+03
    -12.655  0.2357E+00  0.5831E+02  0.1440E+03  0.1401E+03
    -12.414  0.0000E+00  0.1617E+02  0.1440E+03  0.1440E+03
    -12.173  0.0000E+00  0.0000E+00  0.1440E+03  0.1440E+03
    -11.932  0.0000E+00  0.0000E+00  0.1440E+03  0.1440E+03
    -11.691  0.0000E+00  0.0000E+00  0.1440E+03  0.1440E+03
    -11.450  0.0000E+00  0.0000E+00  0.1440E+03  0.1440E+03
    -11.210  0.0000E+00  0.0000E+00  0.1440E+03  0.1440E+03
    -10.969  0.0000E+00  0.0000E+00  0.1440E+03  0.1440E+03
    -10.728  0.0000E+00  0.0000E+00  0.1440E+03  0.1440E+03
    -10.487  0.0000E+00  0.0000E+00  0.1440E+03  0.1440E+03
    -10.246  0.0000E+00  0.0000E+00  0.1440E+03  0.1440E+03
    -10.005  0.0000E+00  0.0000E+00  0.1440E+03  0.1440E+03
     -9.764  0.0000E+00  0.0000E+00  0.1440E+03  0.1440E+03
     -9.523  0.0000E+00  0.0000E+00  0.1440E+03  0.1440E+03
     -9.282  0.0000E+00  0.0000E+00  0.1440E+03  0.1440E+03
     -9.041  0.0000E+00  0.0000E+00  0.1440E+03  0.1440E+03
     -8.800  0.0000E+00  0.0000E+00  0.1440E+03  0.1440E+03
     -8.559  0.0000E+00  0.0000E+00  0.1440E+03  0.1440E+03
     -8.318  0.0000E+00  0.0000E+00  0.1440E+03  0.1440E+03
     -8.077  0.0000E+00  0.0000E+00  0.1440E+03  0.1440E+03
     -7.836  0.2855E-10  0.0000E+00  0.1440E+03  0.1440E+03
     -7.595  0.5489E+00  0.3540E-11  0.1441E+03  0.1440E+03
     -7.355  0.1701E+02  0.4563E+00  0.1482E+03  0.1441E+03
     -7.114  0.3241E+02  0.1886E+02  0.1560E+03  0.1487E+03
     -6.873  0.3352E+02  0.3109E+02  0.1641E+03  0.1561E+03
     -6.632  0.2857E+02  0.2485E+02  0.1710E+03  0.1621E+03
     -6.391  0.1085E-03  0.3668E+02  0.1710E+03  0.1710E+03
     -6.150  0.0000E+00  0.1201E+00  0.1710E+03  0.1710E+03
     -5.909  0.0000E+00  0.0000E+00  0.1710E+03  0.1710E+03
     -5.668  0.0000E+00  0.0000E+00  0.1710E+03  0.1710E+03
     -5.427  0.0000E+00  0.0000E+00  0.1710E+03  0.1710E+03
     -5.186  0.0000E+00  0.0000E+00  0.1710E+03  0.1710E+03
     -4.945  0.0000E+00  0.0000E+00  0.1710E+03  0.1710E+03
     -4.704  0.0000E+00  0.0000E+00  0.1710E+03  0.1710E+03
     -4.463  0.0000E+00  0.0000E+00  0.1710E+03  0.1710E+03
     -4.222  0.0000E+00  0.0000E+00  0.1710E+03  0.1710E+03
     -3.981  0.0000E+00  0.0000E+00  0.1710E+03  0.1710E+03
     -3.740  0.0000E+00  0.0000E+00  0.1710E+03  0.1710E+03
     -3.500  0.0000E+00  0.0000E+00  0.1710E+03  0.1710E+03
     -3.259  0.0000E+00  0.0000E+00  0.1710E+03  0.1710E+03
     -3.018  0.0000E+00  0.0000E+00  0.1710E+03  0.1710E+03
     -2.777  0.0000E+00  0.0000E+00  0.1710E+03  0.1710E+03
     -2.536  0.0000E+00  0.0000E+00  0.1710E+03  0.1710E+03
     -2.295  0.0000E+00  0.0000E+00  0.1710E+03  0.1710E+03
     -2.054  0.6216E-02  0.0000E+00  0.1710E+03  0.1710E+03
     -1.813  0.2348E+02  0.0000E+00  0.1767E+03  0.1710E+03
     -1.572  0.1885E+02  0.0000E+00  0.1812E+03  0.1710E+03
     -1.331  0.1464E+02  0.0000E+00  0.1847E+03  0.1710E+03
     -1.090  0.2325E+02  0.0000E+00  0.1903E+03  0.1710E+03
     -0.849  0.5611E+02  0.0000E+00  0.2039E+03  0.1710E+03
     -0.608  0.6251E+02  0.1525E-03  0.2189E+03  0.1710E+03
     -0.367  0.3941E+02  0.8697E+01  0.2284E+03  0.1731E+03
     -0.126  0.8183E+02  0.2172E+02  0.2481E+03  0.1783E+03
      0.115  0.8868E+02  0.1297E+02  0.2695E+03  0.1815E+03
      0.355  0.8379E+02  0.2351E+02  0.2897E+03  0.1871E+03
      0.596  0.7265E+02  0.3060E+02  0.3072E+03  0.1945E+03
      0.837  0.6228E+02  0.4802E+02  0.3222E+03  0.2061E+03
      1.078  0.3976E+02  0.4073E+02  0.3318E+03  0.2159E+03
      1.319  0.3488E+02  0.3375E+02  0.3402E+03  0.2240E+03
      1.560  0.5092E+02  0.2402E+02  0.3524E+03  0.2298E+03
      1.801  0.5182E+02  0.3297E+02  0.3649E+03  0.2377E+03
      2.042  0.7521E+02  0.4083E+02  0.3830E+03  0.2476E+03
      2.283  0.6614E+02  0.2869E+02  0.3990E+03  0.2545E+03
      2.524  0.3123E+02  0.2925E+02  0.4065E+03  0.2615E+03
      2.765  0.5062E+02  0.3832E+02  0.4187E+03  0.2708E+03
      3.006  0.2568E+02  0.4580E+02  0.4249E+03  0.2818E+03
      3.247  0.9373E+01  0.4877E+02  0.4271E+03  0.2936E+03
      3.488  0.3857E+02  0.4218E+02  0.4364E+03  0.3037E+03
      3.729  0.2585E+02  0.7502E+01  0.4427E+03  0.3055E+03
      3.970  0.3646E+02  0.2119E+02  0.4515E+03  0.3106E+03
      4.211  0.3945E+02  0.7242E+02  0.4610E+03  0.3281E+03
      4.451  0.3810E+02  0.4623E+02  0.4701E+03  0.3392E+03
      4.692  0.3634E+02  0.1155E+02  0.4789E+03  0.3420E+03
      4.933  0.2562E+02  0.9687E-05  0.4851E+03  0.3420E+03
      5.174  0.3866E+01  0.0000E+00  0.4860E+03  0.3420E+03
      5.415  0.0000E+00  0.0000E+00  0.4860E+03  0.3420E+03
      5.656  0.0000E+00  0.0000E+00  0.4860E+03  0.3420E+03
      5.897  0.0000E+00  0.0000E+00  0.4860E+03  0.3420E+03
      6.138  0.0000E+00  0.2574E-09  0.4860E+03  0.3420E+03
      6.379  0.0000E+00  0.1193E+01  0.4860E+03  0.3423E+03
      6.620  0.0000E+00  0.5089E+01  0.4860E+03  0.3435E+03
      6.861  0.0000E+00  0.9572E+01  0.4860E+03  0.3458E+03
      7.102  0.8209E-14  0.2008E+02  0.4860E+03  0.3507E+03
      7.343  0.4127E-01  0.5979E+02  0.4860E+03  0.3651E+03
      7.584  0.1125E+00  0.6062E+02  0.4860E+03  0.3797E+03
      7.825  0.5707E+00  0.6310E+02  0.4862E+03  0.3949E+03
      8.066  0.5497E+00  0.7463E+02  0.4863E+03  0.4129E+03
      8.306  0.2399E+01  0.7917E+02  0.4869E+03  0.4319E+03
      8.547  0.4530E+01  0.7011E+02  0.4880E+03  0.4488E+03
      8.788  0.9456E+01  0.6655E+02  0.4903E+03  0.4649E+03
      9.029  0.1503E+02  0.4724E+02  0.4939E+03  0.4762E+03
      9.270  0.1591E+02  0.3328E+02  0.4977E+03  0.4843E+03
      9.511  0.1966E+02  0.9081E+01  0.5024E+03  0.4864E+03
      9.752  0.1566E+02  0.5559E+01  0.5062E+03  0.4878E+03
      9.993  0.2405E+02  0.1139E+02  0.5120E+03  0.4905E+03
     10.234  0.1690E+02  0.1617E+02  0.5161E+03  0.4944E+03
     10.475  0.2176E+02  0.2422E+02  0.5213E+03  0.5003E+03
     10.716  0.1468E+02  0.2173E+02  0.5249E+03  0.5055E+03
     10.957  0.1502E+02  0.2192E+02  0.5285E+03  0.5108E+03
     11.198  0.2187E+02  0.3192E+02  0.5338E+03  0.5185E+03
     11.439  0.3223E+02  0.2015E+02  0.5415E+03  0.5233E+03
     11.680  0.2890E+02  0.1856E+02  0.5485E+03  0.5278E+03
     11.921  0.3280E+02  0.1182E+02  0.5564E+03  0.5306E+03
     12.161  0.3653E+02  0.2410E+02  0.5652E+03  0.5364E+03
     12.402  0.2210E+02  0.4467E+02  0.5705E+03  0.5472E+03
     12.643  0.1994E+02  0.3554E+02  0.5753E+03  0.5558E+03
     12.884  0.2557E+02  0.3319E+02  0.5815E+03  0.5638E+03
     13.125  0.2541E+02  0.2049E+02  0.5876E+03  0.5687E+03
     13.366  0.2835E+02  0.2365E+02  0.5944E+03  0.5744E+03
     13.607  0.2533E+02  0.3312E+02  0.6005E+03  0.5824E+03
     13.848  0.1866E+02  0.2649E+02  0.6050E+03  0.5888E+03
     14.089  0.4032E+01  0.2661E+02  0.6060E+03  0.5952E+03
     14.330  0.5540E-03  0.2256E+02  0.6060E+03  0.6006E+03
     14.571  0.0000E+00  0.1991E+02  0.6060E+03  0.6054E+03
     14.812  0.0000E+00  0.2440E+01  0.6060E+03  0.6060E+03
     15.053  0.0000E+00  0.2224E-05  0.6060E+03  0.6060E+03
     15.294  0.0000E+00  0.0000E+00  0.6060E+03  0.6060E+03
     15.535  0.0000E+00  0.0000E+00  0.6060E+03  0.6060E+03
     15.776  0.0000E+00  0.0000E+00  0.6060E+03  0.6060E+03
     16.016  0.0000E+00  0.0000E+00  0.6060E+03  0.6060E+03
     16.257  0.0000E+00  0.0000E+00  0.6060E+03  0.6060E+03
     16.498  0.0000E+00  0.0000E+00  0.6060E+03  0.6060E+03
     16.739  0.0000E+00  0.0000E+00  0.6060E+03  0.6060E+03
     16.980  0.0000E+00  0.0000E+00  0.6060E+03  0.6060E+03
     17.221  0.0000E+00  0.0000E+00  0.6060E+03  0.6060E+03
     17.462  0.0000E+00  0.0000E+00  0.6060E+03  0.6060E+03
     17.703  0.0000E+00  0.0000E+00  0.6060E+03  0.6060E+03
     17.944  0.0000E+00  0.0000E+00  0.6060E+03  0.6060E+03
