<?xml version="1.0" encoding="ISO-8859-1"?>
<modeling>
 <generator>
  <i name="program" type="string">vasp </i>
  <i name="version" type="string">5.4.4.18Apr17-6-g9f103f2a35  </i>
  <i name="subversion" type="string">(build Oct 25 2017 14:42:18) complex            parallel </i>
  <i name="platform" type="string">LinuxIFC </i>
  <i name="date" type="string">2021 05 28 </i>
  <i name="time" type="string">05:23:31 </i>
 </generator>
 <incar>
  <i type="string" name="PREC">accurate</i>
  <i type="string" name="ALGO"> normal</i>
  <i type="logical" name="ADDGRID"> T  </i>
  <i type="int" name="ISPIN">     2</i>
  <i type="int" name="ICHARG">     1</i>
  <i type="int" name="NELM">   200</i>
  <i type="int" name="NELMIN">     8</i>
  <i name="EDIFF">      0.00000100</i>
  <i type="int" name="ISYM">     0</i>
  <i name="ENCUT">    650.00000000</i>
  <v name="MAGMOM">      0.60000000      0.60000000      0.60000000      0.60000000      0.60000000      0.60000000      0.60000000      0.60000000      0.60000000      0.60000000      0.60000000      0.60000000      0.60000000      0.60000000      0.60000000      0.60000000      0.60000000      0.60000000      0.60000000      0.60000000
      0.60000000      0.60000000      0.60000000      0.60000000      0.60000000      0.60000000      0.60000000      0.60000000      0.60000000      0.60000000      0.60000000      0.60000000      0.60000000      0.60000000      0.60000000      0.60000000      0.60000000      0.60000000      0.60000000      0.60000000
      0.60000000      0.60000000      0.60000000      0.60000000      0.60000000      0.60000000      0.60000000      0.60000000      0.60000000      0.60000000      0.60000000      0.60000000      0.60000000      0.60000000      0.60000000      0.60000000      0.60000000      0.60000000      0.60000000      0.60000000
      0.60000000      0.60000000      0.60000000      5.00000000      5.00000000      5.00000000      5.00000000      5.00000000      5.00000000      5.00000000      5.00000000      5.00000000      5.00000000      5.00000000      5.00000000      5.00000000      5.00000000      5.00000000      5.00000000      5.00000000
      5.00000000      5.00000000      5.00000000      5.00000000      5.00000000      5.00000000      5.00000000      5.00000000      5.00000000      5.00000000      5.00000000      5.00000000      5.00000000      5.00000000      5.00000000      5.00000000      5.00000000      5.00000000      5.00000000</v>
  <i type="logical" name="LREAL"> F  </i>
  <i type="int" name="ISMEAR">     0</i>
  <i name="SIGMA">      0.05000000</i>
  <i type="int" name="NWRITE">     1</i>
  <i type="int" name="LMAXMIX">     4</i>
  <i type="logical" name="LWAVE"> F  </i>
  <i type="logical" name="LASPH"> T  </i>
  <v type="int" name="KPOINT_BSE">    -1     0     0     0</v>
  <i type="int" name="NELM">   200</i>
  <i type="string" name="GGA"> pe</i>
  <i type="logical" name="LDAU"> T  </i>
  <v type="int" name="LDAUTYPE">     2</v>
  <v type="int" name="LDAUL">    -1    -1    -1     2</v>
  <v name="LDAUU">      0.00000000      0.00000000      0.00000000      4.00000000</v>
  <v name="LDAUJ">      0.00000000      0.00000000      0.00000000      0.00000000</v>
  <i type="logical" name="LASPH"> T  </i>
 </incar>
 <structure name="primitive_cell" >
  <crystal>
   <varray name="basis" >
    <v>      11.77726974       0.00848871       0.06923316 </v>
    <v>      -0.03028248      11.77723386       0.06923316 </v>
    <v>      -2.02000231      -2.02666320      10.18574622 </v>
   </varray>
   <i name="volume">   1416.10551572 </i>
   <varray name="rec_basis" >
    <v>       0.08481023       0.00011906       0.01684296 </v>
    <v>      -0.00016014       0.08481016       0.01684296 </v>
    <v>      -0.00057537      -0.00057727       0.09794744 </v>
   </varray>
  </crystal>
  <varray name="positions" >
   <v>       0.20224939       0.24122044      -0.16816581 </v>
   <v>       0.19734517       0.07022326      -0.19686089 </v>
   <v>       0.19734517       0.40355659      -0.19686089 </v>
   <v>       0.39684232       0.26982435       0.00000000 </v>
   <v>       0.06350899       0.26982435       0.00000000 </v>
   <v>       0.03761391       0.07731307      -0.15457223 </v>
   <v>       0.37094724       0.07731307      -0.15457223 </v>
   <v>       0.37094724       0.41064640      -0.15457223 </v>
   <v>       0.03761391       0.41064640      -0.15457223 </v>
   <v>       0.00253935       0.20657296      -0.37079665 </v>
   <v>       0.33587268       0.20657296      -0.37079665 </v>
   <v>       0.16118393       0.04306059      -0.39352170 </v>
   <v>       0.16118393       0.37639393      -0.39352170 </v>
   <v>       0.25602027       0.29571943       0.15457223 </v>
   <v>       0.20224939      -0.09126381      -0.16816581 </v>
   <v>      -0.46441728       0.24206952      -0.16816581 </v>
   <v>      -0.13108394       0.24206952      -0.16816581 </v>
   <v>       0.20224939      -0.42459715      -0.16816581 </v>
   <v>       0.26311007       0.13598816       0.19686089 </v>
   <v>       0.26311007       0.46932149       0.19686089 </v>
   <v>      -0.13598816       0.07022326      -0.19686089 </v>
   <v>      -0.46932149       0.40355659      -0.19686089 </v>
   <v>      -0.46932149       0.07022326      -0.19686089 </v>
   <v>      -0.13598816       0.40355659      -0.19686089 </v>
   <v>       0.42459715       0.13108394       0.16816581 </v>
   <v>       0.42459715       0.46441728       0.16816581 </v>
   <v>       0.09126381       0.13108394       0.16816581 </v>
   <v>       0.09126381       0.46441728       0.16816581 </v>
   <v>       0.06350899      -0.06350899       0.00000000 </v>
   <v>       0.39684232      -0.06350899       0.00000000 </v>
   <v>       0.39684232      -0.39684232       0.00000000 </v>
   <v>       0.06350899      -0.39684232       0.00000000 </v>
   <v>       0.00253935      -0.46009370      -0.37079665 </v>
   <v>       0.33587268      -0.46009370      -0.37079665 </v>
   <v>       0.00253935      -0.12676037      -0.37079665 </v>
   <v>       0.29027274       0.17214940       0.39352170 </v>
   <v>       0.33587268      -0.12676037      -0.37079665 </v>
   <v>       0.49451727       0.04306059      -0.39352170 </v>
   <v>      -0.04306059       0.17214940       0.39352170 </v>
   <v>       0.49451727       0.37639393      -0.39352170 </v>
   <v>      -0.17214940       0.04306059      -0.39352170 </v>
   <v>      -0.17214940       0.37639393      -0.39352170 </v>
   <v>       0.12676037       0.33079399       0.37079665 </v>
   <v>       0.12676037      -0.00253935       0.37079665 </v>
   <v>       0.25602027      -0.03761391       0.15457223 </v>
   <v>      -0.41064640       0.29571943       0.15457223 </v>
   <v>      -0.07731307       0.29571943       0.15457223 </v>
   <v>       0.25602027      -0.37094724       0.15457223 </v>
   <v>      -0.13108394      -0.09126381      -0.16816581 </v>
   <v>      -0.46441728      -0.09126381      -0.16816581 </v>
   <v>      -0.46441728      -0.42459715      -0.16816581 </v>
   <v>      -0.13108394      -0.42459715      -0.16816581 </v>
   <v>      -0.07022326       0.13598816       0.19686089 </v>
   <v>      -0.40355659       0.46932149       0.19686089 </v>
   <v>      -0.40355659       0.13598816       0.19686089 </v>
   <v>      -0.07022326       0.46932149       0.19686089 </v>
   <v>       0.46009370       0.33079399       0.37079665 </v>
   <v>       0.19734517      -0.26311007      -0.19686089 </v>
   <v>       0.29027274      -0.49451727       0.39352170 </v>
   <v>      -0.26982435       0.26982435       0.00000000 </v>
   <v>       0.03761391      -0.25602027      -0.15457223 </v>
   <v>      -0.29571943       0.41064640      -0.15457223 </v>
   <v>       0.37094724      -0.25602027      -0.15457223 </v>
   <v>      -0.29571943       0.07731307      -0.15457223 </v>
   <v>       0.29027274      -0.16118393       0.39352170 </v>
   <v>      -0.33079399       0.20657296      -0.37079665 </v>
   <v>       0.16118393      -0.29027274      -0.39352170 </v>
   <v>      -0.04306059      -0.16118393       0.39352170 </v>
   <v>      -0.04306059      -0.49451727       0.39352170 </v>
   <v>      -0.20657296      -0.00253935       0.37079665 </v>
   <v>      -0.20657296       0.33079399       0.37079665 </v>
   <v>      -0.07731307      -0.03761391       0.15457223 </v>
   <v>       0.46009370      -0.00253935       0.37079665 </v>
   <v>      -0.41064640      -0.03761391       0.15457223 </v>
   <v>      -0.41064640      -0.37094724       0.15457223 </v>
   <v>      -0.07731307      -0.37094724       0.15457223 </v>
   <v>       0.26311007      -0.19734517       0.19686089 </v>
   <v>       0.12676037      -0.33587268       0.37079665 </v>
   <v>       0.46009370      -0.33587268       0.37079665 </v>
   <v>      -0.13598816      -0.26311007      -0.19686089 </v>
   <v>      -0.46932149      -0.26311007      -0.19686089 </v>
   <v>      -0.24206952       0.46441728       0.16816581 </v>
   <v>       0.09126381      -0.20224939       0.16816581 </v>
   <v>      -0.24206952       0.13108394       0.16816581 </v>
   <v>       0.42459715      -0.20224939       0.16816581 </v>
   <v>      -0.37639393       0.17214940       0.39352170 </v>
   <v>      -0.37639393      -0.49451727       0.39352170 </v>
   <v>      -0.26982435      -0.06350899       0.00000000 </v>
   <v>      -0.26982435      -0.39684232       0.00000000 </v>
   <v>      -0.33079399      -0.12676037      -0.37079665 </v>
   <v>      -0.33079399      -0.46009370      -0.37079665 </v>
   <v>       0.49451727      -0.29027274      -0.39352170 </v>
   <v>      -0.17214940      -0.29027274      -0.39352170 </v>
   <v>      -0.07022326      -0.19734517       0.19686089 </v>
   <v>      -0.40355659      -0.19734517       0.19686089 </v>
   <v>      -0.37639393      -0.16118393       0.39352170 </v>
   <v>      -0.29571943      -0.25602027      -0.15457223 </v>
   <v>      -0.20657296      -0.33587268       0.37079665 </v>
   <v>      -0.24206952      -0.20224939       0.16816581 </v>
  </varray>
 </structure>
 <varray name="primitive_index" >
  <v type="int" >        1 </v>
  <v type="int" >       28 </v>
  <v type="int" >       31 </v>
  <v type="int" >       56 </v>
  <v type="int" >       55 </v>
  <v type="int" >       82 </v>
  <v type="int" >       83 </v>
  <v type="int" >       86 </v>
  <v type="int" >       85 </v>
  <v type="int" >       37 </v>
  <v type="int" >       38 </v>
  <v type="int" >       73 </v>
  <v type="int" >       76 </v>
  <v type="int" >       91 </v>
  <v type="int" >        7 </v>
  <v type="int" >        2 </v>
  <v type="int" >        3 </v>
  <v type="int" >        4 </v>
  <v type="int" >       19 </v>
  <v type="int" >       22 </v>
  <v type="int" >       30 </v>
  <v type="int" >       32 </v>
  <v type="int" >       29 </v>
  <v type="int" >       33 </v>
  <v type="int" >       11 </v>
  <v type="int" >       14 </v>
  <v type="int" >       10 </v>
  <v type="int" >       13 </v>
  <v type="int" >       61 </v>
  <v type="int" >       62 </v>
  <v type="int" >       59 </v>
  <v type="int" >       58 </v>
  <v type="int" >       40 </v>
  <v type="int" >       41 </v>
  <v type="int" >       43 </v>
  <v type="int" >       64 </v>
  <v type="int" >       44 </v>
  <v type="int" >       74 </v>
  <v type="int" >       66 </v>
  <v type="int" >       77 </v>
  <v type="int" >       75 </v>
  <v type="int" >       78 </v>
  <v type="int" >       46 </v>
  <v type="int" >       52 </v>
  <v type="int" >       97 </v>
  <v type="int" >       92 </v>
  <v type="int" >       93 </v>
  <v type="int" >       94 </v>
  <v type="int" >        9 </v>
  <v type="int" >        8 </v>
  <v type="int" >        5 </v>
  <v type="int" >        6 </v>
  <v type="int" >       21 </v>
  <v type="int" >       23 </v>
  <v type="int" >       20 </v>
  <v type="int" >       24 </v>
  <v type="int" >       47 </v>
  <v type="int" >       34 </v>
  <v type="int" >       67 </v>
  <v type="int" >       57 </v>
  <v type="int" >       88 </v>
  <v type="int" >       87 </v>
  <v type="int" >       89 </v>
  <v type="int" >       84 </v>
  <v type="int" >       70 </v>
  <v type="int" >       39 </v>
  <v type="int" >       79 </v>
  <v type="int" >       72 </v>
  <v type="int" >       69 </v>
  <v type="int" >       54 </v>
  <v type="int" >       48 </v>
  <v type="int" >       99 </v>
  <v type="int" >       53 </v>
  <v type="int" >       98 </v>
  <v type="int" >       95 </v>
  <v type="int" >       96 </v>
  <v type="int" >       25 </v>
  <v type="int" >       49 </v>
  <v type="int" >       50 </v>
  <v type="int" >       36 </v>
  <v type="int" >       35 </v>
  <v type="int" >       15 </v>
  <v type="int" >       16 </v>
  <v type="int" >       12 </v>
  <v type="int" >       17 </v>
  <v type="int" >       65 </v>
  <v type="int" >       68 </v>
  <v type="int" >       63 </v>
  <v type="int" >       60 </v>
  <v type="int" >       45 </v>
  <v type="int" >       42 </v>
  <v type="int" >       80 </v>
  <v type="int" >       81 </v>
  <v type="int" >       27 </v>
  <v type="int" >       26 </v>
  <v type="int" >       71 </v>
  <v type="int" >       90 </v>
  <v type="int" >       51 </v>
  <v type="int" >       18 </v>
 </varray>
 <kpoints>
  <generation param="Gamma">
   <v type="int" name="divisions">       3        3        3 </v>
   <v name="usershift">      0.00000000       0.00000000       0.00000000 </v>
   <v name="genvec1">      0.33333333       0.00000000       0.00000000 </v>
   <v name="genvec2">      0.00000000       0.33333333       0.00000000 </v>
   <v name="genvec3">      0.00000000       0.00000000       0.33333333 </v>
   <v name="shift">      0.00000000       0.00000000       0.00000000 </v>
  </generation>
  <varray name="kpointlist" >
   <v>       0.00000000       0.00000000       0.00000000 </v>
   <v>       0.33333333      -0.00000000      -0.00000000 </v>
   <v>       0.00000000       0.33333333       0.00000000 </v>
   <v>       0.33333333       0.33333333       0.00000000 </v>
   <v>      -0.33333333       0.33333333       0.00000000 </v>
   <v>      -0.00000000      -0.00000000       0.33333333 </v>
   <v>       0.33333333      -0.00000000       0.33333333 </v>
   <v>      -0.33333333      -0.00000000       0.33333333 </v>
   <v>      -0.00000000       0.33333333       0.33333333 </v>
   <v>       0.33333333       0.33333333       0.33333333 </v>
   <v>      -0.33333333       0.33333333       0.33333333 </v>
   <v>      -0.00000000      -0.33333333       0.33333333 </v>
   <v>       0.33333333      -0.33333333       0.33333333 </v>
   <v>      -0.33333333      -0.33333333       0.33333333 </v>
  </varray>
  <varray name="weights" >
   <v>       0.03703704 </v>
   <v>       0.07407407 </v>
   <v>       0.07407407 </v>
   <v>       0.07407407 </v>
   <v>       0.07407407 </v>
   <v>       0.07407407 </v>
   <v>       0.07407407 </v>
   <v>       0.07407407 </v>
   <v>       0.07407407 </v>
   <v>       0.07407407 </v>
   <v>       0.07407407 </v>
   <v>       0.07407407 </v>
   <v>       0.07407407 </v>
   <v>       0.07407407 </v>
  </varray>
 </kpoints>
 <parameters>
  <separator name="general" >
   <i type="string" name="SYSTEM">unknown system</i>
   <i type="logical" name="LCOMPAT"> F  </i>
  </separator>
  <separator name="electronic" >
   <i type="string" name="PREC">accura</i>
   <i name="ENMAX">    650.00000000</i>
   <i name="ENAUG">    628.94500000</i>
   <i name="EDIFF">      0.00000100</i>
   <i type="int" name="IALGO">    38</i>
   <i type="int" name="IWAVPR">    10</i>
   <i type="int" name="NBANDS">   606</i>
   <i name="NELECT">    828.00000000</i>
   <i type="int" name="TURBO">     0</i>
   <i type="int" name="IRESTART">     0</i>
   <i type="int" name="NREBOOT">     0</i>
   <i type="int" name="NMIN">     0</i>
   <i name="EREF">      0.00000000</i>
   <separator name="electronic smearing" >
    <i type="int" name="ISMEAR">     0</i>
    <i name="SIGMA">      0.05000000</i>
    <i name="KSPACING">      0.50000000</i>
    <i type="logical" name="KGAMMA"> T  </i>
   </separator>
   <separator name="electronic projectors" >
    <i type="logical" name="LREAL"> F  </i>
    <v name="ROPT">      0.00000000      0.00000000      0.00000000      0.00000000</v>
    <i type="int" name="LMAXPAW">  -100</i>
    <i type="int" name="LMAXMIX">     4</i>
    <i type="logical" name="NLSPLINE"> F  </i>
   </separator>
   <separator name="electronic startup" >
    <i type="int" name="ISTART">     0</i>
    <i type="int" name="ICHARG">     1</i>
    <i type="int" name="INIWAV">     1</i>
   </separator>
   <separator name="electronic spin" >
    <i type="int" name="ISPIN">     2</i>
    <i type="logical" name="LNONCOLLINEAR"> F  </i>
    <v name="MAGMOM">      0.60000000      0.60000000      0.60000000      0.60000000      0.60000000      0.60000000      0.60000000      0.60000000      0.60000000      0.60000000      0.60000000      0.60000000      0.60000000      0.60000000      0.60000000      0.60000000      0.60000000      0.60000000      0.60000000      0.60000000
      0.60000000      0.60000000      0.60000000      0.60000000      0.60000000      0.60000000      0.60000000      0.60000000      0.60000000      0.60000000      0.60000000      0.60000000      0.60000000      0.60000000      0.60000000      0.60000000      0.60000000      0.60000000      0.60000000      0.60000000
      0.60000000      0.60000000      0.60000000      0.60000000      0.60000000      0.60000000      0.60000000      0.60000000      0.60000000      0.60000000      0.60000000      0.60000000      0.60000000      0.60000000      0.60000000      0.60000000      0.60000000      0.60000000      0.60000000      0.60000000
      0.60000000      0.60000000      0.60000000      5.00000000      5.00000000      5.00000000      5.00000000      5.00000000      5.00000000      5.00000000      5.00000000      5.00000000      5.00000000      5.00000000      5.00000000      5.00000000      5.00000000      5.00000000      5.00000000      5.00000000
      5.00000000      5.00000000      5.00000000      5.00000000      5.00000000      5.00000000      5.00000000      5.00000000      5.00000000      5.00000000      5.00000000      5.00000000      5.00000000      5.00000000      5.00000000      5.00000000      5.00000000      5.00000000      5.00000000</v>
    <i name="NUPDOWN">     -1.00000000</i>
    <i type="logical" name="LSORBIT"> F  </i>
    <v name="SAXIS">      0.00000000      0.00000000      1.00000000</v>
    <i type="logical" name="LSPIRAL"> F  </i>
    <v name="QSPIRAL">      0.00000000      0.00000000      0.00000000</v>
    <i type="logical" name="LZEROZ"> F  </i>
   </separator>
   <separator name="electronic exchange-correlation" >
    <i type="logical" name="LASPH"> T  </i>
    <i type="logical" name="LMETAGGA"> F  </i>
   </separator>
   <separator name="electronic convergence" >
    <i type="int" name="NELM">   200</i>
    <i type="int" name="NELMDL">     0</i>
    <i type="int" name="NELMIN">     8</i>
    <i name="ENINI">    650.00000000</i>
    <separator name="electronic convergence detail" >
     <i type="logical" name="LDIAG"> T  </i>
     <i type="logical" name="LSUBROT"> F  </i>
     <i name="WEIMIN">      0.00000000</i>
     <i name="EBREAK">      0.00000000</i>
     <i name="DEPER">      0.30000000</i>
     <i type="int" name="NRMM">     4</i>
     <i name="TIME">      0.40000000</i>
    </separator>
   </separator>
   <separator name="electronic mixer" >
    <i name="AMIX">      0.40000000</i>
    <i name="BMIX">      1.00000000</i>
    <i name="AMIN">      0.10000000</i>
    <i name="AMIX_MAG">      1.60000000</i>
    <i name="BMIX_MAG">      1.00000000</i>
    <separator name="electronic mixer details" >
     <i type="int" name="IMIX">     4</i>
     <i type="logical" name="MIXFIRST"> F  </i>
     <i type="int" name="MAXMIX">   -45</i>
     <i name="WC">    100.00000000</i>
     <i type="int" name="INIMIX">     1</i>
     <i type="int" name="MIXPRE">     1</i>
     <i type="int" name="MREMOVE">     5</i>
    </separator>
   </separator>
   <separator name="electronic dipolcorrection" >
    <i type="logical" name="LDIPOL"> F  </i>
    <i type="logical" name="LMONO"> F  </i>
    <i type="int" name="IDIPOL">     0</i>
    <i name="EPSILON">      1.00000000</i>
    <v name="DIPOL">   -100.00000000   -100.00000000   -100.00000000</v>
    <i name="EFIELD">      0.00000000</i>
   </separator>
  </separator>
  <separator name="grids" >
   <i type="int" name="NGX">    98</i>
   <i type="int" name="NGY">    98</i>
   <i type="int" name="NGZ">    90</i>
   <i type="int" name="NGXF">   196</i>
   <i type="int" name="NGYF">   196</i>
   <i type="int" name="NGZF">   180</i>
   <i type="logical" name="ADDGRID"> T  </i>
  </separator>
  <separator name="ionic" >
   <i type="int" name="NSW">     0</i>
   <i type="int" name="IBRION">    -1</i>
   <i type="int" name="MDALGO">     0</i>
   <i type="int" name="ISIF">     2</i>
   <i name="PSTRESS">      0.00000000</i>
   <i name="EDIFFG">      0.00001000</i>
   <i type="int" name="NFREE">     0</i>
   <i name="POTIM">      0.50000000</i>
   <i name="SMASS">     -3.00000000</i>
   <i name="SCALEE">      1.00000000</i>
  </separator>
  <separator name="ionic md" >
   <i name="TEBEG">      0.00010000</i>
   <i name="TEEND">      0.00010000</i>
   <i type="int" name="NBLOCK">     1</i>
   <i type="int" name="KBLOCK">     1</i>
   <i type="int" name="NPACO">   256</i>
   <i name="APACO">     16.00000000</i>
  </separator>
  <separator name="symmetry" >
   <i type="int" name="ISYM">     0</i>
   <i name="SYMPREC">      0.00001000</i>
  </separator>
  <separator name="dos" >
   <i type="int" name="LORBIT">     0</i>
   <v name="RWIGS">     -1.00000000     -1.00000000     -1.00000000     -1.00000000</v>
   <i type="int" name="NEDOS">   301</i>
   <i name="EMIN">     10.00000000</i>
   <i name="EMAX">    -10.00000000</i>
   <i name="EFERMI">      0.00000000</i>
  </separator>
  <separator name="writing" >
   <i type="int" name="NWRITE">     1</i>
   <i type="logical" name="LWAVE"> F  </i>
   <i type="logical" name="LDOWNSAMPLE"> F  </i>
   <i type="logical" name="LCHARG"> T  </i>
   <i type="logical" name="LPARD"> F  </i>
   <i type="logical" name="LVTOT"> F  </i>
   <i type="logical" name="LVHAR"> F  </i>
   <i type="logical" name="LELF"> F  </i>
   <i type="logical" name="LOPTICS"> F  </i>
   <v name="STM">      0.00000000      0.00000000      0.00000000      0.00000000      0.00000000      0.00000000      0.00000000</v>
  </separator>
  <separator name="performance" >
   <i type="int" name="NPAR">     2</i>
   <i type="int" name="NSIM">     4</i>
   <i type="int" name="NBLK">    -1</i>
   <i type="logical" name="LPLANE"> T  </i>
   <i type="logical" name="LSCALAPACK"> T  </i>
   <i type="logical" name="LSCAAWARE"> F  </i>
   <i type="logical" name="LSCALU"> F  </i>
   <i type="logical" name="LASYNC"> F  </i>
   <i type="logical" name="LORBITALREAL"> F  </i>
  </separator>
  <separator name="miscellaneous" >
   <i type="int" name="IDIOT">     3</i>
   <i type="int" name="ISPECIAL">     0</i>
   <i type="logical" name="LMUSIC"> F  </i>
   <v name="POMASS">      7.01000000     16.00000000     32.06600000     55.84700000</v>
   <v name="DARWINR">      0.00000000      0.00000000      0.00000000      0.00000000</v>
   <v name="DARWINV">      1.00000000      1.00000000      1.00000000      1.00000000</v>
   <i type="logical" name="LCORR"> T  </i>
  </separator>
  <i type="logical" name="GGA_COMPAT"> T  </i>
  <i type="logical" name="LBERRY"> F  </i>
  <i type="int" name="ICORELEVEL">     0</i>
  <i type="logical" name="LDAU"> T  </i>
  <v type="int" name="LDAUTYPE">     2</v>
  <v type="int" name="LDAUL">    -1</v>
  <v name="LDAUU">      0.00000000</v>
  <v name="LDAUJ">      0.00000000</v>
  <i type="int" name="LDAUPRINT">     0</i>
  <i type="int" name="I_CONSTRAINED_M">     0</i>
  <separator name="electronic exchange-correlation" >
   <i type="string" name="GGA">PE</i>
   <i type="int" name="VOSKOWN">     0</i>
   <i type="logical" name="LHFCALC"> F  </i>
   <i type="string" name="PRECFOCK"></i>
   <i type="logical" name="LSYMGRAD"> F  </i>
   <i type="logical" name="LHFONE"> F  </i>
   <i type="logical" name="LRHFCALC"> F  </i>
   <i type="logical" name="LTHOMAS"> F  </i>
   <i type="logical" name="LMODELHF"> F  </i>
   <i name="ENCUT4O">     -1.00000000</i>
   <i type="int" name="EXXOEP">     0</i>
   <i type="int" name="FOURORBIT">     0</i>
   <i name="AEXX">      0.00000000</i>
   <i name="HFALPHA">      0.00000000</i>
   <i name="MCALPHA">      0.00000000</i>
   <i name="ALDAX">      1.00000000</i>
   <i name="AGGAX">      1.00000000</i>
   <i name="ALDAC">      1.00000000</i>
   <i name="AGGAC">      1.00000000</i>
   <i type="int" name="NKREDX">     1</i>
   <i type="int" name="NKREDY">     1</i>
   <i type="int" name="NKREDZ">     1</i>
   <i type="logical" name="SHIFTRED"> F  </i>
   <i type="logical" name="ODDONLY"> F  </i>
   <i type="logical" name="EVENONLY"> F  </i>
   <i type="int" name="LMAXFOCK">     0</i>
   <i type="int" name="NMAXFOCKAE">     0</i>
   <i type="logical" name="LFOCKAEDFT"> F  </i>
   <i name="HFSCREEN">      0.00000000</i>
   <i name="HFSCREENC">      0.00000000</i>
   <i type="int" name="NBANDSGWLOW">     0</i>
  </separator>
  <separator name="vdW DFT" >
   <i type="logical" name="LUSE_VDW"> F  </i>
   <i name="Zab_VDW">     -0.84910000</i>
   <i name="PARAM1">      0.12340000</i>
   <i name="PARAM2">      1.00000000</i>
   <i name="PARAM3">      0.00000000</i>
  </separator>
  <separator name="model GW" >
   <i type="int" name="MODEL_GW">     0</i>
   <i name="MODEL_EPS0">      8.58245767</i>
   <i name="MODEL_ALPHA">      1.00000000</i>
  </separator>
  <separator name="linear response parameters" >
   <i type="logical" name="LEPSILON"> F  </i>
   <i type="logical" name="LRPA"> F  </i>
   <i type="logical" name="LNABLA"> F  </i>
   <i type="logical" name="LVEL"> F  </i>
   <i type="int" name="KINTER">     0</i>
   <i name="CSHIFT">      0.10000000</i>
   <i name="OMEGAMAX">     -1.00000000</i>
   <i name="DEG_THRESHOLD">      0.00200000</i>
   <i name="RTIME">     -0.10000000</i>
   <i name="WPLASMAI">      0.00000000</i>
   <v name="DFIELD">      0.00000000      0.00000000      0.00000000</v>
   <v name="WPLASMA">      0.00000000      0.00000000      0.00000000      0.00000000      0.00000000      0.00000000      0.00000000      0.00000000      0.00000000</v>
  </separator>
  <separator name="orbital magnetization" >
   <i type="logical" name="NUCIND"> F  </i>
   <v name="MAGPOS">      0.00000000      0.00000000      0.00000000</v>
   <i type="logical" name="LNICSALL"> T  </i>
   <i type="logical" name="ORBITALMAG"> F  </i>
   <i type="logical" name="LMAGBLOCH"> F  </i>
   <i type="logical" name="LCHIMAG"> F  </i>
   <i type="logical" name="LGAUGE"> T  </i>
   <i type="int" name="MAGATOM">     0</i>
   <v name="MAGDIPOL">      0.00000000      0.00000000      0.00000000</v>
   <v name="AVECCONST">      0.00000000      0.00000000      0.00000000</v>
  </separator>
  <separator name="response functions" >
   <i type="logical" name="LADDER"> F  </i>
   <i type="logical" name="LRPAFORCE"> F  </i>
   <i type="logical" name="LFXC"> F  </i>
   <i type="logical" name="LHARTREE"> T  </i>
   <i type="int" name="IBSE">     0</i>
   <v type="int" name="KPOINT">    -1     0     0     0</v>
   <i type="logical" name="LTCTE"> F  </i>
   <i type="logical" name="LTETE"> F  </i>
   <i type="logical" name="LTRIPLET"> F  </i>
   <i type="logical" name="LFXCEPS"> F  </i>
   <i type="logical" name="LFXHEG"> F  </i>
   <i type="int" name="NATURALO">     2</i>
   <i type="logical" name="L2ORDER"> F  </i>
   <i type="logical" name="LMP2LT"> F  </i>
   <i type="logical" name="LUSEW"> F  </i>
   <i name="ENCUTGW">     -2.00000000</i>
   <i name="ENCUTGWSOFT">     -2.00000000</i>
   <i name="ENCUTLF">     -1.00000000</i>
   <i type="int" name="LMAXMP2">    -1</i>
   <i name="SCISSOR">      0.00000000</i>
   <i type="int" name="NOMEGA">     0</i>
   <i type="int" name="NOMEGAR">     0</i>
   <i type="int" name="NBANDSGW">    -1</i>
   <i type="int" name="NBANDSO">    -1</i>
   <i type="int" name="NBANDSV">    -1</i>
   <i type="int" name="NELM">   200</i>
   <i type="int" name="NELMHF">     1</i>
   <i type="int" name="DIM">     3</i>
   <i type="int" name="ANTIRES">     0</i>
   <i name="OMEGAMAX">    -30.00000000</i>
   <i name="OMEGAMIN">    -30.00000000</i>
   <i name="OMEGATL">   -200.00000000</i>
   <i type="int" name="OMEGAGRID">   140</i>
   <i name="CSHIFT">     -0.10000000</i>
   <i type="logical" name="SELFENERGY"> F  </i>
   <i type="logical" name="LSPECTRAL"> F  </i>
   <i type="logical" name="LSPECTRALGW"> F  </i>
   <i type="logical" name="LSINGLES"> F  </i>
   <i type="logical" name="LFERMIGW"> F  </i>
   <i type="logical" name="ODDONLYGW"> F  </i>
   <i type="logical" name="EVENONLYGW"> F  </i>
   <i type="int" name="NKREDLFX">     1</i>
   <i type="int" name="NKREDLFY">     1</i>
   <i type="int" name="NKREDLFZ">     1</i>
   <i type="int" name="MAXMEM">  2800</i>
   <i type="int" name="TELESCOPE">     0</i>
   <i type="int" name="TAUPAR">     1</i>
   <i type="int" name="OMEGAPAR">    -1</i>
   <i name="LAMBDA">      1.00000000</i>
  </separator>
  <separator name="External order field" >
   <i name="OFIELD_KAPPA">      0.00000000</i>
   <v name="OFIELD_K">      0.00000000      0.00000000      0.00000000</v>
   <i name="OFIELD_Q6_NEAR">      0.00000000</i>
   <i name="OFIELD_Q6_FAR">      0.00000000</i>
   <i name="OFIELD_A">      0.00000000</i>
  </separator>
 </parameters>
 <atominfo>
  <atoms>      99 </atoms>
  <types>       4 </types>
  <array name="atoms" >
   <dimension dim="1">ion</dimension>
   <field type="string">element</field>
   <field type="int">atomtype</field>
   <set>
    <rc><c>Li</c><c>   1</c></rc>
    <rc><c>Li</c><c>   1</c></rc>
    <rc><c>Li</c><c>   1</c></rc>
    <rc><c>Li</c><c>   1</c></rc>
    <rc><c>Li</c><c>   1</c></rc>
    <rc><c>Li</c><c>   1</c></rc>
    <rc><c>Li</c><c>   1</c></rc>
    <rc><c>Li</c><c>   1</c></rc>
    <rc><c>Li</c><c>   1</c></rc>
    <rc><c>Li</c><c>   1</c></rc>
    <rc><c>Li</c><c>   1</c></rc>
    <rc><c>Li</c><c>   1</c></rc>
    <rc><c>Li</c><c>   1</c></rc>
    <rc><c>Li</c><c>   1</c></rc>
    <rc><c>Li</c><c>   1</c></rc>
    <rc><c>Li</c><c>   1</c></rc>
    <rc><c>Li</c><c>   1</c></rc>
    <rc><c>Li</c><c>   1</c></rc>
    <rc><c>O </c><c>   2</c></rc>
    <rc><c>O </c><c>   2</c></rc>
    <rc><c>O </c><c>   2</c></rc>
    <rc><c>O </c><c>   2</c></rc>
    <rc><c>O </c><c>   2</c></rc>
    <rc><c>O </c><c>   2</c></rc>
    <rc><c>O </c><c>   2</c></rc>
    <rc><c>O </c><c>   2</c></rc>
    <rc><c>O </c><c>   2</c></rc>
    <rc><c>O </c><c>   2</c></rc>
    <rc><c>O </c><c>   2</c></rc>
    <rc><c>O </c><c>   2</c></rc>
    <rc><c>O </c><c>   2</c></rc>
    <rc><c>O </c><c>   2</c></rc>
    <rc><c>O </c><c>   2</c></rc>
    <rc><c>O </c><c>   2</c></rc>
    <rc><c>O </c><c>   2</c></rc>
    <rc><c>O </c><c>   2</c></rc>
    <rc><c>S </c><c>   3</c></rc>
    <rc><c>S </c><c>   3</c></rc>
    <rc><c>S </c><c>   3</c></rc>
    <rc><c>S </c><c>   3</c></rc>
    <rc><c>S </c><c>   3</c></rc>
    <rc><c>S </c><c>   3</c></rc>
    <rc><c>S </c><c>   3</c></rc>
    <rc><c>S </c><c>   3</c></rc>
    <rc><c>S </c><c>   3</c></rc>
    <rc><c>S </c><c>   3</c></rc>
    <rc><c>S </c><c>   3</c></rc>
    <rc><c>S </c><c>   3</c></rc>
    <rc><c>S </c><c>   3</c></rc>
    <rc><c>S </c><c>   3</c></rc>
    <rc><c>S </c><c>   3</c></rc>
    <rc><c>S </c><c>   3</c></rc>
    <rc><c>S </c><c>   3</c></rc>
    <rc><c>S </c><c>   3</c></rc>
    <rc><c>S </c><c>   3</c></rc>
    <rc><c>S </c><c>   3</c></rc>
    <rc><c>S </c><c>   3</c></rc>
    <rc><c>S </c><c>   3</c></rc>
    <rc><c>S </c><c>   3</c></rc>
    <rc><c>S </c><c>   3</c></rc>
    <rc><c>S </c><c>   3</c></rc>
    <rc><c>S </c><c>   3</c></rc>
    <rc><c>S </c><c>   3</c></rc>
    <rc><c>Fe</c><c>   4</c></rc>
    <rc><c>Fe</c><c>   4</c></rc>
    <rc><c>Fe</c><c>   4</c></rc>
    <rc><c>Fe</c><c>   4</c></rc>
    <rc><c>Fe</c><c>   4</c></rc>
    <rc><c>Fe</c><c>   4</c></rc>
    <rc><c>Fe</c><c>   4</c></rc>
    <rc><c>Fe</c><c>   4</c></rc>
    <rc><c>Fe</c><c>   4</c></rc>
    <rc><c>Fe</c><c>   4</c></rc>
    <rc><c>Fe</c><c>   4</c></rc>
    <rc><c>Fe</c><c>   4</c></rc>
    <rc><c>Fe</c><c>   4</c></rc>
    <rc><c>Fe</c><c>   4</c></rc>
    <rc><c>Fe</c><c>   4</c></rc>
    <rc><c>Fe</c><c>   4</c></rc>
    <rc><c>Fe</c><c>   4</c></rc>
    <rc><c>Fe</c><c>   4</c></rc>
    <rc><c>Fe</c><c>   4</c></rc>
    <rc><c>Fe</c><c>   4</c></rc>
    <rc><c>Fe</c><c>   4</c></rc>
    <rc><c>Fe</c><c>   4</c></rc>
    <rc><c>Fe</c><c>   4</c></rc>
    <rc><c>Fe</c><c>   4</c></rc>
    <rc><c>Fe</c><c>   4</c></rc>
    <rc><c>Fe</c><c>   4</c></rc>
    <rc><c>Fe</c><c>   4</c></rc>
    <rc><c>Fe</c><c>   4</c></rc>
    <rc><c>Fe</c><c>   4</c></rc>
    <rc><c>Fe</c><c>   4</c></rc>
    <rc><c>Fe</c><c>   4</c></rc>
    <rc><c>Fe</c><c>   4</c></rc>
    <rc><c>Fe</c><c>   4</c></rc>
    <rc><c>Fe</c><c>   4</c></rc>
    <rc><c>Fe</c><c>   4</c></rc>
    <rc><c>Fe</c><c>   4</c></rc>
   </set>
  </array>
  <array name="atomtypes" >
   <dimension dim="1">type</dimension>
   <field type="int">atomspertype</field>
   <field type="string">element</field>
   <field>mass</field>
   <field>valence</field>
   <field type="string">pseudopotential</field>
   <set>
    <rc><c>  18</c><c>Li</c><c>      7.01000000</c><c>      3.00000000</c><c>  PAW_PBE Li_sv 10Sep2004               </c></rc>
    <rc><c>  18</c><c>O </c><c>     16.00000000</c><c>      6.00000000</c><c>  PAW_PBE O 08Apr2002                   </c></rc>
    <rc><c>  27</c><c>S </c><c>     32.06600000</c><c>      6.00000000</c><c>  PAW_PBE S 06Sep2000                   </c></rc>
    <rc><c>  36</c><c>Fe</c><c>     55.84700000</c><c>     14.00000000</c><c>  PAW_PBE Fe_pv 02Aug2007               </c></rc>
   </set>
  </array>
 </atominfo>
 <structure name="initialpos" >
  <crystal>
   <varray name="basis" >
    <v>      11.77726974       0.00848871       0.06923316 </v>
    <v>      -0.03028248      11.77723386       0.06923316 </v>
    <v>      -2.02000231      -2.02666320      10.18574622 </v>
   </varray>
   <i name="volume">   1416.10551572 </i>
   <varray name="rec_basis" >
    <v>       0.08481023       0.00011906       0.01684296 </v>
    <v>      -0.00016014       0.08481016       0.01684296 </v>
    <v>      -0.00057537      -0.00057727       0.09794744 </v>
   </varray>
  </crystal>
  <varray name="positions" >
   <v>       0.20224939       0.24122044       0.83183419 </v>
   <v>       0.53558272       0.24206952       0.83183419 </v>
   <v>       0.86891606       0.24206952       0.83183419 </v>
   <v>       0.20224939       0.57540285       0.83183419 </v>
   <v>       0.53558272       0.57540285       0.83183419 </v>
   <v>       0.86891606       0.57540285       0.83183419 </v>
   <v>       0.20224939       0.90873619       0.83183419 </v>
   <v>       0.53558272       0.90873619       0.83183419 </v>
   <v>       0.86891606       0.90873619       0.83183419 </v>
   <v>       0.09126381       0.13108394       0.16816581 </v>
   <v>       0.42459715       0.13108394       0.16816581 </v>
   <v>       0.75793048       0.13108394       0.16816581 </v>
   <v>       0.09126381       0.46441728       0.16816581 </v>
   <v>       0.42459715       0.46441728       0.16816581 </v>
   <v>       0.75793048       0.46441728       0.16816581 </v>
   <v>       0.09126381       0.79775061       0.16816581 </v>
   <v>       0.42459715       0.79775061       0.16816581 </v>
   <v>       0.75793048       0.79775061       0.16816581 </v>
   <v>       0.26311007       0.13598816       0.19686089 </v>
   <v>       0.59644341       0.13598816       0.19686089 </v>
   <v>       0.92977674       0.13598816       0.19686089 </v>
   <v>       0.26311007       0.46932149       0.19686089 </v>
   <v>       0.59644341       0.46932149       0.19686089 </v>
   <v>       0.92977674       0.46932149       0.19686089 </v>
   <v>       0.26311007       0.80265483       0.19686089 </v>
   <v>       0.59644341       0.80265483       0.19686089 </v>
   <v>       0.92977674       0.80265483       0.19686089 </v>
   <v>       0.19734517       0.07022326       0.80313911 </v>
   <v>       0.53067851       0.07022326       0.80313911 </v>
   <v>       0.86401184       0.07022326       0.80313911 </v>
   <v>       0.19734517       0.40355659       0.80313911 </v>
   <v>       0.53067851       0.40355659       0.80313911 </v>
   <v>       0.86401184       0.40355659       0.80313911 </v>
   <v>       0.19734517       0.73688993       0.80313911 </v>
   <v>       0.53067851       0.73688993       0.80313911 </v>
   <v>       0.86401184       0.73688993       0.80313911 </v>
   <v>       0.00253935       0.20657296       0.62920335 </v>
   <v>       0.33587268       0.20657296       0.62920335 </v>
   <v>       0.66920601       0.20657296       0.62920335 </v>
   <v>       0.00253935       0.53990630       0.62920335 </v>
   <v>       0.33587268       0.53990630       0.62920335 </v>
   <v>       0.66920601       0.53990630       0.62920335 </v>
   <v>       0.00253935       0.87323963       0.62920335 </v>
   <v>       0.33587268       0.87323963       0.62920335 </v>
   <v>       0.66920601       0.87323963       0.62920335 </v>
   <v>       0.12676037       0.33079399       0.37079665 </v>
   <v>       0.46009370       0.33079399       0.37079665 </v>
   <v>       0.79342704       0.33079399       0.37079665 </v>
   <v>       0.12676037       0.66412732       0.37079665 </v>
   <v>       0.46009370       0.66412732       0.37079665 </v>
   <v>       0.79342704       0.66412732       0.37079665 </v>
   <v>       0.12676037       0.99746065       0.37079665 </v>
   <v>       0.46009370       0.99746065       0.37079665 </v>
   <v>       0.79342704       0.99746065       0.37079665 </v>
   <v>       0.06350899       0.26982435       0.00000000 </v>
   <v>       0.39684232       0.26982435       0.00000000 </v>
   <v>       0.73017565       0.26982435       0.00000000 </v>
   <v>       0.06350899       0.60315768       0.00000000 </v>
   <v>       0.39684232       0.60315768       0.00000000 </v>
   <v>       0.73017565       0.60315768       0.00000000 </v>
   <v>       0.06350899       0.93649101       0.00000000 </v>
   <v>       0.39684232       0.93649101       0.00000000 </v>
   <v>       0.73017565       0.93649101       0.00000000 </v>
   <v>       0.29027274       0.17214940       0.39352170 </v>
   <v>       0.62360607       0.17214940       0.39352170 </v>
   <v>       0.95693941       0.17214940       0.39352170 </v>
   <v>       0.29027274       0.50548273       0.39352170 </v>
   <v>       0.62360607       0.50548273       0.39352170 </v>
   <v>       0.95693941       0.50548273       0.39352170 </v>
   <v>       0.29027274       0.83881607       0.39352170 </v>
   <v>       0.62360607       0.83881607       0.39352170 </v>
   <v>       0.95693941       0.83881607       0.39352170 </v>
   <v>       0.16118393       0.04306059       0.60647830 </v>
   <v>       0.49451727       0.04306059       0.60647830 </v>
   <v>       0.82785060       0.04306059       0.60647830 </v>
   <v>       0.16118393       0.37639393       0.60647830 </v>
   <v>       0.49451727       0.37639393       0.60647830 </v>
   <v>       0.82785060       0.37639393       0.60647830 </v>
   <v>       0.16118393       0.70972726       0.60647830 </v>
   <v>       0.49451727       0.70972726       0.60647830 </v>
   <v>       0.82785060       0.70972726       0.60647830 </v>
   <v>       0.03761391       0.07731307       0.84542777 </v>
   <v>       0.37094724       0.07731307       0.84542777 </v>
   <v>       0.70428057       0.07731307       0.84542777 </v>
   <v>       0.03761391       0.41064640       0.84542777 </v>
   <v>       0.37094724       0.41064640       0.84542777 </v>
   <v>       0.70428057       0.41064640       0.84542777 </v>
   <v>       0.03761391       0.74397973       0.84542777 </v>
   <v>       0.37094724       0.74397973       0.84542777 </v>
   <v>       0.70428057       0.74397973       0.84542777 </v>
   <v>       0.25602027       0.29571943       0.15457223 </v>
   <v>       0.58935360       0.29571943       0.15457223 </v>
   <v>       0.92268693       0.29571943       0.15457223 </v>
   <v>       0.25602027       0.62905276       0.15457223 </v>
   <v>       0.58935360       0.62905276       0.15457223 </v>
   <v>       0.92268693       0.62905276       0.15457223 </v>
   <v>       0.25602027       0.96238609       0.15457223 </v>
   <v>       0.58935360       0.96238609       0.15457223 </v>
   <v>       0.92268693       0.96238609       0.15457223 </v>
  </varray>
 </structure>
 <calculation>
  <scstep>
   <time name="dav">  438.99  443.77</time>
   <time name="total">  442.62  447.51</time>
   <energy>
    <i name="alphaZ">   2606.24521607 </i>
    <i name="ewald"> -65007.69344606 </i>
    <i name="hartreedc"> -34081.91809862 </i>
    <i name="XCdc">   3632.83670001 </i>
    <i name="pawpsdc"> 104149.30743192 </i>
    <i name="pawaedc">-107360.85880398 </i>
    <i name="eentropy">     -0.01715153 </i>
    <i name="bandstr">    394.17272340 </i>
    <i name="atom"> 107373.91467324 </i>
    <i name="e_fr_energy">  11705.98924446 </i>
    <i name="e_wo_entrp">  11706.00639599 </i>
    <i name="e_0_energy">  11705.99782023 </i>
   </energy>
  </scstep>
  <scstep>
   <time name="dav">  429.52  434.29</time>
   <time name="total">  429.53  434.30</time>
   <energy>
    <i name="e_fr_energy">   1328.70783569 </i>
    <i name="e_wo_entrp">   1328.77536507 </i>
    <i name="e_0_energy">   1328.74160038 </i>
   </energy>
  </scstep>
  <scstep>
   <time name="dav">  452.62  457.39</time>
   <time name="total">  452.62  457.39</time>
   <energy>
    <i name="e_fr_energy">   -345.48707999 </i>
    <i name="e_wo_entrp">   -345.48707999 </i>
    <i name="e_0_energy">   -345.48707999 </i>
   </energy>
  </scstep>
  <scstep>
   <time name="dav">  487.90  493.65</time>
   <time name="total">  487.91  493.65</time>
   <energy>
    <i name="e_fr_energy">   -535.88194969 </i>
    <i name="e_wo_entrp">   -535.88194969 </i>
    <i name="e_0_energy">   -535.88194969 </i>
   </energy>
  </scstep>
  <scstep>
   <time name="dav">  634.57  640.60</time>
   <time name="total">  647.11  653.17</time>
   <energy>
    <i name="e_fr_energy">   -549.79293690 </i>
    <i name="e_wo_entrp">   -549.79293690 </i>
    <i name="e_0_energy">   -549.79293690 </i>
   </energy>
  </scstep>
  <scstep>
   <time name="dav">  568.99  575.49</time>
   <time name="total">  584.85  591.48</time>
   <energy>
    <i name="e_fr_energy">   -550.32288318 </i>
    <i name="e_wo_entrp">   -550.32288318 </i>
    <i name="e_0_energy">   -550.32288318 </i>
   </energy>
  </scstep>
  <scstep>
   <time name="dav">  606.59  612.93</time>
   <time name="total">  622.49  628.91</time>
   <energy>
    <i name="e_fr_energy">   -550.34115477 </i>
    <i name="e_wo_entrp">   -550.34115477 </i>
    <i name="e_0_energy">   -550.34115477 </i>
   </energy>
  </scstep>
  <scstep>
   <time name="dav">  570.72  576.46</time>
   <time name="total">  586.51  592.41</time>
   <energy>
    <i name="e_fr_energy">   -550.34064710 </i>
    <i name="e_wo_entrp">   -550.34064710 </i>
    <i name="e_0_energy">   -550.34064710 </i>
   </energy>
  </scstep>
  <scstep>
   <time name="dav">  612.38  618.79</time>
   <time name="total">  628.41  635.33</time>
   <energy>
    <i name="e_fr_energy">   -550.34030201 </i>
    <i name="e_wo_entrp">   -550.34030201 </i>
    <i name="e_0_energy">   -550.34030201 </i>
   </energy>
  </scstep>
  <scstep>
   <time name="dav">  566.35  571.48</time>
   <time name="total">  582.27  587.71</time>
   <energy>
    <i name="e_fr_energy">   -550.33984912 </i>
    <i name="e_wo_entrp">   -550.33984912 </i>
    <i name="e_0_energy">   -550.33984912 </i>
   </energy>
  </scstep>
  <scstep>
   <time name="dav">  584.99  591.31</time>
   <time name="total">  600.74  607.15</time>
   <energy>
    <i name="e_fr_energy">   -550.33912192 </i>
    <i name="e_wo_entrp">   -550.33912192 </i>
    <i name="e_0_energy">   -550.33912192 </i>
   </energy>
  </scstep>
  <scstep>
   <time name="dav">  505.29  510.84</time>
   <time name="total">  520.98  526.58</time>
   <energy>
    <i name="e_fr_energy">   -550.33904045 </i>
    <i name="e_wo_entrp">   -550.33904045 </i>
    <i name="e_0_energy">   -550.33904045 </i>
   </energy>
  </scstep>
  <scstep>
   <time name="dav">  532.84  538.30</time>
   <time name="total">  548.54  554.09</time>
   <energy>
    <i name="e_fr_energy">   -550.33904704 </i>
    <i name="e_wo_entrp">   -550.33904704 </i>
    <i name="e_0_energy">   -550.33904704 </i>
   </energy>
  </scstep>
  <scstep>
   <time name="dav">  346.33  349.96</time>
   <time name="total">  361.97  365.69</time>
   <energy>
    <i name="e_fr_energy">   -550.33905106 </i>
    <i name="e_wo_entrp">   -550.33905106 </i>
    <i name="e_0_energy">   -550.33905106 </i>
   </energy>
  </scstep>
  <scstep>
   <time name="dav">  499.82  504.61</time>
   <time name="total">  515.64  520.65</time>
   <energy>
    <i name="e_fr_energy">   -550.33898354 </i>
    <i name="e_wo_entrp">   -550.33898354 </i>
    <i name="e_0_energy">   -550.33898354 </i>
   </energy>
  </scstep>
  <scstep>
   <time name="dav">  443.64  447.98</time>
   <time name="total">  459.43  464.20</time>
   <energy>
    <i name="e_fr_energy">   -550.33897159 </i>
    <i name="e_wo_entrp">   -550.33897159 </i>
    <i name="e_0_energy">   -550.33897159 </i>
   </energy>
  </scstep>
  <scstep>
   <time name="dav">  473.53  478.69</time>
   <time name="total">  477.20  482.39</time>
   <energy>
    <i name="alphaZ">   2606.24521607 </i>
    <i name="ewald"> -65007.69344606 </i>
    <i name="hartreedc"> -34081.89194891 </i>
    <i name="XCdc">   3632.83361933 </i>
    <i name="pawpsdc"> 104147.85964170 </i>
    <i name="pawaedc">-107359.39774186 </i>
    <i name="eentropy">     -0.00000000 </i>
    <i name="bandstr"> -11862.20898514 </i>
    <i name="atom"> 107373.91467324 </i>
    <i name="e_fr_energy">   -550.33897162 </i>
    <i name="e_wo_entrp">   -550.33897162 </i>
    <i name="e_0_energy">   -550.33897162 </i>
   </energy>
  </scstep>
  <structure>
   <crystal>
    <varray name="basis" >
     <v>      11.77726974       0.00848871       0.06923316 </v>
     <v>      -0.03028248      11.77723386       0.06923316 </v>
     <v>      -2.02000231      -2.02666320      10.18574622 </v>
    </varray>
    <i name="volume">   1416.10551572 </i>
    <varray name="rec_basis" >
     <v>       0.08481023       0.00011906       0.01684296 </v>
     <v>      -0.00016014       0.08481016       0.01684296 </v>
     <v>      -0.00057537      -0.00057727       0.09794744 </v>
    </varray>
   </crystal>
   <varray name="positions" >
    <v>       0.20224939       0.24122044       0.83183419 </v>
    <v>       0.53558272       0.24206952       0.83183419 </v>
    <v>       0.86891606       0.24206952       0.83183419 </v>
    <v>       0.20224939       0.57540285       0.83183419 </v>
    <v>       0.53558272       0.57540285       0.83183419 </v>
    <v>       0.86891606       0.57540285       0.83183419 </v>
    <v>       0.20224939       0.90873619       0.83183419 </v>
    <v>       0.53558272       0.90873619       0.83183419 </v>
    <v>       0.86891606       0.90873619       0.83183419 </v>
    <v>       0.09126381       0.13108394       0.16816581 </v>
    <v>       0.42459715       0.13108394       0.16816581 </v>
    <v>       0.75793048       0.13108394       0.16816581 </v>
    <v>       0.09126381       0.46441728       0.16816581 </v>
    <v>       0.42459715       0.46441728       0.16816581 </v>
    <v>       0.75793048       0.46441728       0.16816581 </v>
    <v>       0.09126381       0.79775061       0.16816581 </v>
    <v>       0.42459715       0.79775061       0.16816581 </v>
    <v>       0.75793048       0.79775061       0.16816581 </v>
    <v>       0.26311007       0.13598816       0.19686089 </v>
    <v>       0.59644341       0.13598816       0.19686089 </v>
    <v>       0.92977674       0.13598816       0.19686089 </v>
    <v>       0.26311007       0.46932149       0.19686089 </v>
    <v>       0.59644341       0.46932149       0.19686089 </v>
    <v>       0.92977674       0.46932149       0.19686089 </v>
    <v>       0.26311007       0.80265483       0.19686089 </v>
    <v>       0.59644341       0.80265483       0.19686089 </v>
    <v>       0.92977674       0.80265483       0.19686089 </v>
    <v>       0.19734517       0.07022326       0.80313911 </v>
    <v>       0.53067851       0.07022326       0.80313911 </v>
    <v>       0.86401184       0.07022326       0.80313911 </v>
    <v>       0.19734517       0.40355659       0.80313911 </v>
    <v>       0.53067851       0.40355659       0.80313911 </v>
    <v>       0.86401184       0.40355659       0.80313911 </v>
    <v>       0.19734517       0.73688993       0.80313911 </v>
    <v>       0.53067851       0.73688993       0.80313911 </v>
    <v>       0.86401184       0.73688993       0.80313911 </v>
    <v>       0.00253935       0.20657296       0.62920335 </v>
    <v>       0.33587268       0.20657296       0.62920335 </v>
    <v>       0.66920601       0.20657296       0.62920335 </v>
    <v>       0.00253935       0.53990630       0.62920335 </v>
    <v>       0.33587268       0.53990630       0.62920335 </v>
    <v>       0.66920601       0.53990630       0.62920335 </v>
    <v>       0.00253935       0.87323963       0.62920335 </v>
    <v>       0.33587268       0.87323963       0.62920335 </v>
    <v>       0.66920601       0.87323963       0.62920335 </v>
    <v>       0.12676037       0.33079399       0.37079665 </v>
    <v>       0.46009370       0.33079399       0.37079665 </v>
    <v>       0.79342704       0.33079399       0.37079665 </v>
    <v>       0.12676037       0.66412732       0.37079665 </v>
    <v>       0.46009370       0.66412732       0.37079665 </v>
    <v>       0.79342704       0.66412732       0.37079665 </v>
    <v>       0.12676037       0.99746065       0.37079665 </v>
    <v>       0.46009370       0.99746065       0.37079665 </v>
    <v>       0.79342704       0.99746065       0.37079665 </v>
    <v>       0.06350899       0.26982435       0.00000000 </v>
    <v>       0.39684232       0.26982435       0.00000000 </v>
    <v>       0.73017565       0.26982435       0.00000000 </v>
    <v>       0.06350899       0.60315768       0.00000000 </v>
    <v>       0.39684232       0.60315768       0.00000000 </v>
    <v>       0.73017565       0.60315768       0.00000000 </v>
    <v>       0.06350899       0.93649101       0.00000000 </v>
    <v>       0.39684232       0.93649101       0.00000000 </v>
    <v>       0.73017565       0.93649101       0.00000000 </v>
    <v>       0.29027274       0.17214940       0.39352170 </v>
    <v>       0.62360607       0.17214940       0.39352170 </v>
    <v>       0.95693941       0.17214940       0.39352170 </v>
    <v>       0.29027274       0.50548273       0.39352170 </v>
    <v>       0.62360607       0.50548273       0.39352170 </v>
    <v>       0.95693941       0.50548273       0.39352170 </v>
    <v>       0.29027274       0.83881607       0.39352170 </v>
    <v>       0.62360607       0.83881607       0.39352170 </v>
    <v>       0.95693941       0.83881607       0.39352170 </v>
    <v>       0.16118393       0.04306059       0.60647830 </v>
    <v>       0.49451727       0.04306059       0.60647830 </v>
    <v>       0.82785060       0.04306059       0.60647830 </v>
    <v>       0.16118393       0.37639393       0.60647830 </v>
    <v>       0.49451727       0.37639393       0.60647830 </v>
    <v>       0.82785060       0.37639393       0.60647830 </v>
    <v>       0.16118393       0.70972726       0.60647830 </v>
    <v>       0.49451727       0.70972726       0.60647830 </v>
    <v>       0.82785060       0.70972726       0.60647830 </v>
    <v>       0.03761391       0.07731307       0.84542777 </v>
    <v>       0.37094724       0.07731307       0.84542777 </v>
    <v>       0.70428057       0.07731307       0.84542777 </v>
    <v>       0.03761391       0.41064640       0.84542777 </v>
    <v>       0.37094724       0.41064640       0.84542777 </v>
    <v>       0.70428057       0.41064640       0.84542777 </v>
    <v>       0.03761391       0.74397973       0.84542777 </v>
    <v>       0.37094724       0.74397973       0.84542777 </v>
    <v>       0.70428057       0.74397973       0.84542777 </v>
    <v>       0.25602027       0.29571943       0.15457223 </v>
    <v>       0.58935360       0.29571943       0.15457223 </v>
    <v>       0.92268693       0.29571943       0.15457223 </v>
    <v>       0.25602027       0.62905276       0.15457223 </v>
    <v>       0.58935360       0.62905276       0.15457223 </v>
    <v>       0.92268693       0.62905276       0.15457223 </v>
    <v>       0.25602027       0.96238609       0.15457223 </v>
    <v>       0.58935360       0.96238609       0.15457223 </v>
    <v>       0.92268693       0.96238609       0.15457223 </v>
   </varray>
  </structure>
  <varray name="forces" >
   <v>       0.00007995       0.05865235       0.00120237 </v>
   <v>       0.00005225       0.00095621       0.00014753 </v>
   <v>      -0.00006510       0.00095832       0.00016144 </v>
   <v>       0.00006960      -0.00207764      -0.00006592 </v>
   <v>      -0.00005725      -0.00069442      -0.00004025 </v>
   <v>       0.00003251      -0.00071174      -0.00003711 </v>
   <v>       0.00008162      -0.00109927       0.00010422 </v>
   <v>       0.00015815       0.00025804       0.00008110 </v>
   <v>      -0.00020120       0.00027881       0.00007270 </v>
   <v>      -0.00056410       0.00041570       0.00006865 </v>
   <v>       0.00079644       0.00031836       0.00021399 </v>
   <v>      -0.00052548       0.00012619      -0.00005321 </v>
   <v>      -0.00017778       0.00011540      -0.00009462 </v>
   <v>       0.00038470       0.00016485      -0.00000313 </v>
   <v>      -0.00049403      -0.00000638      -0.00009831 </v>
   <v>      -0.00038187      -0.00045731      -0.00009399 </v>
   <v>       0.00063637      -0.00039121       0.00010686 </v>
   <v>      -0.00053997      -0.00014118      -0.00006976 </v>
   <v>      -0.00017346      -0.00035063      -0.00035247 </v>
   <v>      -0.00005981      -0.00032424       0.00004883 </v>
   <v>      -0.00040752      -0.00046949       0.00004431 </v>
   <v>      -0.00015192      -0.00011671       0.00021313 </v>
   <v>      -0.00018026      -0.00032322      -0.00008254 </v>
   <v>      -0.00031315      -0.00023591      -0.00022078 </v>
   <v>      -0.00023596       0.00055024       0.00008071 </v>
   <v>      -0.00012774       0.00037170      -0.00003885 </v>
   <v>      -0.00029145       0.00045809       0.00005543 </v>
   <v>       0.00013559      -0.01375046       0.00058063 </v>
   <v>      -0.00095906       0.00035928       0.00036846 </v>
   <v>       0.00104996       0.00033188       0.00037620 </v>
   <v>       0.00001260      -0.01367291      -0.00072386 </v>
   <v>       0.00106140       0.00012144      -0.00030315 </v>
   <v>      -0.00098861       0.00014051      -0.00032491 </v>
   <v>       0.00003087       0.00095136       0.00003176 </v>
   <v>       0.00006508       0.00058084       0.00004248 </v>
   <v>       0.00003603       0.00059479       0.00002913 </v>
   <v>       0.00005216      -0.00205335       0.00006216 </v>
   <v>      -0.00001749      -0.00211038       0.00003362 </v>
   <v>      -0.00000006      -0.00011336      -0.00001344 </v>
   <v>      -0.00067469       0.00090247      -0.00071945 </v>
   <v>       0.00069227       0.00089061      -0.00066400 </v>
   <v>       0.00001412       0.00018262      -0.00013060 </v>
   <v>       0.00067621       0.00092572       0.00068689 </v>
   <v>      -0.00064709       0.00091781       0.00064714 </v>
   <v>       0.00001070       0.00021587       0.00011288 </v>
   <v>       0.00005587      -0.00017246      -0.00048496 </v>
   <v>      -0.00000307      -0.00016740       0.00009362 </v>
   <v>       0.00004611      -0.00013248       0.00009830 </v>
   <v>      -0.00000148       0.00036675       0.00015888 </v>
   <v>       0.00005122       0.00028638       0.00015722 </v>
   <v>       0.00002562       0.00026438       0.00007166 </v>
   <v>       0.00001503      -0.00004126       0.00045469 </v>
   <v>       0.00001515      -0.00006819      -0.00012065 </v>
   <v>       0.00000354      -0.00010568      -0.00003546 </v>
   <v>       0.00002383      -0.00211235      -0.00007197 </v>
   <v>       0.00003718      -0.00211758      -0.00001517 </v>
   <v>      -0.00001130      -0.00012621      -0.00000643 </v>
   <v>      -0.00050064       0.00066177       0.00062424 </v>
   <v>       0.00052282       0.00064421       0.00062964 </v>
   <v>       0.00000887       0.00005817       0.00005965 </v>
   <v>       0.00052441       0.00064139      -0.00054769 </v>
   <v>      -0.00050343       0.00064799      -0.00060841 </v>
   <v>       0.00002639       0.00005703      -0.00005746 </v>
   <v>       0.00005594      -0.00007967       0.00003003 </v>
   <v>       0.00008730      -0.00006782      -0.00007019 </v>
   <v>      -0.00003105      -0.00012307      -0.00014793 </v>
   <v>       0.00005876      -0.00014418       0.00017409 </v>
   <v>       0.00007348      -0.00008640       0.00005739 </v>
   <v>       0.00001171      -0.00012948       0.00031520 </v>
   <v>       0.00012796      -0.00007416      -0.00045638 </v>
   <v>       0.00007135      -0.00002665      -0.00016732 </v>
   <v>      -0.00007832      -0.00004182      -0.00049556 </v>
   <v>      -0.00026154      -0.00199369      -0.00703293 </v>
   <v>      -0.00003086       0.00025268      -0.00028091 </v>
   <v>       0.00004819       0.00024185      -0.00032095 </v>
   <v>      -0.00006615      -0.00207964       0.00657337 </v>
   <v>      -0.00001600       0.00019121       0.00053483 </v>
   <v>       0.00001576       0.00016159       0.00051719 </v>
   <v>      -0.00016681      -0.00093817       0.00001557 </v>
   <v>       0.00001253      -0.00087735       0.00004333 </v>
   <v>      -0.00000179      -0.00084600       0.00006466 </v>
   <v>      -0.01004910      -0.00510801       0.00064623 </v>
   <v>       0.01029785      -0.00512151       0.00077804 </v>
   <v>       0.00022004       0.00000479       0.00015119 </v>
   <v>       0.01023116      -0.00500665      -0.00070814 </v>
   <v>      -0.01012409      -0.00515207      -0.00088894 </v>
   <v>       0.00023653       0.00001732      -0.00007929 </v>
   <v>       0.00011900      -0.00074512      -0.00002905 </v>
   <v>       0.00011841      -0.00073476      -0.00004608 </v>
   <v>       0.00021879      -0.00022181       0.00000743 </v>
   <v>      -0.00003731       0.00049459      -0.00004911 </v>
   <v>       0.00005238      -0.00053837      -0.00017289 </v>
   <v>       0.00017397      -0.00044772      -0.00007190 </v>
   <v>       0.00007591      -0.00043584      -0.00055855 </v>
   <v>      -0.00019398      -0.00002501      -0.00039608 </v>
   <v>       0.00031962      -0.00016827      -0.00038022 </v>
   <v>       0.00017733      -0.00028916       0.00029935 </v>
   <v>       0.00028465      -0.00008514       0.00017503 </v>
   <v>      -0.00026132      -0.00000063       0.00012753 </v>
  </varray>
  <varray name="stress" >
   <v>      -0.14584672      -0.00205133      -0.00675204 </v>
   <v>      -0.00157948      -0.12760896       0.00868631 </v>
   <v>       0.00287697       0.01856082      -0.13275098 </v>
  </varray>
  <energy>
   <i name="e_fr_energy">   -550.33897162 </i>
   <i name="e_wo_entrp">   -550.33897162 </i>
   <i name="e_0_energy">     -0.00000000 </i>
  </energy>
  <time name="totalsc"> 9700.67 9801.89</time>
  <eigenvalues>
   <array>
    <dimension dim="1">band</dimension>
    <dimension dim="2">kpoint</dimension>
    <dimension dim="3">spin</dimension>
    <field>eigene</field>
    <field>occ</field>
    <set>
     <set comment="spin 1">
      <set comment="kpoint 1">
       <r>  -51.0519    1.0000 </r>
       <r>  -51.0501    1.0000 </r>
       <r>  -51.0500    1.0000 </r>
       <r>  -51.0500    1.0000 </r>
       <r>  -51.0499    1.0000 </r>
       <r>  -51.0498    1.0000 </r>
       <r>  -51.0497    1.0000 </r>
       <r>  -51.0496    1.0000 </r>
       <r>  -51.0495    1.0000 </r>
       <r>  -51.0494    1.0000 </r>
       <r>  -51.0493    1.0000 </r>
       <r>  -51.0487    1.0000 </r>
       <r>  -51.0482    1.0000 </r>
       <r>  -51.0476    1.0000 </r>
       <r>  -51.0472    1.0000 </r>
       <r>  -51.0472    1.0000 </r>
       <r>  -51.0467    1.0000 </r>
       <r>  -51.0456    1.0000 </r>
       <r>  -51.0394    1.0000 </r>
       <r>  -51.0385    1.0000 </r>
       <r>  -51.0372    1.0000 </r>
       <r>  -51.0371    1.0000 </r>
       <r>  -51.0371    1.0000 </r>
       <r>  -51.0371    1.0000 </r>
       <r>  -51.0365    1.0000 </r>
       <r>  -51.0361    1.0000 </r>
       <r>  -51.0361    1.0000 </r>
       <r>  -51.0361    1.0000 </r>
       <r>  -51.0360    1.0000 </r>
       <r>  -51.0359    1.0000 </r>
       <r>  -51.0359    1.0000 </r>
       <r>  -51.0358    1.0000 </r>
       <r>  -51.0358    1.0000 </r>
       <r>  -51.0357    1.0000 </r>
       <r>  -51.0339    1.0000 </r>
       <r>  -51.0333    1.0000 </r>
       <r>  -49.6916    1.0000 </r>
       <r>  -49.6916    1.0000 </r>
       <r>  -49.6898    1.0000 </r>
       <r>  -49.6897    1.0000 </r>
       <r>  -49.6896    1.0000 </r>
       <r>  -49.6894    1.0000 </r>
       <r>  -49.6894    1.0000 </r>
       <r>  -49.6893    1.0000 </r>
       <r>  -49.6892    1.0000 </r>
       <r>  -49.6892    1.0000 </r>
       <r>  -49.6891    1.0000 </r>
       <r>  -49.6891    1.0000 </r>
       <r>  -49.6890    1.0000 </r>
       <r>  -49.6887    1.0000 </r>
       <r>  -49.6886    1.0000 </r>
       <r>  -49.6885    1.0000 </r>
       <r>  -49.6868    1.0000 </r>
       <r>  -49.6867    1.0000 </r>
       <r>  -49.5926    1.0000 </r>
       <r>  -49.5911    1.0000 </r>
       <r>  -49.5910    1.0000 </r>
       <r>  -49.5909    1.0000 </r>
       <r>  -49.5908    1.0000 </r>
       <r>  -49.5906    1.0000 </r>
       <r>  -49.5901    1.0000 </r>
       <r>  -49.5900    1.0000 </r>
       <r>  -49.5891    1.0000 </r>
       <r>  -49.5889    1.0000 </r>
       <r>  -49.5889    1.0000 </r>
       <r>  -49.5885    1.0000 </r>
       <r>  -49.5885    1.0000 </r>
       <r>  -49.5884    1.0000 </r>
       <r>  -49.5884    1.0000 </r>
       <r>  -49.5883    1.0000 </r>
       <r>  -49.5881    1.0000 </r>
       <r>  -49.5879    1.0000 </r>
       <r>  -49.5621    1.0000 </r>
       <r>  -49.5616    1.0000 </r>
       <r>  -49.5614    1.0000 </r>
       <r>  -49.5613    1.0000 </r>
       <r>  -49.5612    1.0000 </r>
       <r>  -49.5610    1.0000 </r>
       <r>  -49.5608    1.0000 </r>
       <r>  -49.5597    1.0000 </r>
       <r>  -49.5593    1.0000 </r>
       <r>  -49.5593    1.0000 </r>
       <r>  -49.5591    1.0000 </r>
       <r>  -49.5591    1.0000 </r>
       <r>  -49.5591    1.0000 </r>
       <r>  -49.5590    1.0000 </r>
       <r>  -49.5583    1.0000 </r>
       <r>  -49.5580    1.0000 </r>
       <r>  -49.5574    1.0000 </r>
       <r>  -49.5561    1.0000 </r>
       <r>  -49.5504    1.0000 </r>
       <r>  -49.5491    1.0000 </r>
       <r>  -49.5486    1.0000 </r>
       <r>  -49.5485    1.0000 </r>
       <r>  -49.5485    1.0000 </r>
       <r>  -49.5483    1.0000 </r>
       <r>  -49.5473    1.0000 </r>
       <r>  -49.5473    1.0000 </r>
       <r>  -49.5472    1.0000 </r>
       <r>  -49.5471    1.0000 </r>
       <r>  -49.5471    1.0000 </r>
       <r>  -49.5469    1.0000 </r>
       <r>  -49.5469    1.0000 </r>
       <r>  -49.5468    1.0000 </r>
       <r>  -49.5467    1.0000 </r>
       <r>  -49.5467    1.0000 </r>
       <r>  -49.5452    1.0000 </r>
       <r>  -49.5444    1.0000 </r>
       <r>  -39.8657    1.0000 </r>
       <r>  -39.8643    1.0000 </r>
       <r>  -39.8642    1.0000 </r>
       <r>  -39.8640    1.0000 </r>
       <r>  -39.8639    1.0000 </r>
       <r>  -39.8639    1.0000 </r>
       <r>  -39.8635    1.0000 </r>
       <r>  -39.8635    1.0000 </r>
       <r>  -39.8634    1.0000 </r>
       <r>  -39.8634    1.0000 </r>
       <r>  -39.8633    1.0000 </r>
       <r>  -39.8632    1.0000 </r>
       <r>  -39.8631    1.0000 </r>
       <r>  -39.8630    1.0000 </r>
       <r>  -39.8630    1.0000 </r>
       <r>  -39.8629    1.0000 </r>
       <r>  -39.8628    1.0000 </r>
       <r>  -39.8614    1.0000 </r>
       <r>  -13.2374    1.0000 </r>
       <r>  -13.2348    1.0000 </r>
       <r>  -13.2348    1.0000 </r>
       <r>  -13.2331    1.0000 </r>
       <r>  -13.2254    1.0000 </r>
       <r>  -13.1986    1.0000 </r>
       <r>  -13.0575    1.0000 </r>
       <r>  -13.0551    1.0000 </r>
       <r>  -13.0545    1.0000 </r>
       <r>  -13.0530    1.0000 </r>
       <r>  -13.0438    1.0000 </r>
       <r>  -13.0419    1.0000 </r>
       <r>  -13.0414    1.0000 </r>
       <r>  -13.0396    1.0000 </r>
       <r>  -13.0187    1.0000 </r>
       <r>  -13.0186    1.0000 </r>
       <r>  -13.0185    1.0000 </r>
       <r>  -13.0173    1.0000 </r>
       <r>   -7.6148    1.0000 </r>
       <r>   -7.4115    1.0000 </r>
       <r>   -7.3754    1.0000 </r>
       <r>   -7.3751    1.0000 </r>
       <r>   -7.3750    1.0000 </r>
       <r>   -7.3748    1.0000 </r>
       <r>   -7.1814    1.0000 </r>
       <r>   -7.1812    1.0000 </r>
       <r>   -7.1718    1.0000 </r>
       <r>   -7.1716    1.0000 </r>
       <r>   -7.1514    1.0000 </r>
       <r>   -7.1513    1.0000 </r>
       <r>   -7.1512    1.0000 </r>
       <r>   -7.1510    1.0000 </r>
       <r>   -6.9846    1.0000 </r>
       <r>   -6.9651    1.0000 </r>
       <r>   -6.9650    1.0000 </r>
       <r>   -6.9304    1.0000 </r>
       <r>   -6.9303    1.0000 </r>
       <r>   -6.8715    1.0000 </r>
       <r>   -6.8714    1.0000 </r>
       <r>   -6.8713    1.0000 </r>
       <r>   -6.8712    1.0000 </r>
       <r>   -6.8073    1.0000 </r>
       <r>   -6.8071    1.0000 </r>
       <r>   -6.7805    1.0000 </r>
       <r>   -6.7804    1.0000 </r>
       <r>   -1.8369    1.0000 </r>
       <r>   -1.8368    1.0000 </r>
       <r>   -1.8366    1.0000 </r>
       <r>   -1.8366    1.0000 </r>
       <r>   -1.8165    1.0000 </r>
       <r>   -1.8158    1.0000 </r>
       <r>   -1.8038    1.0000 </r>
       <r>   -1.8031    1.0000 </r>
       <r>   -1.7667    1.0000 </r>
       <r>   -1.7658    1.0000 </r>
       <r>   -1.7539    1.0000 </r>
       <r>   -1.7529    1.0000 </r>
       <r>   -1.2808    1.0000 </r>
       <r>   -1.1983    1.0000 </r>
       <r>   -1.1973    1.0000 </r>
       <r>   -1.1972    1.0000 </r>
       <r>   -1.1963    1.0000 </r>
       <r>   -1.0052    1.0000 </r>
       <r>   -1.0047    1.0000 </r>
       <r>   -0.9744    1.0000 </r>
       <r>   -0.9738    1.0000 </r>
       <r>   -0.9589    1.0000 </r>
       <r>   -0.9585    1.0000 </r>
       <r>   -0.9469    1.0000 </r>
       <r>   -0.9385    1.0000 </r>
       <r>   -0.9311    1.0000 </r>
       <r>   -0.9286    1.0000 </r>
       <r>   -0.9278    1.0000 </r>
       <r>   -0.8856    1.0000 </r>
       <r>   -0.8845    1.0000 </r>
       <r>   -0.8845    1.0000 </r>
       <r>   -0.8830    1.0000 </r>
       <r>   -0.8714    1.0000 </r>
       <r>   -0.8714    1.0000 </r>
       <r>   -0.8677    1.0000 </r>
       <r>   -0.8672    1.0000 </r>
       <r>   -0.8671    1.0000 </r>
       <r>   -0.8667    1.0000 </r>
       <r>   -0.8594    1.0000 </r>
       <r>   -0.8592    1.0000 </r>
       <r>   -0.7003    1.0000 </r>
       <r>   -0.7002    1.0000 </r>
       <r>   -0.7002    1.0000 </r>
       <r>   -0.7000    1.0000 </r>
       <r>   -0.6713    1.0000 </r>
       <r>   -0.6711    1.0000 </r>
       <r>   -0.6232    1.0000 </r>
       <r>   -0.6228    1.0000 </r>
       <r>   -0.6226    1.0000 </r>
       <r>   -0.6223    1.0000 </r>
       <r>   -0.6221    1.0000 </r>
       <r>   -0.6218    1.0000 </r>
       <r>   -0.3522    1.0000 </r>
       <r>   -0.3520    1.0000 </r>
       <r>   -0.3520    1.0000 </r>
       <r>   -0.3519    1.0000 </r>
       <r>   -0.3219    1.0000 </r>
       <r>   -0.3215    1.0000 </r>
       <r>   -0.2914    1.0000 </r>
       <r>   -0.2913    1.0000 </r>
       <r>   -0.2642    1.0000 </r>
       <r>   -0.2641    1.0000 </r>
       <r>   -0.2641    1.0000 </r>
       <r>   -0.2635    1.0000 </r>
       <r>   -0.2607    1.0000 </r>
       <r>   -0.2605    1.0000 </r>
       <r>   -0.2578    1.0000 </r>
       <r>   -0.2486    1.0000 </r>
       <r>   -0.2485    1.0000 </r>
       <r>   -0.2426    1.0000 </r>
       <r>   -0.2205    1.0000 </r>
       <r>   -0.1405    1.0000 </r>
       <r>   -0.1402    1.0000 </r>
       <r>   -0.1400    1.0000 </r>
       <r>   -0.1399    1.0000 </r>
       <r>   -0.1394    1.0000 </r>
       <r>   -0.1392    1.0000 </r>
       <r>   -0.1235    1.0000 </r>
       <r>   -0.1228    1.0000 </r>
       <r>   -0.1228    1.0000 </r>
       <r>   -0.1221    1.0000 </r>
       <r>   -0.1202    1.0000 </r>
       <r>   -0.1198    1.0000 </r>
       <r>   -0.0778    1.0000 </r>
       <r>   -0.0774    1.0000 </r>
       <r>   -0.0595    1.0000 </r>
       <r>   -0.0118    1.0000 </r>
       <r>   -0.0115    1.0000 </r>
       <r>    0.0159    1.0000 </r>
       <r>    0.0159    1.0000 </r>
       <r>    0.0261    1.0000 </r>
       <r>    0.0262    1.0000 </r>
       <r>    0.0428    1.0000 </r>
       <r>    0.0431    1.0000 </r>
       <r>    0.0432    1.0000 </r>
       <r>    0.0436    1.0000 </r>
       <r>    0.0606    1.0000 </r>
       <r>    0.0609    1.0000 </r>
       <r>    0.1498    1.0000 </r>
       <r>    0.1499    1.0000 </r>
       <r>    0.1500    1.0000 </r>
       <r>    0.1505    1.0000 </r>
       <r>    0.1583    1.0000 </r>
       <r>    0.1639    1.0000 </r>
       <r>    0.1656    1.0000 </r>
       <r>    0.1824    1.0000 </r>
       <r>    0.1828    1.0000 </r>
       <r>    0.1923    1.0000 </r>
       <r>    0.1966    1.0000 </r>
       <r>    0.1968    1.0000 </r>
       <r>    0.2078    1.0000 </r>
       <r>    0.2081    1.0000 </r>
       <r>    0.2581    1.0000 </r>
       <r>    0.2583    1.0000 </r>
       <r>    0.2584    1.0000 </r>
       <r>    0.2585    1.0000 </r>
       <r>    0.2784    1.0000 </r>
       <r>    0.2786    1.0000 </r>
       <r>    0.3392    1.0000 </r>
       <r>    0.3395    1.0000 </r>
       <r>    0.3597    1.0000 </r>
       <r>    0.3599    1.0000 </r>
       <r>    0.3599    1.0000 </r>
       <r>    0.3604    1.0000 </r>
       <r>    0.3802    1.0000 </r>
       <r>    0.3832    1.0000 </r>
       <r>    0.4897    1.0000 </r>
       <r>    0.4899    1.0000 </r>
       <r>    0.4900    1.0000 </r>
       <r>    0.4901    1.0000 </r>
       <r>    0.5169    1.0000 </r>
       <r>    0.5170    1.0000 </r>
       <r>    0.5170    1.0000 </r>
       <r>    0.5175    1.0000 </r>
       <r>    0.5588    1.0000 </r>
       <r>    0.5589    1.0000 </r>
       <r>    0.6088    1.0000 </r>
       <r>    0.6090    1.0000 </r>
       <r>    0.6148    1.0000 </r>
       <r>    0.6308    1.0000 </r>
       <r>    0.6309    1.0000 </r>
       <r>    0.6309    1.0000 </r>
       <r>    0.6316    1.0000 </r>
       <r>    0.7522    1.0000 </r>
       <r>    0.7525    1.0000 </r>
       <r>    0.7614    1.0000 </r>
       <r>    0.7614    1.0000 </r>
       <r>    0.7620    1.0000 </r>
       <r>    0.7624    1.0000 </r>
       <r>    0.7906    1.0000 </r>
       <r>    0.7908    1.0000 </r>
       <r>    0.7932    1.0000 </r>
       <r>    0.8461    1.0000 </r>
       <r>    0.8462    1.0000 </r>
       <r>    0.8550    1.0000 </r>
       <r>    0.8552    1.0000 </r>
       <r>    0.9689    1.0000 </r>
       <r>    0.9691    1.0000 </r>
       <r>    0.9692    1.0000 </r>
       <r>    0.9693    1.0000 </r>
       <r>    0.9793    1.0000 </r>
       <r>    1.2399    1.0000 </r>
       <r>    1.2400    1.0000 </r>
       <r>    1.2400    1.0000 </r>
       <r>    1.2402    1.0000 </r>
       <r>    1.2639    1.0000 </r>
       <r>    1.2927    1.0000 </r>
       <r>    1.2928    1.0000 </r>
       <r>    1.3306    1.0000 </r>
       <r>    1.3307    1.0000 </r>
       <r>    1.3585    1.0000 </r>
       <r>    1.3590    1.0000 </r>
       <r>    1.3590    1.0000 </r>
       <r>    1.3592    1.0000 </r>
       <r>    1.4366    1.0000 </r>
       <r>    1.4368    1.0000 </r>
       <r>    1.4642    1.0000 </r>
       <r>    1.4755    1.0000 </r>
       <r>    1.4874    1.0000 </r>
       <r>    1.4876    1.0000 </r>
       <r>    1.5476    1.0000 </r>
       <r>    1.6788    1.0000 </r>
       <r>    1.6801    1.0000 </r>
       <r>    1.6802    1.0000 </r>
       <r>    1.7235    1.0000 </r>
       <r>    1.7239    1.0000 </r>
       <r>    1.7239    1.0000 </r>
       <r>    1.7240    1.0000 </r>
       <r>    1.7655    1.0000 </r>
       <r>    1.7657    1.0000 </r>
       <r>    1.8139    1.0000 </r>
       <r>    1.8147    1.0000 </r>
       <r>    1.8149    1.0000 </r>
       <r>    1.8149    1.0000 </r>
       <r>    1.8266    1.0000 </r>
       <r>    1.8271    1.0000 </r>
       <r>    1.8278    1.0000 </r>
       <r>    1.8281    1.0000 </r>
       <r>    1.8394    1.0000 </r>
       <r>    1.8760    1.0000 </r>
       <r>    1.8867    1.0000 </r>
       <r>    1.9030    1.0000 </r>
       <r>    1.9031    1.0000 </r>
       <r>    1.9175    1.0000 </r>
       <r>    1.9178    1.0000 </r>
       <r>    1.9633    1.0000 </r>
       <r>    1.9635    1.0000 </r>
       <r>    1.9899    1.0000 </r>
       <r>    1.9901    1.0000 </r>
       <r>    1.9989    1.0000 </r>
       <r>    1.9994    1.0000 </r>
       <r>    1.9994    1.0000 </r>
       <r>    1.9995    1.0000 </r>
       <r>    2.0713    1.0000 </r>
       <r>    2.0715    1.0000 </r>
       <r>    2.0801    1.0000 </r>
       <r>    2.0816    1.0000 </r>
       <r>    2.0816    1.0000 </r>
       <r>    2.0832    1.0000 </r>
       <r>    2.0944    1.0000 </r>
       <r>    2.0946    1.0000 </r>
       <r>    2.1161    1.0000 </r>
       <r>    2.1164    1.0000 </r>
       <r>    2.1165    1.0000 </r>
       <r>    2.1165    1.0000 </r>
       <r>    2.1955    1.0000 </r>
       <r>    2.1958    1.0000 </r>
       <r>    2.2885    1.0000 </r>
       <r>    2.2887    1.0000 </r>
       <r>    2.4162    1.0000 </r>
       <r>    2.4165    1.0000 </r>
       <r>    2.4404    1.0000 </r>
       <r>    2.4409    1.0000 </r>
       <r>    2.4410    1.0000 </r>
       <r>    2.4414    1.0000 </r>
       <r>    2.4997    1.0000 </r>
       <r>    2.5162    1.0000 </r>
       <r>    2.5164    1.0000 </r>
       <r>    2.5164    1.0000 </r>
       <r>    2.5169    1.0000 </r>
       <r>    2.5594    1.0000 </r>
       <r>    2.5598    1.0000 </r>
       <r>    2.5653    1.0000 </r>
       <r>    2.7185    1.0000 </r>
       <r>    2.7186    1.0000 </r>
       <r>    2.7188    1.0000 </r>
       <r>    2.7193    1.0000 </r>
       <r>    2.7329    1.0000 </r>
       <r>    2.7335    1.0000 </r>
       <r>    2.8000    1.0000 </r>
       <r>    2.8007    1.0000 </r>
       <r>    3.0022    1.0000 </r>
       <r>    3.0030    1.0000 </r>
       <r>    3.0062    1.0000 </r>
       <r>    3.0071    1.0000 </r>
       <r>    3.1701    1.0000 </r>
       <r>    3.2188    1.0000 </r>
       <r>    3.2194    1.0000 </r>
       <r>    3.2218    1.0000 </r>
       <r>    3.2224    1.0000 </r>
       <r>    3.3592    1.0000 </r>
       <r>    3.3598    1.0000 </r>
       <r>    3.3599    1.0000 </r>
       <r>    3.3606    1.0000 </r>
       <r>    3.3931    1.0000 </r>
       <r>    3.4018    1.0000 </r>
       <r>    3.5017    1.0000 </r>
       <r>    3.5020    1.0000 </r>
       <r>    3.5873    1.0000 </r>
       <r>    3.5878    1.0000 </r>
       <r>    3.8159    1.0000 </r>
       <r>    3.8160    1.0000 </r>
       <r>    3.8302    1.0000 </r>
       <r>    3.8304    1.0000 </r>
       <r>    4.0027    1.0000 </r>
       <r>    4.0029    1.0000 </r>
       <r>    4.0031    1.0000 </r>
       <r>    4.0034    1.0000 </r>
       <r>    4.0314    1.0000 </r>
       <r>    4.0316    1.0000 </r>
       <r>    4.0317    1.0000 </r>
       <r>    4.0320    1.0000 </r>
       <r>    4.1063    1.0000 </r>
       <r>    4.1168    1.0000 </r>
       <r>    4.1221    1.0000 </r>
       <r>    4.1598    1.0000 </r>
       <r>    4.1602    1.0000 </r>
       <r>    4.2588    1.0000 </r>
       <r>    4.2592    1.0000 </r>
       <r>    4.2766    1.0000 </r>
       <r>    4.2773    1.0000 </r>
       <r>    4.3302    1.0000 </r>
       <r>    4.3306    1.0000 </r>
       <r>    4.3586    1.0000 </r>
       <r>    4.3587    1.0000 </r>
       <r>    4.3587    1.0000 </r>
       <r>    4.3588    1.0000 </r>
       <r>    4.4114    1.0000 </r>
       <r>    4.4118    1.0000 </r>
       <r>    4.4337    1.0000 </r>
       <r>    4.4343    1.0000 </r>
       <r>    4.5229    1.0000 </r>
       <r>    4.5234    1.0000 </r>
       <r>    4.5235    1.0000 </r>
       <r>    4.5242    1.0000 </r>
       <r>    4.5509    1.0000 </r>
       <r>    4.5510    1.0000 </r>
       <r>    4.8118    1.0000 </r>
       <r>    4.8119    1.0000 </r>
       <r>    4.8120    1.0000 </r>
       <r>    4.8121    1.0000 </r>
       <r>    4.8748    1.0000 </r>
       <r>    4.8750    1.0000 </r>
       <r>    4.8751    1.0000 </r>
       <r>    4.8753    1.0000 </r>
       <r>    7.3645    0.0000 </r>
       <r>    8.4303    0.0000 </r>
       <r>    8.6651    0.0000 </r>
       <r>    8.6655    0.0000 </r>
       <r>    8.8414    0.0000 </r>
       <r>    8.8419    0.0000 </r>
       <r>    8.8419    0.0000 </r>
       <r>    8.8422    0.0000 </r>
       <r>    8.9865    0.0000 </r>
       <r>    8.9866    0.0000 </r>
       <r>    9.3108    0.0000 </r>
       <r>    9.3112    0.0000 </r>
       <r>    9.3113    0.0000 </r>
       <r>    9.3114    0.0000 </r>
       <r>    9.3214    0.0000 </r>
       <r>    9.3217    0.0000 </r>
       <r>    9.4448    0.0000 </r>
       <r>    9.4450    0.0000 </r>
       <r>    9.5154    0.0000 </r>
       <r>    9.5158    0.0000 </r>
       <r>    9.5159    0.0000 </r>
       <r>    9.5161    0.0000 </r>
       <r>    9.8732    0.0000 </r>
       <r>    9.8787    0.0000 </r>
       <r>    9.9188    0.0000 </r>
       <r>    9.9191    0.0000 </r>
       <r>    9.9192    0.0000 </r>
       <r>    9.9193    0.0000 </r>
       <r>    9.9666    0.0000 </r>
       <r>    9.9671    0.0000 </r>
       <r>   10.0692    0.0000 </r>
       <r>   10.0697    0.0000 </r>
       <r>   10.4887    0.0000 </r>
       <r>   10.5025    0.0000 </r>
       <r>   10.5027    0.0000 </r>
       <r>   10.5197    0.0000 </r>
       <r>   10.5197    0.0000 </r>
       <r>   10.8014    0.0000 </r>
       <r>   10.8014    0.0000 </r>
       <r>   10.8015    0.0000 </r>
       <r>   10.8017    0.0000 </r>
       <r>   10.8752    0.0000 </r>
       <r>   10.8760    0.0000 </r>
       <r>   11.0181    0.0000 </r>
       <r>   11.0187    0.0000 </r>
       <r>   11.0512    0.0000 </r>
       <r>   11.2660    0.0000 </r>
       <r>   11.2666    0.0000 </r>
       <r>   11.3731    0.0000 </r>
       <r>   11.3734    0.0000 </r>
       <r>   11.3737    0.0000 </r>
       <r>   11.3742    0.0000 </r>
       <r>   11.3876    0.0000 </r>
       <r>   11.3884    0.0000 </r>
       <r>   11.3936    0.0000 </r>
[...]
       <r>   -45.9047    69.1080    52.6427 </r>
       <r>   -45.6638   229.7567   108.0000 </r>
       <r>   -45.4228     0.0000   108.0000 </r>
       <r>   -45.1819     0.0000   108.0000 </r>
       <r>   -44.9410     0.0000   108.0000 </r>
       <r>   -44.7000     0.0000   108.0000 </r>
       <r>   -44.4591     0.0000   108.0000 </r>
       <r>   -44.2181     0.0000   108.0000 </r>
       <r>   -43.9772     0.0000   108.0000 </r>
       <r>   -43.7363     0.0000   108.0000 </r>
       <r>   -43.4953     0.0000   108.0000 </r>
       <r>   -43.2544     0.0000   108.0000 </r>
       <r>   -43.0134     0.0000   108.0000 </r>
       <r>   -42.7725     0.0000   108.0000 </r>
       <r>   -42.5316     0.0000   108.0000 </r>
       <r>   -42.2906     0.0000   108.0000 </r>
       <r>   -42.0497     0.0000   108.0000 </r>
       <r>   -41.8088     0.0000   108.0000 </r>
       <r>   -41.5678     0.0000   108.0000 </r>
       <r>   -41.3269     0.0000   108.0000 </r>
       <r>   -41.0859     0.0000   108.0000 </r>
       <r>   -40.8450     0.0000   108.0000 </r>
       <r>   -40.6041     0.0000   108.0000 </r>
       <r>   -40.3631     0.0000   108.0000 </r>
       <r>   -40.1222     0.0000   108.0000 </r>
       <r>   -39.8812    21.4427   113.1664 </r>
       <r>   -39.6403    53.2651   126.0000 </r>
       <r>   -39.3994     0.0000   126.0000 </r>
       <r>   -39.1584     0.0000   126.0000 </r>
       <r>   -38.9175     0.0000   126.0000 </r>
       <r>   -38.6766     0.0000   126.0000 </r>
       <r>   -38.4356     0.0000   126.0000 </r>
       <r>   -38.1947     0.0000   126.0000 </r>
       <r>   -37.9537     0.0000   126.0000 </r>
       <r>   -37.7128     0.0000   126.0000 </r>
       <r>   -37.4719     0.0000   126.0000 </r>
       <r>   -37.2309     0.0000   126.0000 </r>
       <r>   -36.9900     0.0000   126.0000 </r>
       <r>   -36.7490     0.0000   126.0000 </r>
       <r>   -36.5081     0.0000   126.0000 </r>
       <r>   -36.2672     0.0000   126.0000 </r>
       <r>   -36.0262     0.0000   126.0000 </r>
       <r>   -35.7853     0.0000   126.0000 </r>
       <r>   -35.5444     0.0000   126.0000 </r>
       <r>   -35.3034     0.0000   126.0000 </r>
       <r>   -35.0625     0.0000   126.0000 </r>
       <r>   -34.8215     0.0000   126.0000 </r>
       <r>   -34.5806     0.0000   126.0000 </r>
       <r>   -34.3397     0.0000   126.0000 </r>
       <r>   -34.0987     0.0000   126.0000 </r>
       <r>   -33.8578     0.0000   126.0000 </r>
       <r>   -33.6168     0.0000   126.0000 </r>
       <r>   -33.3759     0.0000   126.0000 </r>
       <r>   -33.1350     0.0000   126.0000 </r>
       <r>   -32.8940     0.0000   126.0000 </r>
       <r>   -32.6531     0.0000   126.0000 </r>
       <r>   -32.4122     0.0000   126.0000 </r>
       <r>   -32.1712     0.0000   126.0000 </r>
       <r>   -31.9303     0.0000   126.0000 </r>
       <r>   -31.6893     0.0000   126.0000 </r>
       <r>   -31.4484     0.0000   126.0000 </r>
       <r>   -31.2075     0.0000   126.0000 </r>
       <r>   -30.9665     0.0000   126.0000 </r>
       <r>   -30.7256     0.0000   126.0000 </r>
       <r>   -30.4846     0.0000   126.0000 </r>
       <r>   -30.2437     0.0000   126.0000 </r>
       <r>   -30.0028     0.0000   126.0000 </r>
       <r>   -29.7618     0.0000   126.0000 </r>
       <r>   -29.5209     0.0000   126.0000 </r>
       <r>   -29.2800     0.0000   126.0000 </r>
       <r>   -29.0390     0.0000   126.0000 </r>
       <r>   -28.7981     0.0000   126.0000 </r>
       <r>   -28.5571     0.0000   126.0000 </r>
       <r>   -28.3162     0.0000   126.0000 </r>
       <r>   -28.0753     0.0000   126.0000 </r>
       <r>   -27.8343     0.0000   126.0000 </r>
       <r>   -27.5934     0.0000   126.0000 </r>
       <r>   -27.3524     0.0000   126.0000 </r>
       <r>   -27.1115     0.0000   126.0000 </r>
       <r>   -26.8706     0.0000   126.0000 </r>
       <r>   -26.6296     0.0000   126.0000 </r>
       <r>   -26.3887     0.0000   126.0000 </r>
       <r>   -26.1477     0.0000   126.0000 </r>
       <r>   -25.9068     0.0000   126.0000 </r>
       <r>   -25.6659     0.0000   126.0000 </r>
       <r>   -25.4249     0.0000   126.0000 </r>
       <r>   -25.1840     0.0000   126.0000 </r>
       <r>   -24.9431     0.0000   126.0000 </r>
       <r>   -24.7021     0.0000   126.0000 </r>
       <r>   -24.4612     0.0000   126.0000 </r>
       <r>   -24.2202     0.0000   126.0000 </r>
       <r>   -23.9793     0.0000   126.0000 </r>
       <r>   -23.7384     0.0000   126.0000 </r>
       <r>   -23.4974     0.0000   126.0000 </r>
       <r>   -23.2565     0.0000   126.0000 </r>
       <r>   -23.0155     0.0000   126.0000 </r>
       <r>   -22.7746     0.0000   126.0000 </r>
       <r>   -22.5337     0.0000   126.0000 </r>
       <r>   -22.2927     0.0000   126.0000 </r>
       <r>   -22.0518     0.0000   126.0000 </r>
       <r>   -21.8109     0.0000   126.0000 </r>
       <r>   -21.5699     0.0000   126.0000 </r>
       <r>   -21.3290     0.0000   126.0000 </r>
       <r>   -21.0880     0.0000   126.0000 </r>
       <r>   -20.8471     0.0000   126.0000 </r>
       <r>   -20.6062     0.0000   126.0000 </r>
       <r>   -20.3652     0.0000   126.0000 </r>
       <r>   -20.1243     0.0000   126.0000 </r>
       <r>   -19.8833     0.0000   126.0000 </r>
       <r>   -19.6424     0.0000   126.0000 </r>
       <r>   -19.4015     0.0000   126.0000 </r>
       <r>   -19.1605     0.0000   126.0000 </r>
       <r>   -18.9196     0.0000   126.0000 </r>
       <r>   -18.6787     0.0000   126.0000 </r>
       <r>   -18.4377     0.0000   126.0000 </r>
       <r>   -18.1968     0.0000   126.0000 </r>
       <r>   -17.9558     0.0000   126.0000 </r>
       <r>   -17.7149     0.0000   126.0000 </r>
       <r>   -17.4740     0.0000   126.0000 </r>
       <r>   -17.2330     0.0000   126.0000 </r>
       <r>   -16.9921     0.0000   126.0000 </r>
       <r>   -16.7511     0.0000   126.0000 </r>
       <r>   -16.5102     0.0000   126.0000 </r>
       <r>   -16.2693     0.0000   126.0000 </r>
       <r>   -16.0283     0.0000   126.0000 </r>
       <r>   -15.7874     0.0000   126.0000 </r>
       <r>   -15.5465     0.0000   126.0000 </r>
       <r>   -15.3055     0.0000   126.0000 </r>
       <r>   -15.0646     0.0000   126.0000 </r>
       <r>   -14.8236     0.0000   126.0000 </r>
       <r>   -14.5827     0.0000   126.0000 </r>
       <r>   -14.3418     0.0000   126.0000 </r>
       <r>   -14.1008     0.0000   126.0000 </r>
       <r>   -13.8599     0.0000   126.0000 </r>
       <r>   -13.6189     0.0000   126.0000 </r>
       <r>   -13.3780     0.0000   126.0000 </r>
       <r>   -13.1371     0.0000   126.0000 </r>
       <r>   -12.8961     0.2259   126.0544 </r>
       <r>   -12.6552    58.3141   140.1045 </r>
       <r>   -12.4143    16.1678   144.0000 </r>
       <r>   -12.1733     0.0000   144.0000 </r>
       <r>   -11.9324     0.0000   144.0000 </r>
       <r>   -11.6914     0.0000   144.0000 </r>
       <r>   -11.4505     0.0000   144.0000 </r>
       <r>   -11.2096     0.0000   144.0000 </r>
       <r>   -10.9686     0.0000   144.0000 </r>
       <r>   -10.7277     0.0000   144.0000 </r>
       <r>   -10.4867     0.0000   144.0000 </r>
       <r>   -10.2458     0.0000   144.0000 </r>
       <r>   -10.0049     0.0000   144.0000 </r>
       <r>    -9.7639     0.0000   144.0000 </r>
       <r>    -9.5230     0.0000   144.0000 </r>
       <r>    -9.2821     0.0000   144.0000 </r>
       <r>    -9.0411     0.0000   144.0000 </r>
       <r>    -8.8002     0.0000   144.0000 </r>
       <r>    -8.5592     0.0000   144.0000 </r>
       <r>    -8.3183     0.0000   144.0000 </r>
       <r>    -8.0774     0.0000   144.0000 </r>
       <r>    -7.8364     0.0000   144.0000 </r>
       <r>    -7.5955     0.0000   144.0000 </r>
       <r>    -7.3545     0.4563   144.1099 </r>
       <r>    -7.1136    18.8598   148.6540 </r>
       <r>    -6.8727    31.0901   156.1448 </r>
       <r>    -6.6317    24.8530   162.1329 </r>
       <r>    -6.3908    36.6824   170.9711 </r>
       <r>    -6.1498     0.1201   171.0000 </r>
       <r>    -5.9089     0.0000   171.0000 </r>
       <r>    -5.6680     0.0000   171.0000 </r>
       <r>    -5.4270     0.0000   171.0000 </r>
       <r>    -5.1861     0.0000   171.0000 </r>
       <r>    -4.9452     0.0000   171.0000 </r>
       <r>    -4.7042     0.0000   171.0000 </r>
       <r>    -4.4633     0.0000   171.0000 </r>
       <r>    -4.2223     0.0000   171.0000 </r>
       <r>    -3.9814     0.0000   171.0000 </r>
       <r>    -3.7405     0.0000   171.0000 </r>
       <r>    -3.4995     0.0000   171.0000 </r>
       <r>    -3.2586     0.0000   171.0000 </r>
       <r>    -3.0176     0.0000   171.0000 </r>
       <r>    -2.7767     0.0000   171.0000 </r>
       <r>    -2.5358     0.0000   171.0000 </r>
       <r>    -2.2948     0.0000   171.0000 </r>
       <r>    -2.0539     0.0000   171.0000 </r>
       <r>    -1.8130     0.0000   171.0000 </r>
       <r>    -1.5720     0.0000   171.0000 </r>
       <r>    -1.3311     0.0000   171.0000 </r>
       <r>    -1.0901     0.0000   171.0000 </r>
       <r>    -0.8492     0.0000   171.0000 </r>
       <r>    -0.6083     0.0002   171.0000 </r>
       <r>    -0.3673     8.6968   173.0954 </r>
       <r>    -0.1264    21.7194   178.3285 </r>
       <r>     0.1146    12.9717   181.4538 </r>
       <r>     0.3555    23.5060   187.1173 </r>
       <r>     0.5964    30.6014   194.4904 </r>
       <r>     0.8374    48.0231   206.0610 </r>
       <r>     1.0783    40.7343   215.8755 </r>
       <r>     1.3192    33.7492   224.0070 </r>
       <r>     1.5602    24.0217   229.7947 </r>
       <r>     1.8011    32.9728   237.7391 </r>
       <r>     2.0421    40.8310   247.5769 </r>
       <r>     2.2830    28.6859   254.4884 </r>
       <r>     2.5239    29.2486   261.5356 </r>
       <r>     2.7649    38.3213   270.7686 </r>
       <r>     3.0058    45.7962   281.8027 </r>
       <r>     3.2468    48.7675   293.5527 </r>
       <r>     3.4877    42.1788   303.7152 </r>
       <r>     3.7286     7.5022   305.5228 </r>
       <r>     3.9696    21.1930   310.6290 </r>
       <r>     4.2105    72.4230   328.0785 </r>
       <r>     4.4514    46.2301   339.2171 </r>
       <r>     4.6924    11.5503   342.0000 </r>
       <r>     4.9333     0.0000   342.0000 </r>
       <r>     5.1743     0.0000   342.0000 </r>
       <r>     5.4152     0.0000   342.0000 </r>
       <r>     5.6561     0.0000   342.0000 </r>
       <r>     5.8971     0.0000   342.0000 </r>
       <r>     6.1380     0.0000   342.0000 </r>
       <r>     6.3790     1.1929   342.2874 </r>
       <r>     6.6199     5.0889   343.5135 </r>
       <r>     6.8608     9.5716   345.8197 </r>
       <r>     7.1018    20.0781   350.6573 </r>
       <r>     7.3427    59.7919   365.0634 </r>
       <r>     7.5836    60.6220   379.6696 </r>
       <r>     7.8246    63.1022   394.8734 </r>
       <r>     8.0655    74.6285   412.8543 </r>
       <r>     8.3065    79.1689   431.9291 </r>
       <r>     8.5474    70.1104   448.8214 </r>
       <r>     8.7883    66.5514   464.8562 </r>
       <r>     9.0293    47.2448   476.2393 </r>
       <r>     9.2702    33.2773   484.2571 </r>
       <r>     9.5112     9.0807   486.4450 </r>
       <r>     9.7521     5.5590   487.7844 </r>
       <r>     9.9930    11.3898   490.5286 </r>
       <r>    10.2340    16.1695   494.4245 </r>
       <r>    10.4749    24.2190   500.2597 </r>
       <r>    10.7158    21.7308   505.4955 </r>
       <r>    10.9568    21.9240   510.7779 </r>
       <r>    11.1977    31.9168   518.4679 </r>
       <r>    11.4387    20.1541   523.3238 </r>
       <r>    11.6796    18.5568   527.7948 </r>
       <r>    11.9205    11.8181   530.6422 </r>
       <r>    12.1615    24.0951   536.4477 </r>
       <r>    12.4024    44.6651   547.2092 </r>
       <r>    12.6434    35.5449   555.7733 </r>
       <r>    12.8843    33.1877   563.7695 </r>
       <r>    13.1252    20.4923   568.7069 </r>
       <r>    13.3662    23.6483   574.4047 </r>
       <r>    13.6071    33.1184   582.3842 </r>
       <r>    13.8480    26.4943   588.7677 </r>
       <r>    14.0890    26.6091   595.1788 </r>
       <r>    14.3299    22.5580   600.6139 </r>
       <r>    14.5709    19.9140   605.4120 </r>
       <r>    14.8118     2.4405   606.0000 </r>
       <r>    15.0527     0.0000   606.0000 </r>
       <r>    15.2937     0.0000   606.0000 </r>
       <r>    15.5346     0.0000   606.0000 </r>
       <r>    15.7756     0.0000   606.0000 </r>
       <r>    16.0165     0.0000   606.0000 </r>
       <r>    16.2574     0.0000   606.0000 </r>
       <r>    16.4984     0.0000   606.0000 </r>
       <r>    16.7393     0.0000   606.0000 </r>
       <r>    16.9803     0.0000   606.0000 </r>
       <r>    17.2212     0.0000   606.0000 </r>
       <r>    17.4621     0.0000   606.0000 </r>
       <r>    17.7031     0.0000   606.0000 </r>
       <r>    17.9440     0.0000   606.0000 </r>
      </set>
     </set>
    </array>
   </total>
  </dos>
 </calculation>
 <structure name="finalpos" >
  <crystal>
   <varray name="basis" >
    <v>      11.77726974       0.00848871       0.06923316 </v>
    <v>      -0.03028248      11.77723386       0.06923316 </v>
    <v>      -2.02000231      -2.02666320      10.18574622 </v>
   </varray>
   <i name="volume">   1416.10551572 </i>
   <varray name="rec_basis" >
    <v>       0.08481023       0.00011906       0.01684296 </v>
    <v>      -0.00016014       0.08481016       0.01684296 </v>
    <v>      -0.00057537      -0.00057727       0.09794744 </v>
   </varray>
  </crystal>
  <varray name="positions" >
   <v>       0.20224939       0.24122044       0.83183419 </v>
   <v>       0.53558272       0.24206952       0.83183419 </v>
   <v>       0.86891606       0.24206952       0.83183419 </v>
   <v>       0.20224939       0.57540285       0.83183419 </v>
   <v>       0.53558272       0.57540285       0.83183419 </v>
   <v>       0.86891606       0.57540285       0.83183419 </v>
   <v>       0.20224939       0.90873619       0.83183419 </v>
   <v>       0.53558272       0.90873619       0.83183419 </v>
   <v>       0.86891606       0.90873619       0.83183419 </v>
   <v>       0.09126381       0.13108394       0.16816581 </v>
   <v>       0.42459715       0.13108394       0.16816581 </v>
   <v>       0.75793048       0.13108394       0.16816581 </v>
   <v>       0.09126381       0.46441728       0.16816581 </v>
   <v>       0.42459715       0.46441728       0.16816581 </v>
   <v>       0.75793048       0.46441728       0.16816581 </v>
   <v>       0.09126381       0.79775061       0.16816581 </v>
   <v>       0.42459715       0.79775061       0.16816581 </v>
   <v>       0.75793048       0.79775061       0.16816581 </v>
   <v>       0.26311007       0.13598816       0.19686089 </v>
   <v>       0.59644341       0.13598816       0.19686089 </v>
   <v>       0.92977674       0.13598816       0.19686089 </v>
   <v>       0.26311007       0.46932149       0.19686089 </v>
   <v>       0.59644341       0.46932149       0.19686089 </v>
   <v>       0.92977674       0.46932149       0.19686089 </v>
   <v>       0.26311007       0.80265483       0.19686089 </v>
   <v>       0.59644341       0.80265483       0.19686089 </v>
   <v>       0.92977674       0.80265483       0.19686089 </v>
   <v>       0.19734517       0.07022326       0.80313911 </v>
   <v>       0.53067851       0.07022326       0.80313911 </v>
   <v>       0.86401184       0.07022326       0.80313911 </v>
   <v>       0.19734517       0.40355659       0.80313911 </v>
   <v>       0.53067851       0.40355659       0.80313911 </v>
   <v>       0.86401184       0.40355659       0.80313911 </v>
   <v>       0.19734517       0.73688993       0.80313911 </v>
   <v>       0.53067851       0.73688993       0.80313911 </v>
   <v>       0.86401184       0.73688993       0.80313911 </v>
   <v>       0.00253935       0.20657296       0.62920335 </v>
   <v>       0.33587268       0.20657296       0.62920335 </v>
   <v>       0.66920601       0.20657296       0.62920335 </v>
   <v>       0.00253935       0.53990630       0.62920335 </v>
   <v>       0.33587268       0.53990630       0.62920335 </v>
   <v>       0.66920601       0.53990630       0.62920335 </v>
   <v>       0.00253935       0.87323963       0.62920335 </v>
   <v>       0.33587268       0.87323963       0.62920335 </v>
   <v>       0.66920601       0.87323963       0.62920335 </v>
   <v>       0.12676037       0.33079399       0.37079665 </v>
   <v>       0.46009370       0.33079399       0.37079665 </v>
   <v>       0.79342704       0.33079399       0.37079665 </v>
   <v>       0.12676037       0.66412732       0.37079665 </v>
   <v>       0.46009370       0.66412732       0.37079665 </v>
   <v>       0.79342704       0.66412732       0.37079665 </v>
   <v>       0.12676037       0.99746065       0.37079665 </v>
   <v>       0.46009370       0.99746065       0.37079665 </v>
   <v>       0.79342704       0.99746065       0.37079665 </v>
   <v>       0.06350899       0.26982435       0.00000000 </v>
   <v>       0.39684232       0.26982435       0.00000000 </v>
   <v>       0.73017565       0.26982435       0.00000000 </v>
   <v>       0.06350899       0.60315768       0.00000000 </v>
   <v>       0.39684232       0.60315768       0.00000000 </v>
   <v>       0.73017565       0.60315768       0.00000000 </v>
   <v>       0.06350899       0.93649101       0.00000000 </v>
   <v>       0.39684232       0.93649101       0.00000000 </v>
   <v>       0.73017565       0.93649101       0.00000000 </v>
   <v>       0.29027274       0.17214940       0.39352170 </v>
   <v>       0.62360607       0.17214940       0.39352170 </v>
   <v>       0.95693941       0.17214940       0.39352170 </v>
   <v>       0.29027274       0.50548273       0.39352170 </v>
   <v>       0.62360607       0.50548273       0.39352170 </v>
   <v>       0.95693941       0.50548273       0.39352170 </v>
   <v>       0.29027274       0.83881607       0.39352170 </v>
   <v>       0.62360607       0.83881607       0.39352170 </v>
   <v>       0.95693941       0.83881607       0.39352170 </v>
   <v>       0.16118393       0.04306059       0.60647830 </v>
   <v>       0.49451727       0.04306059       0.60647830 </v>
   <v>       0.82785060       0.04306059       0.60647830 </v>
   <v>       0.16118393       0.37639393       0.60647830 </v>
   <v>       0.49451727       0.37639393       0.60647830 </v>
   <v>       0.82785060       0.37639393       0.60647830 </v>
   <v>       0.16118393       0.70972726       0.60647830 </v>
   <v>       0.49451727       0.70972726       0.60647830 </v>
   <v>       0.82785060       0.70972726       0.60647830 </v>
   <v>       0.03761391       0.07731307       0.84542777 </v>
   <v>       0.37094724       0.07731307       0.84542777 </v>
   <v>       0.70428057       0.07731307       0.84542777 </v>
   <v>       0.03761391       0.41064640       0.84542777 </v>
   <v>       0.37094724       0.41064640       0.84542777 </v>
   <v>       0.70428057       0.41064640       0.84542777 </v>
   <v>       0.03761391       0.74397973       0.84542777 </v>
   <v>       0.37094724       0.74397973       0.84542777 </v>
   <v>       0.70428057       0.74397973       0.84542777 </v>
   <v>       0.25602027       0.29571943       0.15457223 </v>
   <v>       0.58935360       0.29571943       0.15457223 </v>
   <v>       0.92268693       0.29571943       0.15457223 </v>
   <v>       0.25602027       0.62905276       0.15457223 </v>
   <v>       0.58935360       0.62905276       0.15457223 </v>
   <v>       0.92268693       0.62905276       0.15457223 </v>
   <v>       0.25602027       0.96238609       0.15457223 </v>
   <v>       0.58935360       0.96238609       0.15457223 </v>
   <v>       0.92268693       0.96238609       0.15457223 </v>
  </varray>
 </structure>
</modeling>
