 144 144   0   0
  0.1325381E+02  0.1546422E-08  0.1214491E-08  0.1054520E-08  0.5000000E-15
  1.000000000000000E-004
  CAR 
 unknown system                          
     17.00922704    -54.87388105  301      5.08861161      1.00000000
    -54.874  0.0000E+00  0.0000E+00  0.0000E+00  0.0000E+00
    -54.634  0.0000E+00  0.0000E+00  0.0000E+00  0.0000E+00
    -54.395  0.0000E+00  0.0000E+00  0.0000E+00  0.0000E+00
    -54.155  0.0000E+00  0.0000E+00  0.0000E+00  0.0000E+00
    -53.915  0.0000E+00  0.0000E+00  0.0000E+00  0.0000E+00
    -53.676  0.0000E+00  0.0000E+00  0.0000E+00  0.0000E+00
    -53.436  0.0000E+00  0.0000E+00  0.0000E+00  0.0000E+00
    -53.197  0.0000E+00  0.0000E+00  0.0000E+00  0.0000E+00
    -52.957  0.0000E+00  0.0000E+00  0.0000E+00  0.0000E+00
    -52.717  0.0000E+00  0.0000E+00  0.0000E+00  0.0000E+00
    -52.478  0.0000E+00  0.0000E+00  0.0000E+00  0.0000E+00
    -52.238  0.0000E+00  0.0000E+00  0.0000E+00  0.0000E+00
    -51.999  0.0000E+00  0.0000E+00  0.0000E+00  0.0000E+00
    -51.759  0.2597E-03  0.0000E+00  0.6222E-04  0.0000E+00
    -51.519  0.4973E+02  0.0000E+00  0.1192E+02  0.0000E+00
    -51.280  0.8493E+02  0.0000E+00  0.3227E+02  0.0000E+00
    -51.040  0.1558E+02  0.0000E+00  0.3600E+02  0.0000E+00
    -50.801  0.0000E+00  0.0000E+00  0.3600E+02  0.0000E+00
    -50.561  0.0000E+00  0.0000E+00  0.3600E+02  0.0000E+00
    -50.321  0.9357E-04  0.0000E+00  0.3600E+02  0.0000E+00
    -50.082  0.6580E+02  0.0000E+00  0.5177E+02  0.0000E+00
    -49.842  0.2074E+03  0.0000E+00  0.1015E+03  0.0000E+00
    -49.602  0.2733E+02  0.0000E+00  0.1080E+03  0.0000E+00
    -49.363  0.0000E+00  0.0000E+00  0.1080E+03  0.0000E+00
    -49.123  0.0000E+00  0.0000E+00  0.1080E+03  0.0000E+00
    -48.884  0.0000E+00  0.0000E+00  0.1080E+03  0.0000E+00
    -48.644  0.0000E+00  0.0000E+00  0.1080E+03  0.0000E+00
    -48.404  0.0000E+00  0.0000E+00  0.1080E+03  0.0000E+00
    -48.165  0.0000E+00  0.0000E+00  0.1080E+03  0.0000E+00
    -47.925  0.0000E+00  0.0000E+00  0.1080E+03  0.0000E+00
    -47.686  0.0000E+00  0.0000E+00  0.1080E+03  0.0000E+00
    -47.446  0.0000E+00  0.0000E+00  0.1080E+03  0.0000E+00
    -47.206  0.0000E+00  0.0000E+00  0.1080E+03  0.0000E+00
    -46.967  0.0000E+00  0.5317E-01  0.1080E+03  0.1274E-01
    -46.727  0.0000E+00  0.5082E+02  0.1080E+03  0.1219E+02
    -46.488  0.0000E+00  0.9485E+02  0.1080E+03  0.3492E+02
    -46.248  0.0000E+00  0.1443E+03  0.1080E+03  0.6950E+02
    -46.008  0.0000E+00  0.1607E+03  0.1080E+03  0.1080E+03
    -45.769  0.0000E+00  0.6391E-02  0.1080E+03  0.1080E+03
    -45.529  0.0000E+00  0.0000E+00  0.1080E+03  0.1080E+03
    -45.289  0.0000E+00  0.0000E+00  0.1080E+03  0.1080E+03
    -45.050  0.0000E+00  0.0000E+00  0.1080E+03  0.1080E+03
    -44.810  0.0000E+00  0.0000E+00  0.1080E+03  0.1080E+03
    -44.571  0.0000E+00  0.0000E+00  0.1080E+03  0.1080E+03
    -44.331  0.0000E+00  0.0000E+00  0.1080E+03  0.1080E+03
    -44.091  0.0000E+00  0.0000E+00  0.1080E+03  0.1080E+03
    -43.852  0.0000E+00  0.0000E+00  0.1080E+03  0.1080E+03
    -43.612  0.0000E+00  0.0000E+00  0.1080E+03  0.1080E+03
    -43.373  0.0000E+00  0.0000E+00  0.1080E+03  0.1080E+03
    -43.133  0.0000E+00  0.0000E+00  0.1080E+03  0.1080E+03
    -42.893  0.0000E+00  0.0000E+00  0.1080E+03  0.1080E+03
    -42.654  0.0000E+00  0.0000E+00  0.1080E+03  0.1080E+03
    -42.414  0.0000E+00  0.0000E+00  0.1080E+03  0.1080E+03
    -42.175  0.0000E+00  0.0000E+00  0.1080E+03  0.1080E+03
    -41.935  0.0000E+00  0.0000E+00  0.1080E+03  0.1080E+03
    -41.695  0.0000E+00  0.0000E+00  0.1080E+03  0.1080E+03
    -41.456  0.0000E+00  0.0000E+00  0.1080E+03  0.1080E+03
    -41.216  0.0000E+00  0.0000E+00  0.1080E+03  0.1080E+03
    -40.976  0.0000E+00  0.0000E+00  0.1080E+03  0.1080E+03
    -40.737  0.9683E-09  0.3137E-09  0.1080E+03  0.1080E+03
    -40.497  0.2815E+02  0.2487E+02  0.1147E+03  0.1140E+03
    -40.258  0.4656E+02  0.5022E+02  0.1259E+03  0.1260E+03
    -40.018  0.9982E+02  0.9980E+02  0.1498E+03  0.1499E+03
    -39.778  0.2579E+02  0.2543E+02  0.1560E+03  0.1560E+03
    -39.539  0.0000E+00  0.0000E+00  0.1560E+03  0.1560E+03
    -39.299  0.0000E+00  0.0000E+00  0.1560E+03  0.1560E+03
    -39.060  0.0000E+00  0.0000E+00  0.1560E+03  0.1560E+03
    -38.820  0.0000E+00  0.0000E+00  0.1560E+03  0.1560E+03
    -38.580  0.0000E+00  0.0000E+00  0.1560E+03  0.1560E+03
    -38.341  0.0000E+00  0.0000E+00  0.1560E+03  0.1560E+03
    -38.101  0.0000E+00  0.0000E+00  0.1560E+03  0.1560E+03
    -37.862  0.0000E+00  0.0000E+00  0.1560E+03  0.1560E+03
    -37.622  0.0000E+00  0.0000E+00  0.1560E+03  0.1560E+03
    -37.382  0.0000E+00  0.0000E+00  0.1560E+03  0.1560E+03
    -37.143  0.0000E+00  0.0000E+00  0.1560E+03  0.1560E+03
    -36.903  0.0000E+00  0.0000E+00  0.1560E+03  0.1560E+03
    -36.663  0.0000E+00  0.0000E+00  0.1560E+03  0.1560E+03
    -36.424  0.0000E+00  0.0000E+00  0.1560E+03  0.1560E+03
    -36.184  0.0000E+00  0.0000E+00  0.1560E+03  0.1560E+03
    -35.945  0.0000E+00  0.0000E+00  0.1560E+03  0.1560E+03
    -35.705  0.0000E+00  0.0000E+00  0.1560E+03  0.1560E+03
    -35.465  0.0000E+00  0.0000E+00  0.1560E+03  0.1560E+03
    -35.226  0.0000E+00  0.0000E+00  0.1560E+03  0.1560E+03
    -34.986  0.0000E+00  0.0000E+00  0.1560E+03  0.1560E+03
    -34.747  0.0000E+00  0.0000E+00  0.1560E+03  0.1560E+03
    -34.507  0.0000E+00  0.0000E+00  0.1560E+03  0.1560E+03
    -34.267  0.0000E+00  0.0000E+00  0.1560E+03  0.1560E+03
    -34.028  0.0000E+00  0.0000E+00  0.1560E+03  0.1560E+03
    -33.788  0.0000E+00  0.0000E+00  0.1560E+03  0.1560E+03
    -33.549  0.0000E+00  0.0000E+00  0.1560E+03  0.1560E+03
    -33.309  0.0000E+00  0.0000E+00  0.1560E+03  0.1560E+03
    -33.069  0.0000E+00  0.0000E+00  0.1560E+03  0.1560E+03
    -32.830  0.0000E+00  0.0000E+00  0.1560E+03  0.1560E+03
    -32.590  0.0000E+00  0.0000E+00  0.1560E+03  0.1560E+03
    -32.351  0.0000E+00  0.0000E+00  0.1560E+03  0.1560E+03
    -32.111  0.0000E+00  0.0000E+00  0.1560E+03  0.1560E+03
    -31.871  0.0000E+00  0.0000E+00  0.1560E+03  0.1560E+03
    -31.632  0.0000E+00  0.0000E+00  0.1560E+03  0.1560E+03
    -31.392  0.0000E+00  0.0000E+00  0.1560E+03  0.1560E+03
    -31.152  0.0000E+00  0.0000E+00  0.1560E+03  0.1560E+03
    -30.913  0.0000E+00  0.0000E+00  0.1560E+03  0.1560E+03
    -30.673  0.0000E+00  0.0000E+00  0.1560E+03  0.1560E+03
    -30.434  0.0000E+00  0.0000E+00  0.1560E+03  0.1560E+03
    -30.194  0.0000E+00  0.0000E+00  0.1560E+03  0.1560E+03
    -29.954  0.0000E+00  0.0000E+00  0.1560E+03  0.1560E+03
    -29.715  0.0000E+00  0.0000E+00  0.1560E+03  0.1560E+03
    -29.475  0.0000E+00  0.0000E+00  0.1560E+03  0.1560E+03
    -29.236  0.0000E+00  0.0000E+00  0.1560E+03  0.1560E+03
    -28.996  0.0000E+00  0.0000E+00  0.1560E+03  0.1560E+03
    -28.756  0.0000E+00  0.0000E+00  0.1560E+03  0.1560E+03
    -28.517  0.0000E+00  0.0000E+00  0.1560E+03  0.1560E+03
    -28.277  0.0000E+00  0.0000E+00  0.1560E+03  0.1560E+03
    -28.038  0.0000E+00  0.0000E+00  0.1560E+03  0.1560E+03
    -27.798  0.0000E+00  0.0000E+00  0.1560E+03  0.1560E+03
    -27.558  0.0000E+00  0.0000E+00  0.1560E+03  0.1560E+03
    -27.319  0.0000E+00  0.0000E+00  0.1560E+03  0.1560E+03
    -27.079  0.0000E+00  0.0000E+00  0.1560E+03  0.1560E+03
    -26.839  0.0000E+00  0.0000E+00  0.1560E+03  0.1560E+03
    -26.600  0.0000E+00  0.0000E+00  0.1560E+03  0.1560E+03
    -26.360  0.0000E+00  0.0000E+00  0.1560E+03  0.1560E+03
    -26.121  0.0000E+00  0.0000E+00  0.1560E+03  0.1560E+03
    -25.881  0.0000E+00  0.0000E+00  0.1560E+03  0.1560E+03
    -25.641  0.0000E+00  0.0000E+00  0.1560E+03  0.1560E+03
    -25.402  0.0000E+00  0.0000E+00  0.1560E+03  0.1560E+03
    -25.162  0.0000E+00  0.0000E+00  0.1560E+03  0.1560E+03
    -24.923  0.0000E+00  0.0000E+00  0.1560E+03  0.1560E+03
    -24.683  0.0000E+00  0.0000E+00  0.1560E+03  0.1560E+03
    -24.443  0.0000E+00  0.0000E+00  0.1560E+03  0.1560E+03
    -24.204  0.0000E+00  0.0000E+00  0.1560E+03  0.1560E+03
    -23.964  0.0000E+00  0.0000E+00  0.1560E+03  0.1560E+03
    -23.725  0.0000E+00  0.0000E+00  0.1560E+03  0.1560E+03
    -23.485  0.0000E+00  0.0000E+00  0.1560E+03  0.1560E+03
    -23.245  0.0000E+00  0.0000E+00  0.1560E+03  0.1560E+03
    -23.006  0.0000E+00  0.0000E+00  0.1560E+03  0.1560E+03
    -22.766  0.0000E+00  0.0000E+00  0.1560E+03  0.1560E+03
    -22.526  0.0000E+00  0.0000E+00  0.1560E+03  0.1560E+03
    -22.287  0.0000E+00  0.0000E+00  0.1560E+03  0.1560E+03
    -22.047  0.0000E+00  0.0000E+00  0.1560E+03  0.1560E+03
    -21.808  0.0000E+00  0.0000E+00  0.1560E+03  0.1560E+03
    -21.568  0.0000E+00  0.0000E+00  0.1560E+03  0.1560E+03
    -21.328  0.0000E+00  0.0000E+00  0.1560E+03  0.1560E+03
    -21.089  0.0000E+00  0.0000E+00  0.1560E+03  0.1560E+03
    -20.849  0.0000E+00  0.0000E+00  0.1560E+03  0.1560E+03
    -20.610  0.0000E+00  0.0000E+00  0.1560E+03  0.1560E+03
    -20.370  0.0000E+00  0.0000E+00  0.1560E+03  0.1560E+03
    -20.130  0.0000E+00  0.0000E+00  0.1560E+03  0.1560E+03
    -19.891  0.0000E+00  0.0000E+00  0.1560E+03  0.1560E+03
    -19.651  0.0000E+00  0.0000E+00  0.1560E+03  0.1560E+03
    -19.412  0.0000E+00  0.0000E+00  0.1560E+03  0.1560E+03
    -19.172  0.0000E+00  0.0000E+00  0.1560E+03  0.1560E+03
    -18.932  0.0000E+00  0.0000E+00  0.1560E+03  0.1560E+03
    -18.693  0.0000E+00  0.0000E+00  0.1560E+03  0.1560E+03
    -18.453  0.0000E+00  0.0000E+00  0.1560E+03  0.1560E+03
    -18.213  0.0000E+00  0.0000E+00  0.1560E+03  0.1560E+03
    -17.974  0.0000E+00  0.0000E+00  0.1560E+03  0.1560E+03
    -17.734  0.0000E+00  0.0000E+00  0.1560E+03  0.1560E+03
    -17.495  0.0000E+00  0.0000E+00  0.1560E+03  0.1560E+03
    -17.255  0.0000E+00  0.0000E+00  0.1560E+03  0.1560E+03
    -17.015  0.0000E+00  0.0000E+00  0.1560E+03  0.1560E+03
    -16.776  0.0000E+00  0.0000E+00  0.1560E+03  0.1560E+03
    -16.536  0.0000E+00  0.0000E+00  0.1560E+03  0.1560E+03
    -16.297  0.0000E+00  0.0000E+00  0.1560E+03  0.1560E+03
    -16.057  0.0000E+00  0.0000E+00  0.1560E+03  0.1560E+03
    -15.817  0.0000E+00  0.0000E+00  0.1560E+03  0.1560E+03
    -15.578  0.0000E+00  0.0000E+00  0.1560E+03  0.1560E+03
    -15.338  0.0000E+00  0.0000E+00  0.1560E+03  0.1560E+03
    -15.099  0.0000E+00  0.0000E+00  0.1560E+03  0.1560E+03
    -14.859  0.0000E+00  0.0000E+00  0.1560E+03  0.1560E+03
    -14.619  0.0000E+00  0.0000E+00  0.1560E+03  0.1560E+03
    -14.380  0.0000E+00  0.0000E+00  0.1560E+03  0.1560E+03
    -14.140  0.0000E+00  0.0000E+00  0.1560E+03  0.1560E+03
    -13.901  0.1161E-02  0.0000E+00  0.1560E+03  0.1560E+03
    -13.661  0.2209E+02  0.5106E-13  0.1613E+03  0.1560E+03
    -13.421  0.2780E+02  0.1742E+01  0.1680E+03  0.1564E+03
    -13.182  0.8709E+01  0.4443E+02  0.1700E+03  0.1671E+03
    -12.942  0.3150E+02  0.4570E+01  0.1776E+03  0.1682E+03
    -12.702  0.1006E+02  0.4188E+02  0.1800E+03  0.1782E+03
    -12.463  0.0000E+00  0.7541E+01  0.1800E+03  0.1800E+03
    -12.223  0.0000E+00  0.0000E+00  0.1800E+03  0.1800E+03
    -11.984  0.0000E+00  0.0000E+00  0.1800E+03  0.1800E+03
    -11.744  0.0000E+00  0.0000E+00  0.1800E+03  0.1800E+03
    -11.504  0.0000E+00  0.0000E+00  0.1800E+03  0.1800E+03
    -11.265  0.0000E+00  0.0000E+00  0.1800E+03  0.1800E+03
    -11.025  0.0000E+00  0.0000E+00  0.1800E+03  0.1800E+03
    -10.786  0.0000E+00  0.0000E+00  0.1800E+03  0.1800E+03
    -10.546  0.0000E+00  0.0000E+00  0.1800E+03  0.1800E+03
    -10.306  0.0000E+00  0.0000E+00  0.1800E+03  0.1800E+03
    -10.067  0.0000E+00  0.0000E+00  0.1800E+03  0.1800E+03
     -9.827  0.0000E+00  0.0000E+00  0.1800E+03  0.1800E+03
     -9.588  0.0000E+00  0.0000E+00  0.1800E+03  0.1800E+03
     -9.348  0.0000E+00  0.0000E+00  0.1800E+03  0.1800E+03
     -9.108  0.0000E+00  0.0000E+00  0.1800E+03  0.1800E+03
     -8.869  0.0000E+00  0.0000E+00  0.1800E+03  0.1800E+03
     -8.629  0.0000E+00  0.0000E+00  0.1800E+03  0.1800E+03
     -8.389  0.0000E+00  0.0000E+00  0.1800E+03  0.1800E+03
     -8.150  0.0000E+00  0.0000E+00  0.1800E+03  0.1800E+03
     -7.910  0.2095E-02  0.0000E+00  0.1800E+03  0.1800E+03
     -7.671  0.9340E+01  0.1589E-01  0.1822E+03  0.1800E+03
     -7.431  0.2306E+02  0.1192E+02  0.1878E+03  0.1829E+03
     -7.191  0.5563E+02  0.2848E+02  0.2011E+03  0.1897E+03
     -6.952  0.5817E+02  0.5983E+02  0.2150E+03  0.2040E+03
     -6.712  0.4045E+01  0.4662E+02  0.2160E+03  0.2152E+03
     -6.473  0.0000E+00  0.3374E+01  0.2160E+03  0.2160E+03
     -6.233  0.0000E+00  0.0000E+00  0.2160E+03  0.2160E+03
     -5.993  0.0000E+00  0.0000E+00  0.2160E+03  0.2160E+03
     -5.754  0.0000E+00  0.0000E+00  0.2160E+03  0.2160E+03
     -5.514  0.0000E+00  0.0000E+00  0.2160E+03  0.2160E+03
     -5.275  0.0000E+00  0.0000E+00  0.2160E+03  0.2160E+03
     -5.035  0.0000E+00  0.0000E+00  0.2160E+03  0.2160E+03
     -4.795  0.0000E+00  0.0000E+00  0.2160E+03  0.2160E+03
     -4.556  0.0000E+00  0.0000E+00  0.2160E+03  0.2160E+03
     -4.316  0.0000E+00  0.0000E+00  0.2160E+03  0.2160E+03
     -4.076  0.0000E+00  0.0000E+00  0.2160E+03  0.2160E+03
     -3.837  0.0000E+00  0.0000E+00  0.2160E+03  0.2160E+03
     -3.597  0.0000E+00  0.0000E+00  0.2160E+03  0.2160E+03
     -3.358  0.0000E+00  0.0000E+00  0.2160E+03  0.2160E+03
     -3.118  0.0000E+00  0.0000E+00  0.2160E+03  0.2160E+03
     -2.878  0.1619E-13  0.0000E+00  0.2160E+03  0.2160E+03
     -2.639  0.8379E+00  0.0000E+00  0.2162E+03  0.2160E+03
     -2.399  0.1029E+02  0.0000E+00  0.2187E+03  0.2160E+03
     -2.160  0.2041E+02  0.0000E+00  0.2236E+03  0.2160E+03
     -1.920  0.1923E+01  0.0000E+00  0.2240E+03  0.2160E+03
     -1.680  0.3456E+02  0.0000E+00  0.2323E+03  0.2160E+03
     -1.441  0.1949E+02  0.4119E-15  0.2370E+03  0.2160E+03
     -1.201  0.4415E+02  0.8599E-01  0.2476E+03  0.2160E+03
     -0.962  0.4960E+02  0.4411E+01  0.2594E+03  0.2171E+03
     -0.722  0.7498E+02  0.1406E+02  0.2774E+03  0.2204E+03
     -0.482  0.1033E+03  0.1530E+02  0.3021E+03  0.2241E+03
     -0.243  0.8547E+02  0.1955E+02  0.3226E+03  0.2288E+03
     -0.003  0.1105E+03  0.4128E+02  0.3491E+03  0.2387E+03
      0.237  0.6982E+02  0.3395E+02  0.3658E+03  0.2468E+03
      0.476  0.3828E+02  0.4211E+02  0.3750E+03  0.2569E+03
      0.716  0.4570E+02  0.3371E+02  0.3860E+03  0.2650E+03
      0.955  0.4869E+02  0.5290E+02  0.3976E+03  0.2777E+03
      1.195  0.5551E+02  0.6048E+02  0.4109E+03  0.2922E+03
      1.435  0.6428E+02  0.4442E+02  0.4263E+03  0.3028E+03
      1.674  0.1008E+03  0.4008E+02  0.4505E+03  0.3124E+03
      1.914  0.5252E+02  0.3845E+02  0.4631E+03  0.3216E+03
      2.153  0.3877E+02  0.3739E+02  0.4724E+03  0.3306E+03
      2.393  0.4654E+02  0.3828E+02  0.4835E+03  0.3397E+03
      2.633  0.4781E+02  0.4938E+02  0.4950E+03  0.3516E+03
      2.872  0.4353E+02  0.6291E+02  0.5054E+03  0.3667E+03
      3.112  0.4014E+02  0.5876E+02  0.5150E+03  0.3807E+03
      3.351  0.4745E+02  0.4803E+02  0.5264E+03  0.3922E+03
      3.591  0.5252E+02  0.2993E+02  0.5390E+03  0.3994E+03
      3.831  0.4542E+02  0.6124E+02  0.5498E+03  0.4141E+03
      4.070  0.3197E+02  0.7338E+02  0.5575E+03  0.4317E+03
      4.310  0.4243E+02  0.1382E+01  0.5677E+03  0.4320E+03
      4.549  0.2363E+02  0.0000E+00  0.5733E+03  0.4320E+03
      4.789  0.1022E+02  0.0000E+00  0.5758E+03  0.4320E+03
      5.029  0.9062E+00  0.0000E+00  0.5760E+03  0.4320E+03
      5.268  0.0000E+00  0.0000E+00  0.5760E+03  0.4320E+03
      5.508  0.0000E+00  0.0000E+00  0.5760E+03  0.4320E+03
      5.748  0.0000E+00  0.0000E+00  0.5760E+03  0.4320E+03
      5.987  0.0000E+00  0.5127E-11  0.5760E+03  0.4320E+03
      6.227  0.0000E+00  0.1446E+00  0.5760E+03  0.4320E+03
      6.466  0.0000E+00  0.8153E+01  0.5760E+03  0.4340E+03
      6.706  0.0000E+00  0.3027E+02  0.5760E+03  0.4412E+03
      6.946  0.7398E-12  0.4343E+02  0.5760E+03  0.4516E+03
      7.185  0.1073E+00  0.7319E+02  0.5760E+03  0.4692E+03
      7.425  0.1310E+00  0.8079E+02  0.5761E+03  0.4885E+03
      7.664  0.8932E+00  0.6540E+02  0.5763E+03  0.5042E+03
      7.904  0.3501E+01  0.8788E+02  0.5771E+03  0.5253E+03
      8.144  0.4267E+01  0.7131E+02  0.5781E+03  0.5424E+03
      8.383  0.7041E+01  0.5441E+02  0.5798E+03  0.5554E+03
      8.623  0.1638E+02  0.3721E+02  0.5837E+03  0.5643E+03
      8.862  0.2528E+02  0.3915E+02  0.5898E+03  0.5737E+03
      9.102  0.1923E+02  0.1937E+02  0.5944E+03  0.5783E+03
      9.342  0.2536E+02  0.1391E+02  0.6005E+03  0.5817E+03
      9.581  0.3123E+02  0.2059E+02  0.6080E+03  0.5866E+03
      9.821  0.2662E+02  0.3001E+02  0.6143E+03  0.5938E+03
     10.061  0.2965E+02  0.2653E+02  0.6215E+03  0.6001E+03
     10.300  0.2276E+02  0.3471E+02  0.6269E+03  0.6085E+03
     10.540  0.2040E+02  0.3545E+02  0.6318E+03  0.6170E+03
     10.779  0.2855E+02  0.2795E+02  0.6386E+03  0.6237E+03
     11.019  0.3894E+02  0.2244E+02  0.6480E+03  0.6290E+03
     11.259  0.3940E+02  0.2160E+02  0.6574E+03  0.6342E+03
     11.498  0.3729E+02  0.3229E+02  0.6663E+03  0.6419E+03
     11.738  0.4481E+02  0.3875E+02  0.6771E+03  0.6512E+03
     11.977  0.3854E+02  0.4259E+02  0.6863E+03  0.6614E+03
     12.217  0.3856E+02  0.5197E+02  0.6956E+03  0.6739E+03
     12.457  0.3993E+02  0.4682E+02  0.7051E+03  0.6851E+03
     12.696  0.3649E+02  0.3596E+02  0.7139E+03  0.6937E+03
     12.936  0.3439E+02  0.4128E+02  0.7221E+03  0.7036E+03
     13.175  0.2280E+02  0.3973E+02  0.7276E+03  0.7131E+03
     13.415  0.1799E+01  0.3423E+02  0.7280E+03  0.7213E+03
     13.655  0.0000E+00  0.2396E+02  0.7280E+03  0.7271E+03
     13.894  0.0000E+00  0.3874E+01  0.7280E+03  0.7280E+03
     14.134  0.0000E+00  0.3738E-05  0.7280E+03  0.7280E+03
     14.374  0.0000E+00  0.0000E+00  0.7280E+03  0.7280E+03
     14.613  0.0000E+00  0.0000E+00  0.7280E+03  0.7280E+03
     14.853  0.0000E+00  0.0000E+00  0.7280E+03  0.7280E+03
     15.092  0.0000E+00  0.0000E+00  0.7280E+03  0.7280E+03
     15.332  0.0000E+00  0.0000E+00  0.7280E+03  0.7280E+03
     15.572  0.0000E+00  0.0000E+00  0.7280E+03  0.7280E+03
     15.811  0.0000E+00  0.0000E+00  0.7280E+03  0.7280E+03
     16.051  0.0000E+00  0.0000E+00  0.7280E+03  0.7280E+03
     16.290  0.0000E+00  0.0000E+00  0.7280E+03  0.7280E+03
     16.530  0.0000E+00  0.0000E+00  0.7280E+03  0.7280E+03
     16.770  0.0000E+00  0.0000E+00  0.7280E+03  0.7280E+03
     17.009  0.0000E+00  0.0000E+00  0.7280E+03  0.7280E+03
