<?xml version="1.0" encoding="ISO-8859-1"?>
<modeling>
 <generator>
  <i name="program" type="string">vasp </i>
  <i name="version" type="string">5.4.4.18Apr17-6-g9f103f2a35  </i>
  <i name="subversion" type="string">(build Oct 25 2017 14:42:18) complex            parallel </i>
  <i name="platform" type="string">LinuxIFC </i>
  <i name="date" type="string">2021 04 18 </i>
  <i name="time" type="string">01:55:45 </i>
 </generator>
 <incar>
  <i type="string" name="PREC">accurate</i>
  <i type="string" name="ALGO"> normal</i>
  <i type="logical" name="ADDGRID"> T  </i>
  <i type="int" name="ISPIN">     2</i>
  <i type="int" name="ICHARG">     1</i>
  <i type="int" name="NELM">   200</i>
  <i type="int" name="NELMIN">     8</i>
  <i name="EDIFF">      0.00000100</i>
  <i type="int" name="ISYM">     0</i>
  <i name="ENCUT">    650.00000000</i>
  <v name="MAGMOM">      0.60000000      0.60000000      0.60000000      0.60000000      0.60000000      0.60000000      0.60000000      0.60000000      0.60000000      0.60000000      0.60000000      0.60000000      0.60000000      0.60000000      0.60000000      0.60000000      0.60000000      0.60000000      0.60000000      0.60000000
      0.60000000      0.60000000      0.60000000      0.60000000      0.60000000      0.60000000      0.60000000      0.60000000      0.60000000      0.60000000      0.60000000      0.60000000      0.60000000      0.60000000      0.60000000      0.60000000      0.60000000      0.60000000      0.60000000      0.60000000
      0.60000000      0.60000000      0.60000000      0.60000000      0.60000000      0.60000000      0.60000000      0.60000000      5.00000000      5.00000000      5.00000000      5.00000000      5.00000000      5.00000000      5.00000000      5.00000000      5.00000000      5.00000000      5.00000000      5.00000000
      5.00000000      5.00000000      5.00000000      5.00000000      5.00000000      5.00000000      5.00000000      5.00000000      5.00000000      5.00000000      5.00000000      5.00000000      5.00000000      5.00000000      5.00000000      5.00000000      5.00000000      5.00000000      5.00000000      5.00000000
      5.00000000      5.00000000      5.00000000      5.00000000      0.60000000      0.60000000      0.60000000      0.60000000      0.60000000      0.60000000      0.60000000      0.60000000      0.60000000      0.60000000      0.60000000      0.60000000      0.60000000      0.60000000      0.60000000      0.60000000
      0.60000000      0.60000000      0.60000000      0.60000000      0.60000000      0.60000000      0.60000000      0.60000000      0.60000000      0.60000000      0.60000000      0.60000000      0.60000000      0.60000000      0.60000000      0.60000000      0.60000000      0.60000000      0.60000000      0.60000000
      0.60000000      0.60000000      0.60000000      0.60000000      0.60000000      0.60000000      0.60000000      0.60000000      0.60000000      0.60000000      0.60000000      0.60000000      0.60000000      0.60000000      0.60000000      0.60000000      0.60000000      0.60000000      0.60000000      0.60000000
      0.60000000      0.60000000      0.60000000      0.60000000</v>
  <i type="logical" name="LREAL"> F  </i>
  <i type="int" name="ISMEAR">     0</i>
  <i name="SIGMA">      0.05000000</i>
  <i type="int" name="NWRITE">     1</i>
  <i type="int" name="LMAXMIX">     4</i>
  <i type="logical" name="LWAVE"> F  </i>
  <i type="logical" name="LASPH"> T  </i>
  <v type="int" name="KPOINT_BSE">    -1     0     0     0</v>
  <i type="int" name="NELM">   200</i>
  <i type="string" name="GGA"> pe</i>
  <i type="logical" name="LDAU"> T  </i>
  <v type="int" name="LDAUTYPE">     2</v>
  <v type="int" name="LDAUL">    -1     2    -1    -1</v>
  <v name="LDAUU">      0.00000000      4.00000000      0.00000000      0.00000000</v>
  <v name="LDAUJ">      0.00000000      0.00000000      0.00000000      0.00000000</v>
  <i type="logical" name="LASPH"> T  </i>
 </incar>
 <structure name="primitive_cell" >
  <crystal>
   <varray name="basis" >
    <v>      15.21162830       0.00516956      -2.78361592 </v>
    <v>      -0.40798665      11.93565774      -2.20735884 </v>
    <v>      -0.06175567      -0.11168197      10.54442638 </v>
   </varray>
   <i name="volume">   1908.54869108 </i>
   <varray name="rec_basis" >
    <v>       0.06581343       0.00232549       0.00041008 </v>
    <v>       0.00013433       0.08395174       0.00088997 </v>
    <v>       0.01740216       0.01818827       0.09513139 </v>
   </varray>
  </crystal>
  <varray name="positions" >
   <v>       0.47527516       0.00074367       0.00446200 </v>
   <v>      -0.47527003       0.03239991       0.19439947 </v>
   <v>       0.47618324      -0.03189981      -0.19139884 </v>
   <v>       0.37500000       0.16666667       0.00000000 </v>
   <v>       0.37500000      -0.16666667       0.00000000 </v>
   <v>       0.40535584       0.03794021       0.22764128 </v>
   <v>      -0.35733875       0.02567762       0.15406572 </v>
   <v>       0.47796480       0.13582521      -0.18504874 </v>
   <v>       0.47796480      -0.19750812      -0.18504874 </v>
   <v>       0.34464416      -0.03794021      -0.22764128 </v>
   <v>      -0.39266125      -0.02567762      -0.15406572 </v>
   <v>      -0.47447416       0.19979622       0.19877732 </v>
   <v>      -0.47447416      -0.13353711       0.19877732 </v>
   <v>      -0.37500000       0.16666667       0.00000000 </v>
   <v>      -0.37500000      -0.16666667       0.00000000 </v>
   <v>       0.27472484      -0.00074367      -0.00446200 </v>
   <v>       0.27381676       0.03189981       0.19139884 </v>
   <v>      -0.42788806       0.06536154       0.39216926 </v>
   <v>       0.22527003      -0.03239991      -0.19439947 </v>
   <v>       0.47527516      -0.33258966       0.00446200 </v>
   <v>       0.47527516       0.33407700       0.00446200 </v>
   <v>       0.46517249      -0.06641917      -0.39851502 </v>
   <v>       0.27203520       0.19750812       0.18504874 </v>
   <v>       0.27203520      -0.13582521       0.18504874 </v>
   <v>      -0.47527003       0.36573324       0.19439947 </v>
   <v>      -0.47527003      -0.30093342       0.19439947 </v>
   <v>       0.41606772       0.22793643       0.36761855 </v>
   <v>       0.41542107      -0.10539691       0.36761855 </v>
   <v>       0.22447416       0.13353711      -0.19877732 </v>
   <v>       0.22447416      -0.19979622      -0.19877732 </v>
   <v>       0.33457893       0.10539691      -0.36761855 </v>
   <v>       0.33457893      -0.22793643      -0.36761855 </v>
   <v>       0.47618324       0.30143353      -0.19139884 </v>
   <v>       0.47618324      -0.36523314      -0.19139884 </v>
   <v>      -0.22527516      -0.00074367      -0.00446200 </v>
   <v>      -0.22618324       0.03189981       0.19139884 </v>
   <v>      -0.27472997      -0.03239991      -0.19439947 </v>
   <v>      -0.32385262       0.22809805       0.36858830 </v>
   <v>      -0.32385262      -0.10523528       0.36858830 </v>
   <v>      -0.42614738       0.10523528      -0.36858830 </v>
   <v>      -0.42614738      -0.22809805      -0.36858830 </v>
   <v>       0.40535584       0.37127355       0.22764128 </v>
   <v>       0.40535584      -0.29539312       0.22764128 </v>
   <v>      -0.35733875       0.35901095       0.15406572 </v>
   <v>      -0.35733875      -0.30765571       0.15406572 </v>
   <v>       0.34464416       0.29539312      -0.22764128 </v>
   <v>       0.34464416      -0.37127355      -0.22764128 </v>
   <v>      -0.39266125       0.30765571      -0.15406572 </v>
   <v>      -0.39266125      -0.35901095      -0.15406572 </v>
   <v>      -0.22796480       0.19750812       0.18504874 </v>
   <v>      -0.22796480      -0.13582521       0.18504874 </v>
   <v>       0.27472484       0.33258966      -0.00446200 </v>
   <v>       0.27472484      -0.33407700      -0.00446200 </v>
   <v>      -0.27552584       0.13353711      -0.19877732 </v>
   <v>      -0.27552584      -0.19979622      -0.19877732 </v>
   <v>       0.28482751       0.06641917       0.39851502 </v>
   <v>       0.17788806      -0.06536154      -0.39216926 </v>
   <v>       0.10733875      -0.02567762      -0.15406572 </v>
   <v>      -0.32211194      -0.06536154      -0.39216926 </v>
   <v>       0.14266125       0.02567762       0.15406572 </v>
   <v>       0.27381676       0.36523314       0.19139884 </v>
   <v>       0.27381676      -0.30143353       0.19139884 </v>
   <v>      -0.21517249       0.06641917       0.39851502 </v>
   <v>      -0.42788806       0.39869487       0.39216926 </v>
   <v>      -0.42788806      -0.26797179       0.39216926 </v>
   <v>       0.22527003       0.30093342      -0.19439947 </v>
   <v>       0.22527003      -0.36573324      -0.19439947 </v>
   <v>       0.12500000       0.16666667       0.00000000 </v>
   <v>       0.12500000      -0.16666667       0.00000000 </v>
   <v>       0.46517249       0.26691416      -0.39851502 </v>
   <v>       0.46517249      -0.39975250      -0.39851502 </v>
   <v>      -0.22527516       0.33258966      -0.00446200 </v>
   <v>      -0.22527516      -0.33407700      -0.00446200 </v>
   <v>      -0.22618324       0.36523314       0.19139884 </v>
   <v>      -0.22618324      -0.30143353       0.19139884 </v>
   <v>      -0.27472997       0.30093342      -0.19439947 </v>
   <v>      -0.27472997      -0.36573324      -0.19439947 </v>
   <v>       0.37500000      -0.50000000       0.00000000 </v>
   <v>       0.47796480       0.46915854      -0.18504874 </v>
   <v>      -0.47447416      -0.46687045       0.19877732 </v>
   <v>      -0.37500000      -0.50000000       0.00000000 </v>
   <v>      -0.12500000       0.16666667       0.00000000 </v>
   <v>      -0.12500000      -0.16666667       0.00000000 </v>
   <v>      -0.15535584      -0.03794021      -0.22764128 </v>
   <v>      -0.09464416       0.03794021       0.22764128 </v>
   <v>       0.28482751      -0.26691416       0.39851502 </v>
   <v>      -0.32211194       0.26797179      -0.39216926 </v>
   <v>       0.28482751       0.39975250       0.39851502 </v>
   <v>       0.17614738       0.22809805       0.36858830 </v>
   <v>       0.17614738      -0.10523528       0.36858830 </v>
   <v>       0.17788806       0.26797179      -0.39216926 </v>
   <v>       0.17788806      -0.39869487      -0.39216926 </v>
   <v>       0.10733875       0.30765571      -0.15406572 </v>
   <v>       0.10733875      -0.35901095      -0.15406572 </v>
   <v>      -0.32211194      -0.39869487      -0.39216926 </v>
   <v>       0.14266125       0.35901095       0.15406572 </v>
   <v>       0.14266125      -0.30765571       0.15406572 </v>
   <v>       0.07385262       0.10523528      -0.36858830 </v>
   <v>       0.07385262      -0.22809805      -0.36858830 </v>
   <v>      -0.21517249       0.39975250       0.39851502 </v>
   <v>      -0.21517249      -0.26691416       0.39851502 </v>
   <v>       0.27203520      -0.46915854       0.18504874 </v>
   <v>       0.41542107      -0.43873024       0.36761855 </v>
   <v>       0.22447416       0.46687045      -0.19877732 </v>
   <v>       0.33457893       0.43873024      -0.36761855 </v>
   <v>      -0.08457893       0.22793643       0.36761855 </v>
   <v>      -0.08457893      -0.10539691       0.36761855 </v>
   <v>      -0.32385262      -0.43856862       0.36858830 </v>
   <v>      -0.42614738       0.43856862      -0.36858830 </v>
   <v>       0.02472997       0.03239991       0.19439947 </v>
   <v>      -0.02381676      -0.03189981      -0.19139884 </v>
   <v>      -0.16542107       0.10539691      -0.36761855 </v>
   <v>      -0.16542107      -0.22793643      -0.36761855 </v>
   <v>      -0.22796480      -0.46915854       0.18504874 </v>
   <v>      -0.27552584       0.46687045      -0.19877732 </v>
   <v>      -0.02472484       0.00074367       0.00446200 </v>
   <v>      -0.15535584       0.29539312      -0.22764128 </v>
   <v>      -0.15535584      -0.37127355      -0.22764128 </v>
   <v>      -0.09464416       0.37127355       0.22764128 </v>
   <v>      -0.09464416      -0.29539312       0.22764128 </v>
   <v>      -0.02203520       0.13582521      -0.18504874 </v>
   <v>      -0.02203520      -0.19750812      -0.18504874 </v>
   <v>       0.02552584       0.19979622       0.19877732 </v>
   <v>       0.02552584      -0.13353711       0.19877732 </v>
   <v>       0.07211194       0.06536154       0.39216926 </v>
   <v>       0.12500000      -0.50000000       0.00000000 </v>
   <v>      -0.03482751      -0.06641917      -0.39851502 </v>
   <v>       0.07211194      -0.26797179       0.39216926 </v>
   <v>       0.17614738      -0.43856862       0.36858830 </v>
   <v>       0.02472997       0.36573324       0.19439947 </v>
   <v>       0.02472997      -0.30093342       0.19439947 </v>
   <v>      -0.02381676       0.30143353      -0.19139884 </v>
   <v>      -0.02381676      -0.36523314      -0.19139884 </v>
   <v>      -0.12500000      -0.50000000       0.00000000 </v>
   <v>      -0.16542107       0.43873024      -0.36761855 </v>
   <v>      -0.02472484      -0.33258966       0.00446200 </v>
   <v>      -0.02472484       0.33407700       0.00446200 </v>
   <v>       0.07211194       0.39869487       0.39216926 </v>
   <v>       0.07385262       0.43856862      -0.36858830 </v>
   <v>      -0.03482751       0.26691416      -0.39851502 </v>
   <v>      -0.03482751      -0.39975250      -0.39851502 </v>
   <v>      -0.08457893      -0.43873024       0.36761855 </v>
   <v>      -0.02203520       0.46915854      -0.18504874 </v>
   <v>       0.02552584      -0.46687045       0.19877732 </v>
  </varray>
 </structure>
 <varray name="primitive_index" >
  <v type="int" >        1 </v>
  <v type="int" >      134 </v>
  <v type="int" >      131 </v>
  <v type="int" >       91 </v>
  <v type="int" >       95 </v>
  <v type="int" >       43 </v>
  <v type="int" >       38 </v>
  <v type="int" >       67 </v>
  <v type="int" >       71 </v>
  <v type="int" >       35 </v>
  <v type="int" >       30 </v>
  <v type="int" >       74 </v>
  <v type="int" >       78 </v>
  <v type="int" >       86 </v>
  <v type="int" >       90 </v>
  <v type="int" >       11 </v>
  <v type="int" >      139 </v>
  <v type="int" >       20 </v>
  <v type="int" >      125 </v>
  <v type="int" >        5 </v>
  <v type="int" >        3 </v>
  <v type="int" >       53 </v>
  <v type="int" >       79 </v>
  <v type="int" >       83 </v>
  <v type="int" >      136 </v>
  <v type="int" >      138 </v>
  <v type="int" >      103 </v>
  <v type="int" >      107 </v>
  <v type="int" >       61 </v>
  <v type="int" >       65 </v>
  <v type="int" >      115 </v>
  <v type="int" >      119 </v>
  <v type="int" >      127 </v>
  <v type="int" >      129 </v>
  <v type="int" >       12 </v>
  <v type="int" >      140 </v>
  <v type="int" >      126 </v>
  <v type="int" >       98 </v>
  <v type="int" >      102 </v>
  <v type="int" >      110 </v>
  <v type="int" >      114 </v>
  <v type="int" >       45 </v>
  <v type="int" >       47 </v>
  <v type="int" >       40 </v>
  <v type="int" >       42 </v>
  <v type="int" >       31 </v>
  <v type="int" >       33 </v>
  <v type="int" >       26 </v>
  <v type="int" >       28 </v>
  <v type="int" >       80 </v>
  <v type="int" >       84 </v>
  <v type="int" >        7 </v>
  <v type="int" >        9 </v>
  <v type="int" >       62 </v>
  <v type="int" >       66 </v>
  <v type="int" >       55 </v>
  <v type="int" >       17 </v>
  <v type="int" >       29 </v>
  <v type="int" >       18 </v>
  <v type="int" >       37 </v>
  <v type="int" >      141 </v>
  <v type="int" >      143 </v>
  <v type="int" >       56 </v>
  <v type="int" >       22 </v>
  <v type="int" >       24 </v>
  <v type="int" >      121 </v>
  <v type="int" >      123 </v>
  <v type="int" >       85 </v>
  <v type="int" >       89 </v>
  <v type="int" >       49 </v>
  <v type="int" >       51 </v>
  <v type="int" >        8 </v>
  <v type="int" >       10 </v>
  <v type="int" >      142 </v>
  <v type="int" >      144 </v>
  <v type="int" >      122 </v>
  <v type="int" >      124 </v>
  <v type="int" >       93 </v>
  <v type="int" >       69 </v>
  <v type="int" >       76 </v>
  <v type="int" >       88 </v>
  <v type="int" >       92 </v>
  <v type="int" >       96 </v>
  <v type="int" >       36 </v>
  <v type="int" >       44 </v>
  <v type="int" >       59 </v>
  <v type="int" >       14 </v>
  <v type="int" >       57 </v>
  <v type="int" >       97 </v>
  <v type="int" >      101 </v>
  <v type="int" >       13 </v>
  <v type="int" >       15 </v>
  <v type="int" >       25 </v>
  <v type="int" >       27 </v>
  <v type="int" >       16 </v>
  <v type="int" >       39 </v>
  <v type="int" >       41 </v>
  <v type="int" >      109 </v>
  <v type="int" >      113 </v>
  <v type="int" >       58 </v>
  <v type="int" >       60 </v>
  <v type="int" >       81 </v>
  <v type="int" >      105 </v>
  <v type="int" >       63 </v>
  <v type="int" >      117 </v>
  <v type="int" >      104 </v>
  <v type="int" >      108 </v>
  <v type="int" >      100 </v>
  <v type="int" >      112 </v>
  <v type="int" >      133 </v>
  <v type="int" >      132 </v>
  <v type="int" >      116 </v>
  <v type="int" >      120 </v>
  <v type="int" >       82 </v>
  <v type="int" >       64 </v>
  <v type="int" >        2 </v>
  <v type="int" >       32 </v>
  <v type="int" >       34 </v>
  <v type="int" >       46 </v>
  <v type="int" >       48 </v>
  <v type="int" >       68 </v>
  <v type="int" >       72 </v>
  <v type="int" >       73 </v>
  <v type="int" >       77 </v>
  <v type="int" >       19 </v>
  <v type="int" >       87 </v>
  <v type="int" >       54 </v>
  <v type="int" >       23 </v>
  <v type="int" >       99 </v>
  <v type="int" >      135 </v>
  <v type="int" >      137 </v>
  <v type="int" >      128 </v>
  <v type="int" >      130 </v>
  <v type="int" >       94 </v>
  <v type="int" >      118 </v>
  <v type="int" >        6 </v>
  <v type="int" >        4 </v>
  <v type="int" >       21 </v>
  <v type="int" >      111 </v>
  <v type="int" >       50 </v>
  <v type="int" >       52 </v>
  <v type="int" >      106 </v>
  <v type="int" >       70 </v>
  <v type="int" >       75 </v>
 </varray>
 <kpoints>
  <generation param="Gamma">
   <v type="int" name="divisions">       2        3        3 </v>
   <v name="usershift">      0.00000000       0.00000000       0.00000000 </v>
   <v name="genvec1">      0.50000000       0.00000000      -0.00000000 </v>
   <v name="genvec2">      0.00000000       0.33333333       0.00000000 </v>
   <v name="genvec3">      0.00000000       0.00000000       0.33333333 </v>
   <v name="shift">      0.00000000       0.00000000       0.00000000 </v>
  </generation>
  <varray name="kpointlist" >
   <v>       0.00000000       0.00000000       0.00000000 </v>
   <v>       0.50000000      -0.00000000       0.00000000 </v>
   <v>      -0.00000000       0.33333333      -0.00000000 </v>
   <v>       0.50000000       0.33333333      -0.00000000 </v>
   <v>      -0.00000000       0.00000000       0.33333333 </v>
   <v>       0.50000000       0.00000000       0.33333333 </v>
   <v>      -0.00000000       0.33333333       0.33333333 </v>
   <v>       0.50000000       0.33333333       0.33333333 </v>
   <v>      -0.00000000      -0.33333333       0.33333333 </v>
   <v>       0.50000000      -0.33333333       0.33333333 </v>
  </varray>
  <varray name="weights" >
   <v>       0.05555556 </v>
   <v>       0.05555556 </v>
   <v>       0.11111111 </v>
   <v>       0.11111111 </v>
   <v>       0.11111111 </v>
   <v>       0.11111111 </v>
   <v>       0.11111111 </v>
   <v>       0.11111111 </v>
   <v>       0.11111111 </v>
   <v>       0.11111111 </v>
  </varray>
 </kpoints>
 <parameters>
  <separator name="general" >
   <i type="string" name="SYSTEM">unknown system</i>
   <i type="logical" name="LCOMPAT"> F  </i>
  </separator>
  <separator name="electronic" >
   <i type="string" name="PREC">accura</i>
   <i name="ENMAX">    650.00000000</i>
   <i name="ENAUG">    628.94500000</i>
   <i name="EDIFF">      0.00000100</i>
   <i type="int" name="IALGO">    38</i>
   <i type="int" name="IWAVPR">    10</i>
   <i type="int" name="NBANDS">   728</i>
   <i name="NELECT">   1008.00000000</i>
   <i type="int" name="TURBO">     0</i>
   <i type="int" name="IRESTART">     0</i>
   <i type="int" name="NREBOOT">     0</i>
   <i type="int" name="NMIN">     0</i>
   <i name="EREF">      0.00000000</i>
   <separator name="electronic smearing" >
    <i type="int" name="ISMEAR">     0</i>
    <i name="SIGMA">      0.05000000</i>
    <i name="KSPACING">      0.50000000</i>
    <i type="logical" name="KGAMMA"> T  </i>
   </separator>
   <separator name="electronic projectors" >
    <i type="logical" name="LREAL"> F  </i>
    <v name="ROPT">      0.00000000      0.00000000      0.00000000      0.00000000</v>
    <i type="int" name="LMAXPAW">  -100</i>
    <i type="int" name="LMAXMIX">     4</i>
    <i type="logical" name="NLSPLINE"> F  </i>
   </separator>
   <separator name="electronic startup" >
    <i type="int" name="ISTART">     0</i>
    <i type="int" name="ICHARG">     1</i>
    <i type="int" name="INIWAV">     1</i>
   </separator>
   <separator name="electronic spin" >
    <i type="int" name="ISPIN">     2</i>
    <i type="logical" name="LNONCOLLINEAR"> F  </i>
    <v name="MAGMOM">      0.60000000      0.60000000      0.60000000      0.60000000      0.60000000      0.60000000      0.60000000      0.60000000      0.60000000      0.60000000      0.60000000      0.60000000      0.60000000      0.60000000      0.60000000      0.60000000      0.60000000      0.60000000      0.60000000      0.60000000
      0.60000000      0.60000000      0.60000000      0.60000000      0.60000000      0.60000000      0.60000000      0.60000000      0.60000000      0.60000000      0.60000000      0.60000000      0.60000000      0.60000000      0.60000000      0.60000000      0.60000000      0.60000000      0.60000000      0.60000000
      0.60000000      0.60000000      0.60000000      0.60000000      0.60000000      0.60000000      0.60000000      0.60000000      5.00000000      5.00000000      5.00000000      5.00000000      5.00000000      5.00000000      5.00000000      5.00000000      5.00000000      5.00000000      5.00000000      5.00000000
      5.00000000      5.00000000      5.00000000      5.00000000      5.00000000      5.00000000      5.00000000      5.00000000      5.00000000      5.00000000      5.00000000      5.00000000      5.00000000      5.00000000      5.00000000      5.00000000      5.00000000      5.00000000      5.00000000      5.00000000
      5.00000000      5.00000000      5.00000000      5.00000000      0.60000000      0.60000000      0.60000000      0.60000000      0.60000000      0.60000000      0.60000000      0.60000000      0.60000000      0.60000000      0.60000000      0.60000000      0.60000000      0.60000000      0.60000000      0.60000000
      0.60000000      0.60000000      0.60000000      0.60000000      0.60000000      0.60000000      0.60000000      0.60000000      0.60000000      0.60000000      0.60000000      0.60000000      0.60000000      0.60000000      0.60000000      0.60000000      0.60000000      0.60000000      0.60000000      0.60000000
      0.60000000      0.60000000      0.60000000      0.60000000      0.60000000      0.60000000      0.60000000      0.60000000      0.60000000      0.60000000      0.60000000      0.60000000      0.60000000      0.60000000      0.60000000      0.60000000      0.60000000      0.60000000      0.60000000      0.60000000
      0.60000000      0.60000000      0.60000000      0.60000000</v>
    <i name="NUPDOWN">     -1.00000000</i>
    <i type="logical" name="LSORBIT"> F  </i>
    <v name="SAXIS">      0.00000000      0.00000000      1.00000000</v>
    <i type="logical" name="LSPIRAL"> F  </i>
    <v name="QSPIRAL">      0.00000000      0.00000000      0.00000000</v>
    <i type="logical" name="LZEROZ"> F  </i>
   </separator>
   <separator name="electronic exchange-correlation" >
    <i type="logical" name="LASPH"> T  </i>
    <i type="logical" name="LMETAGGA"> F  </i>
   </separator>
   <separator name="electronic convergence" >
    <i type="int" name="NELM">   200</i>
    <i type="int" name="NELMDL">     0</i>
    <i type="int" name="NELMIN">     8</i>
    <i name="ENINI">    650.00000000</i>
    <separator name="electronic convergence detail" >
     <i type="logical" name="LDIAG"> T  </i>
     <i type="logical" name="LSUBROT"> F  </i>
     <i name="WEIMIN">      0.00000000</i>
     <i name="EBREAK">      0.00000000</i>
     <i name="DEPER">      0.30000000</i>
     <i type="int" name="NRMM">     4</i>
     <i name="TIME">      0.40000000</i>
    </separator>
   </separator>
   <separator name="electronic mixer" >
    <i name="AMIX">      0.40000000</i>
    <i name="BMIX">      1.00000000</i>
    <i name="AMIN">      0.10000000</i>
    <i name="AMIX_MAG">      1.60000000</i>
    <i name="BMIX_MAG">      1.00000000</i>
    <separator name="electronic mixer details" >
     <i type="int" name="IMIX">     4</i>
     <i type="logical" name="MIXFIRST"> F  </i>
     <i type="int" name="MAXMIX">   -45</i>
     <i name="WC">    100.00000000</i>
     <i type="int" name="INIMIX">     1</i>
     <i type="int" name="MIXPRE">     1</i>
     <i type="int" name="MREMOVE">     5</i>
    </separator>
   </separator>
   <separator name="electronic dipolcorrection" >
    <i type="logical" name="LDIPOL"> F  </i>
    <i type="logical" name="LMONO"> F  </i>
    <i type="int" name="IDIPOL">     0</i>
    <i name="EPSILON">      1.00000000</i>
    <v name="DIPOL">   -100.00000000   -100.00000000   -100.00000000</v>
    <i name="EFIELD">      0.00000000</i>
   </separator>
  </separator>
  <separator name="grids" >
   <i type="int" name="NGX">   140</i>
   <i type="int" name="NGY">   108</i>
   <i type="int" name="NGZ">    90</i>
   <i type="int" name="NGXF">   280</i>
   <i type="int" name="NGYF">   216</i>
   <i type="int" name="NGZF">   180</i>
   <i type="logical" name="ADDGRID"> T  </i>
  </separator>
  <separator name="ionic" >
   <i type="int" name="NSW">     0</i>
   <i type="int" name="IBRION">    -1</i>
   <i type="int" name="MDALGO">     0</i>
   <i type="int" name="ISIF">     2</i>
   <i name="PSTRESS">      0.00000000</i>
   <i name="EDIFFG">      0.00001000</i>
   <i type="int" name="NFREE">     0</i>
   <i name="POTIM">      0.50000000</i>
   <i name="SMASS">     -3.00000000</i>
   <i name="SCALEE">      1.00000000</i>
  </separator>
  <separator name="ionic md" >
   <i name="TEBEG">      0.00010000</i>
   <i name="TEEND">      0.00010000</i>
   <i type="int" name="NBLOCK">     1</i>
   <i type="int" name="KBLOCK">     1</i>
   <i type="int" name="NPACO">   256</i>
   <i name="APACO">     16.00000000</i>
  </separator>
  <separator name="symmetry" >
   <i type="int" name="ISYM">     0</i>
   <i name="SYMPREC">      0.00001000</i>
  </separator>
  <separator name="dos" >
   <i type="int" name="LORBIT">     0</i>
   <v name="RWIGS">     -1.00000000     -1.00000000     -1.00000000     -1.00000000</v>
   <i type="int" name="NEDOS">   301</i>
   <i name="EMIN">     10.00000000</i>
   <i name="EMAX">    -10.00000000</i>
   <i name="EFERMI">      0.00000000</i>
  </separator>
  <separator name="writing" >
   <i type="int" name="NWRITE">     1</i>
   <i type="logical" name="LWAVE"> F  </i>
   <i type="logical" name="LDOWNSAMPLE"> F  </i>
   <i type="logical" name="LCHARG"> T  </i>
   <i type="logical" name="LPARD"> F  </i>
   <i type="logical" name="LVTOT"> F  </i>
   <i type="logical" name="LVHAR"> F  </i>
   <i type="logical" name="LELF"> F  </i>
   <i type="logical" name="LOPTICS"> F  </i>
   <v name="STM">      0.00000000      0.00000000      0.00000000      0.00000000      0.00000000      0.00000000      0.00000000</v>
  </separator>
  <separator name="performance" >
   <i type="int" name="NPAR">     4</i>
   <i type="int" name="NSIM">     4</i>
   <i type="int" name="NBLK">    -1</i>
   <i type="logical" name="LPLANE"> T  </i>
   <i type="logical" name="LSCALAPACK"> T  </i>
   <i type="logical" name="LSCAAWARE"> F  </i>
   <i type="logical" name="LSCALU"> F  </i>
   <i type="logical" name="LASYNC"> F  </i>
   <i type="logical" name="LORBITALREAL"> F  </i>
  </separator>
  <separator name="miscellaneous" >
   <i type="int" name="IDIOT">     3</i>
   <i type="int" name="ISPECIAL">     0</i>
   <i type="logical" name="LMUSIC"> F  </i>
   <v name="POMASS">      7.01000000     55.84700000     32.06600000     16.00000000</v>
   <v name="DARWINR">      0.00000000      0.00000000      0.00000000      0.00000000</v>
   <v name="DARWINV">      1.00000000      1.00000000      1.00000000      1.00000000</v>
   <i type="logical" name="LCORR"> T  </i>
  </separator>
  <i type="logical" name="GGA_COMPAT"> T  </i>
  <i type="logical" name="LBERRY"> F  </i>
  <i type="int" name="ICORELEVEL">     0</i>
  <i type="logical" name="LDAU"> T  </i>
  <v type="int" name="LDAUTYPE">     2</v>
  <v type="int" name="LDAUL">    -1</v>
  <v name="LDAUU">      0.00000000</v>
  <v name="LDAUJ">      0.00000000</v>
  <i type="int" name="LDAUPRINT">     0</i>
  <i type="int" name="I_CONSTRAINED_M">     0</i>
  <separator name="electronic exchange-correlation" >
   <i type="string" name="GGA">PE</i>
   <i type="int" name="VOSKOWN">     0</i>
   <i type="logical" name="LHFCALC"> F  </i>
   <i type="string" name="PRECFOCK"></i>
   <i type="logical" name="LSYMGRAD"> F  </i>
   <i type="logical" name="LHFONE"> F  </i>
   <i type="logical" name="LRHFCALC"> F  </i>
   <i type="logical" name="LTHOMAS"> F  </i>
   <i type="logical" name="LMODELHF"> F  </i>
   <i name="ENCUT4O">     -1.00000000</i>
   <i type="int" name="EXXOEP">     0</i>
   <i type="int" name="FOURORBIT">     0</i>
   <i name="AEXX">      0.00000000</i>
   <i name="HFALPHA">      0.00000000</i>
   <i name="MCALPHA">      0.00000000</i>
   <i name="ALDAX">      1.00000000</i>
   <i name="AGGAX">      1.00000000</i>
   <i name="ALDAC">      1.00000000</i>
   <i name="AGGAC">      1.00000000</i>
   <i type="int" name="NKREDX">     1</i>
   <i type="int" name="NKREDY">     1</i>
   <i type="int" name="NKREDZ">     1</i>
   <i type="logical" name="SHIFTRED"> F  </i>
   <i type="logical" name="ODDONLY"> F  </i>
   <i type="logical" name="EVENONLY"> F  </i>
   <i type="int" name="LMAXFOCK">     0</i>
   <i type="int" name="NMAXFOCKAE">     0</i>
   <i type="logical" name="LFOCKAEDFT"> F  </i>
   <i name="HFSCREEN">      0.00000000</i>
   <i name="HFSCREENC">      0.00000000</i>
   <i type="int" name="NBANDSGWLOW">     0</i>
  </separator>
  <separator name="vdW DFT" >
   <i type="logical" name="LUSE_VDW"> F  </i>
   <i name="Zab_VDW">     -0.84910000</i>
   <i name="PARAM1">      0.12340000</i>
   <i name="PARAM2">      1.00000000</i>
   <i name="PARAM3">      0.00000000</i>
  </separator>
  <separator name="model GW" >
   <i type="int" name="MODEL_GW">     0</i>
   <i name="MODEL_EPS0">      7.95228621</i>
   <i name="MODEL_ALPHA">      1.00000000</i>
  </separator>
  <separator name="linear response parameters" >
   <i type="logical" name="LEPSILON"> F  </i>
   <i type="logical" name="LRPA"> F  </i>
   <i type="logical" name="LNABLA"> F  </i>
   <i type="logical" name="LVEL"> F  </i>
   <i type="int" name="KINTER">     0</i>
   <i name="CSHIFT">      0.10000000</i>
   <i name="OMEGAMAX">     -1.00000000</i>
   <i name="DEG_THRESHOLD">      0.00200000</i>
   <i name="RTIME">     -0.10000000</i>
   <i name="WPLASMAI">      0.00000000</i>
   <v name="DFIELD">      0.00000000      0.00000000      0.00000000</v>
   <v name="WPLASMA">      0.00000000      0.00000000      0.00000000      0.00000000      0.00000000      0.00000000      0.00000000      0.00000000      0.00000000</v>
  </separator>
  <separator name="orbital magnetization" >
   <i type="logical" name="NUCIND"> F  </i>
   <v name="MAGPOS">      0.00000000      0.00000000      0.00000000</v>
   <i type="logical" name="LNICSALL"> T  </i>
   <i type="logical" name="ORBITALMAG"> F  </i>
   <i type="logical" name="LMAGBLOCH"> F  </i>
   <i type="logical" name="LCHIMAG"> F  </i>
   <i type="logical" name="LGAUGE"> T  </i>
   <i type="int" name="MAGATOM">     0</i>
   <v name="MAGDIPOL">      0.00000000      0.00000000      0.00000000</v>
   <v name="AVECCONST">      0.00000000      0.00000000      0.00000000</v>
  </separator>
  <separator name="response functions" >
   <i type="logical" name="LADDER"> F  </i>
   <i type="logical" name="LRPAFORCE"> F  </i>
   <i type="logical" name="LFXC"> F  </i>
   <i type="logical" name="LHARTREE"> T  </i>
   <i type="int" name="IBSE">     0</i>
   <v type="int" name="KPOINT">    -1     0     0     0</v>
   <i type="logical" name="LTCTE"> F  </i>
   <i type="logical" name="LTETE"> F  </i>
   <i type="logical" name="LTRIPLET"> F  </i>
   <i type="logical" name="LFXCEPS"> F  </i>
   <i type="logical" name="LFXHEG"> F  </i>
   <i type="int" name="NATURALO">     2</i>
   <i type="logical" name="L2ORDER"> F  </i>
   <i type="logical" name="LMP2LT"> F  </i>
   <i type="logical" name="LUSEW"> F  </i>
   <i name="ENCUTGW">     -2.00000000</i>
   <i name="ENCUTGWSOFT">     -2.00000000</i>
   <i name="ENCUTLF">     -1.00000000</i>
   <i type="int" name="LMAXMP2">    -1</i>
   <i name="SCISSOR">      0.00000000</i>
   <i type="int" name="NOMEGA">     0</i>
   <i type="int" name="NOMEGAR">     0</i>
   <i type="int" name="NBANDSGW">    -1</i>
   <i type="int" name="NBANDSO">    -1</i>
   <i type="int" name="NBANDSV">    -1</i>
   <i type="int" name="NELM">   200</i>
   <i type="int" name="NELMHF">     1</i>
   <i type="int" name="DIM">     3</i>
   <i type="int" name="ANTIRES">     0</i>
   <i name="OMEGAMAX">    -30.00000000</i>
   <i name="OMEGAMIN">    -30.00000000</i>
   <i name="OMEGATL">   -200.00000000</i>
   <i type="int" name="OMEGAGRID">   140</i>
   <i name="CSHIFT">     -0.10000000</i>
   <i type="logical" name="SELFENERGY"> F  </i>
   <i type="logical" name="LSPECTRAL"> F  </i>
   <i type="logical" name="LSPECTRALGW"> F  </i>
   <i type="logical" name="LSINGLES"> F  </i>
   <i type="logical" name="LFERMIGW"> F  </i>
   <i type="logical" name="ODDONLYGW"> F  </i>
   <i type="logical" name="EVENONLYGW"> F  </i>
   <i type="int" name="NKREDLFX">     1</i>
   <i type="int" name="NKREDLFY">     1</i>
   <i type="int" name="NKREDLFZ">     1</i>
   <i type="int" name="MAXMEM">  2800</i>
   <i type="int" name="TELESCOPE">     0</i>
   <i type="int" name="TAUPAR">     1</i>
   <i type="int" name="OMEGAPAR">    -1</i>
   <i name="LAMBDA">      1.00000000</i>
  </separator>
  <separator name="External order field" >
   <i name="OFIELD_KAPPA">      0.00000000</i>
   <v name="OFIELD_K">      0.00000000      0.00000000      0.00000000</v>
   <i name="OFIELD_Q6_NEAR">      0.00000000</i>
   <i name="OFIELD_Q6_FAR">      0.00000000</i>
   <i name="OFIELD_A">      0.00000000</i>
  </separator>
 </parameters>
 <atominfo>
  <atoms>     144 </atoms>
  <types>       4 </types>
  <array name="atoms" >
   <dimension dim="1">ion</dimension>
   <field type="string">element</field>
   <field type="int">atomtype</field>
   <set>
    <rc><c>Li</c><c>   1</c></rc>
    <rc><c>Li</c><c>   1</c></rc>
    <rc><c>Li</c><c>   1</c></rc>
    <rc><c>Li</c><c>   1</c></rc>
    <rc><c>Li</c><c>   1</c></rc>
    <rc><c>Li</c><c>   1</c></rc>
    <rc><c>Li</c><c>   1</c></rc>
    <rc><c>Li</c><c>   1</c></rc>
    <rc><c>Li</c><c>   1</c></rc>
    <rc><c>Li</c><c>   1</c></rc>
    <rc><c>Li</c><c>   1</c></rc>
    <rc><c>Li</c><c>   1</c></rc>
    <rc><c>Li</c><c>   1</c></rc>
    <rc><c>Li</c><c>   1</c></rc>
    <rc><c>Li</c><c>   1</c></rc>
    <rc><c>Li</c><c>   1</c></rc>
    <rc><c>Li</c><c>   1</c></rc>
    <rc><c>Li</c><c>   1</c></rc>
    <rc><c>Li</c><c>   1</c></rc>
    <rc><c>Li</c><c>   1</c></rc>
    <rc><c>Li</c><c>   1</c></rc>
    <rc><c>Li</c><c>   1</c></rc>
    <rc><c>Li</c><c>   1</c></rc>
    <rc><c>Li</c><c>   1</c></rc>
    <rc><c>Li</c><c>   1</c></rc>
    <rc><c>Li</c><c>   1</c></rc>
    <rc><c>Li</c><c>   1</c></rc>
    <rc><c>Li</c><c>   1</c></rc>
    <rc><c>Li</c><c>   1</c></rc>
    <rc><c>Li</c><c>   1</c></rc>
    <rc><c>Li</c><c>   1</c></rc>
    <rc><c>Li</c><c>   1</c></rc>
    <rc><c>Li</c><c>   1</c></rc>
    <rc><c>Li</c><c>   1</c></rc>
    <rc><c>Li</c><c>   1</c></rc>
    <rc><c>Li</c><c>   1</c></rc>
    <rc><c>Li</c><c>   1</c></rc>
    <rc><c>Li</c><c>   1</c></rc>
    <rc><c>Li</c><c>   1</c></rc>
    <rc><c>Li</c><c>   1</c></rc>
    <rc><c>Li</c><c>   1</c></rc>
    <rc><c>Li</c><c>   1</c></rc>
    <rc><c>Li</c><c>   1</c></rc>
    <rc><c>Li</c><c>   1</c></rc>
    <rc><c>Li</c><c>   1</c></rc>
    <rc><c>Li</c><c>   1</c></rc>
    <rc><c>Li</c><c>   1</c></rc>
    <rc><c>Li</c><c>   1</c></rc>
    <rc><c>Fe</c><c>   2</c></rc>
    <rc><c>Fe</c><c>   2</c></rc>
    <rc><c>Fe</c><c>   2</c></rc>
    <rc><c>Fe</c><c>   2</c></rc>
    <rc><c>Fe</c><c>   2</c></rc>
    <rc><c>Fe</c><c>   2</c></rc>
    <rc><c>Fe</c><c>   2</c></rc>
    <rc><c>Fe</c><c>   2</c></rc>
    <rc><c>Fe</c><c>   2</c></rc>
    <rc><c>Fe</c><c>   2</c></rc>
    <rc><c>Fe</c><c>   2</c></rc>
    <rc><c>Fe</c><c>   2</c></rc>
    <rc><c>Fe</c><c>   2</c></rc>
    <rc><c>Fe</c><c>   2</c></rc>
    <rc><c>Fe</c><c>   2</c></rc>
    <rc><c>Fe</c><c>   2</c></rc>
    <rc><c>Fe</c><c>   2</c></rc>
    <rc><c>Fe</c><c>   2</c></rc>
    <rc><c>Fe</c><c>   2</c></rc>
    <rc><c>Fe</c><c>   2</c></rc>
    <rc><c>Fe</c><c>   2</c></rc>
    <rc><c>Fe</c><c>   2</c></rc>
    <rc><c>Fe</c><c>   2</c></rc>
    <rc><c>Fe</c><c>   2</c></rc>
    <rc><c>Fe</c><c>   2</c></rc>
    <rc><c>Fe</c><c>   2</c></rc>
    <rc><c>Fe</c><c>   2</c></rc>
    <rc><c>Fe</c><c>   2</c></rc>
    <rc><c>Fe</c><c>   2</c></rc>
    <rc><c>Fe</c><c>   2</c></rc>
    <rc><c>Fe</c><c>   2</c></rc>
    <rc><c>Fe</c><c>   2</c></rc>
    <rc><c>Fe</c><c>   2</c></rc>
    <rc><c>Fe</c><c>   2</c></rc>
    <rc><c>Fe</c><c>   2</c></rc>
    <rc><c>Fe</c><c>   2</c></rc>
    <rc><c>S </c><c>   3</c></rc>
    <rc><c>S </c><c>   3</c></rc>
    <rc><c>S </c><c>   3</c></rc>
    <rc><c>S </c><c>   3</c></rc>
    <rc><c>S </c><c>   3</c></rc>
    <rc><c>S </c><c>   3</c></rc>
    <rc><c>S </c><c>   3</c></rc>
    <rc><c>S </c><c>   3</c></rc>
    <rc><c>S </c><c>   3</c></rc>
    <rc><c>S </c><c>   3</c></rc>
    <rc><c>S </c><c>   3</c></rc>
    <rc><c>S </c><c>   3</c></rc>
    <rc><c>S </c><c>   3</c></rc>
    <rc><c>S </c><c>   3</c></rc>
    <rc><c>S </c><c>   3</c></rc>
    <rc><c>S </c><c>   3</c></rc>
    <rc><c>S </c><c>   3</c></rc>
    <rc><c>S </c><c>   3</c></rc>
    <rc><c>S </c><c>   3</c></rc>
    <rc><c>S </c><c>   3</c></rc>
    <rc><c>S </c><c>   3</c></rc>
    <rc><c>S </c><c>   3</c></rc>
    <rc><c>S </c><c>   3</c></rc>
    <rc><c>S </c><c>   3</c></rc>
    <rc><c>S </c><c>   3</c></rc>
    <rc><c>S </c><c>   3</c></rc>
    <rc><c>S </c><c>   3</c></rc>
    <rc><c>S </c><c>   3</c></rc>
    <rc><c>S </c><c>   3</c></rc>
    <rc><c>S </c><c>   3</c></rc>
    <rc><c>S </c><c>   3</c></rc>
    <rc><c>S </c><c>   3</c></rc>
    <rc><c>S </c><c>   3</c></rc>
    <rc><c>S </c><c>   3</c></rc>
    <rc><c>S </c><c>   3</c></rc>
    <rc><c>S </c><c>   3</c></rc>
    <rc><c>O </c><c>   4</c></rc>
    <rc><c>O </c><c>   4</c></rc>
    <rc><c>O </c><c>   4</c></rc>
    <rc><c>O </c><c>   4</c></rc>
    <rc><c>O </c><c>   4</c></rc>
    <rc><c>O </c><c>   4</c></rc>
    <rc><c>O </c><c>   4</c></rc>
    <rc><c>O </c><c>   4</c></rc>
    <rc><c>O </c><c>   4</c></rc>
    <rc><c>O </c><c>   4</c></rc>
    <rc><c>O </c><c>   4</c></rc>
    <rc><c>O </c><c>   4</c></rc>
    <rc><c>O </c><c>   4</c></rc>
    <rc><c>O </c><c>   4</c></rc>
    <rc><c>O </c><c>   4</c></rc>
    <rc><c>O </c><c>   4</c></rc>
    <rc><c>O </c><c>   4</c></rc>
    <rc><c>O </c><c>   4</c></rc>
    <rc><c>O </c><c>   4</c></rc>
    <rc><c>O </c><c>   4</c></rc>
    <rc><c>O </c><c>   4</c></rc>
    <rc><c>O </c><c>   4</c></rc>
    <rc><c>O </c><c>   4</c></rc>
    <rc><c>O </c><c>   4</c></rc>
   </set>
  </array>
  <array name="atomtypes" >
   <dimension dim="1">type</dimension>
   <field type="int">atomspertype</field>
   <field type="string">element</field>
   <field>mass</field>
   <field>valence</field>
   <field type="string">pseudopotential</field>
   <set>
    <rc><c>  48</c><c>Li</c><c>      7.01000000</c><c>      3.00000000</c><c>  PAW_PBE Li_sv 10Sep2004               </c></rc>
    <rc><c>  36</c><c>Fe</c><c>     55.84700000</c><c>     14.00000000</c><c>  PAW_PBE Fe_pv 02Aug2007               </c></rc>
    <rc><c>  36</c><c>S </c><c>     32.06600000</c><c>      6.00000000</c><c>  PAW_PBE S 06Sep2000                   </c></rc>
    <rc><c>  24</c><c>O </c><c>     16.00000000</c><c>      6.00000000</c><c>  PAW_PBE O 08Apr2002                   </c></rc>
   </set>
  </array>
 </atominfo>
 <structure name="initialpos" >
  <crystal>
   <varray name="basis" >
    <v>      15.21162830       0.00516956      -2.78361592 </v>
    <v>      -0.40798665      11.93565774      -2.20735884 </v>
    <v>      -0.06175567      -0.11168197      10.54442638 </v>
   </varray>
   <i name="volume">   1908.54869108 </i>
   <varray name="rec_basis" >
    <v>       0.06581343       0.00232549       0.00041008 </v>
    <v>       0.00013433       0.08395174       0.00088997 </v>
    <v>       0.01740216       0.01818827       0.09513139 </v>
   </varray>
  </crystal>
  <varray name="positions" >
   <v>       0.47527516       0.00074367       0.00446200 </v>
   <v>       0.97527516       0.00074367       0.00446200 </v>
   <v>       0.47527516       0.33407700       0.00446200 </v>
   <v>       0.97527516       0.33407700       0.00446200 </v>
   <v>       0.47527516       0.66741034       0.00446200 </v>
   <v>       0.97527516       0.66741034       0.00446200 </v>
   <v>       0.27472484       0.33258966       0.99553800 </v>
   <v>       0.77472484       0.33258966       0.99553800 </v>
   <v>       0.27472484       0.66592300       0.99553800 </v>
   <v>       0.77472484       0.66592300       0.99553800 </v>
   <v>       0.27472484       0.99925633       0.99553800 </v>
   <v>       0.77472484       0.99925633       0.99553800 </v>
   <v>       0.17788805       0.26797179       0.60783074 </v>
   <v>       0.67788805       0.26797179       0.60783074 </v>
   <v>       0.17788805       0.60130513       0.60783074 </v>
   <v>       0.67788805       0.60130513       0.60783074 </v>
   <v>       0.17788805       0.93463846       0.60783074 </v>
   <v>       0.67788805       0.93463846       0.60783074 </v>
   <v>       0.07211195       0.06536154       0.39216926 </v>
   <v>       0.57211195       0.06536154       0.39216926 </v>
   <v>       0.07211195       0.39869487       0.39216926 </v>
   <v>       0.57211195       0.39869487       0.39216926 </v>
   <v>       0.07211195       0.73202821       0.39216926 </v>
   <v>       0.57211195       0.73202821       0.39216926 </v>
   <v>       0.10733875       0.30765571       0.84593428 </v>
   <v>       0.60733875       0.30765571       0.84593428 </v>
   <v>       0.10733875       0.64098905       0.84593428 </v>
   <v>       0.60733875       0.64098905       0.84593428 </v>
   <v>       0.10733875       0.97432238       0.84593428 </v>
   <v>       0.60733875       0.97432238       0.84593428 </v>
   <v>       0.34464416       0.29539312       0.77235872 </v>
   <v>       0.84464416       0.29539312       0.77235872 </v>
   <v>       0.34464416       0.62872645       0.77235872 </v>
   <v>       0.84464416       0.62872645       0.77235872 </v>
   <v>       0.34464416       0.96205979       0.77235872 </v>
   <v>       0.84464416       0.96205979       0.77235872 </v>
   <v>       0.14266125       0.02567762       0.15406572 </v>
   <v>       0.64266125       0.02567762       0.15406572 </v>
   <v>       0.14266125       0.35901095       0.15406572 </v>
   <v>       0.64266125       0.35901095       0.15406572 </v>
   <v>       0.14266125       0.69234429       0.15406572 </v>
   <v>       0.64266125       0.69234429       0.15406572 </v>
   <v>       0.40535584       0.03794021       0.22764128 </v>
   <v>       0.90535584       0.03794021       0.22764128 </v>
   <v>       0.40535584       0.37127355       0.22764128 </v>
   <v>       0.90535584       0.37127355       0.22764128 </v>
   <v>       0.40535584       0.70460688       0.22764128 </v>
   <v>       0.90535584       0.70460688       0.22764128 </v>
   <v>       0.46517249       0.26691416       0.60148498 </v>
   <v>       0.96517249       0.26691416       0.60148498 </v>
   <v>       0.46517249       0.60024750       0.60148498 </v>
   <v>       0.96517249       0.60024750       0.60148498 </v>
   <v>       0.46517249       0.93358083       0.60148498 </v>
   <v>       0.96517249       0.93358083       0.60148498 </v>
   <v>       0.28482751       0.06641917       0.39851502 </v>
   <v>       0.78482751       0.06641917       0.39851502 </v>
   <v>       0.28482751       0.39975250       0.39851502 </v>
   <v>       0.78482751       0.39975250       0.39851502 </v>
   <v>       0.28482751       0.73308584       0.39851502 </v>
   <v>       0.78482751       0.73308584       0.39851502 </v>
   <v>       0.22447416       0.13353711       0.80122268 </v>
   <v>       0.72447416       0.13353711       0.80122268 </v>
   <v>       0.22447416       0.46687045       0.80122268 </v>
   <v>       0.72447416       0.46687045       0.80122268 </v>
   <v>       0.22447416       0.80020378       0.80122268 </v>
   <v>       0.72447416       0.80020378       0.80122268 </v>
   <v>       0.47796479       0.13582521       0.81495126 </v>
   <v>       0.97796479       0.13582521       0.81495126 </v>
   <v>       0.47796479       0.46915854       0.81495126 </v>
   <v>       0.97796479       0.46915854       0.81495126 </v>
   <v>       0.47796479       0.80249188       0.81495126 </v>
   <v>       0.97796479       0.80249188       0.81495126 </v>
   <v>       0.02552584       0.19979622       0.19877732 </v>
   <v>       0.52552584       0.19979622       0.19877732 </v>
   <v>       0.02552584       0.53312955       0.19877732 </v>
   <v>       0.52552584       0.53312955       0.19877732 </v>
   <v>       0.02552584       0.86646289       0.19877732 </v>
   <v>       0.52552584       0.86646289       0.19877732 </v>
   <v>       0.27203521       0.19750812       0.18504874 </v>
   <v>       0.77203521       0.19750812       0.18504874 </v>
   <v>       0.27203521       0.53084146       0.18504874 </v>
   <v>       0.77203521       0.53084146       0.18504874 </v>
   <v>       0.27203521       0.86417479       0.18504874 </v>
   <v>       0.77203521       0.86417479       0.18504874 </v>
   <v>       0.12500000       0.16666667       0.00000000 </v>
   <v>       0.62500000       0.16666667       0.00000000 </v>
   <v>       0.12500000       0.50000000       0.00000000 </v>
   <v>       0.62500000       0.50000000       0.00000000 </v>
   <v>       0.12500000       0.83333333       0.00000000 </v>
   <v>       0.62500000       0.83333333       0.00000000 </v>
   <v>       0.37500000       0.16666667       0.00000000 </v>
   <v>       0.87500000       0.16666667       0.00000000 </v>
   <v>       0.37500000       0.50000000       0.00000000 </v>
   <v>       0.87500000       0.50000000       0.00000000 </v>
   <v>       0.37500000       0.83333333       0.00000000 </v>
   <v>       0.87500000       0.83333333       0.00000000 </v>
   <v>       0.17614737       0.22809805       0.36858830 </v>
   <v>       0.67614737       0.22809805       0.36858830 </v>
   <v>       0.17614737       0.56143138       0.36858830 </v>
   <v>       0.67614737       0.56143138       0.36858830 </v>
   <v>       0.17614737       0.89476472       0.36858830 </v>
   <v>       0.67614737       0.89476472       0.36858830 </v>
   <v>       0.41606772       0.22793643       0.36761855 </v>
   <v>       0.91542106       0.22793643       0.36761855 </v>
   <v>       0.41542106       0.56126976       0.36761855 </v>
   <v>       0.91542106       0.56126976       0.36761855 </v>
   <v>       0.41542106       0.89460309       0.36761855 </v>
   <v>       0.91542106       0.89460309       0.36761855 </v>
   <v>       0.07385263       0.10523528       0.63141170 </v>
   <v>       0.57385263       0.10523528       0.63141170 </v>
   <v>       0.07385263       0.43856862       0.63141170 </v>
   <v>       0.57385263       0.43856862       0.63141170 </v>
   <v>       0.07385263       0.77190195       0.63141170 </v>
   <v>       0.57385263       0.77190195       0.63141170 </v>
   <v>       0.33457894       0.10539691       0.63238145 </v>
   <v>       0.83457894       0.10539691       0.63238145 </v>
   <v>       0.33457894       0.43873024       0.63238145 </v>
   <v>       0.83457894       0.43873024       0.63238145 </v>
   <v>       0.33457894       0.77206357       0.63238145 </v>
   <v>       0.83457894       0.77206357       0.63238145 </v>
   <v>       0.22527003       0.30093342       0.80560053 </v>
   <v>       0.72527003       0.30093342       0.80560053 </v>
   <v>       0.22527003       0.63426676       0.80560053 </v>
   <v>       0.72527003       0.63426676       0.80560053 </v>
   <v>       0.22527003       0.96760009       0.80560053 </v>
   <v>       0.72527003       0.96760009       0.80560053 </v>
   <v>       0.47618324       0.30143353       0.80860116 </v>
   <v>       0.97618324       0.30143353       0.80860116 </v>
   <v>       0.47618324       0.63476686       0.80860116 </v>
   <v>       0.97618324       0.63476686       0.80860116 </v>
   <v>       0.47618324       0.96810019       0.80860116 </v>
   <v>       0.97618324       0.96810019       0.80860116 </v>
   <v>       0.02472997       0.03239991       0.19439947 </v>
   <v>       0.52472997       0.03239991       0.19439947 </v>
   <v>       0.02472997       0.36573324       0.19439947 </v>
   <v>       0.52472997       0.36573324       0.19439947 </v>
   <v>       0.02472997       0.69906658       0.19439947 </v>
   <v>       0.52472997       0.69906658       0.19439947 </v>
   <v>       0.27381676       0.03189981       0.19139884 </v>
   <v>       0.77381676       0.03189981       0.19139884 </v>
   <v>       0.27381676       0.36523314       0.19139884 </v>
   <v>       0.77381676       0.36523314       0.19139884 </v>
   <v>       0.27381676       0.69856647       0.19139884 </v>
   <v>       0.77381676       0.69856647       0.19139884 </v>
  </varray>
 </structure>
 <calculation>
  <scstep>
   <time name="dav">  336.18  342.04</time>
   <time name="total">  338.73  344.65</time>
   <energy>
    <i name="alphaZ">   2668.72143546 </i>
    <i name="ewald"> -68026.90025908 </i>
    <i name="hartreedc"> -39874.38338051 </i>
    <i name="XCdc">   4298.61855816 </i>
    <i name="pawpsdc"> 114383.84820647 </i>
    <i name="pawaedc">-118048.71515856 </i>
    <i name="eentropy">     -0.02979724 </i>
    <i name="bandstr">   -564.32208719 </i>
    <i name="atom"> 118542.86816856 </i>
    <i name="e_fr_energy">  13379.70568607 </i>
    <i name="e_wo_entrp">  13379.73548332 </i>
    <i name="e_0_energy">  13379.72058470 </i>
   </energy>
  </scstep>
  <scstep>
   <time name="dav">  324.83  330.37</time>
   <time name="total">  324.84  330.37</time>
   <energy>
    <i name="e_fr_energy">   1421.87267298 </i>
    <i name="e_wo_entrp">   1421.95733015 </i>
    <i name="e_0_energy">   1421.91500157 </i>
   </energy>
  </scstep>
  <scstep>
   <time name="dav">  349.64  356.64</time>
   <time name="total">  349.64  356.64</time>
   <energy>
    <i name="e_fr_energy">   -473.18608783 </i>
    <i name="e_wo_entrp">   -473.18608783 </i>
    <i name="e_0_energy">   -473.18608783 </i>
   </energy>
  </scstep>
  <scstep>
   <time name="dav">  390.81  398.01</time>
   <time name="total">  390.82  398.02</time>
   <energy>
    <i name="e_fr_energy">   -715.99585229 </i>
    <i name="e_wo_entrp">   -715.99585229 </i>
    <i name="e_0_energy">   -715.99585229 </i>
   </energy>
  </scstep>
  <scstep>
   <time name="dav">  515.01  524.78</time>
   <time name="total">  525.60  535.60</time>
   <energy>
    <i name="e_fr_energy">   -745.36940908 </i>
    <i name="e_wo_entrp">   -745.36940908 </i>
    <i name="e_0_energy">   -745.36940908 </i>
   </energy>
  </scstep>
  <scstep>
   <time name="dav">  410.68  419.06</time>
   <time name="total">  423.96  432.47</time>
   <energy>
    <i name="e_fr_energy">   -746.58271761 </i>
    <i name="e_wo_entrp">   -746.58271761 </i>
    <i name="e_0_energy">   -746.58271761 </i>
   </energy>
  </scstep>
  <scstep>
   <time name="dav">  470.56  475.15</time>
   <time name="total">  484.03  488.66</time>
   <energy>
    <i name="e_fr_energy">   -746.63648959 </i>
    <i name="e_wo_entrp">   -746.63648959 </i>
    <i name="e_0_energy">   -746.63648959 </i>
   </energy>
  </scstep>
  <scstep>
   <time name="dav">  442.71  446.62</time>
   <time name="total">  456.25  460.24</time>
   <energy>
    <i name="e_fr_energy">   -746.63570279 </i>
    <i name="e_wo_entrp">   -746.63570279 </i>
    <i name="e_0_energy">   -746.63570279 </i>
   </energy>
  </scstep>
  <scstep>
   <time name="dav">  470.52  474.80</time>
   <time name="total">  483.70  488.32</time>
   <energy>
    <i name="e_fr_energy">   -746.63505950 </i>
    <i name="e_wo_entrp">   -746.63505950 </i>
    <i name="e_0_energy">   -746.63505950 </i>
   </energy>
  </scstep>
  <scstep>
   <time name="dav">  478.60  482.92</time>
   <time name="total">  491.96  496.44</time>
   <energy>
    <i name="e_fr_energy">   -746.63399711 </i>
    <i name="e_wo_entrp">   -746.63399711 </i>
    <i name="e_0_energy">   -746.63399711 </i>
   </energy>
  </scstep>
  <scstep>
   <time name="dav">  484.79  489.21</time>
   <time name="total">  498.22  502.70</time>
   <energy>
    <i name="e_fr_energy">   -746.63192530 </i>
    <i name="e_wo_entrp">   -746.63192530 </i>
    <i name="e_0_energy">   -746.63192530 </i>
   </energy>
  </scstep>
  <scstep>
   <time name="dav">  380.07  383.41</time>
   <time name="total">  393.43  396.90</time>
   <energy>
    <i name="e_fr_energy">   -746.63142829 </i>
    <i name="e_wo_entrp">   -746.63142829 </i>
    <i name="e_0_energy">   -746.63142829 </i>
   </energy>
  </scstep>
  <scstep>
   <time name="dav">  431.57  435.45</time>
   <time name="total">  444.89  448.89</time>
   <energy>
    <i name="e_fr_energy">   -746.63122093 </i>
    <i name="e_wo_entrp">   -746.63122093 </i>
    <i name="e_0_energy">   -746.63122093 </i>
   </energy>
  </scstep>
  <scstep>
   <time name="dav">  435.71  439.99</time>
   <time name="total">  449.12  453.50</time>
   <energy>
    <i name="e_fr_energy">   -746.63115715 </i>
    <i name="e_wo_entrp">   -746.63115715 </i>
    <i name="e_0_energy">   -746.63115715 </i>
   </energy>
  </scstep>
  <scstep>
   <time name="dav">  351.70  354.75</time>
   <time name="total">  365.04  368.29</time>
   <energy>
    <i name="e_fr_energy">   -746.63106832 </i>
    <i name="e_wo_entrp">   -746.63106832 </i>
    <i name="e_0_energy">   -746.63106832 </i>
   </energy>
  </scstep>
  <scstep>
   <time name="dav">  398.75  402.44</time>
   <time name="total">  412.11  415.91</time>
   <energy>
    <i name="e_fr_energy">   -746.63100008 </i>
    <i name="e_wo_entrp">   -746.63100008 </i>
    <i name="e_0_energy">   -746.63100008 </i>
   </energy>
  </scstep>
  <scstep>
   <time name="dav">  419.21  422.66</time>
   <time name="total">  432.59  436.24</time>
   <energy>
    <i name="e_fr_energy">   -746.63099739 </i>
    <i name="e_wo_entrp">   -746.63099739 </i>
    <i name="e_0_energy">   -746.63099739 </i>
   </energy>
  </scstep>
  <scstep>
   <time name="dav">  338.17  341.11</time>
   <time name="total">  351.51  354.60</time>
   <energy>
    <i name="e_fr_energy">   -746.63099866 </i>
    <i name="e_wo_entrp">   -746.63099866 </i>
    <i name="e_0_energy">   -746.63099866 </i>
   </energy>
  </scstep>
  <scstep>
   <time name="dav">  231.10  232.96</time>
   <time name="total">  233.74  235.65</time>
   <energy>
    <i name="alphaZ">   2668.72143546 </i>
    <i name="ewald"> -68026.90025908 </i>
    <i name="hartreedc"> -39874.30391715 </i>
    <i name="XCdc">   4298.60962753 </i>
    <i name="pawpsdc"> 114379.92511163 </i>
    <i name="pawaedc">-118044.70795507 </i>
    <i name="eentropy">     -0.00000000 </i>
    <i name="bandstr"> -14690.84321134 </i>
    <i name="atom"> 118542.86816856 </i>
    <i name="e_fr_energy">   -746.63099944 </i>
    <i name="e_wo_entrp">   -746.63099944 </i>
    <i name="e_0_energy">   -746.63099944 </i>
   </energy>
  </scstep>
  <structure>
   <crystal>
    <varray name="basis" >
     <v>      15.21162830       0.00516956      -2.78361592 </v>
     <v>      -0.40798665      11.93565774      -2.20735884 </v>
     <v>      -0.06175567      -0.11168197      10.54442638 </v>
    </varray>
    <i name="volume">   1908.54869108 </i>
    <varray name="rec_basis" >
     <v>       0.06581343       0.00232549       0.00041008 </v>
     <v>       0.00013433       0.08395174       0.00088997 </v>
     <v>       0.01740216       0.01818827       0.09513139 </v>
    </varray>
   </crystal>
   <varray name="positions" >
    <v>       0.47527516       0.00074367       0.00446200 </v>
    <v>       0.97527516       0.00074367       0.00446200 </v>
    <v>       0.47527516       0.33407700       0.00446200 </v>
    <v>       0.97527516       0.33407700       0.00446200 </v>
    <v>       0.47527516       0.66741034       0.00446200 </v>
    <v>       0.97527516       0.66741034       0.00446200 </v>
    <v>       0.27472484       0.33258966       0.99553800 </v>
    <v>       0.77472484       0.33258966       0.99553800 </v>
    <v>       0.27472484       0.66592300       0.99553800 </v>
    <v>       0.77472484       0.66592300       0.99553800 </v>
    <v>       0.27472484       0.99925633       0.99553800 </v>
    <v>       0.77472484       0.99925633       0.99553800 </v>
    <v>       0.17788805       0.26797179       0.60783074 </v>
    <v>       0.67788805       0.26797179       0.60783074 </v>
    <v>       0.17788805       0.60130513       0.60783074 </v>
    <v>       0.67788805       0.60130513       0.60783074 </v>
    <v>       0.17788805       0.93463846       0.60783074 </v>
    <v>       0.67788805       0.93463846       0.60783074 </v>
    <v>       0.07211195       0.06536154       0.39216926 </v>
    <v>       0.57211195       0.06536154       0.39216926 </v>
    <v>       0.07211195       0.39869487       0.39216926 </v>
    <v>       0.57211195       0.39869487       0.39216926 </v>
    <v>       0.07211195       0.73202821       0.39216926 </v>
    <v>       0.57211195       0.73202821       0.39216926 </v>
    <v>       0.10733875       0.30765571       0.84593428 </v>
    <v>       0.60733875       0.30765571       0.84593428 </v>
    <v>       0.10733875       0.64098905       0.84593428 </v>
    <v>       0.60733875       0.64098905       0.84593428 </v>
    <v>       0.10733875       0.97432238       0.84593428 </v>
    <v>       0.60733875       0.97432238       0.84593428 </v>
    <v>       0.34464416       0.29539312       0.77235872 </v>
    <v>       0.84464416       0.29539312       0.77235872 </v>
    <v>       0.34464416       0.62872645       0.77235872 </v>
    <v>       0.84464416       0.62872645       0.77235872 </v>
    <v>       0.34464416       0.96205979       0.77235872 </v>
    <v>       0.84464416       0.96205979       0.77235872 </v>
    <v>       0.14266125       0.02567762       0.15406572 </v>
    <v>       0.64266125       0.02567762       0.15406572 </v>
    <v>       0.14266125       0.35901095       0.15406572 </v>
    <v>       0.64266125       0.35901095       0.15406572 </v>
    <v>       0.14266125       0.69234429       0.15406572 </v>
    <v>       0.64266125       0.69234429       0.15406572 </v>
    <v>       0.40535584       0.03794021       0.22764128 </v>
    <v>       0.90535584       0.03794021       0.22764128 </v>
    <v>       0.40535584       0.37127355       0.22764128 </v>
    <v>       0.90535584       0.37127355       0.22764128 </v>
    <v>       0.40535584       0.70460688       0.22764128 </v>
    <v>       0.90535584       0.70460688       0.22764128 </v>
    <v>       0.46517249       0.26691416       0.60148498 </v>
    <v>       0.96517249       0.26691416       0.60148498 </v>
    <v>       0.46517249       0.60024750       0.60148498 </v>
    <v>       0.96517249       0.60024750       0.60148498 </v>
    <v>       0.46517249       0.93358083       0.60148498 </v>
    <v>       0.96517249       0.93358083       0.60148498 </v>
    <v>       0.28482751       0.06641917       0.39851502 </v>
    <v>       0.78482751       0.06641917       0.39851502 </v>
    <v>       0.28482751       0.39975250       0.39851502 </v>
    <v>       0.78482751       0.39975250       0.39851502 </v>
    <v>       0.28482751       0.73308584       0.39851502 </v>
    <v>       0.78482751       0.73308584       0.39851502 </v>
    <v>       0.22447416       0.13353711       0.80122268 </v>
    <v>       0.72447416       0.13353711       0.80122268 </v>
    <v>       0.22447416       0.46687045       0.80122268 </v>
    <v>       0.72447416       0.46687045       0.80122268 </v>
    <v>       0.22447416       0.80020378       0.80122268 </v>
    <v>       0.72447416       0.80020378       0.80122268 </v>
    <v>       0.47796479       0.13582521       0.81495126 </v>
    <v>       0.97796479       0.13582521       0.81495126 </v>
    <v>       0.47796479       0.46915854       0.81495126 </v>
    <v>       0.97796479       0.46915854       0.81495126 </v>
    <v>       0.47796479       0.80249188       0.81495126 </v>
    <v>       0.97796479       0.80249188       0.81495126 </v>
    <v>       0.02552584       0.19979622       0.19877732 </v>
    <v>       0.52552584       0.19979622       0.19877732 </v>
    <v>       0.02552584       0.53312955       0.19877732 </v>
    <v>       0.52552584       0.53312955       0.19877732 </v>
    <v>       0.02552584       0.86646289       0.19877732 </v>
    <v>       0.52552584       0.86646289       0.19877732 </v>
    <v>       0.27203521       0.19750812       0.18504874 </v>
    <v>       0.77203521       0.19750812       0.18504874 </v>
    <v>       0.27203521       0.53084146       0.18504874 </v>
    <v>       0.77203521       0.53084146       0.18504874 </v>
    <v>       0.27203521       0.86417479       0.18504874 </v>
    <v>       0.77203521       0.86417479       0.18504874 </v>
    <v>       0.12500000       0.16666667       0.00000000 </v>
    <v>       0.62500000       0.16666667       0.00000000 </v>
    <v>       0.12500000       0.50000000       0.00000000 </v>
    <v>       0.62500000       0.50000000       0.00000000 </v>
    <v>       0.12500000       0.83333333       0.00000000 </v>
    <v>       0.62500000       0.83333333       0.00000000 </v>
    <v>       0.37500000       0.16666667       0.00000000 </v>
    <v>       0.87500000       0.16666667       0.00000000 </v>
    <v>       0.37500000       0.50000000       0.00000000 </v>
    <v>       0.87500000       0.50000000       0.00000000 </v>
    <v>       0.37500000       0.83333333       0.00000000 </v>
    <v>       0.87500000       0.83333333       0.00000000 </v>
    <v>       0.17614737       0.22809805       0.36858830 </v>
    <v>       0.67614737       0.22809805       0.36858830 </v>
    <v>       0.17614737       0.56143138       0.36858830 </v>
    <v>       0.67614737       0.56143138       0.36858830 </v>
    <v>       0.17614737       0.89476472       0.36858830 </v>
    <v>       0.67614737       0.89476472       0.36858830 </v>
    <v>       0.41606772       0.22793643       0.36761855 </v>
    <v>       0.91542106       0.22793643       0.36761855 </v>
    <v>       0.41542106       0.56126976       0.36761855 </v>
    <v>       0.91542106       0.56126976       0.36761855 </v>
    <v>       0.41542106       0.89460309       0.36761855 </v>
    <v>       0.91542106       0.89460309       0.36761855 </v>
    <v>       0.07385263       0.10523528       0.63141170 </v>
    <v>       0.57385263       0.10523528       0.63141170 </v>
    <v>       0.07385263       0.43856862       0.63141170 </v>
    <v>       0.57385263       0.43856862       0.63141170 </v>
    <v>       0.07385263       0.77190195       0.63141170 </v>
    <v>       0.57385263       0.77190195       0.63141170 </v>
    <v>       0.33457894       0.10539691       0.63238145 </v>
    <v>       0.83457894       0.10539691       0.63238145 </v>
    <v>       0.33457894       0.43873024       0.63238145 </v>
    <v>       0.83457894       0.43873024       0.63238145 </v>
    <v>       0.33457894       0.77206357       0.63238145 </v>
    <v>       0.83457894       0.77206357       0.63238145 </v>
    <v>       0.22527003       0.30093342       0.80560053 </v>
    <v>       0.72527003       0.30093342       0.80560053 </v>
    <v>       0.22527003       0.63426676       0.80560053 </v>
    <v>       0.72527003       0.63426676       0.80560053 </v>
    <v>       0.22527003       0.96760009       0.80560053 </v>
    <v>       0.72527003       0.96760009       0.80560053 </v>
    <v>       0.47618324       0.30143353       0.80860116 </v>
    <v>       0.97618324       0.30143353       0.80860116 </v>
    <v>       0.47618324       0.63476686       0.80860116 </v>
    <v>       0.97618324       0.63476686       0.80860116 </v>
    <v>       0.47618324       0.96810019       0.80860116 </v>
    <v>       0.97618324       0.96810019       0.80860116 </v>
    <v>       0.02472997       0.03239991       0.19439947 </v>
    <v>       0.52472997       0.03239991       0.19439947 </v>
    <v>       0.02472997       0.36573324       0.19439947 </v>
    <v>       0.52472997       0.36573324       0.19439947 </v>
    <v>       0.02472997       0.69906658       0.19439947 </v>
    <v>       0.52472997       0.69906658       0.19439947 </v>
    <v>       0.27381676       0.03189981       0.19139884 </v>
    <v>       0.77381676       0.03189981       0.19139884 </v>
    <v>       0.27381676       0.36523314       0.19139884 </v>
    <v>       0.77381676       0.36523314       0.19139884 </v>
    <v>       0.27381676       0.69856647       0.19139884 </v>
    <v>       0.77381676       0.69856647       0.19139884 </v>
   </varray>
  </structure>
  <varray name="forces" >
   <v>       0.00078913       0.00005665       0.00058320 </v>
   <v>      -0.00025254      -0.00018404      -0.00021563 </v>
   <v>       0.00081534       0.00002050       0.00051159 </v>
   <v>      -0.00023337      -0.00008986      -0.00022323 </v>
   <v>       0.00044256      -0.00007486      -0.00007902 </v>
   <v>      -0.00016302      -0.00012464      -0.00013782 </v>
   <v>       0.00017023      -0.00002345      -0.00057924 </v>
   <v>      -0.00042719       0.00004861       0.00016710 </v>
   <v>       0.00005815       0.00011722       0.00006825 </v>
   <v>      -0.00038081       0.00007374       0.00010742 </v>
   <v>       0.00016989      -0.00004002      -0.00059463 </v>
   <v>      -0.00042702       0.00017248       0.00016091 </v>
   <v>      -0.00056260       0.00057566       0.00090624 </v>
   <v>      -0.00095399       0.00032104      -0.00029423 </v>
   <v>      -0.00058665       0.00059913       0.00024780 </v>
   <v>      -0.00066639       0.00012354       0.00027827 </v>
   <v>      -0.00057801       0.00028667       0.00029394 </v>
   <v>      -0.00069323       0.00075917       0.00017079 </v>
   <v>      -0.00025138      -0.00106284       0.00021407 </v>
   <v>      -0.00154854       0.00192066      -0.00071928 </v>
   <v>      -0.00030281       0.00024523      -0.00001499 </v>
   <v>      -0.00137651      -0.00295729       0.00016691 </v>
   <v>       0.00003885      -0.00041414       0.00001149 </v>
   <v>       0.00078233      -0.00043141      -0.00021736 </v>
   <v>      -0.00045507       0.00017944      -0.00036742 </v>
   <v>      -0.00023992      -0.00004474      -0.00035284 </v>
   <v>      -0.00038584       0.00010691      -0.00032371 </v>
   <v>      -0.00013099      -0.00022454      -0.00032495 </v>
   <v>      -0.00040702      -0.00008117      -0.00034235 </v>
   <v>      -0.00017015       0.00049216      -0.00040015 </v>
   <v>      -0.00103562      -0.00017675       0.00034121 </v>
   <v>      -0.00160792      -0.00026028      -0.00007013 </v>
   <v>      -0.00107390       0.00020705       0.00011603 </v>
   <v>      -0.00155069      -0.00030416      -0.00004121 </v>
   <v>      -0.00102799      -0.00058834       0.00026029 </v>
   <v>      -0.00157995      -0.00021213      -0.00005843 </v>
   <v>      -0.00041493      -0.00051625       0.00000350 </v>
   <v>      -0.00039223       0.00025668       0.00049548 </v>
   <v>      -0.00045765       0.00016407      -0.00011329 </v>
   <v>      -0.00036881      -0.00033960       0.00058549 </v>
   <v>       0.00023376      -0.00011619       0.00008978 </v>
   <v>       0.00028648      -0.00013571       0.00020913 </v>
   <v>       0.00427511       0.00040306      -0.00018548 </v>
   <v>       0.00091623       0.00025237       0.00011691 </v>
   <v>       0.00428393       0.00020188      -0.00012945 </v>
   <v>       0.00092306       0.00025076       0.00010441 </v>
   <v>       0.00154220       0.00026076      -0.00004451 </v>
   <v>       0.00110307       0.00023739       0.00006790 </v>
   <v>       0.00494012       0.00109561       0.00248689 </v>
   <v>      -0.00063616       0.00043230      -0.00026790 </v>
   <v>       0.00121569       0.00027282      -0.00013136 </v>
   <v>      -0.00051926       0.00043507      -0.00029557 </v>
   <v>       0.00120029       0.00073807      -0.00020550 </v>
   <v>      -0.00052705       0.00036607      -0.00029471 </v>
   <v>      -0.00056078      -0.00383515       0.00176505 </v>
   <v>      -0.00092577       0.00027316       0.00001564 </v>
   <v>      -0.00080989       0.00322040       0.00046840 </v>
   <v>      -0.00088136      -0.00123665       0.00029097 </v>
   <v>       0.00080982      -0.00039717       0.00030456 </v>
   <v>      -0.00053329      -0.00048555       0.00014938 </v>
   <v>       0.00008896      -0.00010991       0.00062872 </v>
   <v>      -0.00109168      -0.00027149       0.00021897 </v>
   <v>      -0.00019030      -0.00009371       0.00061597 </v>
   <v>      -0.00087011      -0.00024994      -0.00000362 </v>
   <v>       0.00028318      -0.00026861       0.00012958 </v>
   <v>      -0.00016462      -0.00018366       0.00033311 </v>
   <v>       0.00147508       0.00019610      -0.00042529 </v>
   <v>      -0.00120244      -0.00002343      -0.00029683 </v>
   <v>       0.00125486      -0.00020271      -0.00029264 </v>
   <v>      -0.00091857      -0.00002364      -0.00020881 </v>
   <v>       0.00028301       0.00007819      -0.00013301 </v>
   <v>      -0.00076953      -0.00004330      -0.00022303 </v>
   <v>      -0.00174702       0.00001980      -0.00099471 </v>
   <v>       0.00508835       0.00028632      -0.00075940 </v>
   <v>      -0.00074872       0.00039416      -0.00025965 </v>
   <v>       0.00066194      -0.00191055      -0.00008386 </v>
   <v>      -0.00069751      -0.00005524      -0.00018444 </v>
   <v>       0.00039924       0.00226285      -0.00082099 </v>
   <v>       0.00856060       0.00059727       0.00195239 </v>
   <v>      -0.00066841       0.00009767       0.00081756 </v>
   <v>       0.00070013       0.00184236      -0.00039490 </v>
   <v>      -0.00020733      -0.00020012       0.00026678 </v>
   <v>       0.00086019      -0.00187380       0.00025530 </v>
   <v>      -0.00016585       0.00017772       0.00023285 </v>
   <v>       0.00083638       0.00021663       0.00097019 </v>
   <v>       0.00025648      -0.00017299      -0.00086844 </v>
   <v>       0.00057478      -0.00026226       0.00038118 </v>
   <v>       0.00012535       0.00033970      -0.00024736 </v>
   <v>       0.00052035       0.00041500       0.00030318 </v>
   <v>       0.00013638      -0.00043245      -0.00040677 </v>
   <v>      -0.00260567      -0.00009638       0.00008832 </v>
   <v>       0.00090271       0.00003315       0.00003753 </v>
   <v>      -0.00112725      -0.00001155      -0.00014707 </v>
   <v>       0.00070055       0.00003899       0.00006596 </v>
   <v>      -0.00098797      -0.00004806       0.00009459 </v>
   <v>       0.00063480       0.00002769       0.00003705 </v>
   <v>       0.00742451      -0.00037122      -0.00106344 </v>
   <v>       0.00474124      -0.00037002      -0.00059237 </v>
   <v>       0.00037237      -0.00117064       0.00020382 </v>
   <v>       0.00039916       0.00013253       0.00012958 </v>
   <v>       0.00031212       0.00037273      -0.00006789 </v>
   <v>       0.00043360      -0.00086861       0.00027155 </v>
   <v>      -0.04161601      -0.00185593      -0.00073548 </v>
   <v>       0.00164512      -0.00031452      -0.00024924 </v>
   <v>      -0.00142398      -0.00040829       0.00020150 </v>
   <v>       0.00067829      -0.00027041      -0.00006767 </v>
   <v>      -0.00142569      -0.00023297       0.00019278 </v>
   <v>       0.00068043      -0.00032430      -0.00005981 </v>
   <v>       0.00055555       0.00053350      -0.00036178 </v>
   <v>       0.00149394      -0.00149706       0.00271962 </v>
   <v>       0.00055674       0.00018883      -0.00039189 </v>
   <v>       0.00135646       0.00330277       0.00191754 </v>
   <v>       0.00030541       0.00039918      -0.00020174 </v>
   <v>      -0.00041682       0.00035974      -0.00021125 </v>
   <v>      -0.00044434       0.00148355      -0.00391902 </v>
   <v>       0.00067638       0.00024575       0.00020959 </v>
   <v>      -0.00031608      -0.00221906      -0.00323471 </v>
   <v>       0.00064351       0.00049219       0.00016657 </v>
   <v>      -0.00056949       0.00027293      -0.00006220 </v>
   <v>       0.00035034       0.00034546       0.00006191 </v>
   <v>      -0.00007756       0.00008091      -0.00015435 </v>
   <v>       0.00053382       0.00023672       0.00003888 </v>
   <v>      -0.00001848      -0.00040459      -0.00013165 </v>
   <v>       0.00057913       0.00067029      -0.00000681 </v>
   <v>      -0.00007483       0.00050372      -0.00019059 </v>
   <v>       0.00064937      -0.00052916       0.00019576 </v>
   <v>      -0.00165491      -0.00010857       0.00015637 </v>
   <v>       0.00015759      -0.00018689      -0.00004998 </v>
   <v>      -0.00133584      -0.00009927      -0.00015937 </v>
   <v>       0.00013201      -0.00007662      -0.00009082 </v>
   <v>      -0.00139011      -0.00021884      -0.00023116 </v>
   <v>       0.00015122       0.00001594      -0.00012761 </v>
   <v>       0.00099954       0.00065767       0.00009815 </v>
   <v>       0.00227526      -0.00814862      -0.00385846 </v>
   <v>       0.00103970      -0.00070285       0.00029560 </v>
   <v>       0.00175489       0.00618228      -0.00648109 </v>
   <v>       0.00063295      -0.00006184       0.00000365 </v>
   <v>      -0.00048224      -0.00007356       0.00014399 </v>
   <v>       0.00360525       0.00770997       0.00378042 </v>
   <v>       0.00110818      -0.00037901       0.00000631 </v>
   <v>       0.00405519      -0.00541356       0.00616852 </v>
   <v>       0.00108576       0.00053560      -0.00013765 </v>
   <v>      -0.00002666       0.00010907       0.00030190 </v>
   <v>       0.00080772       0.00017583       0.00016098 </v>
  </varray>
  <varray name="stress" >
   <v>      -0.14908890       0.01185789      -0.00177837 </v>
   <v>       0.00189149      -0.15402816      -0.07454496 </v>
   <v>      -0.04028850      -0.04565970      -0.10627319 </v>
  </varray>
  <energy>
   <i name="e_fr_energy">   -746.63099944 </i>
   <i name="e_wo_entrp">   -746.63099944 </i>
   <i name="e_0_energy">     -0.00000000 </i>
  </energy>
  <time name="totalsc"> 8432.13 8531.01</time>
  <eigenvalues>
   <array>
    <dimension dim="1">band</dimension>
    <dimension dim="2">kpoint</dimension>
    <dimension dim="3">spin</dimension>
    <field>eigene</field>
    <field>occ</field>
    <set>
     <set comment="spin 1">
      <set comment="kpoint 1">
       <r>  -51.6065    1.0000 </r>
       <r>  -51.6062    1.0000 </r>
       <r>  -51.6033    1.0000 </r>
       <r>  -51.6029    1.0000 </r>
       <r>  -51.6029    1.0000 </r>
       <r>  -51.6026    1.0000 </r>
       <r>  -51.6025    1.0000 </r>
       <r>  -51.6023    1.0000 </r>
       <r>  -51.6022    1.0000 </r>
       <r>  -51.6018    1.0000 </r>
       <r>  -51.6015    1.0000 </r>
       <r>  -51.5993    1.0000 </r>
       <r>  -51.4220    1.0000 </r>
       <r>  -51.4191    1.0000 </r>
       <r>  -51.4188    1.0000 </r>
       <r>  -51.4181    1.0000 </r>
       <r>  -51.4180    1.0000 </r>
       <r>  -51.4177    1.0000 </r>
       <r>  -51.4176    1.0000 </r>
       <r>  -51.4176    1.0000 </r>
       <r>  -51.4173    1.0000 </r>
       <r>  -51.4172    1.0000 </r>
       <r>  -51.4171    1.0000 </r>
       <r>  -51.4167    1.0000 </r>
       <r>  -51.2989    1.0000 </r>
       <r>  -51.2987    1.0000 </r>
       <r>  -51.2985    1.0000 </r>
       <r>  -51.2984    1.0000 </r>
       <r>  -51.2978    1.0000 </r>
       <r>  -51.2978    1.0000 </r>
       <r>  -51.2973    1.0000 </r>
       <r>  -51.2969    1.0000 </r>
       <r>  -51.2967    1.0000 </r>
       <r>  -51.2962    1.0000 </r>
       <r>  -51.2962    1.0000 </r>
       <r>  -51.2925    1.0000 </r>
       <r>  -50.1612    1.0000 </r>
       <r>  -50.1607    1.0000 </r>
       <r>  -50.1579    1.0000 </r>
       <r>  -50.1577    1.0000 </r>
       <r>  -50.1577    1.0000 </r>
       <r>  -50.1573    1.0000 </r>
       <r>  -50.1570    1.0000 </r>
       <r>  -50.1569    1.0000 </r>
       <r>  -50.1569    1.0000 </r>
       <r>  -50.1567    1.0000 </r>
       <r>  -50.1560    1.0000 </r>
       <r>  -50.1544    1.0000 </r>
       <r>  -50.0697    1.0000 </r>
       <r>  -50.0696    1.0000 </r>
       <r>  -50.0664    1.0000 </r>
       <r>  -50.0660    1.0000 </r>
       <r>  -50.0659    1.0000 </r>
       <r>  -50.0659    1.0000 </r>
       <r>  -50.0655    1.0000 </r>
       <r>  -50.0655    1.0000 </r>
       <r>  -50.0652    1.0000 </r>
       <r>  -50.0647    1.0000 </r>
       <r>  -50.0647    1.0000 </r>
       <r>  -50.0634    1.0000 </r>
       <r>  -49.9661    1.0000 </r>
       <r>  -49.9628    1.0000 </r>
       <r>  -49.9626    1.0000 </r>
       <r>  -49.9620    1.0000 </r>
       <r>  -49.9618    1.0000 </r>
       <r>  -49.9617    1.0000 </r>
       <r>  -49.9616    1.0000 </r>
       <r>  -49.9614    1.0000 </r>
       <r>  -49.9613    1.0000 </r>
       <r>  -49.9612    1.0000 </r>
       <r>  -49.9611    1.0000 </r>
       <r>  -49.9606    1.0000 </r>
       <r>  -49.9566    1.0000 </r>
       <r>  -49.9536    1.0000 </r>
       <r>  -49.9535    1.0000 </r>
       <r>  -49.9528    1.0000 </r>
       <r>  -49.9527    1.0000 </r>
       <r>  -49.9526    1.0000 </r>
       <r>  -49.9524    1.0000 </r>
       <r>  -49.9522    1.0000 </r>
       <r>  -49.9521    1.0000 </r>
       <r>  -49.9520    1.0000 </r>
       <r>  -49.9519    1.0000 </r>
       <r>  -49.9514    1.0000 </r>
       <r>  -49.8900    1.0000 </r>
       <r>  -49.8896    1.0000 </r>
       <r>  -49.8895    1.0000 </r>
       <r>  -49.8893    1.0000 </r>
       <r>  -49.8892    1.0000 </r>
       <r>  -49.8892    1.0000 </r>
       <r>  -49.8882    1.0000 </r>
       <r>  -49.8879    1.0000 </r>
       <r>  -49.8878    1.0000 </r>
       <r>  -49.8878    1.0000 </r>
       <r>  -49.8877    1.0000 </r>
       <r>  -49.8828    1.0000 </r>
       <r>  -49.8483    1.0000 </r>
[...]
       <r>   -32.5901     0.0000   156.0000 </r>
       <r>   -32.3505     0.0000   156.0000 </r>
       <r>   -32.1109     0.0000   156.0000 </r>
       <r>   -31.8713     0.0000   156.0000 </r>
       <r>   -31.6317     0.0000   156.0000 </r>
       <r>   -31.3921     0.0000   156.0000 </r>
       <r>   -31.1525     0.0000   156.0000 </r>
       <r>   -30.9128     0.0000   156.0000 </r>
       <r>   -30.6732     0.0000   156.0000 </r>
       <r>   -30.4336     0.0000   156.0000 </r>
       <r>   -30.1940     0.0000   156.0000 </r>
       <r>   -29.9544     0.0000   156.0000 </r>
       <r>   -29.7148     0.0000   156.0000 </r>
       <r>   -29.4752     0.0000   156.0000 </r>
       <r>   -29.2356     0.0000   156.0000 </r>
       <r>   -28.9960     0.0000   156.0000 </r>
       <r>   -28.7564     0.0000   156.0000 </r>
       <r>   -28.5167     0.0000   156.0000 </r>
       <r>   -28.2771     0.0000   156.0000 </r>
       <r>   -28.0375     0.0000   156.0000 </r>
       <r>   -27.7979     0.0000   156.0000 </r>
       <r>   -27.5583     0.0000   156.0000 </r>
       <r>   -27.3187     0.0000   156.0000 </r>
       <r>   -27.0791     0.0000   156.0000 </r>
       <r>   -26.8395     0.0000   156.0000 </r>
       <r>   -26.5999     0.0000   156.0000 </r>
       <r>   -26.3602     0.0000   156.0000 </r>
       <r>   -26.1206     0.0000   156.0000 </r>
       <r>   -25.8810     0.0000   156.0000 </r>
       <r>   -25.6414     0.0000   156.0000 </r>
       <r>   -25.4018     0.0000   156.0000 </r>
       <r>   -25.1622     0.0000   156.0000 </r>
       <r>   -24.9226     0.0000   156.0000 </r>
       <r>   -24.6830     0.0000   156.0000 </r>
       <r>   -24.4434     0.0000   156.0000 </r>
       <r>   -24.2038     0.0000   156.0000 </r>
       <r>   -23.9641     0.0000   156.0000 </r>
       <r>   -23.7245     0.0000   156.0000 </r>
       <r>   -23.4849     0.0000   156.0000 </r>
       <r>   -23.2453     0.0000   156.0000 </r>
       <r>   -23.0057     0.0000   156.0000 </r>
       <r>   -22.7661     0.0000   156.0000 </r>
       <r>   -22.5265     0.0000   156.0000 </r>
       <r>   -22.2869     0.0000   156.0000 </r>
       <r>   -22.0473     0.0000   156.0000 </r>
       <r>   -21.8077     0.0000   156.0000 </r>
       <r>   -21.5680     0.0000   156.0000 </r>
       <r>   -21.3284     0.0000   156.0000 </r>
       <r>   -21.0888     0.0000   156.0000 </r>
       <r>   -20.8492     0.0000   156.0000 </r>
       <r>   -20.6096     0.0000   156.0000 </r>
       <r>   -20.3700     0.0000   156.0000 </r>
       <r>   -20.1304     0.0000   156.0000 </r>
       <r>   -19.8908     0.0000   156.0000 </r>
       <r>   -19.6512     0.0000   156.0000 </r>
       <r>   -19.4115     0.0000   156.0000 </r>
       <r>   -19.1719     0.0000   156.0000 </r>
       <r>   -18.9323     0.0000   156.0000 </r>
       <r>   -18.6927     0.0000   156.0000 </r>
       <r>   -18.4531     0.0000   156.0000 </r>
       <r>   -18.2135     0.0000   156.0000 </r>
       <r>   -17.9739     0.0000   156.0000 </r>
       <r>   -17.7343     0.0000   156.0000 </r>
       <r>   -17.4947     0.0000   156.0000 </r>
       <r>   -17.2551     0.0000   156.0000 </r>
       <r>   -17.0154     0.0000   156.0000 </r>
       <r>   -16.7758     0.0000   156.0000 </r>
       <r>   -16.5362     0.0000   156.0000 </r>
       <r>   -16.2966     0.0000   156.0000 </r>
       <r>   -16.0570     0.0000   156.0000 </r>
       <r>   -15.8174     0.0000   156.0000 </r>
       <r>   -15.5778     0.0000   156.0000 </r>
       <r>   -15.3382     0.0000   156.0000 </r>
       <r>   -15.0986     0.0000   156.0000 </r>
       <r>   -14.8590     0.0000   156.0000 </r>
       <r>   -14.6193     0.0000   156.0000 </r>
       <r>   -14.3797     0.0000   156.0000 </r>
       <r>   -14.1401     0.0000   156.0000 </r>
       <r>   -13.9005     0.0000   156.0000 </r>
       <r>   -13.6609     0.0000   156.0000 </r>
       <r>   -13.4213     1.7417   156.4173 </r>
       <r>   -13.1817    44.4291   167.0630 </r>
       <r>   -12.9421     4.5701   168.1580 </r>
       <r>   -12.7025    41.8808   178.1931 </r>
       <r>   -12.4628     7.5409   180.0000 </r>
       <r>   -12.2232     0.0000   180.0000 </r>
       <r>   -11.9836     0.0000   180.0000 </r>
       <r>   -11.7440     0.0000   180.0000 </r>
       <r>   -11.5044     0.0000   180.0000 </r>
       <r>   -11.2648     0.0000   180.0000 </r>
       <r>   -11.0252     0.0000   180.0000 </r>
       <r>   -10.7856     0.0000   180.0000 </r>
       <r>   -10.5460     0.0000   180.0000 </r>
       <r>   -10.3064     0.0000   180.0000 </r>
       <r>   -10.0667     0.0000   180.0000 </r>
       <r>    -9.8271     0.0000   180.0000 </r>
       <r>    -9.5875     0.0000   180.0000 </r>
       <r>    -9.3479     0.0000   180.0000 </r>
       <r>    -9.1083     0.0000   180.0000 </r>
       <r>    -8.8687     0.0000   180.0000 </r>
       <r>    -8.6291     0.0000   180.0000 </r>
       <r>    -8.3895     0.0000   180.0000 </r>
       <r>    -8.1499     0.0000   180.0000 </r>
       <r>    -7.9103     0.0000   180.0000 </r>
       <r>    -7.6706     0.0159   180.0038 </r>
       <r>    -7.4310    11.9174   182.8593 </r>
       <r>    -7.1914    28.4848   189.6846 </r>
       <r>    -6.9518    59.8350   204.0217 </r>
       <r>    -6.7122    46.6166   215.1915 </r>
       <r>    -6.4726     3.3742   216.0000 </r>
       <r>    -6.2330     0.0000   216.0000 </r>
       <r>    -5.9934     0.0000   216.0000 </r>
       <r>    -5.7538     0.0000   216.0000 </r>
       <r>    -5.5141     0.0000   216.0000 </r>
       <r>    -5.2745     0.0000   216.0000 </r>
       <r>    -5.0349     0.0000   216.0000 </r>
       <r>    -4.7953     0.0000   216.0000 </r>
       <r>    -4.5557     0.0000   216.0000 </r>
       <r>    -4.3161     0.0000   216.0000 </r>
       <r>    -4.0765     0.0000   216.0000 </r>
       <r>    -3.8369     0.0000   216.0000 </r>
       <r>    -3.5973     0.0000   216.0000 </r>
       <r>    -3.3577     0.0000   216.0000 </r>
       <r>    -3.1180     0.0000   216.0000 </r>
       <r>    -2.8784     0.0000   216.0000 </r>
       <r>    -2.6388     0.0000   216.0000 </r>
       <r>    -2.3992     0.0000   216.0000 </r>
       <r>    -2.1596     0.0000   216.0000 </r>
       <r>    -1.9200     0.0000   216.0000 </r>
       <r>    -1.6804     0.0000   216.0000 </r>
       <r>    -1.4408     0.0000   216.0000 </r>
       <r>    -1.2012     0.0860   216.0206 </r>
       <r>    -0.9615     4.4110   217.0775 </r>
       <r>    -0.7219    14.0620   220.4469 </r>
       <r>    -0.4823    15.3007   224.1131 </r>
       <r>    -0.2427    19.5468   228.7967 </r>
       <r>    -0.0031    41.2802   238.6879 </r>
       <r>     0.2365    33.9464   246.8218 </r>
       <r>     0.4761    42.1127   256.9124 </r>
       <r>     0.7157    33.7082   264.9893 </r>
       <r>     0.9553    52.9040   277.6656 </r>
       <r>     1.1949    60.4751   292.1561 </r>
       <r>     1.4346    44.4236   302.8004 </r>
       <r>     1.6742    40.0801   312.4040 </r>
       <r>     1.9138    38.4483   321.6166 </r>
       <r>     2.1534    37.3936   330.5765 </r>
       <r>     2.3930    38.2785   339.7485 </r>
       <r>     2.6326    49.3804   351.5805 </r>
       <r>     2.8722    62.9132   366.6552 </r>
       <r>     3.1118    58.7564   380.7338 </r>
       <r>     3.3514    48.0282   392.2419 </r>
       <r>     3.5910    29.9331   399.4142 </r>
       <r>     3.8307    61.2378   414.0874 </r>
       <r>     4.0703    73.3751   431.6688 </r>
       <r>     4.3099     1.3822   432.0000 </r>
       <r>     4.5495     0.0000   432.0000 </r>
       <r>     4.7891     0.0000   432.0000 </r>
       <r>     5.0287     0.0000   432.0000 </r>
       <r>     5.2683     0.0000   432.0000 </r>
       <r>     5.5079     0.0000   432.0000 </r>
       <r>     5.7475     0.0000   432.0000 </r>
       <r>     5.9872     0.0000   432.0000 </r>
       <r>     6.2268     0.1446   432.0347 </r>
       <r>     6.4664     8.1527   433.9881 </r>
       <r>     6.7060    30.2721   441.2416 </r>
       <r>     6.9456    43.4266   451.6471 </r>
       <r>     7.1852    73.1861   469.1832 </r>
       <r>     7.4248    80.7928   488.5420 </r>
       <r>     7.6644    65.3994   504.2124 </r>
       <r>     7.9040    87.8823   525.2699 </r>
       <r>     8.1436    71.3083   542.3561 </r>
       <r>     8.3833    54.4085   555.3930 </r>
       <r>     8.6229    37.2062   564.3080 </r>
       <r>     8.8625    39.1509   573.6889 </r>
       <r>     9.1021    19.3715   578.3305 </r>
       <r>     9.3417    13.9095   581.6634 </r>
       <r>     9.5813    20.5852   586.5958 </r>
       <r>     9.8209    30.0072   593.7859 </r>
       <r>    10.0605    26.5348   600.1439 </r>
       <r>    10.3001    34.7105   608.4608 </r>
       <r>    10.5397    35.4469   616.9543 </r>
       <r>    10.7794    27.9473   623.6508 </r>
       <r>    11.0190    22.4432   629.0284 </r>
       <r>    11.2586    21.6034   634.2048 </r>
       <r>    11.4982    32.2870   641.9411 </r>
       <r>    11.7378    38.7459   651.2250 </r>
       <r>    11.9774    42.5929   661.4307 </r>
       <r>    12.2170    51.9660   673.8823 </r>
       <r>    12.4566    46.8217   685.1013 </r>
       <r>    12.6962    35.9639   693.7186 </r>
       <r>    12.9359    41.2766   703.6089 </r>
       <r>    13.1755    39.7311   713.1289 </r>
       <r>    13.4151    34.2274   721.3301 </r>
       <r>    13.6547    23.9622   727.0717 </r>
       <r>    13.8943     3.8741   728.0000 </r>
       <r>    14.1339     0.0000   728.0000 </r>
       <r>    14.3735     0.0000   728.0000 </r>
       <r>    14.6131     0.0000   728.0000 </r>
       <r>    14.8527     0.0000   728.0000 </r>
       <r>    15.0923     0.0000   728.0000 </r>
       <r>    15.3320     0.0000   728.0000 </r>
       <r>    15.5716     0.0000   728.0000 </r>
       <r>    15.8112     0.0000   728.0000 </r>
       <r>    16.0508     0.0000   728.0000 </r>
       <r>    16.2904     0.0000   728.0000 </r>
       <r>    16.5300     0.0000   728.0000 </r>
       <r>    16.7696     0.0000   728.0000 </r>
       <r>    17.0092     0.0000   728.0000 </r>
      </set>
     </set>
    </array>
   </total>
  </dos>
 </calculation>
 <structure name="finalpos" >
  <crystal>
   <varray name="basis" >
    <v>      15.21162830       0.00516956      -2.78361592 </v>
    <v>      -0.40798665      11.93565774      -2.20735884 </v>
    <v>      -0.06175567      -0.11168197      10.54442638 </v>
   </varray>
   <i name="volume">   1908.54869108 </i>
   <varray name="rec_basis" >
    <v>       0.06581343       0.00232549       0.00041008 </v>
    <v>       0.00013433       0.08395174       0.00088997 </v>
    <v>       0.01740216       0.01818827       0.09513139 </v>
   </varray>
  </crystal>
  <varray name="positions" >
   <v>       0.47527516       0.00074367       0.00446200 </v>
   <v>       0.97527516       0.00074367       0.00446200 </v>
   <v>       0.47527516       0.33407700       0.00446200 </v>
   <v>       0.97527516       0.33407700       0.00446200 </v>
   <v>       0.47527516       0.66741034       0.00446200 </v>
   <v>       0.97527516       0.66741034       0.00446200 </v>
   <v>       0.27472484       0.33258966       0.99553800 </v>
   <v>       0.77472484       0.33258966       0.99553800 </v>
   <v>       0.27472484       0.66592300       0.99553800 </v>
   <v>       0.77472484       0.66592300       0.99553800 </v>
   <v>       0.27472484       0.99925633       0.99553800 </v>
   <v>       0.77472484       0.99925633       0.99553800 </v>
   <v>       0.17788805       0.26797179       0.60783074 </v>
   <v>       0.67788805       0.26797179       0.60783074 </v>
   <v>       0.17788805       0.60130513       0.60783074 </v>
   <v>       0.67788805       0.60130513       0.60783074 </v>
   <v>       0.17788805       0.93463846       0.60783074 </v>
   <v>       0.67788805       0.93463846       0.60783074 </v>
   <v>       0.07211195       0.06536154       0.39216926 </v>
   <v>       0.57211195       0.06536154       0.39216926 </v>
   <v>       0.07211195       0.39869487       0.39216926 </v>
   <v>       0.57211195       0.39869487       0.39216926 </v>
   <v>       0.07211195       0.73202821       0.39216926 </v>
   <v>       0.57211195       0.73202821       0.39216926 </v>
   <v>       0.10733875       0.30765571       0.84593428 </v>
   <v>       0.60733875       0.30765571       0.84593428 </v>
   <v>       0.10733875       0.64098905       0.84593428 </v>
   <v>       0.60733875       0.64098905       0.84593428 </v>
   <v>       0.10733875       0.97432238       0.84593428 </v>
   <v>       0.60733875       0.97432238       0.84593428 </v>
   <v>       0.34464416       0.29539312       0.77235872 </v>
   <v>       0.84464416       0.29539312       0.77235872 </v>
   <v>       0.34464416       0.62872645       0.77235872 </v>
   <v>       0.84464416       0.62872645       0.77235872 </v>
   <v>       0.34464416       0.96205979       0.77235872 </v>
   <v>       0.84464416       0.96205979       0.77235872 </v>
   <v>       0.14266125       0.02567762       0.15406572 </v>
   <v>       0.64266125       0.02567762       0.15406572 </v>
   <v>       0.14266125       0.35901095       0.15406572 </v>
   <v>       0.64266125       0.35901095       0.15406572 </v>
   <v>       0.14266125       0.69234429       0.15406572 </v>
   <v>       0.64266125       0.69234429       0.15406572 </v>
   <v>       0.40535584       0.03794021       0.22764128 </v>
   <v>       0.90535584       0.03794021       0.22764128 </v>
   <v>       0.40535584       0.37127355       0.22764128 </v>
   <v>       0.90535584       0.37127355       0.22764128 </v>
   <v>       0.40535584       0.70460688       0.22764128 </v>
   <v>       0.90535584       0.70460688       0.22764128 </v>
   <v>       0.46517249       0.26691416       0.60148498 </v>
   <v>       0.96517249       0.26691416       0.60148498 </v>
   <v>       0.46517249       0.60024750       0.60148498 </v>
   <v>       0.96517249       0.60024750       0.60148498 </v>
   <v>       0.46517249       0.93358083       0.60148498 </v>
   <v>       0.96517249       0.93358083       0.60148498 </v>
   <v>       0.28482751       0.06641917       0.39851502 </v>
   <v>       0.78482751       0.06641917       0.39851502 </v>
   <v>       0.28482751       0.39975250       0.39851502 </v>
   <v>       0.78482751       0.39975250       0.39851502 </v>
   <v>       0.28482751       0.73308584       0.39851502 </v>
   <v>       0.78482751       0.73308584       0.39851502 </v>
   <v>       0.22447416       0.13353711       0.80122268 </v>
   <v>       0.72447416       0.13353711       0.80122268 </v>
   <v>       0.22447416       0.46687045       0.80122268 </v>
   <v>       0.72447416       0.46687045       0.80122268 </v>
   <v>       0.22447416       0.80020378       0.80122268 </v>
   <v>       0.72447416       0.80020378       0.80122268 </v>
   <v>       0.47796479       0.13582521       0.81495126 </v>
   <v>       0.97796479       0.13582521       0.81495126 </v>
   <v>       0.47796479       0.46915854       0.81495126 </v>
   <v>       0.97796479       0.46915854       0.81495126 </v>
   <v>       0.47796479       0.80249188       0.81495126 </v>
   <v>       0.97796479       0.80249188       0.81495126 </v>
   <v>       0.02552584       0.19979622       0.19877732 </v>
   <v>       0.52552584       0.19979622       0.19877732 </v>
   <v>       0.02552584       0.53312955       0.19877732 </v>
   <v>       0.52552584       0.53312955       0.19877732 </v>
   <v>       0.02552584       0.86646289       0.19877732 </v>
   <v>       0.52552584       0.86646289       0.19877732 </v>
   <v>       0.27203521       0.19750812       0.18504874 </v>
   <v>       0.77203521       0.19750812       0.18504874 </v>
   <v>       0.27203521       0.53084146       0.18504874 </v>
   <v>       0.77203521       0.53084146       0.18504874 </v>
   <v>       0.27203521       0.86417479       0.18504874 </v>
   <v>       0.77203521       0.86417479       0.18504874 </v>
   <v>       0.12500000       0.16666667       0.00000000 </v>
   <v>       0.62500000       0.16666667       0.00000000 </v>
   <v>       0.12500000       0.50000000       0.00000000 </v>
   <v>       0.62500000       0.50000000       0.00000000 </v>
   <v>       0.12500000       0.83333333       0.00000000 </v>
   <v>       0.62500000       0.83333333       0.00000000 </v>
   <v>       0.37500000       0.16666667       0.00000000 </v>
   <v>       0.87500000       0.16666667       0.00000000 </v>
   <v>       0.37500000       0.50000000       0.00000000 </v>
   <v>       0.87500000       0.50000000       0.00000000 </v>
   <v>       0.37500000       0.83333333       0.00000000 </v>
   <v>       0.87500000       0.83333333       0.00000000 </v>
   <v>       0.17614737       0.22809805       0.36858830 </v>
   <v>       0.67614737       0.22809805       0.36858830 </v>
   <v>       0.17614737       0.56143138       0.36858830 </v>
   <v>       0.67614737       0.56143138       0.36858830 </v>
   <v>       0.17614737       0.89476472       0.36858830 </v>
   <v>       0.67614737       0.89476472       0.36858830 </v>
   <v>       0.41606772       0.22793643       0.36761855 </v>
   <v>       0.91542106       0.22793643       0.36761855 </v>
   <v>       0.41542106       0.56126976       0.36761855 </v>
   <v>       0.91542106       0.56126976       0.36761855 </v>
   <v>       0.41542106       0.89460309       0.36761855 </v>
   <v>       0.91542106       0.89460309       0.36761855 </v>
   <v>       0.07385263       0.10523528       0.63141170 </v>
   <v>       0.57385263       0.10523528       0.63141170 </v>
   <v>       0.07385263       0.43856862       0.63141170 </v>
   <v>       0.57385263       0.43856862       0.63141170 </v>
   <v>       0.07385263       0.77190195       0.63141170 </v>
   <v>       0.57385263       0.77190195       0.63141170 </v>
   <v>       0.33457894       0.10539691       0.63238145 </v>
   <v>       0.83457894       0.10539691       0.63238145 </v>
   <v>       0.33457894       0.43873024       0.63238145 </v>
   <v>       0.83457894       0.43873024       0.63238145 </v>
   <v>       0.33457894       0.77206357       0.63238145 </v>
   <v>       0.83457894       0.77206357       0.63238145 </v>
   <v>       0.22527003       0.30093342       0.80560053 </v>
   <v>       0.72527003       0.30093342       0.80560053 </v>
   <v>       0.22527003       0.63426676       0.80560053 </v>
   <v>       0.72527003       0.63426676       0.80560053 </v>
   <v>       0.22527003       0.96760009       0.80560053 </v>
   <v>       0.72527003       0.96760009       0.80560053 </v>
   <v>       0.47618324       0.30143353       0.80860116 </v>
   <v>       0.97618324       0.30143353       0.80860116 </v>
   <v>       0.47618324       0.63476686       0.80860116 </v>
   <v>       0.97618324       0.63476686       0.80860116 </v>
   <v>       0.47618324       0.96810019       0.80860116 </v>
   <v>       0.97618324       0.96810019       0.80860116 </v>
   <v>       0.02472997       0.03239991       0.19439947 </v>
   <v>       0.52472997       0.03239991       0.19439947 </v>
   <v>       0.02472997       0.36573324       0.19439947 </v>
   <v>       0.52472997       0.36573324       0.19439947 </v>
   <v>       0.02472997       0.69906658       0.19439947 </v>
   <v>       0.52472997       0.69906658       0.19439947 </v>
   <v>       0.27381676       0.03189981       0.19139884 </v>
   <v>       0.77381676       0.03189981       0.19139884 </v>
   <v>       0.27381676       0.36523314       0.19139884 </v>
   <v>       0.77381676       0.36523314       0.19139884 </v>
   <v>       0.27381676       0.69856647       0.19139884 </v>
   <v>       0.77381676       0.69856647       0.19139884 </v>
  </varray>
 </structure>
</modeling>
