  224  224    1    2
  0.1357572E+02  0.1537960E-08  0.1537962E-08  0.1395899E-08  0.5000000E-15
  1.000000000000000E-004
  CAR 
 unknown system                          
   1664      8   1208
 
  0.0000000E+00  0.0000000E+00  0.0000000E+00  0.1250000E+00
    1      -51.145669    -46.394443   1.000000   1.000000
    2      -51.145508    -46.394220   1.000000   1.000000
    3      -51.141983    -46.391322   1.000000   1.000000
    4      -51.141789    -46.390991   1.000000   1.000000
    5      -51.141646    -46.390859   1.000000   1.000000
    6      -51.141594    -46.390836   1.000000   1.000000
    7      -51.141511    -46.390589   1.000000   1.000000
    8      -51.141360    -46.390479   1.000000   1.000000
    9      -51.141304    -46.390432   1.000000   1.000000
   10      -51.141199    -46.390425   1.000000   1.000000
   11      -51.141182    -46.390350   1.000000   1.000000
   12      -51.141140    -46.390255   1.000000   1.000000
   13      -51.141119    -46.390158   1.000000   1.000000
   14      -51.141064    -46.390121   1.000000   1.000000
   15      -51.141006    -46.390052   1.000000   1.000000
   16      -51.140896    -46.390026   1.000000   1.000000
   17      -51.140880    -46.389982   1.000000   1.000000
   18      -51.140851    -46.389967   1.000000   1.000000
   19      -51.140794    -46.389873   1.000000   1.000000
   20      -51.140770    -46.389801   1.000000   1.000000
   21      -51.140762    -46.389740   1.000000   1.000000
   22      -51.140685    -46.389696   1.000000   1.000000
   23      -51.140630    -46.389593   1.000000   1.000000
   24      -51.140552    -46.389568   1.000000   1.000000
   25      -51.140517    -46.389533   1.000000   1.000000
   26      -51.140513    -46.389495   1.000000   1.000000
   27      -51.140475    -46.389458   1.000000   1.000000
   28      -51.140463    -46.389443   1.000000   1.000000
   29      -51.140454    -46.389340   1.000000   1.000000
   30      -51.140426    -46.389308   1.000000   1.000000
   31      -51.140356    -46.389266   1.000000   1.000000
   32      -51.140341    -46.389258   1.000000   1.000000
   33      -51.140305    -46.389200   1.000000   1.000000
   34      -51.140282    -46.389166   1.000000   1.000000
   35      -51.140224    -46.389127   1.000000   1.000000
   36      -51.140197    -46.389070   1.000000   1.000000
   37      -51.140185    -46.389033   1.000000   1.000000
   38      -51.140147    -46.388934   1.000000   1.000000
   39      -51.140146    -46.388888   1.000000   1.000000
   40      -51.140117    -46.388869   1.000000   1.000000
   41      -51.140100    -46.388864   1.000000   1.000000
   42      -51.140045    -46.388823   1.000000   1.000000
   43      -51.139976    -46.388753   1.000000   1.000000
   44      -51.139923    -46.388681   1.000000   1.000000
   45      -51.139913    -46.388657   1.000000   1.000000
   46      -51.139890    -46.388623   1.000000   1.000000
   47      -51.139834    -46.388557   1.000000   1.000000
   48      -51.139783    -46.388539   1.000000   1.000000
   49      -51.139777    -46.388484   1.000000   1.000000
   50      -51.139694    -46.388410   1.000000   1.000000
   51      -51.139674    -46.388356   1.000000   1.000000
   52      -51.139641    -46.388334   1.000000   1.000000
   53      -51.139588    -46.388271   1.000000   1.000000
   54      -51.139536    -46.388221   1.000000   1.000000
   55      -51.139485    -46.388127   1.000000   1.000000
   56      -51.139432    -46.388050   1.000000   1.000000
   57      -51.139362    -46.387996   1.000000   1.000000
   58      -51.139180    -46.387893   1.000000   1.000000
   59      -51.139083    -46.387716   1.000000   1.000000
   60      -51.139010    -46.387655   1.000000   1.000000
   61      -51.138883    -46.387596   1.000000   1.000000
   62      -51.138756    -46.387319   1.000000   1.000000
   63      -51.135106    -46.384185   1.000000   1.000000
   64      -51.135031    -46.384101   1.000000   1.000000
   65      -49.652140    -45.933435   1.000000   1.000000
   66      -49.651717    -45.933048   1.000000   1.000000
   67      -49.650403    -45.932023   1.000000   1.000000
   68      -49.649975    -45.931530   1.000000   1.000000
   69      -49.648201    -45.929392   1.000000   1.000000
   70      -49.648072    -45.929325   1.000000   1.000000
   71      -49.648053    -45.929298   1.000000   1.000000
   72      -49.647736    -45.929263   1.000000   1.000000
   73      -49.647709    -45.929022   1.000000   1.000000
   74      -49.647653    -45.928948   1.000000   1.000000
   75      -49.647553    -45.928921   1.000000   1.000000
   76      -49.647464    -45.928877   1.000000   1.000000
   77      -49.647451    -45.928867   1.000000   1.000000
   78      -49.647346    -45.928838   1.000000   1.000000
   79      -49.647320    -45.928750   1.000000   1.000000
   80      -49.647298    -45.928735   1.000000   1.000000
   81      -49.647253    -45.928659   1.000000   1.000000
   82      -49.647224    -45.928635   1.000000   1.000000
   83      -49.647208    -45.928601   1.000000   1.000000
   84      -49.647173    -45.928582   1.000000   1.000000
   85      -49.647158    -45.928511   1.000000   1.000000
   86      -49.647143    -45.928479   1.000000   1.000000
   87      -49.647090    -45.928416   1.000000   1.000000
   88      -49.647032    -45.928411   1.000000   1.000000
   89      -49.647025    -45.928387   1.000000   1.000000
   90      -49.647002    -45.928379   1.000000   1.000000
   91      -49.646986    -45.928367   1.000000   1.000000
   92      -49.646918    -45.928336   1.000000   1.000000
   93      -49.646905    -45.928308   1.000000   1.000000
   94      -49.646885    -45.928279   1.000000   1.000000
   95      -49.646842    -45.928229   1.000000   1.000000
   96      -49.646766    -45.928213   1.000000   1.000000
   97      -49.646740    -45.928167   1.000000   1.000000
   98      -49.646709    -45.928111   1.000000   1.000000
   99      -49.646681    -45.928097   1.000000   1.000000
  100      -49.646636    -45.928005   1.000000   1.000000
  101      -49.646634    -45.927975   1.000000   1.000000
  102      -49.646524    -45.927938   1.000000   1.000000
  103      -49.646493    -45.927911   1.000000   1.000000
  104      -49.646451    -45.927888   1.000000   1.000000
  105      -49.646421    -45.927864   1.000000   1.000000
  106      -49.646330    -45.927830   1.000000   1.000000
  107      -49.646310    -45.927775   1.000000   1.000000
  108      -49.646245    -45.927765   1.000000   1.000000
  109      -49.646220    -45.927729   1.000000   1.000000
  110      -49.646193    -45.927718   1.000000   1.000000
  111      -49.646174    -45.927649   1.000000   1.000000
  112      -49.646142    -45.927583   1.000000   1.000000
  113      -49.646111    -45.927562   1.000000   1.000000
  114      -49.646062    -45.927527   1.000000   1.000000
  115      -49.646035    -45.927470   1.000000   1.000000
  116      -49.646025    -45.927447   1.000000   1.000000
  117      -49.645927    -45.927416   1.000000   1.000000
  118      -49.645906    -45.927386   1.000000   1.000000
  119      -49.645871    -45.927370   1.000000   1.000000
  120      -49.645818    -45.927322   1.000000   1.000000
  121      -49.645770    -45.927317   1.000000   1.000000
  122      -49.645762    -45.927315   1.000000   1.000000
  123      -49.645733    -45.927282   1.000000   1.000000
  124      -49.645702    -45.927270   1.000000   1.000000
  125      -49.645691    -45.927249   1.000000   1.000000
  126      -49.645668    -45.927242   1.000000   1.000000
  127      -49.645616    -45.927188   1.000000   1.000000
  128      -49.645585    -45.927162   1.000000   1.000000
  129      -49.645561    -45.927159   1.000000   1.000000
  130      -49.645541    -45.927125   1.000000   1.000000
  131      -49.645525    -45.927092   1.000000   1.000000
  132      -49.645473    -45.927072   1.000000   1.000000
  133      -49.645446    -45.927053   1.000000   1.000000
  134      -49.645433    -45.927015   1.000000   1.000000
  135      -49.645391    -45.926992   1.000000   1.000000
  136      -49.645350    -45.926977   1.000000   1.000000
  137      -49.645338    -45.926946   1.000000   1.000000
  138      -49.645305    -45.926931   1.000000   1.000000
  139      -49.645280    -45.926915   1.000000   1.000000
  140      -49.645260    -45.926907   1.000000   1.000000
  141      -49.645212    -45.926824   1.000000   1.000000
  142      -49.645194    -45.926776   1.000000   1.000000
  143      -49.645182    -45.926767   1.000000   1.000000
  144      -49.645158    -45.926725   1.000000   1.000000
  145      -49.645125    -45.926701   1.000000   1.000000
  146      -49.645106    -45.926689   1.000000   1.000000
  147      -49.645063    -45.926680   1.000000   1.000000
  148      -49.645044    -45.926653   1.000000   1.000000
  149      -49.645010    -45.926619   1.000000   1.000000
  150      -49.644962    -45.926603   1.000000   1.000000
  151      -49.644901    -45.926573   1.000000   1.000000
  152      -49.644850    -45.926569   1.000000   1.000000
  153      -49.644841    -45.926552   1.000000   1.000000
  154      -49.644802    -45.926519   1.000000   1.000000
  155      -49.644786    -45.926507   1.000000   1.000000
  156      -49.644777    -45.926491   1.000000   1.000000
  157      -49.644709    -45.926435   1.000000   1.000000
  158      -49.644681    -45.926416   1.000000   1.000000
  159      -49.644640    -45.926400   1.000000   1.000000
  160      -49.644595    -45.926351   1.000000   1.000000
  161      -49.644579    -45.926328   1.000000   1.000000
  162      -49.644523    -45.926310   1.000000   1.000000
  163      -49.644460    -45.926305   1.000000   1.000000
  164      -49.644452    -45.926278   1.000000   1.000000
  165      -49.644409    -45.926271   1.000000   1.000000
  166      -49.644390    -45.926176   1.000000   1.000000
  167      -49.644381    -45.926150   1.000000   1.000000
  168      -49.644340    -45.926125   1.000000   1.000000
  169      -49.644247    -45.926106   1.000000   1.000000
  170      -49.644220    -45.926077   1.000000   1.000000
  171      -49.644213    -45.926021   1.000000   1.000000
  172      -49.644164    -45.926004   1.000000   1.000000
  173      -49.644156    -45.925936   1.000000   1.000000
  174      -49.644078    -45.925918   1.000000   1.000000
  175      -49.644055    -45.925821   1.000000   1.000000
  176      -49.644035    -45.925812   1.000000   1.000000
  177      -49.643999    -45.925776   1.000000   1.000000
  178      -49.643977    -45.925747   1.000000   1.000000
  179      -49.643893    -45.925700   1.000000   1.000000
  180      -49.643817    -45.925682   1.000000   1.000000
  181      -49.643740    -45.925637   1.000000   1.000000
  182      -49.643661    -45.925618   1.000000   1.000000
  183      -49.643510    -45.925564   1.000000   1.000000
  184      -49.643422    -45.925543   1.000000   1.000000
  185      -49.643402    -45.925436   1.000000   1.000000
  186      -49.643392    -45.925331   1.000000   1.000000
  187      -49.643116    -45.925072   1.000000   1.000000
  188      -49.643023    -45.924985   1.000000   1.000000
  189      -49.642071    -45.922733   1.000000   1.000000
  190      -49.641298    -45.922347   1.000000   1.000000
  191      -49.638958    -45.921508   1.000000   1.000000
  192      -49.638417    -45.921154   1.000000   1.000000
  193      -39.641209    -39.640293   1.000000   1.000000
  194      -39.641075    -39.640158   1.000000   1.000000
  195      -39.634288    -39.633419   1.000000   1.000000
  196      -39.633623    -39.632751   1.000000   1.000000
  197      -39.633497    -39.632624   1.000000   1.000000
  198      -39.633459    -39.632587   1.000000   1.000000
  199      -39.633419    -39.632546   1.000000   1.000000
  200      -39.633385    -39.632512   1.000000   1.000000
  201      -39.633186    -39.632313   1.000000   1.000000
  202      -39.632794    -39.631921   1.000000   1.000000
  203      -39.628277    -39.627441   1.000000   1.000000
  204      -39.627887    -39.627049   1.000000   1.000000
  205      -39.627871    -39.627032   1.000000   1.000000
  206      -39.627792    -39.626954   1.000000   1.000000
  207      -39.627726    -39.626888   1.000000   1.000000
  208      -39.627619    -39.626780   1.000000   1.000000
  209      -39.627603    -39.626765   1.000000   1.000000
  210      -39.627249    -39.626408   1.000000   1.000000
  211      -39.617444    -39.616677   1.000000   1.000000
  212      -39.616259    -39.615485   1.000000   1.000000
  213      -39.616174    -39.615400   1.000000   1.000000
  214      -39.616021    -39.615246   1.000000   1.000000
  215      -39.615962    -39.615185   1.000000   1.000000
  216      -39.615835    -39.615065   1.000000   1.000000
  217      -39.615796    -39.615020   1.000000   1.000000
  218      -39.615624    -39.614844   1.000000   1.000000
  219      -39.615580    -39.614800   1.000000   1.000000
  220      -39.615338    -39.614570   1.000000   1.000000
  221      -39.615274    -39.614503   1.000000   1.000000
  222      -39.615255    -39.614486   1.000000   1.000000
  223      -39.615209    -39.614442   1.000000   1.000000
  224      -39.615166    -39.614399   1.000000   1.000000
  225      -39.615152    -39.614384   1.000000   1.000000
  226      -39.615015    -39.614246   1.000000   1.000000
  227      -39.615004    -39.614237   1.000000   1.000000
  228      -39.615003    -39.614235   1.000000   1.000000
  229      -39.614980    -39.614211   1.000000   1.000000
  230      -39.614923    -39.614155   1.000000   1.000000
  231      -39.614890    -39.614122   1.000000   1.000000
  232      -39.614760    -39.613995   1.000000   1.000000
  233      -39.614656    -39.613885   1.000000   1.000000
  234      -39.614621    -39.613857   1.000000   1.000000
  235      -39.614181    -39.613420   1.000000   1.000000
  236      -39.614051    -39.613289   1.000000   1.000000
  237      -39.613701    -39.612938   1.000000   1.000000
  238      -39.613054    -39.612284   1.000000   1.000000
  239      -39.604343    -39.603626   1.000000   1.000000
  240      -39.603985    -39.603266   1.000000   1.000000
  241      -39.603973    -39.603253   1.000000   1.000000
  242      -39.603848    -39.603129   1.000000   1.000000
  243      -39.603783    -39.603063   1.000000   1.000000
  244      -39.603710    -39.602991   1.000000   1.000000
  245      -39.603689    -39.602969   1.000000   1.000000
  246      -39.603343    -39.602621   1.000000   1.000000
  247      -39.600152    -39.599445   1.000000   1.000000
  248      -39.599765    -39.599060   1.000000   1.000000
  249      -39.599575    -39.598870   1.000000   1.000000
  250      -39.599538    -39.598832   1.000000   1.000000
  251      -39.599485    -39.598778   1.000000   1.000000
  252      -39.599416    -39.598710   1.000000   1.000000
  253      -39.599339    -39.598632   1.000000   1.000000
  254      -39.598622    -39.597912   1.000000   1.000000
  255      -39.593265    -39.592582   1.000000   1.000000
  256      -39.593078    -39.592394   1.000000   1.000000
  257      -12.747251    -12.467786   1.000000   1.000000
  258      -12.747201    -12.467730   1.000000   1.000000
  259      -12.720368    -12.440678   1.000000   1.000000
  260      -12.719505    -12.439749   1.000000   1.000000
  261      -12.719390    -12.439645   1.000000   1.000000
  262      -12.719352    -12.439598   1.000000   1.000000
  263      -12.719333    -12.439582   1.000000   1.000000
  264      -12.719309    -12.439559   1.000000   1.000000
  265      -12.719151    -12.439403   1.000000   1.000000
  266      -12.718367    -12.438565   1.000000   1.000000
  267      -12.697295    -12.417160   1.000000   1.000000
  268      -12.697250    -12.417112   1.000000   1.000000
  269      -12.694924    -12.415307   1.000000   1.000000
  270      -12.694767    -12.415158   1.000000   1.000000
  271      -12.694753    -12.415146   1.000000   1.000000
  272      -12.694751    -12.415142   1.000000   1.000000
  273      -12.692519    -12.413360   1.000000   1.000000
  274      -12.692302    -12.413219   1.000000   1.000000
  275      -12.691257    -12.411224   1.000000   1.000000
  276      -12.691225    -12.411197   1.000000   1.000000
  277      -12.691099    -12.411100   1.000000   1.000000
  278      -12.690933    -12.410947   1.000000   1.000000
  279      -12.673206    -12.393229   1.000000   1.000000
  280      -12.672721    -12.392703   1.000000   1.000000
  281      -12.672618    -12.392600   1.000000   1.000000
  282      -12.672128    -12.392104   1.000000   1.000000
  283      -12.668068    -12.389183   1.000000   1.000000
  284      -12.667650    -12.388757   1.000000   1.000000
  285      -12.667551    -12.388658   1.000000   1.000000
  286      -12.666983    -12.388046   1.000000   1.000000
  287      -12.654489    -12.374532   1.000000   1.000000
  288      -12.643722    -12.365993   1.000000   1.000000
  289       -7.800026     -7.599027   1.000000   1.000000
  290       -7.748233     -7.551512   1.000000   1.000000
  291       -7.505569     -7.319325   1.000000   1.000000
  292       -7.505404     -7.319151   1.000000   1.000000
  293       -7.505334     -7.319079   1.000000   1.000000
  294       -7.505156     -7.318890   1.000000   1.000000
  295       -7.501113     -7.308986   1.000000   1.000000
  296       -7.500978     -7.308832   1.000000   1.000000
  297       -7.500906     -7.308758   1.000000   1.000000
  298       -7.500725     -7.308581   1.000000   1.000000
  299       -7.315280     -7.117838   1.000000   1.000000
  300       -7.315027     -7.117564   1.000000   1.000000
  301       -7.297085     -7.093823   1.000000   1.000000
  302       -7.296828     -7.093546   1.000000   1.000000
  303       -7.296793     -7.093509   1.000000   1.000000
  304       -7.296549     -7.093243   1.000000   1.000000
  305       -7.269378     -7.062091   1.000000   1.000000
  306       -7.269092     -7.061782   1.000000   1.000000
  307       -7.088643     -6.894025   1.000000   1.000000
  308       -7.084808     -6.893849   1.000000   1.000000
  309       -7.084661     -6.893836   1.000000   1.000000
  310       -7.084641     -6.893659   1.000000   1.000000
  311       -7.084470     -6.796734   1.000000   1.000000
  312       -7.046571     -6.783804   1.000000   1.000000
  313       -7.000373     -6.768129   1.000000   1.000000
  314       -7.000156     -6.767998   1.000000   1.000000
  315       -6.999906     -6.767965   1.000000   1.000000
  316       -6.999769     -6.767742   1.000000   1.000000
  317       -6.999758     -6.766684   1.000000   1.000000
  318       -6.999661     -6.766465   1.000000   1.000000
  319       -6.999395     -6.766195   1.000000   1.000000
  320       -6.999188     -6.766079   1.000000   1.000000
  321       -6.994489     -6.766065   1.000000   1.000000
  322       -6.994212     -6.765950   1.000000   1.000000
  323       -6.994130     -6.765638   1.000000   1.000000
  324       -6.993826     -6.765396   1.000000   1.000000
  325       -6.955923     -6.745244   1.000000   1.000000
  326       -6.955771     -6.744915   1.000000   1.000000
  327       -6.955756     -6.744838   1.000000   1.000000
  328       -6.955595     -6.744501   1.000000   1.000000
  329       -6.948341     -6.697484   1.000000   1.000000
  330       -6.948280     -6.697425   1.000000   1.000000
  331       -6.928931     -6.689420   1.000000   1.000000
  332       -6.928638     -6.689091   1.000000   1.000000
  333       -6.928543     -6.689004   1.000000   1.000000
  334       -6.928291     -6.688713   1.000000   1.000000
  335       -6.911321     -6.639877   1.000000   1.000000
  336       -6.911298     -6.639486   1.000000   1.000000
  337       -6.885746     -6.639327   1.000000   1.000000
  338       -6.885648     -6.639089   1.000000   1.000000
  339       -6.885638     -6.639025   1.000000   1.000000
  340       -6.885586     -6.638959   1.000000   1.000000
  341       -6.877382     -6.638813   1.000000   1.000000
  342       -6.877184     -6.638592   1.000000   1.000000
  343       -6.876930     -6.638343   1.000000   1.000000
  344       -6.876810     -6.638305   1.000000   1.000000
  345       -6.876794     -6.638105   1.000000   1.000000
  346       -6.876669     -6.637783   1.000000   1.000000
  347       -6.876418     -6.628055   1.000000   1.000000
  348       -6.876177     -6.628037   1.000000   1.000000
  349       -6.832629     -6.586668   1.000000   1.000000
  350       -6.832554     -6.586589   1.000000   1.000000
  351       -6.794267     -6.499089   1.000000   1.000000
  352       -6.794248     -6.499069   1.000000   1.000000
  353       -1.525526     -0.414713   1.000000   1.000000
  354       -1.468108     -0.414511   1.000000   1.000000
  355       -1.467762     -0.414451   1.000000   1.000000
  356       -1.467644     -0.414383   1.000000   1.000000
  357       -1.467187      0.026034   1.000000   1.000000
  358       -1.460348      0.026269   1.000000   1.000000
  359       -1.460332      0.026422   1.000000   1.000000
  360       -1.460223      0.026815   1.000000   1.000000
  361       -1.460071      0.037648   1.000000   1.000000
  362       -1.421392      0.037808   1.000000   1.000000
  363       -1.421337      0.037923   1.000000   1.000000
  364       -1.382827      0.037975   1.000000   1.000000
  365       -1.382779      0.038132   1.000000   1.000000
  366       -1.382767      0.038180   1.000000   1.000000
  367       -1.382736      0.038341   1.000000   1.000000
  368       -1.333374      0.038429   1.000000   1.000000
  369       -1.332713      0.102899   1.000000   1.000000
  370       -1.332552      0.102904   1.000000   1.000000
  371       -1.332515      0.207400   1.000000   1.000000
  372       -1.332471      0.207551   1.000000   1.000000
  373       -1.332437      0.207553   1.000000   1.000000
  374       -1.332272      0.207683   1.000000   1.000000
  375       -1.331636      0.304165   1.000000   1.000000
  376       -1.292961      0.392024   1.000000   1.000000
  377       -1.292551      0.392496   1.000000   1.000000
  378       -1.292441      0.392690   1.000000   1.000000
  379       -1.291962      0.393008   1.000000   1.000000
  380       -1.256794      0.490787   1.000000   1.000000
  381       -1.256779      0.491002   1.000000   1.000000
  382       -1.232171      0.497413   1.000000   1.000000
  383       -1.232155      0.497672   1.000000   1.000000
  384       -1.220371      0.497718   1.000000   1.000000
  385       -0.822858      0.497872   1.000000   1.000000
  386       -0.822706      0.510668   1.000000   1.000000
  387       -0.822647      0.510703   1.000000   1.000000
  388       -0.822581      0.531084   1.000000   1.000000
  389       -0.722716      0.531198   1.000000   1.000000
  390       -0.722591      0.531230   1.000000   1.000000
  391       -0.699223      0.531483   1.000000   1.000000
  392       -0.699135      0.574105   1.000000   1.000000
  393       -0.699104      0.574242   1.000000   1.000000
  394       -0.698784      0.574316   1.000000   1.000000
  395       -0.688454      0.574359   1.000000   1.000000
  396       -0.688440      0.574390   1.000000   1.000000
  397       -0.688197      0.574499   1.000000   1.000000
  398       -0.688155      0.574559   1.000000   1.000000
  399       -0.666865      0.574607   1.000000   1.000000
  400       -0.666565      0.638615   1.000000   1.000000
  401       -0.666398      0.666263   1.000000   1.000000
  402       -0.666275      0.666376   1.000000   1.000000
  403       -0.652139      0.733082   1.000000   1.000000
  404       -0.651896      0.733101   1.000000   1.000000
  405       -0.651813      0.931373   1.000000   1.000000
  406       -0.651745      0.932549   1.000000   1.000000
  407       -0.589430      0.935475   1.000000   1.000000
  408       -0.589395      0.935761   1.000000   1.000000
  409       -0.576612      0.948849   1.000000   1.000000
  410       -0.576564      0.948947   1.000000   1.000000
  411       -0.576542      0.948959   1.000000   1.000000
  412       -0.576455      0.949177   1.000000   1.000000
  413       -0.553415      0.986100   1.000000   1.000000
  414       -0.553384      0.986200   1.000000   1.000000
  415       -0.553088      0.986235   1.000000   1.000000
  416       -0.552871      0.986293   1.000000   1.000000
  417       -0.497630      0.992779   1.000000   1.000000
  418       -0.496879      0.992977   1.000000   1.000000
  419       -0.472915      1.008776   1.000000   1.000000
  420       -0.472690      1.008933   1.000000   1.000000
  421       -0.461598      1.008951   1.000000   1.000000
  422       -0.461506      1.009124   1.000000   1.000000
  423       -0.461301      1.018463   1.000000   1.000000
  424       -0.461089      1.049100   1.000000   1.000000
  425       -0.459844      1.049143   1.000000   1.000000
  426       -0.459742      1.051607   1.000000   1.000000
  427       -0.459441      1.051684   1.000000   1.000000
  428       -0.459289      1.051793   1.000000   1.000000
  429       -0.410024      1.051848   1.000000   1.000000
  430       -0.409997      1.078623   1.000000   1.000000
  431       -0.407557      1.078659   1.000000   1.000000
  432       -0.407544      1.078904   1.000000   1.000000
  433       -0.407521      1.078977   1.000000   1.000000
  434       -0.407436      1.079757   1.000000   1.000000
  435       -0.407366      1.079846   1.000000   1.000000
  436       -0.407355      1.079981   1.000000   1.000000
  437       -0.383304      1.080165   1.000000   1.000000
  438       -0.383265      1.192791   1.000000   1.000000
  439       -0.378172      1.192935   1.000000   1.000000
  440       -0.369031      1.376461   1.000000   1.000000
  441       -0.368935      1.390368   1.000000   1.000000
  442       -0.368749      1.390979   1.000000   1.000000
  443       -0.368674      1.391205   1.000000   1.000000
  444       -0.368660      1.391454   1.000000   1.000000
  445       -0.368641      1.391627   1.000000   1.000000
  446       -0.368494      1.437311   1.000000   1.000000
  447       -0.368393      1.450203   1.000000   1.000000
  448       -0.353550      1.526146   1.000000   1.000000
  449       -0.353530      1.526381   1.000000   1.000000
  450       -0.349057      1.526451   1.000000   1.000000
  451       -0.341793      1.526556   1.000000   1.000000
  452       -0.335863      1.528744   1.000000   1.000000
  453       -0.335793      1.528938   1.000000   1.000000
  454       -0.335392      1.528973   1.000000   1.000000
  455       -0.335347      1.529138   1.000000   1.000000
  456       -0.334227      1.558180   1.000000   1.000000
  457       -0.334119      1.558322   1.000000   1.000000
  458       -0.334065      1.558352   1.000000   1.000000
  459       -0.334044      1.558482   1.000000   1.000000
  460       -0.324464      1.566458   1.000000   1.000000
  461       -0.324046      1.566763   1.000000   1.000000
  462       -0.323846      1.566975   1.000000   1.000000
  463       -0.323835      1.567030   1.000000   1.000000
  464       -0.321864      1.568037   1.000000   1.000000
  465       -0.321375      1.568297   1.000000   1.000000
  466       -0.321192      1.568483   1.000000   1.000000
  467       -0.321188      1.568709   1.000000   1.000000
  468       -0.303826      1.586351   1.000000   1.000000
  469       -0.295901      1.586883   1.000000   1.000000
  470       -0.288092      1.695644   1.000000   1.000000
  471       -0.287929      1.695796   1.000000   1.000000
  472       -0.287778      1.740875   1.000000   1.000000
  473       -0.287512      1.740950   1.000000   1.000000
  474       -0.280406      1.741135   1.000000   1.000000
  475       -0.280369      1.741303   1.000000   1.000000
  476       -0.275113      1.746857   1.000000   1.000000
  477       -0.275072      1.746872   1.000000   1.000000
  478       -0.274888      1.746896   1.000000   1.000000
  479       -0.274682      1.746897   1.000000   1.000000
  480       -0.241879      1.779027   1.000000   1.000000
  481       -0.241662      1.780621   1.000000   1.000000
  482       -0.241600      1.780649   1.000000   1.000000
  483       -0.241547      1.836730   1.000000   1.000000
  484       -0.241462      1.836888   1.000000   1.000000
  485       -0.241398      1.837166   1.000000   1.000000
  486       -0.241244      1.837646   1.000000   1.000000
  487       -0.241124      1.837731   1.000000   1.000000
  488       -0.207400      1.837766   1.000000   1.000000
  489       -0.207393      1.838432   1.000000   1.000000
  490       -0.199727      1.838652   1.000000   1.000000
  491       -0.199573      1.866213   1.000000   1.000000
  492       -0.199539      1.866416   1.000000   1.000000
  493       -0.199413      1.913230   1.000000   1.000000
  494       -0.194083      1.913276   1.000000   1.000000
  495       -0.193922      1.913420   1.000000   1.000000
  496       -0.164090      1.913484   1.000000   1.000000
  497       -0.163949      1.913631   1.000000   1.000000
  498       -0.163779      1.913726   1.000000   1.000000
  499       -0.163587      1.913890   1.000000   1.000000
  500       -0.156666      1.914014   1.000000   1.000000
  501       -0.156652      1.926698   1.000000   1.000000
  502       -0.156365      1.926970   1.000000   1.000000
  503       -0.156006      1.927099   1.000000   1.000000
  504       -0.139038      1.927357   1.000000   1.000000
  505       -0.139026      2.133191   1.000000   1.000000
  506       -0.138847      2.133309   1.000000   1.000000
  507       -0.138813      2.191257   1.000000   1.000000
  508       -0.090982      2.193189   1.000000   1.000000
  509       -0.090943      2.300603   1.000000   1.000000
  510       -0.082557      2.300690   1.000000   1.000000
  511       -0.082485      2.300988   1.000000   1.000000
  512       -0.082451      2.301246   1.000000   1.000000