  88  88   0   0
  0.1431748E+02  0.1111223E-08  0.1111745E-08  0.1056954E-08  0.5000000E-15
  1.000000000000000E-004
  CAR 
 unknown system                          
     17.91310515    -54.34252632  301      5.20815662      1.00000000
    -54.343  0.0000E+00  0.0000E+00  0.0000E+00  0.0000E+00
    -54.102  0.0000E+00  0.0000E+00  0.0000E+00  0.0000E+00
    -53.861  0.0000E+00  0.0000E+00  0.0000E+00  0.0000E+00
    -53.620  0.0000E+00  0.0000E+00  0.0000E+00  0.0000E+00
    -53.379  0.0000E+00  0.0000E+00  0.0000E+00  0.0000E+00
    -53.138  0.0000E+00  0.0000E+00  0.0000E+00  0.0000E+00
    -52.897  0.0000E+00  0.0000E+00  0.0000E+00  0.0000E+00
    -52.657  0.0000E+00  0.0000E+00  0.0000E+00  0.0000E+00
    -52.416  0.0000E+00  0.0000E+00  0.0000E+00  0.0000E+00
    -52.175  0.0000E+00  0.0000E+00  0.0000E+00  0.0000E+00
    -51.934  0.0000E+00  0.0000E+00  0.0000E+00  0.0000E+00
    -51.693  0.0000E+00  0.0000E+00  0.0000E+00  0.0000E+00
    -51.452  0.0000E+00  0.0000E+00  0.0000E+00  0.0000E+00
    -51.211  0.3256E-03  0.0000E+00  0.7842E-04  0.0000E+00
    -50.971  0.1307E+03  0.0000E+00  0.3147E+02  0.0000E+00
    -50.730  0.2185E+01  0.0000E+00  0.3200E+02  0.0000E+00
    -50.489  0.0000E+00  0.0000E+00  0.3200E+02  0.0000E+00
    -50.248  0.0000E+00  0.0000E+00  0.3200E+02  0.0000E+00
    -50.007  0.0000E+00  0.0000E+00  0.3200E+02  0.0000E+00
    -49.766  0.1819E+01  0.0000E+00  0.3244E+02  0.0000E+00
    -49.525  0.2353E+03  0.0000E+00  0.8911E+02  0.0000E+00
    -49.285  0.2860E+02  0.0000E+00  0.9600E+02  0.0000E+00
    -49.044  0.0000E+00  0.0000E+00  0.9600E+02  0.0000E+00
    -48.803  0.0000E+00  0.0000E+00  0.9600E+02  0.0000E+00
    -48.562  0.0000E+00  0.0000E+00  0.9600E+02  0.0000E+00
    -48.321  0.0000E+00  0.0000E+00  0.9600E+02  0.0000E+00
    -48.080  0.0000E+00  0.0000E+00  0.9600E+02  0.0000E+00
    -47.840  0.0000E+00  0.0000E+00  0.9600E+02  0.0000E+00
    -47.599  0.0000E+00  0.0000E+00  0.9600E+02  0.0000E+00
    -47.358  0.0000E+00  0.0000E+00  0.9600E+02  0.0000E+00
    -47.117  0.0000E+00  0.0000E+00  0.9600E+02  0.0000E+00
    -46.876  0.0000E+00  0.0000E+00  0.9600E+02  0.0000E+00
    -46.635  0.0000E+00  0.0000E+00  0.9600E+02  0.0000E+00
    -46.394  0.0000E+00  0.3472E+00  0.9600E+02  0.8363E-01
    -46.154  0.0000E+00  0.1325E+03  0.9600E+02  0.3199E+02
    -45.913  0.0000E+00  0.5915E+02  0.9600E+02  0.4623E+02
    -45.672  0.0000E+00  0.2066E+03  0.9600E+02  0.9600E+02
    -45.431  0.0000E+00  0.0000E+00  0.9600E+02  0.9600E+02
    -45.190  0.0000E+00  0.0000E+00  0.9600E+02  0.9600E+02
    -44.949  0.0000E+00  0.0000E+00  0.9600E+02  0.9600E+02
    -44.708  0.0000E+00  0.0000E+00  0.9600E+02  0.9600E+02
    -44.468  0.0000E+00  0.0000E+00  0.9600E+02  0.9600E+02
    -44.227  0.0000E+00  0.0000E+00  0.9600E+02  0.9600E+02
    -43.986  0.0000E+00  0.0000E+00  0.9600E+02  0.9600E+02
    -43.745  0.0000E+00  0.0000E+00  0.9600E+02  0.9600E+02
    -43.504  0.0000E+00  0.0000E+00  0.9600E+02  0.9600E+02
    -43.263  0.0000E+00  0.0000E+00  0.9600E+02  0.9600E+02
    -43.022  0.0000E+00  0.0000E+00  0.9600E+02  0.9600E+02
    -42.782  0.0000E+00  0.0000E+00  0.9600E+02  0.9600E+02
    -42.541  0.0000E+00  0.0000E+00  0.9600E+02  0.9600E+02
    -42.300  0.0000E+00  0.0000E+00  0.9600E+02  0.9600E+02
    -42.059  0.0000E+00  0.0000E+00  0.9600E+02  0.9600E+02
    -41.818  0.0000E+00  0.0000E+00  0.9600E+02  0.9600E+02
    -41.577  0.0000E+00  0.0000E+00  0.9600E+02  0.9600E+02
    -41.337  0.0000E+00  0.0000E+00  0.9600E+02  0.9600E+02
    -41.096  0.0000E+00  0.0000E+00  0.9600E+02  0.9600E+02
    -40.855  0.0000E+00  0.0000E+00  0.9600E+02  0.9600E+02
    -40.614  0.0000E+00  0.0000E+00  0.9600E+02  0.9600E+02
    -40.373  0.0000E+00  0.0000E+00  0.9600E+02  0.9600E+02
    -40.132  0.2136E-11  0.1408E-11  0.9600E+02  0.9600E+02
    -39.891  0.1504E+02  0.1391E+02  0.9962E+02  0.9935E+02
    -39.651  0.5139E+02  0.5252E+02  0.1120E+03  0.1120E+03
    -39.410  0.0000E+00  0.0000E+00  0.1120E+03  0.1120E+03
    -39.169  0.0000E+00  0.0000E+00  0.1120E+03  0.1120E+03
    -38.928  0.0000E+00  0.0000E+00  0.1120E+03  0.1120E+03
    -38.687  0.0000E+00  0.0000E+00  0.1120E+03  0.1120E+03
    -38.446  0.0000E+00  0.0000E+00  0.1120E+03  0.1120E+03
    -38.205  0.0000E+00  0.0000E+00  0.1120E+03  0.1120E+03
    -37.965  0.0000E+00  0.0000E+00  0.1120E+03  0.1120E+03
    -37.724  0.0000E+00  0.0000E+00  0.1120E+03  0.1120E+03
    -37.483  0.0000E+00  0.0000E+00  0.1120E+03  0.1120E+03
    -37.242  0.0000E+00  0.0000E+00  0.1120E+03  0.1120E+03
    -37.001  0.0000E+00  0.0000E+00  0.1120E+03  0.1120E+03
    -36.760  0.0000E+00  0.0000E+00  0.1120E+03  0.1120E+03
    -36.519  0.0000E+00  0.0000E+00  0.1120E+03  0.1120E+03
    -36.279  0.0000E+00  0.0000E+00  0.1120E+03  0.1120E+03
    -36.038  0.0000E+00  0.0000E+00  0.1120E+03  0.1120E+03
    -35.797  0.0000E+00  0.0000E+00  0.1120E+03  0.1120E+03
    -35.556  0.0000E+00  0.0000E+00  0.1120E+03  0.1120E+03
    -35.315  0.0000E+00  0.0000E+00  0.1120E+03  0.1120E+03
    -35.074  0.0000E+00  0.0000E+00  0.1120E+03  0.1120E+03
    -34.834  0.0000E+00  0.0000E+00  0.1120E+03  0.1120E+03
    -34.593  0.0000E+00  0.0000E+00  0.1120E+03  0.1120E+03
    -34.352  0.0000E+00  0.0000E+00  0.1120E+03  0.1120E+03
    -34.111  0.0000E+00  0.0000E+00  0.1120E+03  0.1120E+03
    -33.870  0.0000E+00  0.0000E+00  0.1120E+03  0.1120E+03
    -33.629  0.0000E+00  0.0000E+00  0.1120E+03  0.1120E+03
    -33.388  0.0000E+00  0.0000E+00  0.1120E+03  0.1120E+03
    -33.148  0.0000E+00  0.0000E+00  0.1120E+03  0.1120E+03
    -32.907  0.0000E+00  0.0000E+00  0.1120E+03  0.1120E+03
    -32.666  0.0000E+00  0.0000E+00  0.1120E+03  0.1120E+03
    -32.425  0.0000E+00  0.0000E+00  0.1120E+03  0.1120E+03
    -32.184  0.0000E+00  0.0000E+00  0.1120E+03  0.1120E+03
    -31.943  0.0000E+00  0.0000E+00  0.1120E+03  0.1120E+03
    -31.702  0.0000E+00  0.0000E+00  0.1120E+03  0.1120E+03
    -31.462  0.0000E+00  0.0000E+00  0.1120E+03  0.1120E+03
    -31.221  0.0000E+00  0.0000E+00  0.1120E+03  0.1120E+03
    -30.980  0.0000E+00  0.0000E+00  0.1120E+03  0.1120E+03
    -30.739  0.0000E+00  0.0000E+00  0.1120E+03  0.1120E+03
    -30.498  0.0000E+00  0.0000E+00  0.1120E+03  0.1120E+03
    -30.257  0.0000E+00  0.0000E+00  0.1120E+03  0.1120E+03
    -30.016  0.0000E+00  0.0000E+00  0.1120E+03  0.1120E+03
    -29.776  0.0000E+00  0.0000E+00  0.1120E+03  0.1120E+03
    -29.535  0.0000E+00  0.0000E+00  0.1120E+03  0.1120E+03
    -29.294  0.0000E+00  0.0000E+00  0.1120E+03  0.1120E+03
    -29.053  0.0000E+00  0.0000E+00  0.1120E+03  0.1120E+03
    -28.812  0.0000E+00  0.0000E+00  0.1120E+03  0.1120E+03
    -28.571  0.0000E+00  0.0000E+00  0.1120E+03  0.1120E+03
    -28.330  0.0000E+00  0.0000E+00  0.1120E+03  0.1120E+03
    -28.090  0.0000E+00  0.0000E+00  0.1120E+03  0.1120E+03
    -27.849  0.0000E+00  0.0000E+00  0.1120E+03  0.1120E+03
    -27.608  0.0000E+00  0.0000E+00  0.1120E+03  0.1120E+03
    -27.367  0.0000E+00  0.0000E+00  0.1120E+03  0.1120E+03
    -27.126  0.0000E+00  0.0000E+00  0.1120E+03  0.1120E+03
    -26.885  0.0000E+00  0.0000E+00  0.1120E+03  0.1120E+03
    -26.645  0.0000E+00  0.0000E+00  0.1120E+03  0.1120E+03
    -26.404  0.0000E+00  0.0000E+00  0.1120E+03  0.1120E+03
    -26.163  0.0000E+00  0.0000E+00  0.1120E+03  0.1120E+03
    -25.922  0.0000E+00  0.0000E+00  0.1120E+03  0.1120E+03
    -25.681  0.0000E+00  0.0000E+00  0.1120E+03  0.1120E+03
    -25.440  0.0000E+00  0.0000E+00  0.1120E+03  0.1120E+03
    -25.199  0.0000E+00  0.0000E+00  0.1120E+03  0.1120E+03
    -24.959  0.0000E+00  0.0000E+00  0.1120E+03  0.1120E+03
    -24.718  0.0000E+00  0.0000E+00  0.1120E+03  0.1120E+03
    -24.477  0.0000E+00  0.0000E+00  0.1120E+03  0.1120E+03
    -24.236  0.0000E+00  0.0000E+00  0.1120E+03  0.1120E+03
    -23.995  0.0000E+00  0.0000E+00  0.1120E+03  0.1120E+03
    -23.754  0.0000E+00  0.0000E+00  0.1120E+03  0.1120E+03
    -23.513  0.0000E+00  0.0000E+00  0.1120E+03  0.1120E+03
    -23.273  0.0000E+00  0.0000E+00  0.1120E+03  0.1120E+03
    -23.032  0.0000E+00  0.0000E+00  0.1120E+03  0.1120E+03
    -22.791  0.0000E+00  0.0000E+00  0.1120E+03  0.1120E+03
    -22.550  0.0000E+00  0.0000E+00  0.1120E+03  0.1120E+03
    -22.309  0.0000E+00  0.0000E+00  0.1120E+03  0.1120E+03
    -22.068  0.0000E+00  0.0000E+00  0.1120E+03  0.1120E+03
    -21.827  0.0000E+00  0.0000E+00  0.1120E+03  0.1120E+03
    -21.587  0.0000E+00  0.0000E+00  0.1120E+03  0.1120E+03
    -21.346  0.0000E+00  0.0000E+00  0.1120E+03  0.1120E+03
    -21.105  0.0000E+00  0.0000E+00  0.1120E+03  0.1120E+03
    -20.864  0.0000E+00  0.0000E+00  0.1120E+03  0.1120E+03
    -20.623  0.0000E+00  0.0000E+00  0.1120E+03  0.1120E+03
    -20.382  0.0000E+00  0.0000E+00  0.1120E+03  0.1120E+03
    -20.142  0.0000E+00  0.0000E+00  0.1120E+03  0.1120E+03
    -19.901  0.0000E+00  0.0000E+00  0.1120E+03  0.1120E+03
    -19.660  0.0000E+00  0.0000E+00  0.1120E+03  0.1120E+03
    -19.419  0.0000E+00  0.0000E+00  0.1120E+03  0.1120E+03
    -19.178  0.0000E+00  0.0000E+00  0.1120E+03  0.1120E+03
    -18.937  0.0000E+00  0.0000E+00  0.1120E+03  0.1120E+03
    -18.696  0.0000E+00  0.0000E+00  0.1120E+03  0.1120E+03
    -18.456  0.0000E+00  0.0000E+00  0.1120E+03  0.1120E+03
    -18.215  0.0000E+00  0.0000E+00  0.1120E+03  0.1120E+03
    -17.974  0.0000E+00  0.0000E+00  0.1120E+03  0.1120E+03
    -17.733  0.0000E+00  0.0000E+00  0.1120E+03  0.1120E+03
    -17.492  0.0000E+00  0.0000E+00  0.1120E+03  0.1120E+03
    -17.251  0.0000E+00  0.0000E+00  0.1120E+03  0.1120E+03
    -17.010  0.0000E+00  0.0000E+00  0.1120E+03  0.1120E+03
    -16.770  0.0000E+00  0.0000E+00  0.1120E+03  0.1120E+03
    -16.529  0.0000E+00  0.0000E+00  0.1120E+03  0.1120E+03
    -16.288  0.0000E+00  0.0000E+00  0.1120E+03  0.1120E+03
    -16.047  0.0000E+00  0.0000E+00  0.1120E+03  0.1120E+03
    -15.806  0.0000E+00  0.0000E+00  0.1120E+03  0.1120E+03
    -15.565  0.0000E+00  0.0000E+00  0.1120E+03  0.1120E+03
    -15.324  0.0000E+00  0.0000E+00  0.1120E+03  0.1120E+03
    -15.084  0.0000E+00  0.0000E+00  0.1120E+03  0.1120E+03
    -14.843  0.0000E+00  0.0000E+00  0.1120E+03  0.1120E+03
    -14.602  0.0000E+00  0.0000E+00  0.1120E+03  0.1120E+03
    -14.361  0.0000E+00  0.0000E+00  0.1120E+03  0.1120E+03
    -14.120  0.0000E+00  0.0000E+00  0.1120E+03  0.1120E+03
    -13.879  0.0000E+00  0.0000E+00  0.1120E+03  0.1120E+03
    -13.639  0.0000E+00  0.0000E+00  0.1120E+03  0.1120E+03
    -13.398  0.1040E-05  0.0000E+00  0.1120E+03  0.1120E+03
    -13.157  0.1979E+02  0.0000E+00  0.1168E+03  0.1120E+03
    -12.916  0.4546E+02  0.1083E-01  0.1277E+03  0.1120E+03
    -12.675  0.1181E+01  0.4329E+02  0.1280E+03  0.1224E+03
    -12.434  0.0000E+00  0.2313E+02  0.1280E+03  0.1280E+03
    -12.193  0.0000E+00  0.0000E+00  0.1280E+03  0.1280E+03
    -11.953  0.0000E+00  0.0000E+00  0.1280E+03  0.1280E+03
    -11.712  0.0000E+00  0.0000E+00  0.1280E+03  0.1280E+03
    -11.471  0.0000E+00  0.0000E+00  0.1280E+03  0.1280E+03
    -11.230  0.0000E+00  0.0000E+00  0.1280E+03  0.1280E+03
    -10.989  0.0000E+00  0.0000E+00  0.1280E+03  0.1280E+03
    -10.748  0.0000E+00  0.0000E+00  0.1280E+03  0.1280E+03
    -10.507  0.0000E+00  0.0000E+00  0.1280E+03  0.1280E+03
    -10.267  0.0000E+00  0.0000E+00  0.1280E+03  0.1280E+03
    -10.026  0.0000E+00  0.0000E+00  0.1280E+03  0.1280E+03
     -9.785  0.0000E+00  0.0000E+00  0.1280E+03  0.1280E+03
     -9.544  0.0000E+00  0.0000E+00  0.1280E+03  0.1280E+03
     -9.303  0.0000E+00  0.0000E+00  0.1280E+03  0.1280E+03
     -9.062  0.0000E+00  0.0000E+00  0.1280E+03  0.1280E+03
     -8.821  0.0000E+00  0.0000E+00  0.1280E+03  0.1280E+03
     -8.581  0.0000E+00  0.0000E+00  0.1280E+03  0.1280E+03
     -8.340  0.0000E+00  0.0000E+00  0.1280E+03  0.1280E+03
     -8.099  0.0000E+00  0.0000E+00  0.1280E+03  0.1280E+03
     -7.858  0.1426E-09  0.0000E+00  0.1280E+03  0.1280E+03
     -7.617  0.6444E+00  0.2648E-10  0.1282E+03  0.1280E+03
     -7.376  0.1293E+02  0.5739E+00  0.1313E+03  0.1281E+03
     -7.136  0.3025E+02  0.1422E+02  0.1386E+03  0.1316E+03
     -6.895  0.3466E+02  0.2941E+02  0.1469E+03  0.1386E+03
     -6.654  0.2116E+02  0.2657E+02  0.1520E+03  0.1450E+03
     -6.413  0.1258E-04  0.2883E+02  0.1520E+03  0.1520E+03
     -6.172  0.0000E+00  0.4280E-01  0.1520E+03  0.1520E+03
     -5.931  0.0000E+00  0.0000E+00  0.1520E+03  0.1520E+03
     -5.690  0.0000E+00  0.0000E+00  0.1520E+03  0.1520E+03
     -5.450  0.0000E+00  0.0000E+00  0.1520E+03  0.1520E+03
     -5.209  0.0000E+00  0.0000E+00  0.1520E+03  0.1520E+03
     -4.968  0.0000E+00  0.0000E+00  0.1520E+03  0.1520E+03
     -4.727  0.0000E+00  0.0000E+00  0.1520E+03  0.1520E+03
     -4.486  0.0000E+00  0.0000E+00  0.1520E+03  0.1520E+03
     -4.245  0.0000E+00  0.0000E+00  0.1520E+03  0.1520E+03
     -4.004  0.0000E+00  0.0000E+00  0.1520E+03  0.1520E+03
     -3.764  0.0000E+00  0.0000E+00  0.1520E+03  0.1520E+03
     -3.523  0.0000E+00  0.0000E+00  0.1520E+03  0.1520E+03
     -3.282  0.0000E+00  0.0000E+00  0.1520E+03  0.1520E+03
     -3.041  0.0000E+00  0.0000E+00  0.1520E+03  0.1520E+03
     -2.800  0.0000E+00  0.0000E+00  0.1520E+03  0.1520E+03
     -2.559  0.0000E+00  0.0000E+00  0.1520E+03  0.1520E+03
     -2.318  0.0000E+00  0.0000E+00  0.1520E+03  0.1520E+03
     -2.078  0.4226E-04  0.0000E+00  0.1520E+03  0.1520E+03
     -1.837  0.1648E+02  0.0000E+00  0.1560E+03  0.1520E+03
     -1.596  0.1937E+02  0.0000E+00  0.1606E+03  0.1520E+03
     -1.355  0.1466E+02  0.0000E+00  0.1642E+03  0.1520E+03
     -1.114  0.1727E+02  0.0000E+00  0.1683E+03  0.1520E+03
     -0.873  0.4643E+02  0.0000E+00  0.1795E+03  0.1520E+03
     -0.633  0.5911E+02  0.1679E-05  0.1937E+03  0.1520E+03
     -0.392  0.3872E+02  0.4495E+01  0.2031E+03  0.1531E+03
     -0.151  0.6839E+02  0.2032E+02  0.2195E+03  0.1580E+03
      0.090  0.7350E+02  0.1225E+02  0.2372E+03  0.1609E+03
      0.331  0.7762E+02  0.1874E+02  0.2559E+03  0.1654E+03
      0.572  0.7003E+02  0.2966E+02  0.2728E+03  0.1726E+03
      0.813  0.5479E+02  0.3936E+02  0.2860E+03  0.1821E+03
      1.053  0.3631E+02  0.3730E+02  0.2947E+03  0.1910E+03
      1.294  0.3073E+02  0.3090E+02  0.3022E+03  0.1985E+03
      1.535  0.4503E+02  0.2082E+02  0.3130E+03  0.2035E+03
      1.776  0.4278E+02  0.2882E+02  0.3233E+03  0.2104E+03
      2.017  0.6908E+02  0.3726E+02  0.3399E+03  0.2194E+03
      2.258  0.5699E+02  0.2717E+02  0.3537E+03  0.2260E+03
      2.499  0.2700E+02  0.2708E+02  0.3602E+03  0.2325E+03
      2.739  0.4279E+02  0.3122E+02  0.3705E+03  0.2400E+03
      2.980  0.2943E+02  0.4459E+02  0.3776E+03  0.2507E+03
      3.221  0.8727E+01  0.4543E+02  0.3797E+03  0.2617E+03
      3.462  0.2843E+02  0.3151E+02  0.3865E+03  0.2693E+03
      3.703  0.2690E+02  0.1221E+02  0.3930E+03  0.2722E+03
      3.944  0.3111E+02  0.1825E+02  0.4005E+03  0.2766E+03
      4.185  0.3590E+02  0.5218E+02  0.4091E+03  0.2892E+03
      4.425  0.3640E+02  0.4530E+02  0.4179E+03  0.3001E+03
      4.666  0.3007E+02  0.1622E+02  0.4251E+03  0.3040E+03
      4.907  0.2565E+02  0.3182E-02  0.4313E+03  0.3040E+03
      5.148  0.2832E+01  0.0000E+00  0.4320E+03  0.3040E+03
      5.389  0.0000E+00  0.0000E+00  0.4320E+03  0.3040E+03
      5.630  0.0000E+00  0.0000E+00  0.4320E+03  0.3040E+03
      5.870  0.0000E+00  0.0000E+00  0.4320E+03  0.3040E+03
      6.111  0.0000E+00  0.8802E-09  0.4320E+03  0.3040E+03
      6.352  0.0000E+00  0.4312E+00  0.4320E+03  0.3041E+03
      6.593  0.0000E+00  0.4212E+01  0.4320E+03  0.3051E+03
      6.834  0.0000E+00  0.7998E+01  0.4320E+03  0.3070E+03
      7.075  0.2219E-14  0.1979E+02  0.4320E+03  0.3118E+03
      7.316  0.3299E-01  0.4453E+02  0.4320E+03  0.3225E+03
      7.556  0.1208E+00  0.5378E+02  0.4320E+03  0.3355E+03
      7.797  0.2786E+00  0.6306E+02  0.4321E+03  0.3507E+03
      8.038  0.7118E+00  0.6619E+02  0.4323E+03  0.3666E+03
      8.279  0.2212E+01  0.7040E+02  0.4328E+03  0.3836E+03
      8.520  0.2655E+01  0.5871E+02  0.4334E+03  0.3977E+03
      8.761  0.8964E+01  0.5880E+02  0.4356E+03  0.4119E+03
      9.002  0.1260E+02  0.4722E+02  0.4386E+03  0.4232E+03
      9.242  0.1315E+02  0.2936E+02  0.4418E+03  0.4303E+03
      9.483  0.1812E+02  0.8672E+01  0.4462E+03  0.4324E+03
      9.724  0.1616E+02  0.3135E+01  0.4501E+03  0.4332E+03
      9.965  0.1573E+02  0.8446E+01  0.4539E+03  0.4352E+03
     10.206  0.2249E+02  0.1882E+02  0.4593E+03  0.4397E+03
     10.447  0.1486E+02  0.1797E+02  0.4629E+03  0.4441E+03
     10.688  0.1524E+02  0.1729E+02  0.4665E+03  0.4482E+03
     10.928  0.1331E+02  0.2755E+02  0.4697E+03  0.4549E+03
     11.169  0.2068E+02  0.1895E+02  0.4747E+03  0.4594E+03
     11.410  0.2500E+02  0.2407E+02  0.4807E+03  0.4652E+03
     11.651  0.2703E+02  0.1453E+02  0.4872E+03  0.4687E+03
     11.892  0.2494E+02  0.1388E+02  0.4932E+03  0.4721E+03
     12.133  0.3320E+02  0.1627E+02  0.5012E+03  0.4760E+03
     12.374  0.1983E+02  0.3713E+02  0.5060E+03  0.4849E+03
     12.614  0.2308E+02  0.3254E+02  0.5116E+03  0.4928E+03
     12.855  0.2153E+02  0.2945E+02  0.5168E+03  0.4999E+03
     13.096  0.2005E+02  0.2019E+02  0.5216E+03  0.5047E+03
     13.337  0.2435E+02  0.2245E+02  0.5275E+03  0.5101E+03
     13.578  0.2389E+02  0.2727E+02  0.5332E+03  0.5167E+03
     13.819  0.1335E+02  0.2373E+02  0.5364E+03  0.5224E+03
     14.059  0.6533E+01  0.2617E+02  0.5380E+03  0.5287E+03
     14.300  0.2942E-02  0.1908E+02  0.5380E+03  0.5333E+03
     14.541  0.0000E+00  0.1653E+02  0.5380E+03  0.5373E+03
     14.782  0.0000E+00  0.2961E+01  0.5380E+03  0.5380E+03
     15.023  0.0000E+00  0.2240E-05  0.5380E+03  0.5380E+03
     15.264  0.0000E+00  0.0000E+00  0.5380E+03  0.5380E+03
     15.505  0.0000E+00  0.0000E+00  0.5380E+03  0.5380E+03
     15.745  0.0000E+00  0.0000E+00  0.5380E+03  0.5380E+03
     15.986  0.0000E+00  0.0000E+00  0.5380E+03  0.5380E+03
     16.227  0.0000E+00  0.0000E+00  0.5380E+03  0.5380E+03
     16.468  0.0000E+00  0.0000E+00  0.5380E+03  0.5380E+03
     16.709  0.0000E+00  0.0000E+00  0.5380E+03  0.5380E+03
     16.950  0.0000E+00  0.0000E+00  0.5380E+03  0.5380E+03
     17.191  0.0000E+00  0.0000E+00  0.5380E+03  0.5380E+03
     17.431  0.0000E+00  0.0000E+00  0.5380E+03  0.5380E+03
     17.672  0.0000E+00  0.0000E+00  0.5380E+03  0.5380E+03
     17.913  0.0000E+00  0.0000E+00  0.5380E+03  0.5380E+03
