 160 160   0   0
  0.1215613E+02  0.1537564E-08  0.1124787E-08  0.1124760E-08  0.5000000E-15
  1.000000000000000E-004
  CAR 
 unknown system                          
     17.05027569    -54.78962841  301      4.89735858      1.00000000
    -54.790  0.0000E+00  0.0000E+00  0.0000E+00  0.0000E+00
    -54.550  0.0000E+00  0.0000E+00  0.0000E+00  0.0000E+00
    -54.311  0.0000E+00  0.0000E+00  0.0000E+00  0.0000E+00
    -54.071  0.0000E+00  0.0000E+00  0.0000E+00  0.0000E+00
    -53.832  0.0000E+00  0.0000E+00  0.0000E+00  0.0000E+00
    -53.592  0.0000E+00  0.0000E+00  0.0000E+00  0.0000E+00
    -53.353  0.0000E+00  0.0000E+00  0.0000E+00  0.0000E+00
    -53.113  0.0000E+00  0.0000E+00  0.0000E+00  0.0000E+00
    -52.874  0.0000E+00  0.0000E+00  0.0000E+00  0.0000E+00
    -52.634  0.0000E+00  0.0000E+00  0.0000E+00  0.0000E+00
    -52.395  0.0000E+00  0.0000E+00  0.0000E+00  0.0000E+00
    -52.155  0.0000E+00  0.0000E+00  0.0000E+00  0.0000E+00
    -51.916  0.0000E+00  0.0000E+00  0.0000E+00  0.0000E+00
    -51.677  0.3977E-03  0.0000E+00  0.9523E-04  0.0000E+00
    -51.437  0.8210E+02  0.0000E+00  0.1966E+02  0.0000E+00
    -51.198  0.5153E+02  0.0000E+00  0.3200E+02  0.0000E+00
    -50.958  0.0000E+00  0.0000E+00  0.3200E+02  0.0000E+00
    -50.719  0.0000E+00  0.0000E+00  0.3200E+02  0.0000E+00
    -50.479  0.5867E-13  0.0000E+00  0.3200E+02  0.0000E+00
    -50.240  0.7811E+01  0.0000E+00  0.3387E+02  0.0000E+00
    -50.000  0.1685E+03  0.0000E+00  0.7422E+02  0.0000E+00
    -49.761  0.9097E+02  0.0000E+00  0.9600E+02  0.0000E+00
    -49.521  0.0000E+00  0.0000E+00  0.9600E+02  0.0000E+00
    -49.282  0.0000E+00  0.0000E+00  0.9600E+02  0.0000E+00
    -49.042  0.0000E+00  0.0000E+00  0.9600E+02  0.0000E+00
    -48.803  0.0000E+00  0.0000E+00  0.9600E+02  0.0000E+00
    -48.564  0.0000E+00  0.0000E+00  0.9600E+02  0.0000E+00
    -48.324  0.0000E+00  0.0000E+00  0.9600E+02  0.0000E+00
    -48.085  0.0000E+00  0.0000E+00  0.9600E+02  0.0000E+00
    -47.845  0.0000E+00  0.0000E+00  0.9600E+02  0.0000E+00
    -47.606  0.0000E+00  0.0000E+00  0.9600E+02  0.0000E+00
    -47.366  0.0000E+00  0.0000E+00  0.9600E+02  0.0000E+00
    -47.127  0.0000E+00  0.0000E+00  0.9600E+02  0.0000E+00
    -46.887  0.0000E+00  0.1987E+00  0.9600E+02  0.4759E-01
    -46.648  0.0000E+00  0.1063E+03  0.9600E+02  0.2549E+02
    -46.408  0.0000E+00  0.1048E+03  0.9600E+02  0.5058E+02
    -46.169  0.0000E+00  0.1894E+03  0.9600E+02  0.9593E+02
    -45.929  0.0000E+00  0.3019E+00  0.9600E+02  0.9600E+02
    -45.690  0.0000E+00  0.0000E+00  0.9600E+02  0.9600E+02
    -45.450  0.0000E+00  0.0000E+00  0.9600E+02  0.9600E+02
    -45.211  0.0000E+00  0.0000E+00  0.9600E+02  0.9600E+02
    -44.972  0.0000E+00  0.0000E+00  0.9600E+02  0.9600E+02
    -44.732  0.0000E+00  0.0000E+00  0.9600E+02  0.9600E+02
    -44.493  0.0000E+00  0.0000E+00  0.9600E+02  0.9600E+02
    -44.253  0.0000E+00  0.0000E+00  0.9600E+02  0.9600E+02
    -44.014  0.0000E+00  0.0000E+00  0.9600E+02  0.9600E+02
    -43.774  0.0000E+00  0.0000E+00  0.9600E+02  0.9600E+02
    -43.535  0.0000E+00  0.0000E+00  0.9600E+02  0.9600E+02
    -43.295  0.0000E+00  0.0000E+00  0.9600E+02  0.9600E+02
    -43.056  0.0000E+00  0.0000E+00  0.9600E+02  0.9600E+02
    -42.816  0.0000E+00  0.0000E+00  0.9600E+02  0.9600E+02
    -42.577  0.0000E+00  0.0000E+00  0.9600E+02  0.9600E+02
    -42.337  0.0000E+00  0.0000E+00  0.9600E+02  0.9600E+02
    -42.098  0.0000E+00  0.0000E+00  0.9600E+02  0.9600E+02
    -41.858  0.0000E+00  0.0000E+00  0.9600E+02  0.9600E+02
    -41.619  0.0000E+00  0.0000E+00  0.9600E+02  0.9600E+02
    -41.380  0.0000E+00  0.0000E+00  0.9600E+02  0.9600E+02
    -41.140  0.0000E+00  0.0000E+00  0.9600E+02  0.9600E+02
    -40.901  0.0000E+00  0.0000E+00  0.9600E+02  0.9600E+02
    -40.661  0.2524E-14  0.2318E-15  0.9600E+02  0.9600E+02
    -40.422  0.3775E+01  0.3326E+01  0.9690E+02  0.9680E+02
    -40.182  0.1804E+03  0.1830E+03  0.1401E+03  0.1406E+03
    -39.943  0.8304E+02  0.8095E+02  0.1600E+03  0.1600E+03
    -39.703  0.0000E+00  0.0000E+00  0.1600E+03  0.1600E+03
    -39.464  0.0000E+00  0.0000E+00  0.1600E+03  0.1600E+03
    -39.224  0.0000E+00  0.0000E+00  0.1600E+03  0.1600E+03
    -38.985  0.0000E+00  0.0000E+00  0.1600E+03  0.1600E+03
    -38.745  0.0000E+00  0.0000E+00  0.1600E+03  0.1600E+03
    -38.506  0.0000E+00  0.0000E+00  0.1600E+03  0.1600E+03
    -38.266  0.0000E+00  0.0000E+00  0.1600E+03  0.1600E+03
    -38.027  0.0000E+00  0.0000E+00  0.1600E+03  0.1600E+03
    -37.788  0.0000E+00  0.0000E+00  0.1600E+03  0.1600E+03
    -37.548  0.0000E+00  0.0000E+00  0.1600E+03  0.1600E+03
    -37.309  0.0000E+00  0.0000E+00  0.1600E+03  0.1600E+03
    -37.069  0.0000E+00  0.0000E+00  0.1600E+03  0.1600E+03
    -36.830  0.0000E+00  0.0000E+00  0.1600E+03  0.1600E+03
    -36.590  0.0000E+00  0.0000E+00  0.1600E+03  0.1600E+03
    -36.351  0.0000E+00  0.0000E+00  0.1600E+03  0.1600E+03
    -36.111  0.0000E+00  0.0000E+00  0.1600E+03  0.1600E+03
    -35.872  0.0000E+00  0.0000E+00  0.1600E+03  0.1600E+03
    -35.632  0.0000E+00  0.0000E+00  0.1600E+03  0.1600E+03
    -35.393  0.0000E+00  0.0000E+00  0.1600E+03  0.1600E+03
    -35.153  0.0000E+00  0.0000E+00  0.1600E+03  0.1600E+03
    -34.914  0.0000E+00  0.0000E+00  0.1600E+03  0.1600E+03
    -34.674  0.0000E+00  0.0000E+00  0.1600E+03  0.1600E+03
    -34.435  0.0000E+00  0.0000E+00  0.1600E+03  0.1600E+03
    -34.196  0.0000E+00  0.0000E+00  0.1600E+03  0.1600E+03
    -33.956  0.0000E+00  0.0000E+00  0.1600E+03  0.1600E+03
    -33.717  0.0000E+00  0.0000E+00  0.1600E+03  0.1600E+03
    -33.477  0.0000E+00  0.0000E+00  0.1600E+03  0.1600E+03
    -33.238  0.0000E+00  0.0000E+00  0.1600E+03  0.1600E+03
    -32.998  0.0000E+00  0.0000E+00  0.1600E+03  0.1600E+03
    -32.759  0.0000E+00  0.0000E+00  0.1600E+03  0.1600E+03
    -32.519  0.0000E+00  0.0000E+00  0.1600E+03  0.1600E+03
    -32.280  0.0000E+00  0.0000E+00  0.1600E+03  0.1600E+03
    -32.040  0.0000E+00  0.0000E+00  0.1600E+03  0.1600E+03
    -31.801  0.0000E+00  0.0000E+00  0.1600E+03  0.1600E+03
    -31.561  0.0000E+00  0.0000E+00  0.1600E+03  0.1600E+03
    -31.322  0.0000E+00  0.0000E+00  0.1600E+03  0.1600E+03
    -31.082  0.0000E+00  0.0000E+00  0.1600E+03  0.1600E+03
    -30.843  0.0000E+00  0.0000E+00  0.1600E+03  0.1600E+03
    -30.604  0.0000E+00  0.0000E+00  0.1600E+03  0.1600E+03
    -30.364  0.0000E+00  0.0000E+00  0.1600E+03  0.1600E+03
    -30.125  0.0000E+00  0.0000E+00  0.1600E+03  0.1600E+03
    -29.885  0.0000E+00  0.0000E+00  0.1600E+03  0.1600E+03
    -29.646  0.0000E+00  0.0000E+00  0.1600E+03  0.1600E+03
    -29.406  0.0000E+00  0.0000E+00  0.1600E+03  0.1600E+03
    -29.167  0.0000E+00  0.0000E+00  0.1600E+03  0.1600E+03
    -28.927  0.0000E+00  0.0000E+00  0.1600E+03  0.1600E+03
    -28.688  0.0000E+00  0.0000E+00  0.1600E+03  0.1600E+03
    -28.448  0.0000E+00  0.0000E+00  0.1600E+03  0.1600E+03
    -28.209  0.0000E+00  0.0000E+00  0.1600E+03  0.1600E+03
    -27.969  0.0000E+00  0.0000E+00  0.1600E+03  0.1600E+03
    -27.730  0.0000E+00  0.0000E+00  0.1600E+03  0.1600E+03
    -27.490  0.0000E+00  0.0000E+00  0.1600E+03  0.1600E+03
    -27.251  0.0000E+00  0.0000E+00  0.1600E+03  0.1600E+03
    -27.012  0.0000E+00  0.0000E+00  0.1600E+03  0.1600E+03
    -26.772  0.0000E+00  0.0000E+00  0.1600E+03  0.1600E+03
    -26.533  0.0000E+00  0.0000E+00  0.1600E+03  0.1600E+03
    -26.293  0.0000E+00  0.0000E+00  0.1600E+03  0.1600E+03
    -26.054  0.0000E+00  0.0000E+00  0.1600E+03  0.1600E+03
    -25.814  0.0000E+00  0.0000E+00  0.1600E+03  0.1600E+03
    -25.575  0.0000E+00  0.0000E+00  0.1600E+03  0.1600E+03
    -25.335  0.0000E+00  0.0000E+00  0.1600E+03  0.1600E+03
    -25.096  0.0000E+00  0.0000E+00  0.1600E+03  0.1600E+03
    -24.856  0.0000E+00  0.0000E+00  0.1600E+03  0.1600E+03
    -24.617  0.0000E+00  0.0000E+00  0.1600E+03  0.1600E+03
    -24.377  0.0000E+00  0.0000E+00  0.1600E+03  0.1600E+03
    -24.138  0.0000E+00  0.0000E+00  0.1600E+03  0.1600E+03
    -23.898  0.0000E+00  0.0000E+00  0.1600E+03  0.1600E+03
    -23.659  0.0000E+00  0.0000E+00  0.1600E+03  0.1600E+03
    -23.420  0.0000E+00  0.0000E+00  0.1600E+03  0.1600E+03
    -23.180  0.0000E+00  0.0000E+00  0.1600E+03  0.1600E+03
    -22.941  0.0000E+00  0.0000E+00  0.1600E+03  0.1600E+03
    -22.701  0.0000E+00  0.0000E+00  0.1600E+03  0.1600E+03
    -22.462  0.0000E+00  0.0000E+00  0.1600E+03  0.1600E+03
    -22.222  0.0000E+00  0.0000E+00  0.1600E+03  0.1600E+03
    -21.983  0.0000E+00  0.0000E+00  0.1600E+03  0.1600E+03
    -21.743  0.0000E+00  0.0000E+00  0.1600E+03  0.1600E+03
    -21.504  0.0000E+00  0.0000E+00  0.1600E+03  0.1600E+03
    -21.264  0.0000E+00  0.0000E+00  0.1600E+03  0.1600E+03
    -21.025  0.0000E+00  0.0000E+00  0.1600E+03  0.1600E+03
    -20.785  0.0000E+00  0.0000E+00  0.1600E+03  0.1600E+03
    -20.546  0.0000E+00  0.0000E+00  0.1600E+03  0.1600E+03
    -20.306  0.0000E+00  0.0000E+00  0.1600E+03  0.1600E+03
    -20.067  0.0000E+00  0.0000E+00  0.1600E+03  0.1600E+03
    -19.828  0.0000E+00  0.0000E+00  0.1600E+03  0.1600E+03
    -19.588  0.0000E+00  0.0000E+00  0.1600E+03  0.1600E+03
    -19.349  0.0000E+00  0.0000E+00  0.1600E+03  0.1600E+03
    -19.109  0.0000E+00  0.0000E+00  0.1600E+03  0.1600E+03
    -18.870  0.0000E+00  0.0000E+00  0.1600E+03  0.1600E+03
    -18.630  0.0000E+00  0.0000E+00  0.1600E+03  0.1600E+03
    -18.391  0.0000E+00  0.0000E+00  0.1600E+03  0.1600E+03
    -18.151  0.0000E+00  0.0000E+00  0.1600E+03  0.1600E+03
    -17.912  0.0000E+00  0.0000E+00  0.1600E+03  0.1600E+03
    -17.672  0.0000E+00  0.0000E+00  0.1600E+03  0.1600E+03
    -17.433  0.0000E+00  0.0000E+00  0.1600E+03  0.1600E+03
    -17.193  0.0000E+00  0.0000E+00  0.1600E+03  0.1600E+03
    -16.954  0.0000E+00  0.0000E+00  0.1600E+03  0.1600E+03
    -16.714  0.0000E+00  0.0000E+00  0.1600E+03  0.1600E+03
    -16.475  0.0000E+00  0.0000E+00  0.1600E+03  0.1600E+03
    -16.236  0.0000E+00  0.0000E+00  0.1600E+03  0.1600E+03
    -15.996  0.0000E+00  0.0000E+00  0.1600E+03  0.1600E+03
    -15.757  0.0000E+00  0.0000E+00  0.1600E+03  0.1600E+03
    -15.517  0.0000E+00  0.0000E+00  0.1600E+03  0.1600E+03
    -15.278  0.0000E+00  0.0000E+00  0.1600E+03  0.1600E+03
    -15.038  0.0000E+00  0.0000E+00  0.1600E+03  0.1600E+03
    -14.799  0.0000E+00  0.0000E+00  0.1600E+03  0.1600E+03
    -14.559  0.0000E+00  0.0000E+00  0.1600E+03  0.1600E+03
    -14.320  0.0000E+00  0.0000E+00  0.1600E+03  0.1600E+03
    -14.080  0.0000E+00  0.0000E+00  0.1600E+03  0.1600E+03
    -13.841  0.0000E+00  0.0000E+00  0.1600E+03  0.1600E+03
    -13.601  0.1987E-01  0.0000E+00  0.1600E+03  0.1600E+03
    -13.362  0.5325E+02  0.2290E-05  0.1728E+03  0.1600E+03
    -13.122  0.7207E+02  0.2929E+02  0.1900E+03  0.1670E+03
    -12.883  0.8291E+01  0.9971E+02  0.1920E+03  0.1909E+03
    -12.644  0.0000E+00  0.4625E+01  0.1920E+03  0.1920E+03
    -12.404  0.0000E+00  0.0000E+00  0.1920E+03  0.1920E+03
    -12.165  0.0000E+00  0.0000E+00  0.1920E+03  0.1920E+03
    -11.925  0.0000E+00  0.0000E+00  0.1920E+03  0.1920E+03
    -11.686  0.0000E+00  0.0000E+00  0.1920E+03  0.1920E+03
    -11.446  0.0000E+00  0.0000E+00  0.1920E+03  0.1920E+03
    -11.207  0.0000E+00  0.0000E+00  0.1920E+03  0.1920E+03
    -10.967  0.0000E+00  0.0000E+00  0.1920E+03  0.1920E+03
    -10.728  0.0000E+00  0.0000E+00  0.1920E+03  0.1920E+03
    -10.488  0.0000E+00  0.0000E+00  0.1920E+03  0.1920E+03
    -10.249  0.0000E+00  0.0000E+00  0.1920E+03  0.1920E+03
    -10.009  0.0000E+00  0.0000E+00  0.1920E+03  0.1920E+03
     -9.770  0.0000E+00  0.0000E+00  0.1920E+03  0.1920E+03
     -9.530  0.0000E+00  0.0000E+00  0.1920E+03  0.1920E+03
     -9.291  0.0000E+00  0.0000E+00  0.1920E+03  0.1920E+03
     -9.052  0.0000E+00  0.0000E+00  0.1920E+03  0.1920E+03
     -8.812  0.0000E+00  0.0000E+00  0.1920E+03  0.1920E+03
     -8.573  0.0000E+00  0.0000E+00  0.1920E+03  0.1920E+03
     -8.333  0.0000E+00  0.0000E+00  0.1920E+03  0.1920E+03
     -8.094  0.0000E+00  0.0000E+00  0.1920E+03  0.1920E+03
     -7.854  0.5025E-10  0.0000E+00  0.1920E+03  0.1920E+03
     -7.615  0.1592E+01  0.4709E-07  0.1924E+03  0.1920E+03
     -7.375  0.4692E+02  0.7796E+01  0.2036E+03  0.1939E+03
     -7.136  0.6532E+02  0.6084E+02  0.2193E+03  0.2084E+03
     -6.896  0.1979E+02  0.5424E+02  0.2240E+03  0.2214E+03
     -6.657  0.9337E-02  0.1075E+02  0.2240E+03  0.2240E+03
     -6.417  0.0000E+00  0.3472E-02  0.2240E+03  0.2240E+03
     -6.178  0.0000E+00  0.0000E+00  0.2240E+03  0.2240E+03
     -5.938  0.0000E+00  0.0000E+00  0.2240E+03  0.2240E+03
     -5.699  0.0000E+00  0.0000E+00  0.2240E+03  0.2240E+03
     -5.460  0.0000E+00  0.0000E+00  0.2240E+03  0.2240E+03
     -5.220  0.0000E+00  0.0000E+00  0.2240E+03  0.2240E+03
     -4.981  0.0000E+00  0.0000E+00  0.2240E+03  0.2240E+03
     -4.741  0.0000E+00  0.0000E+00  0.2240E+03  0.2240E+03
     -4.502  0.0000E+00  0.0000E+00  0.2240E+03  0.2240E+03
     -4.262  0.0000E+00  0.0000E+00  0.2240E+03  0.2240E+03
     -4.023  0.0000E+00  0.0000E+00  0.2240E+03  0.2240E+03
     -3.783  0.0000E+00  0.0000E+00  0.2240E+03  0.2240E+03
     -3.544  0.0000E+00  0.0000E+00  0.2240E+03  0.2240E+03
     -3.304  0.0000E+00  0.0000E+00  0.2240E+03  0.2240E+03
     -3.065  0.0000E+00  0.0000E+00  0.2240E+03  0.2240E+03
     -2.825  0.5023E-15  0.0000E+00  0.2240E+03  0.2240E+03
     -2.586  0.4173E+00  0.0000E+00  0.2241E+03  0.2240E+03
     -2.346  0.3097E+02  0.0000E+00  0.2315E+03  0.2240E+03
     -2.107  0.1162E+02  0.0000E+00  0.2343E+03  0.2240E+03
     -1.868  0.1267E+02  0.0000E+00  0.2373E+03  0.2240E+03
     -1.628  0.1142E+02  0.0000E+00  0.2401E+03  0.2240E+03
     -1.389  0.1573E+02  0.0000E+00  0.2438E+03  0.2240E+03
     -1.149  0.6294E+02  0.2478E-05  0.2589E+03  0.2240E+03
     -0.910  0.7663E+02  0.3458E+01  0.2773E+03  0.2248E+03
     -0.670  0.6740E+02  0.3294E+02  0.2934E+03  0.2327E+03
     -0.431  0.7796E+02  0.1881E+02  0.3121E+03  0.2372E+03
     -0.191  0.1062E+03  0.1908E+02  0.3375E+03  0.2418E+03
      0.048  0.7839E+02  0.1228E+02  0.3563E+03  0.2447E+03
      0.288  0.5335E+02  0.3176E+02  0.3690E+03  0.2523E+03
      0.527  0.4761E+02  0.8150E+02  0.3804E+03  0.2719E+03
      0.767  0.4610E+02  0.6840E+02  0.3915E+03  0.2882E+03
      1.006  0.4681E+02  0.6982E+02  0.4027E+03  0.3050E+03
      1.245  0.7676E+02  0.6321E+02  0.4211E+03  0.3201E+03
      1.485  0.8780E+02  0.2173E+02  0.4421E+03  0.3253E+03
      1.724  0.5806E+02  0.5075E+02  0.4560E+03  0.3374E+03
      1.964  0.3994E+02  0.5159E+02  0.4656E+03  0.3498E+03
      2.203  0.4725E+02  0.3050E+02  0.4769E+03  0.3571E+03
      2.443  0.4158E+02  0.3913E+02  0.4868E+03  0.3665E+03
      2.682  0.5340E+02  0.6482E+02  0.4996E+03  0.3820E+03
      2.922  0.5394E+02  0.7213E+02  0.5125E+03  0.3993E+03
      3.161  0.5650E+02  0.5979E+02  0.5261E+03  0.4136E+03
      3.401  0.5298E+02  0.1608E+02  0.5388E+03  0.4174E+03
      3.640  0.5339E+02  0.3625E+02  0.5515E+03  0.4261E+03
      3.880  0.3983E+02  0.5946E+02  0.5611E+03  0.4404E+03
      4.119  0.3543E+02  0.3186E+02  0.5696E+03  0.4480E+03
      4.359  0.1924E+02  0.4131E-01  0.5742E+03  0.4480E+03
      4.598  0.7339E+01  0.0000E+00  0.5759E+03  0.4480E+03
      4.837  0.3135E+00  0.0000E+00  0.5760E+03  0.4480E+03
      5.077  0.0000E+00  0.0000E+00  0.5760E+03  0.4480E+03
      5.316  0.0000E+00  0.0000E+00  0.5760E+03  0.4480E+03
      5.556  0.0000E+00  0.0000E+00  0.5760E+03  0.4480E+03
      5.795  0.0000E+00  0.0000E+00  0.5760E+03  0.4480E+03
      6.035  0.0000E+00  0.0000E+00  0.5760E+03  0.4480E+03
      6.274  0.0000E+00  0.2061E-15  0.5760E+03  0.4480E+03
      6.514  0.0000E+00  0.7125E-01  0.5760E+03  0.4480E+03
      6.753  0.0000E+00  0.2458E+02  0.5760E+03  0.4539E+03
      6.993  0.7969E-06  0.7775E+02  0.5760E+03  0.4725E+03
      7.232  0.2293E+00  0.6311E+02  0.5761E+03  0.4876E+03
      7.472  0.1958E+00  0.6393E+02  0.5761E+03  0.5029E+03
      7.711  0.1382E+01  0.6304E+02  0.5764E+03  0.5180E+03
      7.951  0.3053E+01  0.9518E+02  0.5772E+03  0.5408E+03
      8.190  0.6575E+01  0.7254E+02  0.5787E+03  0.5582E+03
      8.429  0.9448E+01  0.4911E+02  0.5810E+03  0.5700E+03
      8.669  0.1883E+02  0.2488E+02  0.5855E+03  0.5759E+03
      8.908  0.2338E+02  0.7237E+01  0.5911E+03  0.5777E+03
      9.148  0.3136E+02  0.8615E+01  0.5986E+03  0.5797E+03
      9.387  0.2860E+02  0.1784E+02  0.6055E+03  0.5840E+03
      9.627  0.2973E+02  0.2690E+02  0.6126E+03  0.5904E+03
      9.866  0.2616E+02  0.3197E+02  0.6189E+03  0.5981E+03
     10.106  0.1751E+02  0.3776E+02  0.6230E+03  0.6071E+03
     10.345  0.2601E+02  0.3346E+02  0.6293E+03  0.6151E+03
     10.585  0.3643E+02  0.2857E+02  0.6380E+03  0.6220E+03
     10.824  0.4020E+02  0.3315E+02  0.6476E+03  0.6299E+03
     11.064  0.3305E+02  0.2816E+02  0.6555E+03  0.6367E+03
     11.303  0.4919E+02  0.2602E+02  0.6673E+03  0.6429E+03
     11.543  0.4113E+02  0.2923E+02  0.6772E+03  0.6499E+03
     11.782  0.4148E+02  0.5108E+02  0.6871E+03  0.6621E+03
     12.021  0.3408E+02  0.5026E+02  0.6953E+03  0.6742E+03
     12.261  0.3275E+02  0.5590E+02  0.7031E+03  0.6875E+03
     12.500  0.3252E+02  0.3159E+02  0.7109E+03  0.6951E+03
     12.740  0.3674E+02  0.3267E+02  0.7197E+03  0.7029E+03
     12.979  0.3411E+02  0.3221E+02  0.7279E+03  0.7107E+03
     13.219  0.1558E+02  0.3798E+02  0.7316E+03  0.7197E+03
     13.458  0.1334E+01  0.3266E+02  0.7319E+03  0.7276E+03
     13.698  0.3781E+00  0.1760E+02  0.7320E+03  0.7318E+03
     13.937  0.0000E+00  0.9014E+00  0.7320E+03  0.7320E+03
     14.177  0.0000E+00  0.3259E-05  0.7320E+03  0.7320E+03
     14.416  0.0000E+00  0.0000E+00  0.7320E+03  0.7320E+03
     14.656  0.0000E+00  0.0000E+00  0.7320E+03  0.7320E+03
     14.895  0.0000E+00  0.0000E+00  0.7320E+03  0.7320E+03
     15.135  0.0000E+00  0.0000E+00  0.7320E+03  0.7320E+03
     15.374  0.0000E+00  0.0000E+00  0.7320E+03  0.7320E+03
     15.613  0.0000E+00  0.0000E+00  0.7320E+03  0.7320E+03
     15.853  0.0000E+00  0.0000E+00  0.7320E+03  0.7320E+03
     16.092  0.0000E+00  0.0000E+00  0.7320E+03  0.7320E+03
     16.332  0.0000E+00  0.0000E+00  0.7320E+03  0.7320E+03
     16.571  0.0000E+00  0.0000E+00  0.7320E+03  0.7320E+03
     16.811  0.0000E+00  0.0000E+00  0.7320E+03  0.7320E+03
     17.050  0.0000E+00  0.0000E+00  0.7320E+03  0.7320E+03
