 vasp.5.4.4.18Apr17-6-g9f103f2a35 (build Oct 25 2017 14:42:18) complex          
  
 executed on             LinuxIFC date 2021.06.17  09:17:03
 running on   48 total cores
 distrk:  each k-point on   24 cores,    2 groups
 distr:  one band on NCORES_PER_BAND=   6 cores,    4 groups


--------------------------------------------------------------------------------------------------------


 INCAR:
 POTCAR:    PAW_PBE Li_sv 10Sep2004               
 POTCAR:    PAW_PBE Fe_pv 02Aug2007               
 POTCAR:    PAW_PBE S 06Sep2000                   
 POTCAR:    PAW_PBE O 08Apr2002                   

 ----------------------------------------------------------------------------- 
|                                                                             |
|           W    W    AA    RRRRR   N    N  II  N    N   GGGG   !!!           |
|           W    W   A  A   R    R  NN   N  II  NN   N  G    G  !!!           |
|           W    W  A    A  R    R  N N  N  II  N N  N  G       !!!           |
|           W WW W  AAAAAA  RRRRR   N  N N  II  N  N N  G  GGG   !            |
|           WW  WW  A    A  R   R   N   NN  II  N   NN  G    G                |
|           W    W  A    A  R    R  N    N  II  N    N   GGGG   !!!           |
|                                                                             |
|      You have enabled k-point parallelism (KPAR>1).                         |
|      This developmental code was originally  written by Paul Kent at ORNL,  |
|      and carefully double checked in Vienna.                                |
|      GW as well as linear response parallelism added by Martijn Marsman     |
|      and Georg Kresse.                                                      |
|      Carefully verify results versus KPAR=1.                                |
|      Report problems to Paul Kent and Vienna.                               |
|                                                                             |
 ----------------------------------------------------------------------------- 

 POTCAR:    PAW_PBE Li_sv 10Sep2004               
  local pseudopotential read in
  atomic valenz-charges read in
  non local Contribution for L=           0  read in
    real space projection operators read in
  non local Contribution for L=           0  read in
    real space projection operators read in
  non local Contribution for L=           1  read in
    real space projection operators read in
    PAW grid and wavefunctions read in
 
   number of l-projection  operators is LMAX  =           3
   number of lm-projection operators is LMMAX =           5
 
 POTCAR:    PAW_PBE Fe_pv 02Aug2007               
  local pseudopotential read in
  partial core-charges read in
  partial kinetic energy density read in
  atomic valenz-charges read in
  non local Contribution for L=           1  read in
    real space projection operators read in
  non local Contribution for L=           1  read in
    real space projection operators read in
  non local Contribution for L=           2  read in
    real space projection operators read in
  non local Contribution for L=           2  read in
    real space projection operators read in
  non local Contribution for L=           0  read in
    real space projection operators read in
  non local Contribution for L=           0  read in
    real space projection operators read in
    PAW grid and wavefunctions read in
 
   number of l-projection  operators is LMAX  =           6
   number of lm-projection operators is LMMAX =          18
 
 POTCAR:    PAW_PBE S 06Sep2000                   
  local pseudopotential read in
  partial core-charges read in
  partial kinetic energy density read in
  atomic valenz-charges read in
  non local Contribution for L=           0  read in
    real space projection operators read in
  non local Contribution for L=           0  read in
    real space projection operators read in
  non local Contribution for L=           1  read in
    real space projection operators read in
  non local Contribution for L=           1  read in
    real space projection operators read in
    PAW grid and wavefunctions read in
 
   number of l-projection  operators is LMAX  =           4
   number of lm-projection operators is LMMAX =           8
 
 POTCAR:    PAW_PBE O 08Apr2002                   
  local pseudopotential read in
  partial core-charges read in
  partial kinetic energy density read in
  kinetic energy density of atom read in
  atomic valenz-charges read in
  non local Contribution for L=           0  read in
    real space projection operators read in
  non local Contribution for L=           0  read in
    real space projection operators read in
  non local Contribution for L=           1  read in
    real space projection operators read in
  non local Contribution for L=           1  read in
    real space projection operators read in
    PAW grid and wavefunctions read in
 
   number of l-projection  operators is LMAX  =           4
   number of lm-projection operators is LMMAX =           8
 

 ----------------------------------------------------------------------------- 
|                                                                             |
|  ADVICE TO THIS USER RUNNING 'VASP/VAMP'   (HEAR YOUR MASTER'S VOICE ...):  |
|                                                                             |
|      You have a (more or less) 'large supercell' and for larger cells       |
|      it might be more efficient to use real space projection opertators     |
|      So try LREAL= Auto  in the INCAR   file.                               |
|      Mind:          For very  accurate calculation you might also keep the  |
|      reciprocal projection scheme          (i.e. LREAL=.FALSE.)             |
|                                                                             |
 ----------------------------------------------------------------------------- 

  PAW_PBE Li_sv 10Sep2004               :
 energy of atom  1       EATOM= -202.7858
 kinetic energy error for atom=    0.0072 (will be added to EATOM!!)
  PAW_PBE Fe_pv 02Aug2007               :
 energy of atom  2       EATOM=-2457.4239
 kinetic energy error for atom=    0.0041 (will be added to EATOM!!)
  PAW_PBE S 06Sep2000                   :
 energy of atom  3       EATOM= -276.8230
 kinetic energy error for atom=    0.0008 (will be added to EATOM!!)
  PAW_PBE O 08Apr2002                   :
 energy of atom  4       EATOM= -432.3788
 kinetic energy error for atom=    0.0129 (will be added to EATOM!!)
 
 
 POSCAR: # Compound: Li64Fe32S32O32. Old comment:
  positions in direct lattice
  No initial velocities read in
 exchange correlation table for  LEXCH =        8
   RHO(1)=    0.500       N(1)  =     2000
   RHO(2)=  100.500       N(2)  =     4000
 


--------------------------------------------------------------------------------------------------------


 ion  position               nearest neighbor table
   1  0.125  0.276  0.475- 149 1.96 133 1.97 105 2.54  97 2.54
   2  0.625  0.276  0.475- 150 1.96 134 1.97  98 2.54 106 2.54
   3  0.125  0.776  0.475- 151 1.96 135 1.97  99 2.54 107 2.54
   4  0.625  0.776  0.475- 152 1.96 136 1.97 100 2.54 108 2.54
   5  0.125  0.276  0.975- 145 1.96 129 1.97 101 2.54 109 2.54
   6  0.625  0.276  0.975- 146 1.96 130 1.97 102 2.54 110 2.54
   7  0.125  0.776  0.975- 147 1.96 131 1.97 103 2.54 111 2.54
   8  0.625  0.776  0.975- 148 1.96 132 1.97 104 2.54 112 2.54
   9  0.125  0.474  0.275- 155 1.96 139 1.97 105 2.54  97 2.55
  10  0.625  0.474  0.275- 156 1.96 140 1.97 106 2.54  98 2.54
  11  0.125  0.974  0.275- 153 1.96 137 1.97 107 2.54  99 2.54
  12  0.625  0.974  0.275- 154 1.96 138 1.97 108 2.54 100 2.54
  13  0.125  0.474  0.775- 159 1.96 143 1.97 109 2.54 101 2.54
  14  0.625  0.474  0.775- 160 1.96 144 1.97 110 2.54 102 2.54
  15  0.125  0.974  0.775- 157 1.96 141 1.97 111 2.54 103 2.54
  16  0.625  0.974  0.775- 158 1.96 142 1.97 112 2.54 104 2.54
  17  0.375  0.224  0.025- 145 1.96 130 1.97 113 2.54 121 2.54
  18  0.875  0.224  0.025- 146 1.96 129 1.97 114 2.54 122 2.54
  19  0.375  0.724  0.025- 147 1.96 132 1.97 115 2.54 123 2.54
  20  0.875  0.724  0.025- 148 1.96 131 1.97 116 2.54 124 2.54
  21  0.375  0.224  0.525- 149 1.96 134 1.97 117 2.54 125 2.54
  22  0.875  0.224  0.525- 150 1.96 133 1.97 118 2.54 126 2.54
  23  0.375  0.724  0.525- 151 1.96 136 1.97 119 2.54 127 2.54
  24  0.875  0.724  0.525- 152 1.96 135 1.97 120 2.54 128 2.54
  25  0.375  0.026  0.225- 153 1.96 138 1.97 121 2.54 113 2.54
  26  0.875  0.026  0.225- 154 1.96 137 1.97 122 2.54 114 2.54
  27  0.375  0.526  0.225- 155 1.96 140 1.97 123 2.54 115 2.54
  28  0.875  0.526  0.225- 156 1.96 139 1.97 124 2.54 116 2.54
  29  0.375  0.026  0.725- 157 1.96 142 1.97 125 2.54 117 2.54
  30  0.875  0.026  0.725- 158 1.96 141 1.97 126 2.54 118 2.54
  31  0.375  0.526  0.725- 159 1.96 144 1.97 127 2.54 119 2.54
  32  0.875  0.526  0.725- 160 1.96 143 1.97 128 2.54 120 2.54
  33  0.276  0.375  0.375- 149 2.01 155 2.01 119 2.52 121 2.52
  34  0.776  0.375  0.375- 150 2.01 156 2.01 120 2.52 122 2.52
  35  0.276  0.875  0.375- 151 2.01 153 2.01 117 2.52 123 2.52
  36  0.776  0.875  0.375- 152 2.01 154 2.01 118 2.52 124 2.52
  37  0.276  0.375  0.875- 145 2.01 159 2.01 115 2.52 125 2.52
  38  0.776  0.375  0.875- 146 2.01 160 2.01 116 2.52 126 2.52
  39  0.276  0.875  0.875- 147 2.01 157 2.01 113 2.52 127 2.52
  40  0.776  0.875  0.875- 148 2.01 158 2.01 114 2.52 128 2.52
  41  0.224  0.125  0.125- 145 2.01 153 2.01 103 2.52 105 2.52
  42  0.724  0.125  0.125- 146 2.01 154 2.01 104 2.52 106 2.52
  43  0.224  0.625  0.125- 147 2.01 155 2.01 101 2.52 107 2.52
  44  0.724  0.625  0.125- 148 2.01 156 2.01 102 2.52 108 2.52
  45  0.224  0.125  0.625- 149 2.01 157 2.01  99 2.52 109 2.52
  46  0.724  0.125  0.625- 150 2.01 158 2.01 100 2.52 110 2.52
  47  0.224  0.625  0.625- 151 2.01 159 2.01  97 2.51 111 2.52
  48  0.724  0.625  0.625- 152 2.01 160 2.01  98 2.52 112 2.52
  49  0.500  0.375  0.125- 130 2.00 140 2.00
  50  1.000  0.375  0.125- 129 2.00 139 2.00
  51  0.500  0.875  0.125- 132 2.00 138 2.00
  52  1.000  0.875  0.125- 131 2.00 137 2.00
  53  0.500  0.375  0.625- 134 2.00 144 2.00
  54  1.000  0.375  0.625- 133 2.00 143 2.00
  55  0.500  0.875  0.625- 136 2.00 142 2.00
  56  1.000  0.875  0.625- 135 2.00 141 2.00
  57  0.000  0.125  0.375- 133 2.00 137 2.00
  58  0.500  0.125  0.375- 134 2.00 138 2.00
  59  0.000  0.625  0.375- 135 2.00 139 2.00
  60  0.500  0.625  0.375- 136 2.00 140 2.00
  61  0.000  0.125  0.875- 129 2.00 141 2.00
  62  0.500  0.125  0.875- 130 2.00 142 2.00
  63  0.000  0.625  0.875- 131 2.00 143 2.00
  64  0.500  0.625  0.875- 132 2.00 144 2.00
  65  0.479  0.375  0.375- 134 2.00 140 2.00 119 2.57 121 2.57
  66  0.979  0.375  0.375- 133 2.00 139 2.00 120 2.57 122 2.57
  67  0.479  0.875  0.375- 136 2.00 138 2.00 117 2.57 123 2.57
  68  0.979  0.875  0.375- 135 2.00 137 2.00 118 2.57 124 2.57
  69  0.479  0.375  0.875- 130 2.00 144 2.00 115 2.57 125 2.57
  70  0.979  0.375  0.875- 129 2.00 143 2.00 116 2.57 126 2.57
  71  0.479  0.875  0.875- 132 2.00 142 2.00 113 2.57 127 2.57
  72  0.979  0.875  0.875- 131 2.00 141 2.00 114 2.57 128 2.57
  73  0.021  0.125  0.125- 129 2.00 137 2.00 103 2.57 105 2.57
  74  0.521  0.125  0.125- 130 2.00 138 2.00 104 2.57 106 2.57
  75  0.021  0.625  0.125- 131 2.00 139 2.00 101 2.57 107 2.57
  76  0.521  0.625  0.125- 132 2.00 140 2.00 102 2.57 108 2.57
  77  0.021  0.125  0.625- 133 2.00 141 2.00  99 2.57 109 2.57
  78  0.521  0.125  0.625- 134 2.00 142 2.00 100 2.57 110 2.57
  79  0.021  0.625  0.625- 135 2.00 143 2.00  97 2.57 111 2.57
  80  0.521  0.625  0.625- 136 2.00 144 2.00  98 2.57 112 2.57
  81  0.250  0.375  0.125- 145 2.00 155 2.00 115 2.75 121 2.75 101 2.75 105 2.75
  82  0.750  0.375  0.125- 146 2.00 156 2.00 116 2.75 122 2.75 102 2.75 106 2.75
  83  0.250  0.875  0.125- 147 2.00 153 2.00 113 2.75 123 2.75 103 2.75 107 2.75
  84  0.750  0.875  0.125- 148 2.00 154 2.00 114 2.75 124 2.75 104 2.75 108 2.75
  85  0.250  0.375  0.625- 149 2.00 159 2.00  97 2.75 119 2.75 125 2.75 109 2.75
  86  0.750  0.375  0.625- 150 2.00 160 2.00 120 2.75 126 2.75  98 2.75 110 2.75
  87  0.250  0.875  0.625- 151 2.00 157 2.00 117 2.75 127 2.75  99 2.75 111 2.75
  88  0.750  0.875  0.625- 152 2.00 158 2.00 118 2.75 128 2.75 100 2.75 112 2.75
  89  0.250  0.125  0.375- 149 2.00 153 2.00  99 2.75 105 2.75 117 2.75 121 2.75
  90  0.750  0.125  0.375- 150 2.00 154 2.00 100 2.75 106 2.75 118 2.75 122 2.75
  91  0.250  0.625  0.375- 151 2.00 155 2.00 107 2.75 119 2.75 123 2.75  97 2.75
  92  0.750  0.625  0.375- 152 2.00 156 2.00  98 2.75 108 2.75 120 2.75 124 2.75
  93  0.250  0.125  0.875- 145 2.00 157 2.00 103 2.75 109 2.75 113 2.75 125 2.75
  94  0.750  0.125  0.875- 146 2.00 158 2.00 104 2.75 110 2.75 114 2.75 126 2.75
  95  0.250  0.625  0.875- 147 2.00 159 2.00 101 2.75 111 2.75 115 2.75 127 2.75
  96  0.750  0.625  0.875- 148 2.00 160 2.00 102 2.75 112 2.75 116 2.75 128 2.75
  97  0.125  0.500  0.500-  47 2.51   1 2.54   9 2.55  79 2.57  85 2.75  91 2.75
  98  0.625  0.500  0.500-  48 2.52   2 2.54  10 2.54  80 2.57  92 2.75  86 2.75
  99  0.125  1.000  0.500-  45 2.52   3 2.54  11 2.54  77 2.57  89 2.75  87 2.75
 100  0.625  1.000  0.500-  46 2.52   4 2.54  12 2.54  78 2.57  90 2.75  88 2.75
 101  0.125  0.500  1.000-  43 2.52   5 2.54  13 2.54  75 2.57  95 2.75  81 2.75
 102  0.625  0.500  1.000-  44 2.52   6 2.54  14 2.54  76 2.57  96 2.75  82 2.75
 103  0.125  1.000  1.000-  41 2.52   7 2.54  15 2.54  73 2.57  93 2.75  83 2.75
 104  0.625  1.000  1.000-  42 2.52   8 2.54  16 2.54  74 2.57  94 2.75  84 2.75
 105  0.125  0.250  0.250-  41 2.52   9 2.54   1 2.54  73 2.57  89 2.75  81 2.75
 106  0.625  0.250  0.250-  42 2.52  10 2.54   2 2.54  74 2.57  90 2.75  82 2.75
 107  0.125  0.750  0.250-  43 2.52  11 2.54   3 2.54  75 2.57  91 2.75  83 2.75
 108  0.625  0.750  0.250-  44 2.52  12 2.54   4 2.54  76 2.57  92 2.75  84 2.75
 109  0.125  0.250  0.750-  45 2.52  13 2.54   5 2.54  77 2.57  93 2.75  85 2.75
 110  0.625  0.250  0.750-  46 2.52  14 2.54   6 2.54  78 2.57  94 2.75  86 2.75
 111  0.125  0.750  0.750-  47 2.52  15 2.54   7 2.54  79 2.57  95 2.75  87 2.75
 112  0.625  0.750  0.750-  48 2.52  16 2.54   8 2.54  80 2.57  96 2.75  88 2.75
 113  0.375  0.000  0.000-  39 2.52  17 2.54  25 2.54  71 2.57  83 2.75  93 2.75
 114  0.875  0.000  0.000-  40 2.52  18 2.54  26 2.54  72 2.57  84 2.75  94 2.75
 115  0.375  0.500  0.000-  37 2.52  19 2.54  27 2.54  69 2.57  81 2.75  95 2.75
 116  0.875  0.500  0.000-  38 2.52  20 2.54  28 2.54  70 2.57  82 2.75  96 2.75
 117  0.375  0.000  0.500-  35 2.52  21 2.54  29 2.54  67 2.57  87 2.75  89 2.75
 118  0.875  0.000  0.500-  36 2.52  22 2.54  30 2.54  68 2.57  88 2.75  90 2.75
 119  0.375  0.500  0.500-  33 2.52  23 2.54  31 2.54  65 2.57  85 2.75  91 2.75
 120  0.875  0.500  0.500-  34 2.52  24 2.54  32 2.54  66 2.57  86 2.75  92 2.75
 121  0.375  0.250  0.250-  33 2.52  25 2.54  17 2.54  65 2.57  81 2.75  89 2.75
 122  0.875  0.250  0.250-  34 2.52  26 2.54  18 2.54  66 2.57  82 2.75  90 2.75
 123  0.375  0.750  0.250-  35 2.52  27 2.54  19 2.54  67 2.57  83 2.75  91 2.75
 124  0.875  0.750  0.250-  36 2.52  28 2.54  20 2.54  68 2.57  84 2.75  92 2.75
 125  0.375  0.250  0.750-  37 2.52  29 2.54  21 2.54  69 2.57  85 2.75  93 2.75
 126  0.875  0.250  0.750-  38 2.52  30 2.54  22 2.54  70 2.57  86 2.75  94 2.75
 127  0.375  0.750  0.750-  39 2.52  31 2.54  23 2.54  71 2.57  87 2.75  95 2.75
 128  0.875  0.750  0.750-  40 2.52  32 2.54  24 2.54  72 2.57  88 2.75  96 2.75
 129  0.000  0.250  0.000-   5 1.97  18 1.97  70 2.00  73 2.00  50 2.00  61 2.00
 130  0.500  0.250  0.000-   6 1.97  17 1.97  69 2.00  74 2.00  49 2.00  62 2.00
 131  0.000  0.750  0.000-   7 1.97  20 1.97  72 2.00  75 2.00  52 2.00  63 2.00
 132  0.500  0.750  0.000-   8 1.97  19 1.97  71 2.00  76 2.00  51 2.00  64 2.00
 133  0.000  0.250  0.500-   1 1.97  22 1.97  66 2.00  77 2.00  54 2.00  57 2.00
 134  0.500  0.250  0.500-   2 1.97  21 1.97  65 2.00  78 2.00  53 2.00  58 2.00
 135  0.000  0.750  0.500-   3 1.97  24 1.97  68 2.00  79 2.00  56 2.00  59 2.00
 136  0.500  0.750  0.500-   4 1.97  23 1.97  67 2.00  80 2.00  55 2.00  60 2.00
 137  0.000  0.000  0.250-  11 1.97  26 1.97  68 2.00  73 2.00  52 2.00  57 2.00
 138  0.500  0.000  0.250-  12 1.97  25 1.97  67 2.00  74 2.00  51 2.00  58 2.00
 139  0.000  0.500  0.250-   9 1.97  28 1.97  66 2.00  75 2.00  50 2.00  59 2.00
 140  0.500  0.500  0.250-  10 1.97  27 1.97  65 2.00  76 2.00  49 2.00  60 2.00
 141  0.000  0.000  0.750-  15 1.97  30 1.97  72 2.00  77 2.00  56 2.00  61 2.00
 142  0.500  0.000  0.750-  16 1.97  29 1.97  71 2.00  78 2.00  55 2.00  62 2.00
 143  0.000  0.500  0.750-  13 1.97  32 1.97  70 2.00  79 2.00  54 2.00  63 2.00
 144  0.500  0.500  0.750-  14 1.97  31 1.97  69 2.00  80 2.00  53 2.00  64 2.00
 145  0.250  0.250  0.000-   5 1.96  17 1.96  81 2.00  93 2.00  37 2.01  41 2.01
 146  0.750  0.250  0.000-   6 1.96  18 1.96  82 2.00  94 2.00  38 2.01  42 2.01
 147  0.250  0.750  0.000-   7 1.96  19 1.96  83 2.00  95 2.00  39 2.01  43 2.01
 148  0.750  0.750  0.000-   8 1.96  20 1.96  84 2.00  96 2.00  40 2.01  44 2.01
 149  0.250  0.250  0.500-   1 1.96  21 1.96  85 2.00  89 2.00  33 2.01  45 2.01
 150  0.750  0.250  0.500-   2 1.96  22 1.96  86 2.00  90 2.00  34 2.01  46 2.01
 151  0.250  0.750  0.500-   3 1.96  23 1.96  87 2.00  91 2.00  35 2.01  47 2.01
 152  0.750  0.750  0.500-   4 1.96  24 1.96  88 2.00  92 2.00  36 2.01  48 2.01
 153  0.250  0.000  0.250-  11 1.96  25 1.96  83 2.00  89 2.00  35 2.01  41 2.01
 154  0.750  0.000  0.250-  12 1.96  26 1.96  84 2.00  90 2.00  36 2.01  42 2.01
 155  0.250  0.500  0.250-   9 1.96  27 1.96  81 2.00  91 2.00  33 2.01  43 2.01
 156  0.750  0.500  0.250-  10 1.96  28 1.96  82 2.00  92 2.00  34 2.01  44 2.01
 157  0.250  0.000  0.750-  15 1.96  29 1.96  87 2.00  93 2.00  39 2.01  45 2.01
 158  0.750  0.000  0.750-  16 1.96  30 1.96  88 2.00  94 2.00  40 2.01  46 2.01
 159  0.250  0.500  0.750-  13 1.96  31 1.96  85 2.00  95 2.00  37 2.01  47 2.01
 160  0.750  0.500  0.750-  14 1.96  32 1.96  86 2.00  96 2.00  38 2.01  48 2.01
 
  LATTYP: Found a simple monoclinic cell.
 ALAT       =    16.0245724362
 B/A-ratio  =     0.9595037360
 C/A-ratio  =     1.5788311284
 COS(beta)  =    -0.9500776273
  
  Lattice vectors:
  
 A1 = (   0.0000000000, -11.3322995400, -11.3298680000)
 A2 = ( -15.3756371200,   0.0000000000,   0.0000000000)
 A3 = (   0.0000000000,  22.5798703800,  11.4124580600)


Analysis of symmetry for initial positions (statically):
=====================================================================
 Subroutine PRICEL returns:
 Original cell was already a primitive cell.
 

 Routine SETGRP: Setting up the symmetry group for a 
 simple monoclinic supercell.


 Subroutine GETGRP returns: Found  1 space group operations
 (whereof  1 operations were pure point group operations)
 out of a pool of  4 trial point group operations.


The static configuration has the point symmetry C_1 .


Analysis of symmetry for dynamics (positions and initial velocities):
=====================================================================
 Subroutine PRICEL returns:
 Original cell was already a primitive cell.
 

 Routine SETGRP: Setting up the symmetry group for a 
 simple monoclinic supercell.


 Subroutine GETGRP returns: Found  1 space group operations
 (whereof  1 operations were pure point group operations)
 out of a pool of  4 trial point group operations.


The dynamic configuration has the point symmetry C_1 .


Analysis of structural, dynamic, and magnetic symmetry:
=====================================================================
 Subroutine PRICEL returns:
 Original cell was already a primitive cell.
 

 Routine SETGRP: Setting up the symmetry group for a 
 simple monoclinic supercell.


 Subroutine GETGRP returns: Found  1 space group operations
 (whereof  1 operations were pure point group operations)
 out of a pool of  4 trial point group operations.


The magnetic configuration has the point symmetry C_1 .


 Subroutine INISYM returns: Found  1 space group operations
 (whereof  1 operations are pure point group operations),
 and found     1 'primitive' translations

 
 
 KPOINTS: # No comment                            

Automatic generation of k-mesh.
Space group operators:
 irot       det(A)        alpha          n_x          n_y          n_z        tau_x        tau_y        tau_z
    1     1.000000     0.000001     1.000000     0.000000     0.000000     0.000000     0.000000     0.000000
 
 Subroutine IBZKPT returns following result:
 ===========================================
 
 Found     10 irreducible k-points:
 
 Following reciprocal coordinates:
            Coordinates               Weight
  0.000000  0.000000  0.000000      1.000000
  0.500000  0.000000  0.000000      1.000000
  0.000000  0.333333 -0.000000      2.000000
  0.500000  0.333333 -0.000000      2.000000
  0.000000 -0.000000  0.333333      2.000000
  0.500000 -0.000000  0.333333      2.000000
  0.000000  0.333333  0.333333      2.000000
  0.500000  0.333333  0.333333      2.000000
  0.000000 -0.333333  0.333333      2.000000
  0.500000 -0.333333  0.333333      2.000000
 
 Following cartesian coordinates:
            Coordinates               Weight
  0.000000  0.000000  0.000000      1.000000
  0.032519  0.000000  0.000000      1.000000
  0.000000  0.029638 -0.000223      2.000000
  0.032519  0.029638 -0.000223      2.000000
  0.000000 -0.000218  0.029638      2.000000
  0.032519 -0.000218  0.029638      2.000000
  0.000000  0.029420  0.029415      2.000000
  0.032519  0.029420  0.029415      2.000000
  0.000000 -0.029855  0.029862      2.000000
  0.032519 -0.029855  0.029862      2.000000
 


--------------------------------------------------------------------------------------------------------




 Dimension of arrays:
   k-points           NKPTS =     10   k-points in BZ     NKDIM =     10   number of bands    NBANDS=    732
   number of dos      NEDOS =    301   number of ions     NIONS =    160
   non local maximal  LDIM  =      6   non local SUM 2l+1 LMDIM =     18
   total plane-waves  NPLWV = ******
   max r-space proj   IRMAX =      1   max aug-charges    IRDMAX= 153046
   dimension x,y,z NGX =   128 NGY =   96 NGZ =   96
   dimension x,y,z NGXF=   256 NGYF=  192 NGZF=  192
   support grid    NGXF=   512 NGYF=  384 NGZF=  384
   ions per type =              64  32  32  32
   NGX,Y,Z   is equivalent  to a cutoff of  13.84, 14.19, 14.19 a.u.
   NGXF,Y,Z  is equivalent  to a cutoff of  27.68, 28.38, 28.38 a.u.

 SYSTEM =  unknown system                          
 POSCAR =  # Compound: Li64Fe32S32O32. Old comment:

 Startparameter for this run:
   NWRITE =      1    write-flag & timer
   PREC   = accura    normal or accurate (medium, high low for compatibility)
   ISTART =      0    job   : 0-new  1-cont  2-samecut
   ICHARG =      1    charge: 1-file 2-atom 10-const
   ISPIN  =      2    spin polarized calculation?
   LNONCOLLINEAR =      F non collinear calculations
   LSORBIT =      F    spin-orbit coupling
   INIWAV =      1    electr: 0-lowe 1-rand  2-diag
   LASPH  =      T    aspherical Exc in radial PAW
   METAGGA=      F    non-selfconsistent MetaGGA calc.

 Electronic Relaxation 1
   ENCUT  =  650.0 eV  47.77 Ry    6.91 a.u.  31.96 23.38 23.38*2*pi/ulx,y,z
   ENINI  =  650.0     initial cutoff
   ENAUG  =  628.9 eV  augmentation charge cutoff
   NELM   =    200;   NELMIN=  8; NELMDL=  0     # of ELM steps 
   EDIFF  = 0.1E-07   stopping-criterion for ELM
   LREAL  =      F    real-space projection
   NLSPLINE    = F    spline interpolate recip. space projectors
   LCOMPAT=      F    compatible to vasp.4.4
   GGA_COMPAT  = T    GGA compatible to vasp.4.4-vasp.4.6
   LMAXPAW     = -100 max onsite density
   LMAXMIX     =    4 max onsite mixed and CHGCAR
   VOSKOWN=      0    Vosko Wilk Nusair interpolation
   ROPT   =    0.00000   0.00000   0.00000   0.00000
 Ionic relaxation
   EDIFFG = 0.1E-06   stopping-criterion for IOM
   NSW    =      0    number of steps for IOM
   NBLOCK =      1;   KBLOCK =      1    inner block; outer block 
   IBRION =     -1    ionic relax: 0-MD 1-quasi-New 2-CG
   NFREE  =      0    steps in history (QN), initial steepest desc. (CG)
   ISIF   =      2    stress and relaxation
   IWAVPR =     10    prediction:  0-non 1-charg 2-wave 3-comb
   ISYM   =      2    0-nonsym 1-usesym 2-fastsym
   LCORR  =      T    Harris-Foulkes like correction to forces

   POTIM  = 0.5000    time-step for ionic-motion
   TEIN   =    0.0    initial temperature
   TEBEG  =    0.0;   TEEND  =   0.0 temperature during run
   SMASS  =  -3.00    Nose mass-parameter (am)
   estimated Nose-frequenzy (Omega)   =  0.10E-29 period in steps =****** mass=  -0.540E-26a.u.
   SCALEE = 1.0000    scale energy and forces
   NPACO  =    256;   APACO  = 16.0  distance and # of slots for P.C.
   PSTRESS=    0.0 pullay stress

  Mass of Ions in am
   POMASS =   7.01 55.85 32.07 16.00
  Ionic Valenz
   ZVAL   =   3.00 14.00  6.00  6.00
  Atomic Wigner-Seitz radii
   RWIGS  =  -1.00 -1.00 -1.00 -1.00
  virtual crystal weights 
   VCA    =   1.00  1.00  1.00  1.00
   NELECT =    1024.0000    total number of electrons
   NUPDOWN=      -1.0000    fix difference up-down

 DOS related values:
   EMIN   =  10.00;   EMAX   =-10.00  energy-range for DOS
   EFERMI =   0.00
   ISMEAR =     0;   SIGMA  =   0.05  broadening in eV -4-tet -1-fermi 0-gaus

 Electronic relaxation 2 (details)
   IALGO  =     38    algorithm
   LDIAG  =      T    sub-space diagonalisation (order eigenvalues)
   LSUBROT=      F    optimize rotation matrix (better conditioning)
   TURBO    =      0    0=normal 1=particle mesh
   IRESTART =      0    0=no restart 2=restart with 2 vectors
   NREBOOT  =      0    no. of reboots
   NMIN     =      0    reboot dimension
   EREF     =   0.00    reference energy to select bands
   IMIX   =      4    mixing-type and parameters
     AMIX     =   0.40;   BMIX     =  1.00
     AMIX_MAG =   1.60;   BMIX_MAG =  1.00
     AMIN     =   0.10
     WC   =   100.;   INIMIX=   1;  MIXPRE=   1;  MAXMIX= -45

 Intra band minimization:
   WEIMIN = 0.0000     energy-eigenvalue tresh-hold
   EBREAK =  0.34E-11  absolut break condition
   DEPER  =   0.30     relativ break condition  

   TIME   =   0.40     timestep for ELM

  volume/ion in A,a.u.               =      12.16        82.03
  Fermi-wavevector in a.u.,A,eV,Ry     =   1.321914  2.498054 23.775576  1.747456
  Thomas-Fermi vector in A             =   2.451633
 
 Write flags
   LWAVE        =      F    write WAVECAR
   LDOWNSAMPLE  =      F    k-point downsampling of WAVECAR
   LCHARG       =      T    write CHGCAR
   LVTOT        =      F    write LOCPOT, total local potential
   LVHAR        =      F    write LOCPOT, Hartree potential only
   LELF         =      F    write electronic localiz. function (ELF)
   LORBIT       =      0    0 simple, 1 ext, 2 COOP (PROOUT), +10 PAW based schemes


 Dipole corrections
   LMONO  =      F    monopole corrections only (constant potential shift)
   LDIPOL =      F    correct potential (dipole corrections)
   IDIPOL =      0    1-x, 2-y, 3-z, 4-all directions 
   EPSILON=  1.0000000 bulk dielectric constant

 LDA+U is selected, type is set to LDAUTYPE =  2
   angular momentum for each species LDAUL =    -1    2   -1   -1
   U (eV)           for each species LDAUU =   0.0  4.0  0.0  0.0
   J (eV)           for each species LDAUJ =   0.0  0.0  0.0  0.0
 Exchange correlation treatment:
   GGA     =    PE    GGA type
   LEXCH   =     8    internal setting for exchange type
   VOSKOWN=      0    Vosko Wilk Nusair interpolation
   LHFCALC =     F    Hartree Fock is set to
   LHFONE  =     F    Hartree Fock one center treatment
   AEXX    =    0.0000 exact exchange contribution

 Linear response parameters
   LEPSILON=     F    determine dielectric tensor
   LRPA    =     F    only Hartree local field effects (RPA)
   LNABLA  =     F    use nabla operator in PAW spheres
   LVEL    =     F    velocity operator in full k-point grid
   LINTERFAST=   F  fast interpolation
   KINTER  =     0    interpolate to denser k-point grid
   CSHIFT  =0.1000    complex shift for real part using Kramers Kronig
   OMEGAMAX=  -1.0    maximum frequency
   DEG_THRESHOLD= 0.2000000E-02 threshold for treating states as degnerate
   RTIME   =   -0.100 relaxation time in fs
  (WPLASMAI=    0.000 imaginary part of plasma frequency in eV, 0.658/RTIME)
   DFIELD  = 0.0000000 0.0000000 0.0000000 field for delta impulse in time
 
 Orbital magnetization related:
   ORBITALMAG=     F  switch on orbital magnetization
   LCHIMAG   =     F  perturbation theory with respect to B field
   DQ        =  0.001000  dq finite difference perturbation B field
   LLRAUG    =     F  two centre corrections for induced B field



--------------------------------------------------------------------------------------------------------


 Static calculation
 charge density and potential will be updated during run
 spin polarized calculation
 Variant of blocked Davidson
 Davidson routine will perform the subspace rotation
 perform sub-space diagonalisation
    after iterative eigenvector-optimisation
 modified Broyden-mixing scheme, WC =      100.0
 initial mixing is a Kerker type mixing with AMIX =  0.4000 and BMIX =      1.0000
 Hartree-type preconditioning will be used
 using additional bands          220
 reciprocal scheme for non local part
 use partial core corrections
 calculate Harris-corrections to forces 
   (improved forces if not selfconsistent)
 use gradient corrections 
 use of overlap-Matrix (Vanderbilt PP)
 Gauss-broadening in eV      SIGMA  =   0.05


--------------------------------------------------------------------------------------------------------


  energy-cutoff  :      650.00
  volume of cell :     1944.98
      direct lattice vectors                 reciprocal lattice vectors
    15.375637120  0.000000000  0.000000000     0.065037955  0.000000000  0.000000000
     0.000000000 11.247570840  0.082590060     0.000000000  0.088913005 -0.000669805
     0.000000000  0.084728700 11.247277940     0.000000000 -0.000652898  0.088915320

  length of vectors
    15.375637120 11.247874062 11.247597077     0.065037955  0.088915528  0.088917717


 
 k-points in units of 2pi/SCALE and weight: # No comment                            
   0.00000000  0.00000000  0.00000000       0.056
   0.03251898  0.00000000  0.00000000       0.056
   0.00000000  0.02963767 -0.00022327       0.111
   0.03251898  0.02963767 -0.00022327       0.111
   0.00000000 -0.00021763  0.02963844       0.111
   0.03251898 -0.00021763  0.02963844       0.111
   0.00000000  0.02942004  0.02941517       0.111
   0.03251898  0.02942004  0.02941517       0.111
   0.00000000 -0.02985530  0.02986171       0.111
   0.03251898 -0.02985530  0.02986171       0.111
 
 k-points in reciprocal lattice and weights: # No comment                            
   0.00000000  0.00000000  0.00000000       0.056
   0.50000000  0.00000000  0.00000000       0.056
   0.00000000  0.33333333 -0.00000000       0.111
   0.50000000  0.33333333 -0.00000000       0.111
   0.00000000 -0.00000000  0.33333333       0.111
   0.50000000 -0.00000000  0.33333333       0.111
   0.00000000  0.33333333  0.33333333       0.111
   0.50000000  0.33333333  0.33333333       0.111
   0.00000000 -0.33333333  0.33333333       0.111
   0.50000000 -0.33333333  0.33333333       0.111
 
 position of ions in fractional coordinates (direct lattice) 
   0.12525680  0.27553588  0.47453981
   0.62525680  0.27553588  0.47453981
   0.12525680  0.77553588  0.47453981
   0.62525680  0.77553588  0.47453981
   0.12525680  0.27553588  0.97453981
   0.62525680  0.27553588  0.97453981
   0.12525680  0.77553588  0.97453981
   0.62525680  0.77553588  0.97453981
   0.12525680  0.47446412  0.27546019
   0.62525680  0.47446412  0.27546019
   0.12525680  0.97446412  0.27546019
   0.62525680  0.97446412  0.27546019
   0.12525680  0.47446412  0.77546019
   0.62525680  0.47446412  0.77546019
   0.12525680  0.97446412  0.77546019
   0.62525680  0.97446412  0.77546019
   0.37474320  0.22446412  0.02546019
   0.87474320  0.22446412  0.02546019
   0.37474320  0.72446412  0.02546019
   0.87474320  0.72446412  0.02546019
   0.37474320  0.22446412  0.52546019
   0.87474320  0.22446412  0.52546019
   0.37474320  0.72446412  0.52546019
   0.87474320  0.72446412  0.52546019
   0.37474320  0.02553588  0.22453981
   0.87474320  0.02553588  0.22453981
   0.37474320  0.52553588  0.22453981
   0.87474320  0.52553588  0.22453981
   0.37474320  0.02553588  0.72453981
   0.87474320  0.02553588  0.72453981
   0.37474320  0.52553588  0.72453981
   0.87474320  0.52553588  0.72453981
   0.27600236  0.37500000  0.37500000
   0.77600236  0.37500000  0.37500000
   0.27600236  0.87500000  0.37500000
   0.77600236  0.87500000  0.37500000
   0.27600236  0.37500000  0.87500000
   0.77600236  0.37500000  0.87500000
   0.27600236  0.87500000  0.87500000
   0.77600236  0.87500000  0.87500000
   0.22399764  0.12500000  0.12500000
   0.72399764  0.12500000  0.12500000
   0.22399764  0.62500000  0.12500000
   0.72399764  0.62500000  0.12500000
   0.22399764  0.12500000  0.62500000
   0.72399764  0.12500000  0.62500000
   0.22399764  0.62500000  0.62500000
   0.72399764  0.62500000  0.62500000
   0.49994073  0.37500000  0.12500000
   0.99994073  0.37500000  0.12500000
   0.49994073  0.87500000  0.12500000
   0.99994073  0.87500000  0.12500000
   0.49994073  0.37500000  0.62500000
   0.99994073  0.37500000  0.62500000
   0.49994073  0.87500000  0.62500000
   0.99994073  0.87500000  0.62500000
   0.00005927  0.12500000  0.37500000
   0.50005927  0.12500000  0.37500000
   0.00005927  0.62500000  0.37500000
   0.50005927  0.62500000  0.37500000
   0.00005927  0.12500000  0.87500000
   0.50005927  0.12500000  0.87500000
   0.00005927  0.62500000  0.87500000
   0.50005927  0.62500000  0.87500000
   0.47912905  0.37500000  0.37500000
   0.97912905  0.37500000  0.37500000
   0.47912905  0.87500000  0.37500000
   0.97912905  0.87500000  0.37500000
   0.47912905  0.37500000  0.87500000
   0.97912905  0.37500000  0.87500000
   0.47912905  0.87500000  0.87500000
   0.97912905  0.87500000  0.87500000
   0.02087095  0.12500000  0.12500000
   0.52087095  0.12500000  0.12500000
   0.02087095  0.62500000  0.12500000
   0.52087095  0.62500000  0.12500000
   0.02087095  0.12500000  0.62500000
   0.52087095  0.12500000  0.62500000
   0.02087095  0.62500000  0.62500000
   0.52087095  0.62500000  0.62500000
   0.25003487  0.37500000  0.12500000
   0.75003487  0.37500000  0.12500000
   0.25003487  0.87500000  0.12500000
   0.75003487  0.87500000  0.12500000
   0.25003487  0.37500000  0.62500000
   0.75003487  0.37500000  0.62500000
   0.25003487  0.87500000  0.62500000
   0.75003487  0.87500000  0.62500000
   0.24996513  0.12500000  0.37500000
   0.74996513  0.12500000  0.37500000
   0.24996513  0.62500000  0.37500000
   0.74996513  0.62500000  0.37500000
   0.24996513  0.12500000  0.87500000
   0.74996513  0.12500000  0.87500000
   0.24996513  0.62500000  0.87500000
   0.74996513  0.62500000  0.87500000
   0.12546906  0.49959881  0.50047863
   0.62546906  0.49959881  0.49958956
   0.12546906  0.99959881  0.49958956
   0.62546906  0.99959881  0.49958956
   0.12546906  0.49959881  0.99958956
   0.62546906  0.49959881  0.99958956
   0.12546906  0.99959881  0.99958956
   0.62546906  0.99959881  0.99958956
   0.12546906  0.25040119  0.25041044
   0.62546906  0.25040119  0.25041044
   0.12546906  0.75040119  0.25041044
   0.62546906  0.75040119  0.25041044
   0.12546906  0.25040119  0.75041044
   0.62546906  0.25040119  0.75041044
   0.12546906  0.75040119  0.75041044
   0.62546906  0.75040119  0.75041044
   0.37453094  0.00040119  0.00041044
   0.87453094  0.00040119  0.00041044
   0.37453094  0.50040119  0.00041044
   0.87453094  0.50040119  0.00041044
   0.37453094  0.00040119  0.50041044
   0.87453094  0.00040119  0.50041044
   0.37453094  0.50040119  0.50041044
   0.87453094  0.50040119  0.50041044
   0.37453094  0.24959881  0.24958956
   0.87453094  0.24959881  0.24958956
   0.37453094  0.74959881  0.24958956
   0.87453094  0.74959881  0.24958956
   0.37453094  0.24959881  0.74958956
   0.87453094  0.24959881  0.74958956
   0.37453094  0.74959881  0.74958956
   0.87453094  0.74959881  0.74958956
   0.00000000  0.25000000  0.00000000
   0.50000000  0.25000000  0.00000000
   0.00000000  0.75000000  0.00000000
   0.50000000  0.75000000  0.00000000
   0.00000000  0.25000000  0.50000000
   0.50000000  0.25000000  0.50000000
   0.00000000  0.75000000  0.50000000
   0.50000000  0.75000000  0.50000000
   0.00000000  0.00000000  0.25000000
   0.50000000  0.00000000  0.25000000
   0.00000000  0.50000000  0.25000000
   0.50000000  0.50000000  0.25000000
   0.00000000  0.00000000  0.75000000
   0.50000000  0.00000000  0.75000000
   0.00000000  0.50000000  0.75000000
   0.50000000  0.50000000  0.75000000
   0.25000000  0.25000000  0.00000000
   0.75000000  0.25000000  0.00000000
   0.25000000  0.75000000  0.00000000
   0.75000000  0.75000000  0.00000000
   0.25000000  0.25000000  0.50000000
   0.75000000  0.25000000  0.50000000
   0.25000000  0.75000000  0.50000000
   0.75000000  0.75000000  0.50000000
   0.25000000  0.00000000  0.25000000
   0.75000000  0.00000000  0.25000000
   0.25000000  0.50000000  0.25000000
   0.75000000  0.50000000  0.25000000
   0.25000000  0.00000000  0.75000000
   0.75000000  0.00000000  0.75000000
   0.25000000  0.50000000  0.75000000
   0.75000000  0.50000000  0.75000000
 
 position of ions in cartesian coordinates  (Angst):
   1.92590310  3.13931647  5.36003766
   9.61372166  3.13931647  5.36003766
   1.92590310  8.76310189  5.40133269
   9.61372166  8.76310189  5.40133269
   1.92590310  3.18168082 10.98367663
   9.61372166  3.18168082 10.98367663
   1.92590310  8.80546624 11.02497166
   9.61372166  8.80546624 11.02497166
   1.92590310  5.35990818  3.13736334
   9.61372166  5.35990818  3.13736334
   1.92590310 10.98369360  3.17865837
   9.61372166 10.98369360  3.17865837
   1.92590310  5.40227253  8.76100231
   9.61372166  5.40227253  8.76100231
   1.92590310 11.02605795  8.80229734
   9.61372166 11.02605795  8.80229734
   5.76191546  2.52683330  0.30489634
  13.44973402  2.52683330  0.30489634
   5.76191546  8.15061872  0.34619137
  13.44973402  8.15061872  0.34619137
   5.76191546  2.56919765  5.92853531
  13.44973402  2.56919765  5.92853531
   5.76191546  8.19298307  5.96983034
  13.44973402  8.19298307  5.96983034
   5.76191546  0.30624159  2.52757066
  13.44973402  0.30624159  2.52757066
   5.76191546  5.93002701  2.56886569
  13.44973402  5.93002701  2.56886569
   5.76191546  0.34860594  8.15120963
  13.44973402  0.34860594  8.15120963
   5.76191546  5.97239136  8.19250466
  13.44973402  5.97239136  8.19250466
   4.24371213  4.24961233  4.24870050
  11.93153069  4.24961233  4.24870050
   4.24371213  9.87339775  4.28999553
  11.93153069  9.87339775  4.28999553
   4.24371213  4.29197668  9.87233947
  11.93153069  4.29197668  9.87233947
   4.24371213  9.91576210  9.91363450
  11.93153069  9.91576210  9.91363450
   3.44410643  1.41653744  1.41623350
  11.13192499  1.41653744  1.41623350
   3.44410643  7.04032286  1.45752853
  11.13192499  7.04032286  1.45752853
   3.44410643  1.45890179  7.03987247
  11.13192499  1.45890179  7.03987247
   3.44410643  7.08268721  7.08116750
  11.13192499  7.08268721  7.08116750
   7.68690717  4.22843015  1.43688101
  15.37472573  4.22843015  1.43688101
   7.68690717  9.85221557  1.47817605
  15.37472573  9.85221557  1.47817605
   7.68690717  4.27079450  7.06051999
  15.37472573  4.27079450  7.06051999
   7.68690717  9.89457992  7.10181502
  15.37472573  9.89457992  7.10181502
   0.00091139  1.43771962  4.22805298
   7.68872995  1.43771962  4.22805298
   0.00091139  7.06150504  4.26934801
   7.68872995  7.06150504  4.26934801
   0.00091139  1.48008397  9.85169195
   7.68872995  1.48008397  9.85169195
   0.00091139  7.10386939  9.89298699
   7.68872995  7.10386939  9.89298699
   7.36691433  4.24961233  4.24870050
  15.05473289  4.24961233  4.24870050
   7.36691433  9.87339775  4.28999553
  15.05473289  9.87339775  4.28999553
   7.36691433  4.29197668  9.87233947
  15.05473289  4.29197668  9.87233947
   7.36691433  9.91576210  9.91363450
  15.05473289  9.91576210  9.91363450
   0.32090423  1.41653744  1.41623350
   8.00872279  1.41653744  1.41623350
   0.32090423  7.04032286  1.45752853
   8.00872279  7.04032286  1.45752853
   0.32090423  1.45890179  7.03987247
   8.00872279  1.45890179  7.03987247
   0.32090423  7.08268721  7.08116750
   8.00872279  7.08268721  7.08116750
   3.84444535  4.22843015  1.43688101
  11.53226391  4.22843015  1.43688101
   3.84444535  9.85221557  1.47817605
  11.53226391  9.85221557  1.47817605
   3.84444535  4.27079450  7.06051999
  11.53226391  4.27079450  7.06051999
   3.84444535  9.89457992  7.10181502
  11.53226391  9.89457992  7.10181502
   3.84337321  1.43771962  4.22805298
  11.53119177  1.43771962  4.22805298
   3.84337321  7.06150504  4.26934801
  11.53119177  7.06150504  4.26934801
   3.84337321  1.48008397  9.85169195
  11.53119177  1.48008397  9.85169195
   3.84337321  7.10386939  9.89298699
  11.53119177  7.10386939  9.89298699
   1.92916681  5.66167791  5.67028419
   9.61698537  5.66160258  5.66028448
   1.92916681 11.28538800  5.70157951
   9.61698537 11.28538800  5.70157951
   1.92916681  5.70396693 11.28392345
   9.61698537  5.70396693 11.28392345
   1.92916681 11.32775235 11.32521848
   9.61698537 11.32775235 11.32521848
   1.92916681  2.83762207  2.83711652
   9.61698537  2.83762207  2.83711652
   1.92916681  8.46140749  2.87841155
   9.61698537  8.46140749  2.87841155
   1.92916681  2.87998642  8.46075549
   9.61698537  2.87998642  8.46075549
   1.92916681  8.50377184  8.50205052
   9.61698537  8.50377184  8.50205052
   5.75865175  0.00454719  0.00464952
  13.44647031  0.00454719  0.00464952
   5.75865175  5.62833261  0.04594455
  13.44647031  5.62833261  0.04594455
   5.75865175  0.04691154  5.62828849
  13.44647031  0.04691154  5.62828849
   5.75865175  5.67069696  5.66958352
  13.44647031  5.67069696  5.66958352
   5.75865175  2.82852770  2.82781748
  13.44647031  2.82852770  2.82781748
   5.75865175  8.45231312  2.86911251
  13.44647031  8.45231312  2.86911251
   5.75865175  2.87089205  8.45145645
  13.44647031  2.87089205  8.45145645
   5.75865175  8.49467747  8.49275148
  13.44647031  8.49467747  8.49275148
   0.00000000  2.81189271  0.02064752
   7.68781856  2.81189271  0.02064752
   0.00000000  8.43567813  0.06194255
   7.68781856  8.43567813  0.06194255
   0.00000000  2.85425706  5.64428649
   7.68781856  2.85425706  5.64428649
   0.00000000  8.47804248  5.68558151
   7.68781856  8.47804248  5.68558151
   0.00000000  0.02118218  2.81181949
   7.68781856  0.02118218  2.81181949
   0.00000000  5.64496759  2.85311452
   7.68781856  5.64496759  2.85311452
   0.00000000  0.06354653  8.43545845
   7.68781856  0.06354653  8.43545845
   0.00000000  5.68733194  8.47675348
   7.68781856  5.68733194  8.47675348
   3.84390928  2.81189271  0.02064752
  11.53172784  2.81189271  0.02064752
   3.84390928  8.43567813  0.06194255
  11.53172784  8.43567813  0.06194255
   3.84390928  2.85425706  5.64428649
  11.53172784  2.85425706  5.64428649
   3.84390928  8.47804248  5.68558151
  11.53172784  8.47804248  5.68558151
   3.84390928  0.02118218  2.81181949
  11.53172784  0.02118218  2.81181949
   3.84390928  5.64496759  2.85311452
  11.53172784  5.64496759  2.85311452
   3.84390928  0.06354653  8.43545845
  11.53172784  0.06354653  8.43545845
   3.84390928  5.68733194  8.47675348
  11.53172784  5.68733194  8.47675348
 


--------------------------------------------------------------------------------------------------------


 k-point  1 :   0.0000 0.0000 0.0000  plane waves:   73163
 k-point  2 :   0.5000 0.0000 0.0000  plane waves:   73208
 k-point  3 :   0.0000 0.3333-0.0000  plane waves:   73197
 k-point  4 :   0.5000 0.3333-0.0000  plane waves:   73182
 k-point  5 :   0.0000-0.0000 0.3333  plane waves:   73195
 k-point  6 :   0.5000-0.0000 0.3333  plane waves:   73178
 k-point  7 :   0.0000 0.3333 0.3333  plane waves:   73141
 k-point  8 :   0.5000 0.3333 0.3333  plane waves:   73198
 k-point  9 :   0.0000-0.3333 0.3333  plane waves:   73095
 k-point 10 :   0.5000-0.3333 0.3333  plane waves:   73224

 maximum and minimum number of plane-waves per node :     12268    12150

 maximum number of plane-waves:     73224
 maximum index in each direction: 
   IXMAX=   31   IYMAX=   23   IZMAX=   23
   IXMIN=  -32   IYMIN=  -23   IZMIN=  -23


 parallel 3D FFT for wavefunctions:
    minimum data exchange during FFTs selected (reduces bandwidth)
 parallel 3D FFT for charge:
    minimum data exchange during FFTs selected (reduces bandwidth)


 total amount of memory used by VASP MPI-rank0   985864. kBytes
=======================================================================

   base      :      30000. kBytes
   nonl-proj :     102069. kBytes
   fftplans  :      64934. kBytes
   grid      :      55554. kBytes
   one-center:        839. kBytes
   wavefun   :     732468. kBytes
 
     INWAV:  cpu time    0.0000: real time    0.0000
 Broyden mixing: mesh for mixing (old mesh)
   NGX = 63   NGY = 47   NGZ = 47
  (NGX  =256   NGY  =192   NGZ  =192)
  gives a total of 139167 points

 initial charge density was supplied:
 number of electron    1024.0000024 magnetization     128.0000040
 keeping initial charge density in first step


--------------------------------------------------------------------------------------------------------


 Maximum index for augmentation-charges         8015 (set IRDMAX)


--------------------------------------------------------------------------------------------------------


 First call to EWALD:  gamma=   0.142
 Maximum number of real-space cells 2x 3x 3
 Maximum number of reciprocal cells 3x 3x 3

    FEWALD:  cpu time    0.0430: real time    0.0430


--------------------------------------- Iteration      1(   1)  ---------------------------------------


    POTLOK:  cpu time    0.6830: real time    0.6924
    SETDIJ:  cpu time    1.6879: real time    1.6971
     EDDAV:  cpu time  357.4441: real time  363.0566
       DOS:  cpu time    0.0053: real time    0.0053
    --------------------------------------------
      LOOP:  cpu time  359.8202: real time  365.4515

 eigenvalue-minimisations  : 30712
 total energy-change (2. order) : 0.1347183E+05  (-0.5518316E+05)
 number of electron    1024.0000024 magnetization     128.0000040
 augmentation part     1024.0000024 magnetization     128.0000040

 Free energy of the ion-electron system (eV)
  ---------------------------------------------------
  alpha Z        PSCENC =      2580.95227926
  Ewald energy   TEWEN  =    -67508.42748676
  -Hartree energ DENC   =    -35944.19130613
  -exchange      EXHF   =         0.00000000
  -V(xc)+E(xc)   XCENC  =      4397.38414688
  PAW double counting   =    108731.45464712  -112348.03830957
  entropy T*S    EENTRO =        -0.03756648
  eigenvalues    EBANDS =      -746.54736410
  atomic energy  EATOM  =    114309.28505226
  Solvation  Ediel_sol  =         0.00000000
  ---------------------------------------------------
  free energy    TOTEN  =     13471.83409247 eV

  energy without entropy =    13471.87165895  energy(sigma->0) =    13471.85287571


--------------------------------------------------------------------------------------------------------




--------------------------------------- Iteration      1(   2)  ---------------------------------------


     EDDAV:  cpu time  343.2336: real time  348.3688
       DOS:  cpu time    0.0049: real time    0.0049
    --------------------------------------------
      LOOP:  cpu time  343.2385: real time  348.3737

 eigenvalue-minimisations  : 29280
 total energy-change (2. order) :-0.1205991E+05  (-0.1121277E+05)
 number of electron    1024.0000024 magnetization     128.0000040
 augmentation part     1024.0000024 magnetization     128.0000040

 Free energy of the ion-electron system (eV)
  ---------------------------------------------------
  alpha Z        PSCENC =      2580.95227926
  Ewald energy   TEWEN  =    -67508.42748676
  -Hartree energ DENC   =    -35944.19130613
  -exchange      EXHF   =         0.00000000
  -V(xc)+E(xc)   XCENC  =      4397.38414688
  PAW double counting   =    108731.45464712  -112348.03830957
  entropy T*S    EENTRO =        -0.06523776
  eigenvalues    EBANDS =    -12806.43374288
  atomic energy  EATOM  =    114309.28505226
  Solvation  Ediel_sol  =         0.00000000
  ---------------------------------------------------
  free energy    TOTEN  =      1411.92004242 eV

  energy without entropy =     1411.98528017  energy(sigma->0) =     1411.95266130


--------------------------------------------------------------------------------------------------------




--------------------------------------- Iteration      1(   3)  ---------------------------------------


     EDDAV:  cpu time  376.0192: real time  381.9176
       DOS:  cpu time    0.0023: real time    0.0028
    --------------------------------------------
      LOOP:  cpu time  376.0215: real time  381.9204

 eigenvalue-minimisations  : 32888
 total energy-change (2. order) :-0.1937291E+04  (-0.1738698E+04)
 number of electron    1024.0000024 magnetization     128.0000040
 augmentation part     1024.0000024 magnetization     128.0000040

 Free energy of the ion-electron system (eV)
  ---------------------------------------------------
  alpha Z        PSCENC =      2580.95227926
  Ewald energy   TEWEN  =    -67508.42748676
  -Hartree energ DENC   =    -35944.19130613
  -exchange      EXHF   =         0.00000000
  -V(xc)+E(xc)   XCENC  =      4397.38414688
  PAW double counting   =    108731.45464712  -112348.03830957
  entropy T*S    EENTRO =        -0.00000000
  eigenvalues    EBANDS =    -14743.79029636
  atomic energy  EATOM  =    114309.28505226
  Solvation  Ediel_sol  =         0.00000000
  ---------------------------------------------------
  free energy    TOTEN  =      -525.37127331 eV

  energy without entropy =     -525.37127331  energy(sigma->0) =     -525.37127331


--------------------------------------------------------------------------------------------------------




--------------------------------------- Iteration      1(   4)  ---------------------------------------


     EDDAV:  cpu time  430.3035: real time  436.5764
       DOS:  cpu time    0.0018: real time    0.0018
    --------------------------------------------
      LOOP:  cpu time  430.3053: real time  436.5781

 eigenvalue-minimisations  : 39312
 total energy-change (2. order) :-0.2634759E+03  (-0.2606008E+03)
 number of electron    1024.0000024 magnetization     128.0000040
 augmentation part     1024.0000024 magnetization     128.0000040

 Free energy of the ion-electron system (eV)
  ---------------------------------------------------
  alpha Z        PSCENC =      2580.95227926
  Ewald energy   TEWEN  =    -67508.42748676
  -Hartree energ DENC   =    -35944.19130613
  -exchange      EXHF   =         0.00000000
  -V(xc)+E(xc)   XCENC  =      4397.38414688
  PAW double counting   =    108731.45464712  -112348.03830957
  entropy T*S    EENTRO =        -0.00000000
  eigenvalues    EBANDS =    -15007.26621475
  atomic energy  EATOM  =    114309.28505226
  Solvation  Ediel_sol  =         0.00000000
  ---------------------------------------------------
  free energy    TOTEN  =      -788.84719170 eV

  energy without entropy =     -788.84719170  energy(sigma->0) =     -788.84719170


--------------------------------------------------------------------------------------------------------




--------------------------------------- Iteration      1(   5)  ---------------------------------------


     EDDAV:  cpu time  543.3431: real time  551.8417
       DOS:  cpu time    0.0018: real time    0.0018
    CHARGE:  cpu time    8.3448: real time    8.6326
    MIXING:  cpu time    0.0243: real time    0.0263
    --------------------------------------------
      LOOP:  cpu time  551.7139: real time  560.5023

 eigenvalue-minimisations  : 51416
 total energy-change (2. order) :-0.3170866E+02  (-0.3145471E+02)
 number of electron    1024.0000024 magnetization     128.0000033
 augmentation part      329.1909892 magnetization      84.1858408

 Broyden mixing:
  rms(total) = 0.31751E+00    rms(broyden)= 0.31716E+00
  rms(prec ) = 0.32103E+00
  weight for this iteration     100.00

 Free energy of the ion-electron system (eV)
  ---------------------------------------------------
  alpha Z        PSCENC =      2580.95227926
  Ewald energy   TEWEN  =    -67508.42748676
  -Hartree energ DENC   =    -35944.19130613
  -exchange      EXHF   =         0.00000000
  -V(xc)+E(xc)   XCENC  =      4397.38414688
  PAW double counting   =    108731.45464712  -112348.03830957
  entropy T*S    EENTRO =        -0.00000000
  eigenvalues    EBANDS =    -15038.97487453
  atomic energy  EATOM  =    114309.28505226
  Solvation  Ediel_sol  =         0.00000000
  ---------------------------------------------------
  free energy    TOTEN  =      -820.55585148 eV

  energy without entropy =     -820.55585148  energy(sigma->0) =     -820.55585148


--------------------------------------------------------------------------------------------------------




--------------------------------------- Iteration      1(   6)  ---------------------------------------


    POTLOK:  cpu time    0.6554: real time    0.6741
    SETDIJ:  cpu time    1.6519: real time    1.6744
     EDDAV:  cpu time  444.9792: real time  452.1380
       DOS:  cpu time    0.0021: real time    0.0021
    CHARGE:  cpu time    8.3576: real time    8.6051
    MIXING:  cpu time    0.0244: real time    0.0253
    --------------------------------------------
      LOOP:  cpu time  455.6705: real time  463.1189

 eigenvalue-minimisations  : 40632
 total energy-change (2. order) :-0.1438117E+01  (-0.1485304E+01)
 number of electron    1024.0000024 magnetization     128.0000028
 augmentation part      327.4413829 magnetization      84.3682248

 Broyden mixing:
  rms(total) = 0.13516E+00    rms(broyden)= 0.13484E+00
  rms(prec ) = 0.13585E+00
  weight for this iteration     100.00

 eigenvalues of (default mixing * dielectric matrix)
  average eigenvalue GAMMA=   0.6571
  0.6571

 Free energy of the ion-electron system (eV)
  ---------------------------------------------------
  alpha Z        PSCENC =      2580.95227926
  Ewald energy   TEWEN  =    -67508.42748676
  -Hartree energ DENC   =    -35935.84276776
  -exchange      EXHF   =         0.00000000
  -V(xc)+E(xc)   XCENC  =      4396.13708095
  PAW double counting   =    108543.17701213  -112154.17102078
  entropy T*S    EENTRO =        -0.00000000
  eigenvalues    EBANDS =    -15053.10411824
  atomic energy  EATOM  =    114309.28505226
  Solvation  Ediel_sol  =         0.00000000
  ---------------------------------------------------
  free energy    TOTEN  =      -821.99396894 eV

  energy without entropy =     -821.99396894  energy(sigma->0) =     -821.99396894


--------------------------------------------------------------------------------------------------------




--------------------------------------- Iteration      1(   7)  ---------------------------------------


    POTLOK:  cpu time    0.6506: real time    0.6744
    SETDIJ:  cpu time    1.6483: real time    1.6799
     EDDAV:  cpu time  501.3364: real time  508.9319
       DOS:  cpu time    0.0123: real time    0.0123
    CHARGE:  cpu time    8.3961: real time    8.6541
    MIXING:  cpu time    0.0301: real time    0.0326
    --------------------------------------------
      LOOP:  cpu time  512.0738: real time  519.9852

 eigenvalue-minimisations  : 47336
 total energy-change (2. order) :-0.7306220E-01  (-0.7225333E-01)
 number of electron    1024.0000024 magnetization     128.0000026
 augmentation part      327.1442018 magnetization      84.3000026

 Broyden mixing:
  rms(total) = 0.97692E-01    rms(broyden)= 0.97570E-01
  rms(prec ) = 0.99062E-01
  weight for this iteration     100.00

 eigenvalues of (default mixing * dielectric matrix)
  average eigenvalue GAMMA=   0.6011
  0.6011  0.6011

 Free energy of the ion-electron system (eV)
  ---------------------------------------------------
  alpha Z        PSCENC =      2580.95227926
  Ewald energy   TEWEN  =    -67508.42748676
  -Hartree energ DENC   =    -35938.47161423
  -exchange      EXHF   =         0.00000000
  -V(xc)+E(xc)   XCENC  =      4396.47901273
  PAW double counting   =    108586.55066417  -112198.98090776
  entropy T*S    EENTRO =        -0.00000000
  eigenvalues    EBANDS =    -15049.45403081
  atomic energy  EATOM  =    114309.28505226
  Solvation  Ediel_sol  =         0.00000000
  ---------------------------------------------------
  free energy    TOTEN  =      -822.06703115 eV

  energy without entropy =     -822.06703115  energy(sigma->0) =     -822.06703115


--------------------------------------------------------------------------------------------------------




--------------------------------------- Iteration      1(   8)  ---------------------------------------


    POTLOK:  cpu time    0.6627: real time    0.6768
    SETDIJ:  cpu time    1.6417: real time    1.6664
     EDDAV:  cpu time  475.9131: real time  483.7891
       DOS:  cpu time    0.0019: real time    0.0019
    CHARGE:  cpu time    8.4671: real time    8.6721
    MIXING:  cpu time    0.0289: real time    0.0326
    --------------------------------------------
      LOOP:  cpu time  486.7154: real time  494.8390

 eigenvalue-minimisations  : 44544
 total energy-change (2. order) :-0.1740626E-04  (-0.2798717E-02)
 number of electron    1024.0000024 magnetization     128.0000026
 augmentation part      327.0911693 magnetization      84.2866478

 Broyden mixing:
  rms(total) = 0.84804E-01    rms(broyden)= 0.84793E-01
  rms(prec ) = 0.86134E-01
  weight for this iteration     100.00

 eigenvalues of (default mixing * dielectric matrix)
  average eigenvalue GAMMA=   0.5424
  0.6212  0.6212  0.3846

 Free energy of the ion-electron system (eV)
  ---------------------------------------------------
  alpha Z        PSCENC =      2580.95227926
  Ewald energy   TEWEN  =    -67508.42748676
  -Hartree energ DENC   =    -35939.34625890
  -exchange      EXHF   =         0.00000000
  -V(xc)+E(xc)   XCENC  =      4396.62522023
  PAW double counting   =    108612.87571462  -112226.05017461
  entropy T*S    EENTRO =        -0.00000000
  eigenvalues    EBANDS =    -15047.98139465
  atomic energy  EATOM  =    114309.28505226
  Solvation  Ediel_sol  =         0.00000000
  ---------------------------------------------------
  free energy    TOTEN  =      -822.06704855 eV

  energy without entropy =     -822.06704855  energy(sigma->0) =     -822.06704855


--------------------------------------------------------------------------------------------------------




--------------------------------------- Iteration      1(   9)  ---------------------------------------


    POTLOK:  cpu time    0.6706: real time    0.6713
    SETDIJ:  cpu time    1.6656: real time    1.6741
     EDDAV:  cpu time  506.8893: real time  514.8480
       DOS:  cpu time    0.0027: real time    0.0044
    CHARGE:  cpu time    8.4465: real time    8.6361
    MIXING:  cpu time    0.0244: real time    0.0257
    --------------------------------------------
      LOOP:  cpu time  517.6990: real time  525.8596

 eigenvalue-minimisations  : 47488
 total energy-change (2. order) : 0.9526358E-03  (-0.1750145E-03)
 number of electron    1024.0000024 magnetization     128.0000025
 augmentation part      327.1001890 magnetization      84.2817330

 Broyden mixing:
  rms(total) = 0.77916E-01    rms(broyden)= 0.77916E-01
  rms(prec ) = 0.79127E-01
  weight for this iteration     100.00

 eigenvalues of (default mixing * dielectric matrix)
  average eigenvalue GAMMA=   0.5166
  0.6381  0.6381  0.3951  0.3951

 Free energy of the ion-electron system (eV)
  ---------------------------------------------------
  alpha Z        PSCENC =      2580.95227926
  Ewald energy   TEWEN  =    -67508.42748676
  -Hartree energ DENC   =    -35939.60753002
  -exchange      EXHF   =         0.00000000
  -V(xc)+E(xc)   XCENC  =      4396.68513593
  PAW double counting   =    108620.69507506  -112234.13470403
  entropy T*S    EENTRO =        -0.00000000
  eigenvalues    EBANDS =    -15047.51391761
  atomic energy  EATOM  =    114309.28505226
  Solvation  Ediel_sol  =         0.00000000
  ---------------------------------------------------
  free energy    TOTEN  =      -822.06609592 eV

  energy without entropy =     -822.06609592  energy(sigma->0) =     -822.06609592


--------------------------------------------------------------------------------------------------------




--------------------------------------- Iteration      1(  10)  ---------------------------------------


    POTLOK:  cpu time    0.6830: real time    0.6864
    SETDIJ:  cpu time    1.7078: real time    1.7092
     EDDAV:  cpu time  515.5654: real time  523.3705
       DOS:  cpu time    0.0023: real time    0.0023
    CHARGE:  cpu time    8.4483: real time    8.6775
    MIXING:  cpu time    0.0367: real time    0.0425
    --------------------------------------------
      LOOP:  cpu time  526.4436: real time  534.4885

 eigenvalue-minimisations  : 48720
 total energy-change (2. order) : 0.4423593E-03  (-0.1783391E-04)
 number of electron    1024.0000024 magnetization     128.0000020
 augmentation part      327.1061858 magnetization      84.2808820

 Broyden mixing:
  rms(total) = 0.74432E-01    rms(broyden)= 0.74432E-01
  rms(prec ) = 0.75566E-01
  weight for this iteration     100.00

 eigenvalues of (default mixing * dielectric matrix)
  average eigenvalue GAMMA=   0.7527
  1.0882  1.0882  0.5724  0.5724  0.4421

 Free energy of the ion-electron system (eV)
  ---------------------------------------------------
  alpha Z        PSCENC =      2580.95227926
  Ewald energy   TEWEN  =    -67508.42748676
  -Hartree energ DENC   =    -35939.81921162
  -exchange      EXHF   =         0.00000000
  -V(xc)+E(xc)   XCENC  =      4396.71907150
  PAW double counting   =    108624.85144865  -112238.43582461
  entropy T*S    EENTRO =        -0.00000000
  eigenvalues    EBANDS =    -15047.19098222
  atomic energy  EATOM  =    114309.28505226
  Solvation  Ediel_sol  =         0.00000000
  ---------------------------------------------------
  free energy    TOTEN  =      -822.06565356 eV

  energy without entropy =     -822.06565356  energy(sigma->0) =     -822.06565356


--------------------------------------------------------------------------------------------------------




--------------------------------------- Iteration      1(  11)  ---------------------------------------


    POTLOK:  cpu time    0.6605: real time    0.6729
    SETDIJ:  cpu time    1.7184: real time    1.7481
     EDDAV:  cpu time  539.8898: real time  547.9883
       DOS:  cpu time    0.0021: real time    0.0021
    CHARGE:  cpu time    8.4556: real time    8.6628
    MIXING:  cpu time    0.0299: real time    0.0317
    --------------------------------------------
      LOOP:  cpu time  550.7561: real time  559.1057

 eigenvalue-minimisations  : 51616
 total energy-change (2. order) : 0.2996422E-02  (-0.1306244E-03)
 number of electron    1024.0000024 magnetization     128.0000019
 augmentation part      327.1331213 magnetization      84.2806535

 Broyden mixing:
  rms(total) = 0.42441E-01    rms(broyden)= 0.42441E-01
  rms(prec ) = 0.42987E-01
  weight for this iteration     100.00

 eigenvalues of (default mixing * dielectric matrix)
  average eigenvalue GAMMA=   0.7321
  1.1799  1.1799  0.6037  0.6037  0.4128  0.4128

 Free energy of the ion-electron system (eV)
  ---------------------------------------------------
  alpha Z        PSCENC =      2580.95227926
  Ewald energy   TEWEN  =    -67508.42748676
  -Hartree energ DENC   =    -35941.75599539
  -exchange      EXHF   =         0.00000000
  -V(xc)+E(xc)   XCENC  =      4397.03436680
  PAW double counting   =    108668.44463787  -112283.47462960
  entropy T*S    EENTRO =        -0.00000000
  eigenvalues    EBANDS =    -15044.12088157
  atomic energy  EATOM  =    114309.28505226
  Solvation  Ediel_sol  =         0.00000000
  ---------------------------------------------------
  free energy    TOTEN  =      -822.06265714 eV

  energy without entropy =     -822.06265714  energy(sigma->0) =     -822.06265714


--------------------------------------------------------------------------------------------------------




--------------------------------------- Iteration      1(  12)  ---------------------------------------


    POTLOK:  cpu time    0.6627: real time    0.6761
    SETDIJ:  cpu time    1.6676: real time    1.6797
     EDDAV:  cpu time  415.1389: real time  421.6851
       DOS:  cpu time    0.0020: real time    0.0037
    CHARGE:  cpu time    8.4843: real time    8.6871
    MIXING:  cpu time    0.0290: real time    0.0297
    --------------------------------------------
      LOOP:  cpu time  425.9846: real time  432.7614

 eigenvalue-minimisations  : 37664
 total energy-change (2. order) : 0.1562561E-03  (-0.6071671E-04)
 number of electron    1024.0000024 magnetization     128.0000016
 augmentation part      327.1441534 magnetization      84.2794630

 Broyden mixing:
  rms(total) = 0.37469E-01    rms(broyden)= 0.37468E-01
  rms(prec ) = 0.37926E-01
  weight for this iteration     100.00

 eigenvalues of (default mixing * dielectric matrix)
  average eigenvalue GAMMA=   0.8205
  1.4380  1.4380  0.7128  0.7128  0.5035  0.5035  0.4348

 Free energy of the ion-electron system (eV)
  ---------------------------------------------------
  alpha Z        PSCENC =      2580.95227926
  Ewald energy   TEWEN  =    -67508.42748676
  -Hartree energ DENC   =    -35942.06549629
  -exchange      EXHF   =         0.00000000
  -V(xc)+E(xc)   XCENC  =      4397.07533076
  PAW double counting   =    108674.94029575  -112290.14633048
  entropy T*S    EENTRO =        -0.00000000
  eigenvalues    EBANDS =    -15043.67614537
  atomic energy  EATOM  =    114309.28505226
  Solvation  Ediel_sol  =         0.00000000
  ---------------------------------------------------
  free energy    TOTEN  =      -822.06250088 eV

  energy without entropy =     -822.06250088  energy(sigma->0) =     -822.06250088


--------------------------------------------------------------------------------------------------------




--------------------------------------- Iteration      1(  13)  ---------------------------------------


    POTLOK:  cpu time    0.6609: real time    0.6693
    SETDIJ:  cpu time    1.6310: real time    1.6828
     EDDAV:  cpu time  526.6580: real time  535.3122
       DOS:  cpu time    0.0026: real time    0.0026
    CHARGE:  cpu time    8.4331: real time    8.6041
    MIXING:  cpu time    0.0327: real time    0.0327
    --------------------------------------------
      LOOP:  cpu time  537.4184: real time  546.3038

 eigenvalue-minimisations  : 49776
 total energy-change (2. order) : 0.5047418E-03  (-0.2346239E-04)
 number of electron    1024.0000024 magnetization     128.0000015
 augmentation part      327.1548429 magnetization      84.2795512

 Broyden mixing:
  rms(total) = 0.24485E-01    rms(broyden)= 0.24485E-01
  rms(prec ) = 0.24740E-01
  weight for this iteration     100.00

 eigenvalues of (default mixing * dielectric matrix)
  average eigenvalue GAMMA=   0.8500
  1.6456  1.6456  0.7948  0.7948  0.5264  0.5264  0.4332  0.4332

 Free energy of the ion-electron system (eV)
  ---------------------------------------------------
  alpha Z        PSCENC =      2580.95227926
  Ewald energy   TEWEN  =    -67508.42748676
  -Hartree energ DENC   =    -35942.86615525
  -exchange      EXHF   =         0.00000000
  -V(xc)+E(xc)   XCENC  =      4397.19690061
  PAW double counting   =    108693.33286969  -112309.05747600
  entropy T*S    EENTRO =        -0.00000000
  eigenvalues    EBANDS =    -15042.47797995
  atomic energy  EATOM  =    114309.28505226
  Solvation  Ediel_sol  =         0.00000000
  ---------------------------------------------------
  free energy    TOTEN  =      -822.06199614 eV

  energy without entropy =     -822.06199614  energy(sigma->0) =     -822.06199614


--------------------------------------------------------------------------------------------------------




--------------------------------------- Iteration      1(  14)  ---------------------------------------


    POTLOK:  cpu time    0.6620: real time    0.6715
    SETDIJ:  cpu time    1.6582: real time    1.6755
     EDDAV:  cpu time  463.6791: real time  471.2597
       DOS:  cpu time    0.0017: real time    0.0021
    CHARGE:  cpu time    8.3222: real time    8.5949
    MIXING:  cpu time    0.0334: real time    0.0334
    --------------------------------------------
      LOOP:  cpu time  474.3566: real time  482.2372

 eigenvalue-minimisations  : 42888
 total energy-change (2. order) : 0.7389857E-04  (-0.1244721E-04)
 number of electron    1024.0000024 magnetization     128.0000011
 augmentation part      327.1598055 magnetization      84.2791183

 Broyden mixing:
  rms(total) = 0.19825E-01    rms(broyden)= 0.19825E-01
  rms(prec ) = 0.20026E-01
  weight for this iteration     100.00

 eigenvalues of (default mixing * dielectric matrix)
  average eigenvalue GAMMA=   1.0213
  2.2457  2.2457  0.9994  0.9994  0.6344  0.6344  0.4986  0.4986  0.4353

 Free energy of the ion-electron system (eV)
  ---------------------------------------------------
  alpha Z        PSCENC =      2580.95227926
  Ewald energy   TEWEN  =    -67508.42748676
  -Hartree energ DENC   =    -35943.15661427
  -exchange      EXHF   =         0.00000000
  -V(xc)+E(xc)   XCENC  =      4397.23286278
  PAW double counting   =    108700.53231867  -112316.39467122
  entropy T*S    EENTRO =        -0.00000000
  eigenvalues    EBANDS =    -15042.08566296
  atomic energy  EATOM  =    114309.28505226
  Solvation  Ediel_sol  =         0.00000000
  ---------------------------------------------------
  free energy    TOTEN  =      -822.06192224 eV

  energy without entropy =     -822.06192224  energy(sigma->0) =     -822.06192224


--------------------------------------------------------------------------------------------------------




--------------------------------------- Iteration      1(  15)  ---------------------------------------


    POTLOK:  cpu time    0.6563: real time    0.6721
    SETDIJ:  cpu time    1.6760: real time    1.6918
     EDDAV:  cpu time  525.9597: real time  534.1521
       DOS:  cpu time    0.0017: real time    0.0017
    CHARGE:  cpu time    8.4140: real time    8.6533
    MIXING:  cpu time    0.0417: real time    0.0444
    --------------------------------------------
      LOOP:  cpu time  536.7493: real time  545.2153

 eigenvalue-minimisations  : 50048
 total energy-change (2. order) : 0.1707205E-03  (-0.1286444E-04)
 number of electron    1024.0000024 magnetization     128.0000009
 augmentation part      327.1676104 magnetization      84.2795588

 Broyden mixing:
  rms(total) = 0.73676E-02    rms(broyden)= 0.73669E-02
  rms(prec ) = 0.74346E-02
  weight for this iteration     100.00

 eigenvalues of (default mixing * dielectric matrix)
  average eigenvalue GAMMA=   1.0666
  2.5800  2.5800  1.0795  1.0795  0.6987  0.6987  0.5233  0.5233  0.4513  0.4513

 Free energy of the ion-electron system (eV)
  ---------------------------------------------------
  alpha Z        PSCENC =      2580.95227926
  Ewald energy   TEWEN  =    -67508.42748676
  -Hartree energ DENC   =    -35943.86611094
  -exchange      EXHF   =         0.00000000
  -V(xc)+E(xc)   XCENC  =      4397.33291499
  PAW double counting   =    108719.49642751  -112335.77794112
  entropy T*S    EENTRO =        -0.00000000
  eigenvalues    EBANDS =    -15041.05688671
  atomic energy  EATOM  =    114309.28505226
  Solvation  Ediel_sol  =         0.00000000
  ---------------------------------------------------
  free energy    TOTEN  =      -822.06175152 eV

  energy without entropy =     -822.06175152  energy(sigma->0) =     -822.06175152


--------------------------------------------------------------------------------------------------------




--------------------------------------- Iteration      1(  16)  ---------------------------------------


    POTLOK:  cpu time    0.6910: real time    0.7054
    SETDIJ:  cpu time    1.6760: real time    1.7059
     EDDAV:  cpu time  415.9835: real time  422.1297
       DOS:  cpu time    0.0021: real time    0.0021
    CHARGE:  cpu time    8.4122: real time    8.6384
    MIXING:  cpu time    0.0331: real time    0.0486
    --------------------------------------------
      LOOP:  cpu time  426.7978: real time  433.2300

 eigenvalue-minimisations  : 37784
 total energy-change (2. order) : 0.1189929E-04  (-0.8367598E-05)
 number of electron    1024.0000024 magnetization     128.0000009
 augmentation part      327.1718416 magnetization      84.2791239

 Broyden mixing:
  rms(total) = 0.36468E-02    rms(broyden)= 0.36460E-02
  rms(prec ) = 0.36718E-02
  weight for this iteration     100.00

 eigenvalues of (default mixing * dielectric matrix)
  average eigenvalue GAMMA=   1.0684
  2.6756  2.6756  1.1734  1.1734  0.7687  0.7687  0.5633  0.5633  0.4869  0.4869
  0.4164

 Free energy of the ion-electron system (eV)
  ---------------------------------------------------
  alpha Z        PSCENC =      2580.95227926
  Ewald energy   TEWEN  =    -67508.42748676
  -Hartree energ DENC   =    -35944.09267577
  -exchange      EXHF   =         0.00000000
  -V(xc)+E(xc)   XCENC  =      4397.36204722
  PAW double counting   =    108725.67794100  -112342.09497116
  entropy T*S    EENTRO =        -0.00000000
  eigenvalues    EBANDS =    -15040.72392566
  atomic energy  EATOM  =    114309.28505226
  Solvation  Ediel_sol  =         0.00000000
  ---------------------------------------------------
  free energy    TOTEN  =      -822.06173962 eV

  energy without entropy =     -822.06173962  energy(sigma->0) =     -822.06173962


--------------------------------------------------------------------------------------------------------




--------------------------------------- Iteration      1(  17)  ---------------------------------------


    POTLOK:  cpu time    0.6576: real time    0.6588
    SETDIJ:  cpu time    1.6723: real time    1.6832
     EDDAV:  cpu time  486.3082: real time  494.4517
       DOS:  cpu time    0.0019: real time    0.0020
    CHARGE:  cpu time    8.5691: real time    8.6705
    MIXING:  cpu time    0.0372: real time    0.0372
    --------------------------------------------
      LOOP:  cpu time  497.2463: real time  505.5038

 eigenvalue-minimisations  : 45352
 total energy-change (2. order) : 0.1672699E-05  (-0.1242655E-05)
 number of electron    1024.0000024 magnetization     128.0000009
 augmentation part      327.1736870 magnetization      84.2793523

 Broyden mixing:
  rms(total) = 0.26799E-02    rms(broyden)= 0.26790E-02
  rms(prec ) = 0.26923E-02
  weight for this iteration     100.00

 eigenvalues of (default mixing * dielectric matrix)
  average eigenvalue GAMMA=   1.0364
  2.7643  2.7643  1.1953  1.1953  0.7897  0.7897  0.5684  0.5684  0.4886  0.4886
  0.4122  0.4122

 Free energy of the ion-electron system (eV)
  ---------------------------------------------------
  alpha Z        PSCENC =      2580.95227926
  Ewald energy   TEWEN  =    -67508.42748676
  -Hartree energ DENC   =    -35944.13776043
  -exchange      EXHF   =         0.00000000
  -V(xc)+E(xc)   XCENC  =      4397.36965716
  PAW double counting   =    108727.33383350  -112343.79801706
  entropy T*S    EENTRO =        -0.00000000
  eigenvalues    EBANDS =    -15040.63929586
  atomic energy  EATOM  =    114309.28505226
  Solvation  Ediel_sol  =         0.00000000
  ---------------------------------------------------
  free energy    TOTEN  =      -822.06173795 eV

  energy without entropy =     -822.06173795  energy(sigma->0) =     -822.06173795


--------------------------------------------------------------------------------------------------------




--------------------------------------- Iteration      1(  18)  ---------------------------------------


    POTLOK:  cpu time    0.6641: real time    0.6689
    SETDIJ:  cpu time    1.6679: real time    1.6956
     EDDAV:  cpu time  445.4948: real time  452.4591
       DOS:  cpu time    0.0018: real time    0.0018
    CHARGE:  cpu time    8.2694: real time    8.6792
    MIXING:  cpu time    0.0480: real time    0.0480
    --------------------------------------------
      LOOP:  cpu time  456.1459: real time  463.5522

 eigenvalue-minimisations  : 41104
 total energy-change (2. order) :-0.1823690E-05  (-0.1483769E-06)
 number of electron    1024.0000024 magnetization     128.0000007
 augmentation part      327.1744987 magnetization      84.2792441

 Broyden mixing:
  rms(total) = 0.25519E-02    rms(broyden)= 0.25512E-02
  rms(prec ) = 0.25655E-02
  weight for this iteration     100.00

 eigenvalues of (default mixing * dielectric matrix)
  average eigenvalue GAMMA=   1.2149
  3.6278  3.6278  1.4524  1.4524  0.9014  0.9014  0.6763  0.6763  0.5462  0.5462
  0.4840  0.4840  0.4177

 Free energy of the ion-electron system (eV)
  ---------------------------------------------------
  alpha Z        PSCENC =      2580.95227926
  Ewald energy   TEWEN  =    -67508.42748676
  -Hartree energ DENC   =    -35944.13043467
  -exchange      EXHF   =         0.00000000
  -V(xc)+E(xc)   XCENC  =      4397.36849388
  PAW double counting   =    108727.54665640  -112344.01297749
  entropy T*S    EENTRO =        -0.00000000
  eigenvalues    EBANDS =    -15040.64332265
  atomic energy  EATOM  =    114309.28505226
  Solvation  Ediel_sol  =         0.00000000
  ---------------------------------------------------
  free energy    TOTEN  =      -822.06173977 eV

  energy without entropy =     -822.06173977  energy(sigma->0) =     -822.06173977


--------------------------------------------------------------------------------------------------------




--------------------------------------- Iteration      1(  19)  ---------------------------------------


    POTLOK:  cpu time    0.6714: real time    0.6769
    SETDIJ:  cpu time    1.6661: real time    1.6949
     EDDAV:  cpu time  383.9117: real time  389.8054
       DOS:  cpu time    0.0026: real time    0.0029
    CHARGE:  cpu time    8.4899: real time    8.7389
    MIXING:  cpu time    0.0372: real time    0.0390
    --------------------------------------------
      LOOP:  cpu time  394.7789: real time  400.9579

 eigenvalue-minimisations  : 34040
 total energy-change (2. order) :-0.6997405E-05  (-0.9921802E-07)
 number of electron    1024.0000024 magnetization     128.0000007
 augmentation part      327.1744054 magnetization      84.2792301

 Broyden mixing:
  rms(total) = 0.13714E-02    rms(broyden)= 0.13700E-02
  rms(prec ) = 0.14013E-02
  weight for this iteration     100.00

 eigenvalues of (default mixing * dielectric matrix)
  average eigenvalue GAMMA=   1.1038
  3.2901  2.4998  1.4422  1.4422  1.1722  0.8743  0.8743  0.6603  0.6603  0.5464
  0.5464  0.4315  0.5294  0.4835

 Free energy of the ion-electron system (eV)
  ---------------------------------------------------
  alpha Z        PSCENC =      2580.95227926
  Ewald energy   TEWEN  =    -67508.42748676
  -Hartree energ DENC   =    -35944.14964925
  -exchange      EXHF   =         0.00000000
  -V(xc)+E(xc)   XCENC  =      4397.37060658
  PAW double counting   =    108730.46097397  -112346.98857875
  entropy T*S    EENTRO =        -0.00000000
[...]
   -.229E-03 0.113E-03 -.125E-01   0.157E-03 -.101E-03 0.119E-01   0.116E-03 -.958E-04 0.861E-03   0.591E-05 0.302E-05 -.492E-06
   -.680E-03 0.691E-03 -.544E-01   0.502E-03 -.602E-03 0.517E-01   0.390E-03 -.562E-03 0.412E-02   -.188E-04 -.760E-05 -.121E-04
   0.221E-03 0.119E-03 -.125E-01   -.154E-03 -.996E-04 0.119E-01   -.818E-04 -.858E-04 0.948E-03   0.234E-05 -.191E-04 -.184E-04
   -.243E-02 -.363E-02 0.125E+00   0.267E-02 0.326E-02 -.120E+00   -.604E-03 0.123E-02 -.777E-02   0.309E-05 0.216E-04 0.273E-04
   0.305E-03 -.178E-03 0.141E-01   -.230E-03 0.127E-03 -.136E-01   -.675E-04 0.151E-03 -.787E-03   -.469E-04 -.884E-05 -.299E-05
   0.286E-02 -.334E-02 0.124E+00   -.260E-02 0.318E-02 -.119E+00   -.522E-03 0.126E-02 -.802E-02   -.432E-04 0.440E-05 0.357E-04
   -.199E-03 -.156E-03 0.141E-01   0.225E-03 0.125E-03 -.135E-01   -.652E-04 0.126E-03 -.847E-03   0.879E-05 -.636E-05 0.399E-05
   -.113E-01 0.173E-03 -.269E-02   0.100E-01 -.169E-03 0.286E-02   0.171E-02 0.395E-04 -.315E-03   0.373E-05 -.818E-06 0.784E-05
   0.519E-02 0.109E-03 -.252E-03   -.480E-02 -.523E-05 0.244E-03   -.553E-03 -.175E-03 0.331E-04   0.195E-05 0.104E-04 0.482E-05
   -.190E+00 -.129E-02 -.171E+00   0.178E+00 0.770E-03 0.157E+00   0.165E-01 -.381E-03 0.220E-01   -.585E-04 -.143E-05 -.375E-04
   0.166E-01 -.108E-03 -.174E-02   -.163E-01 0.216E-07 0.181E-02   -.370E-03 0.157E-03 -.862E-04   -.484E-05 -.842E-05 -.684E-06
   0.113E-01 0.262E-03 -.271E-02   -.100E-01 -.328E-03 0.284E-02   -.168E-02 0.766E-04 -.185E-03   -.494E-05 0.811E-05 -.106E-05
   -.516E-02 0.101E-03 -.203E-03   0.480E-02 -.242E-04 0.239E-03   0.493E-03 -.112E-03 -.481E-04   0.117E-05 -.176E-05 0.136E-05
   0.192E+00 -.197E-02 -.172E+00   -.178E+00 0.160E-02 0.157E+00   -.198E-01 -.116E-02 0.231E-01   0.377E-04 -.461E-04 -.717E-04
   -.166E-01 -.568E-04 -.170E-02   0.163E-01 0.268E-04 0.180E-02   0.319E-03 0.511E-04 -.199E-03   0.596E-05 0.122E-04 0.170E-04
   -.288E-03 0.469E-03 -.546E-01   0.512E-03 -.615E-03 0.520E-01   -.313E-03 0.622E-03 0.389E-02   -.499E-05 0.760E-05 -.238E-04
   0.161E-03 0.114E-03 -.124E-01   -.156E-03 -.998E-04 0.118E-01   0.517E-04 0.636E-04 0.924E-03   -.442E-04 -.662E-05 0.521E-05
   0.420E-03 0.551E-03 -.547E-01   -.501E-03 -.605E-03 0.519E-01   0.818E-04 0.523E-03 0.427E-02   0.210E-04 -.679E-05 -.178E-04
   -.159E-04 0.342E-04 -.123E-01   0.152E-03 -.989E-04 0.118E-01   -.199E-03 0.135E-03 0.883E-03   0.159E-05 0.273E-04 -.414E-04
   0.374E-02 -.436E-02 0.126E+00   -.268E-02 0.330E-02 -.121E+00   -.167E-02 0.866E-03 -.815E-02   0.495E-04 -.198E-04 0.375E-04
   -.274E-03 -.191E-03 0.141E-01   0.227E-03 0.126E-03 -.135E-01   0.235E-04 0.209E-05 -.819E-03   0.285E-04 0.205E-04 -.115E-04
   -.307E-02 -.294E-02 0.125E+00   0.261E-02 0.322E-02 -.120E+00   0.675E-03 -.126E-02 -.789E-02   0.602E-05 -.229E-04 0.231E-04
   0.255E-03 0.286E-04 0.140E-01   -.222E-03 0.124E-03 -.135E-01   -.224E-04 -.255E-03 -.815E-03   -.980E-05 -.227E-04 0.249E-04
   0.112E-01 0.266E-03 -.279E-02   -.100E-01 -.170E-03 0.287E-02   -.157E-02 -.126E-03 -.143E-03   -.114E-04 -.164E-04 0.127E-04
   -.510E-02 -.132E-03 -.218E-03   0.476E-02 -.513E-05 0.241E-03   0.455E-03 0.179E-03 0.580E-06   0.640E-05 0.201E-04 -.130E-04
   0.191E+00 -.524E-03 -.174E+00   -.179E+00 0.782E-03 0.160E+00   -.172E-01 0.990E-03 0.229E-01   0.544E-04 0.395E-05 -.312E-04
   -.164E-01 0.900E-04 -.182E-02   0.161E-01 -.519E-07 0.178E-02   0.312E-03 -.873E-04 0.616E-05   0.333E-04 -.295E-04 0.327E-04
   -.113E-01 0.146E-03 -.265E-02   0.100E-01 -.330E-03 0.286E-02   0.182E-02 0.260E-03 -.286E-03   -.948E-05 -.256E-05 -.789E-05
   0.517E-02 -.229E-04 -.236E-03   -.476E-02 -.239E-04 0.236E-03   -.587E-03 0.108E-03 -.610E-05   0.160E-04 -.262E-04 0.162E-04
   -.192E+00 -.147E-02 -.174E+00   0.179E+00 0.162E-02 0.160E+00   0.189E-01 0.127E-02 0.229E-01   -.590E-04 0.216E-04 -.569E-04
   0.164E-01 0.370E-04 -.155E-02   -.161E-01 0.264E-04 0.177E-02   -.421E-03 -.150E-03 -.284E-03   -.121E-05 0.287E-04 -.271E-04
 -----------------------------------------------------------------------------------------------
   0.191E-01 -.452E-02 -.102E+00   -.421E-12 -.344E-13 -.823E-13   -.191E-01 0.458E-02 0.102E+00   0.506E-04 -.594E-04 -.158E-03
 
 
 POSITION                                       TOTAL-FORCE (eV/Angst)
 -----------------------------------------------------------------------------------
      1.92590      3.13932      5.36004        -0.000405     -0.000007      0.002370
      9.61372      3.13932      5.36004         0.000000     -0.000062     -0.000018
      1.92590      8.76310      5.40133        -0.000101      0.000232      0.001417
      9.61372      8.76310      5.40133         0.000022     -0.000057     -0.000008
      1.92590      3.18168     10.98368        -0.000106     -0.000148     -0.000940
      9.61372      3.18168     10.98368        -0.000006     -0.000062     -0.000110
      1.92590      8.80547     11.02497         0.000108     -0.000024     -0.001125
      9.61372      8.80547     11.02497         0.000015     -0.000059     -0.000115
      1.92590      5.35991      3.13736        -0.000062      0.000459      0.004817
      9.61372      5.35991      3.13736         0.000012      0.000066      0.000070
      1.92590     10.98369      3.17866         0.000002      0.000266      0.000345
      9.61372     10.98369      3.17866         0.000013      0.000065      0.000080
      1.92590      5.40227      8.76100        -0.000061      0.000640     -0.004350
      9.61372      5.40227      8.76100         0.000004      0.000051      0.000057
      1.92590     11.02606      8.80230         0.000034     -0.000219      0.000027
      9.61372     11.02606      8.80230         0.000010      0.000054      0.000047
      5.76192      2.52683      0.30490         0.000041      0.000042     -0.000139
     13.44973      2.52683      0.30490         0.000027      0.000072     -0.000169
      5.76192      8.15062      0.34619        -0.000047      0.000039     -0.000184
     13.44973      8.15062      0.34619        -0.000082      0.000052     -0.000138
      5.76192      2.56920      5.92854        -0.000028      0.000123      0.000277
     13.44973      2.56920      5.92854        -0.000065      0.000012      0.000289
      5.76192      8.19298      5.96983         0.000027      0.000051      0.000314
     13.44973      8.19298      5.96983         0.000196      0.000083      0.000309
      5.76192      0.30624      2.52757         0.000083     -0.000050     -0.000125
     13.44973      0.30624      2.52757        -0.000088     -0.000139     -0.000115
      5.76192      5.93003      2.56887         0.000960     -0.000048     -0.000189
     13.44973      5.93003      2.56887        -0.000917      0.000067     -0.000207
      5.76192      0.34861      8.15121        -0.000093     -0.000005      0.000006
     13.44973      0.34861      8.15121         0.000079     -0.000050     -0.000012
      5.76192      5.97239      8.19250        -0.001002     -0.000160      0.000130
     13.44973      5.97239      8.19250         0.001030     -0.000097      0.000166
      4.24371      4.24961      4.24870         0.002523     -0.001513      0.000254
     11.93153      4.24961      4.24870        -0.000075      0.000101      0.000129
      4.24371      9.87340      4.29000         0.000250      0.000210      0.000298
     11.93153      9.87340      4.29000         0.000022      0.000045      0.000132
      4.24371      4.29198      9.87234        -0.000152      0.000497     -0.000944
     11.93153      4.29198      9.87234         0.000161     -0.000064     -0.000117
      4.24371      9.91576      9.91363        -0.000274     -0.000172     -0.000356
     11.93153      9.91576      9.91363         0.000159     -0.000092     -0.000169
      3.44411      1.41654      1.41623         0.000299     -0.000256     -0.000452
     11.13192      1.41654      1.41623        -0.000146     -0.000057     -0.000123
      3.44411      7.04032      1.45753         0.000020      0.000398     -0.001090
     11.13192      7.04032      1.45753        -0.000055     -0.000051     -0.000102
      3.44411      1.45890      7.03987        -0.000286      0.000213      0.000447
     11.13192      1.45890      7.03987         0.000002      0.000023      0.000109
      3.44411      7.08269      7.08117         0.001431      0.001149      0.003873
     11.13192      7.08269      7.08117        -0.000064      0.000096      0.000128
      7.68691      4.22843      1.43688         0.000099      0.000072     -0.000114
     15.37473      4.22843      1.43688        -0.000115     -0.000439     -0.000957
      7.68691      9.85222      1.47818         0.000178      0.000088     -0.000159
     15.37473      9.85222      1.47818        -0.000333      0.000223     -0.000411
      7.68691      4.27079      7.06052         0.000047     -0.000127      0.000149
     15.37473      4.27079      7.06052         0.001488      0.001383      0.001177
      7.68691      9.89458      7.10182         0.000015     -0.000045      0.000134
     15.37473      9.89458      7.10182         0.000297     -0.000329      0.000340
      0.00091      1.43772      4.22805        -0.000298     -0.000263      0.000320
      7.68873      1.43772      4.22805        -0.000003     -0.000041      0.000119
      0.00091      7.06151      4.26935        -0.001636      0.001592      0.001057
      7.68873      7.06151      4.26935        -0.000027     -0.000107      0.000126
      0.00091      1.48008      9.85169         0.000294      0.000221     -0.000417
      7.68873      1.48008      9.85169        -0.000168      0.000077     -0.000149
      0.00091      7.10387      9.89299         0.000070     -0.000426     -0.001151
      7.68873      7.10387      9.89299        -0.000104      0.000072     -0.000109
      7.36691      4.24961      4.24870         0.000142      0.000150      0.000216
     15.05473      4.24961      4.24870        -0.003366     -0.002964      0.001899
      7.36691      9.87340      4.29000         0.000227      0.000098      0.000320
     15.05473      9.87340      4.29000        -0.000296     -0.000051      0.000897
      7.36691      4.29198      9.87234        -0.000043     -0.000192     -0.000221
     15.05473      4.29198      9.87234         0.000557      0.001690     -0.002340
      7.36691      9.91576      9.91363        -0.000037     -0.000045     -0.000282
     15.05473      9.91576      9.91363         0.000506     -0.000061     -0.000847
      0.32090      1.41654      1.41623        -0.000740     -0.000136     -0.000909
      8.00872      1.41654      1.41623         0.000032     -0.000007     -0.000247
      0.32090      7.04032      1.45753        -0.000271      0.001335     -0.002450
      8.00872      7.04032      1.45753         0.000024     -0.000143     -0.000225
      0.32090      1.45890      7.03987         0.000438      0.000157      0.001048
      8.00872      1.45890      7.03987        -0.000203      0.000054      0.000277
      0.32090      7.08269      7.08117        -0.002351      0.002636      0.008346
      8.00872      7.08269      7.08117        -0.000069      0.000122      0.000227
      3.84445      4.22843      1.43688         0.000317     -0.001518     -0.002346
     11.53226      4.22843      1.43688        -0.000122      0.000190     -0.000254
      3.84445      9.85222      1.47818         0.000536      0.000115     -0.000906
     11.53226      9.85222      1.47818        -0.000141      0.000029     -0.000275
      3.84445      4.27079      7.06052        -0.001189      0.001890      0.004220
     11.53226      4.27079      7.06052        -0.000032     -0.000187      0.000289
      3.84445      9.89458      7.10182        -0.000590     -0.000185      0.000993
     11.53226      9.89458      7.10182         0.000101     -0.000084      0.000318
      3.84337      1.43772      4.22805         0.000479     -0.000253      0.000709
     11.53119      1.43772      4.22805        -0.000070     -0.000099      0.000296
      3.84337      7.06151      4.26935         0.001864      0.001865      0.003777
     11.53119      7.06151      4.26935         0.000022     -0.000106      0.000178
      3.84337      1.48008      9.85169        -0.000492      0.000091     -0.000895
     11.53119      1.48008      9.85169         0.000187      0.000034     -0.000269
      3.84337      7.10387      9.89299        -0.000277     -0.001422     -0.002423
     11.53119      7.10387      9.89299         0.000192      0.000174     -0.000212
      1.92917      5.66168      5.67028         0.003069     -0.007543     -0.052236
      9.61699      5.66160      5.66028        -0.000008      0.000012     -0.000057
      1.92917     11.28539      5.70158         0.000045      0.000065     -0.000744
      9.61699     11.28539      5.70158        -0.000030      0.000012     -0.000154
      1.92917      5.70397     11.28392        -0.000005      0.000045      0.002007
      9.61699      5.70397     11.28392        -0.000025      0.000011      0.000056
      1.92917     11.32775     11.32522        -0.000048      0.000002      0.001242
      9.61699     11.32775     11.32522        -0.000025      0.000014      0.000111
      1.92917      2.83762      2.83712        -0.000008      0.002989      0.002285
      9.61699      2.83762      2.83712         0.000013     -0.000037      0.000024
      1.92917      8.46141      2.87841         0.000181     -0.003406      0.002410
      9.61699      8.46141      2.87841        -0.000075      0.000017      0.000029
      1.92917      2.87999      8.46076        -0.000171     -0.003430      0.002345
      9.61699      2.87999      8.46076         0.000021      0.000019     -0.000007
      1.92917      8.50377      8.50205         0.000302      0.003458      0.002480
      9.61699      8.50377      8.50205        -0.000061     -0.000049     -0.000002
      5.75865      0.00455      0.00465         0.000007     -0.000046      0.000371
     13.44647      0.00455      0.00465         0.000004      0.000022      0.000359
      5.75865      5.62833      0.04594         0.000007     -0.000054      0.001352
     13.44647      5.62833      0.04594        -0.000034      0.000078      0.001347
      5.75865      0.04691      5.62829        -0.000005     -0.000042     -0.000302
     13.44647      0.04691      5.62829        -0.000014      0.000090     -0.000286
      5.75865      5.67070      5.66958        -0.000150      0.000127     -0.001695
     13.44647      5.67070      5.66958         0.000155     -0.000263     -0.001697
      5.75865      2.82853      2.82782        -0.000479      0.000324     -0.000042
     13.44647      2.82853      2.82782         0.000782      0.000322      0.000088
      5.75865      8.45231      2.86911        -0.000788     -0.000332      0.000086
     13.44647      8.45231      2.86911         0.000497     -0.000277     -0.000066
      5.75865      2.87089      8.45146         0.000774     -0.000299      0.000082
     13.44647      2.87089      8.45146        -0.000523     -0.000345     -0.000067
      5.75865      8.49468      8.49275         0.000535      0.000325     -0.000044
     13.44647      8.49468      8.49275        -0.000757      0.000322      0.000084
      0.00000      2.81189      0.02065         0.000111     -0.000526      0.001400
      7.68782      2.81189      0.02065         0.000050     -0.000080      0.000280
      0.00000      8.43568      0.06194         0.000193     -0.000481      0.001407
      7.68782      8.43568      0.06194        -0.000012     -0.000085      0.000311
      0.00000      2.85426      5.64429        -0.000359      0.000877     -0.002775
      7.68782      2.85426      5.64429        -0.000039      0.000091     -0.000255
      0.00000      8.47804      5.68558        -0.000306      0.001108     -0.002987
      7.68782      8.47804      5.68558        -0.000031      0.000089     -0.000275
      0.00000      0.02118      2.81182         0.000474      0.000043     -0.000139
      7.68782      0.02118      2.81182        -0.000157     -0.000061      0.000029
      0.00000      5.64497      2.85311         0.005069     -0.000900      0.007942
      7.68782      5.64497      2.85311        -0.000082      0.000040     -0.000014
      0.00000      0.06355      8.43546        -0.000457      0.000019     -0.000052
      7.68782      0.06355      8.43546         0.000137     -0.000036     -0.000011
      0.00000      5.68733      8.47675        -0.006515     -0.001574      0.008566
      7.68782      5.68733      8.47675         0.000073      0.000033     -0.000078
      3.84391      2.81189      0.02065        -0.000094      0.000483      0.001344
     11.53173      2.81189      0.02065         0.000013      0.000071      0.000300
      3.84391      8.43568      0.06194         0.000022      0.000462      0.001446
     11.53173      8.43568      0.06194        -0.000061      0.000097      0.000287
      3.84391      2.85426      5.64429        -0.000563     -0.000212     -0.002860
     11.53173      2.85426      5.64429         0.000006     -0.000043     -0.000259
      3.84391      8.47804      5.68558         0.000226     -0.001005     -0.002838
     11.53173      8.47804      5.68558         0.000000     -0.000125     -0.000267
      3.84391      0.02118      2.81182        -0.000430     -0.000046     -0.000048
     11.53173      0.02118      2.81182         0.000127      0.000062      0.000011
      3.84391      5.64497      2.85311        -0.005443      0.001252      0.008377
     11.53173      5.64497      2.85311         0.000072     -0.000027      0.000001
      3.84391      0.06355      8.43546         0.000495      0.000073     -0.000093
     11.53173      0.06355      8.43546        -0.000162      0.000035      0.000011
      3.84391      5.68733      8.47675         0.005996      0.001453      0.008313
     11.53173      5.68733      8.47675        -0.000094     -0.000058     -0.000093
 -----------------------------------------------------------------------------------
    total drift:                                0.000006      0.000008      0.000010


--------------------------------------------------------------------------------------------------------



  FREE ENERGIE OF THE ION-ELECTRON SYSTEM (eV)
  ---------------------------------------------------
  free  energy   TOTEN  =      -822.06174273 eV

  energy  without entropy=     -822.06174273  energy(sigma->0) =     -822.06174273
 


--------------------------------------------------------------------------------------------------------


    POTLOK:  cpu time    2.3416: real time    2.3656


--------------------------------------------------------------------------------------------------------


     LOOP+:  cpu time10766.9608: real time10935.0856
    4ORBIT:  cpu time    0.0000: real time    0.0000

 total amount of memory used by VASP MPI-rank0   985864. kBytes
=======================================================================

   base      :      30000. kBytes
   nonl-proj :     102069. kBytes
   fftplans  :      64934. kBytes
   grid      :      55554. kBytes
   one-center:        839. kBytes
   wavefun   :     732468. kBytes
 
  
  
 General timing and accounting informations for this job:
 ========================================================
  
                  Total CPU time used (sec):    10909.246
                            User time (sec):    10844.514
                          System time (sec):       64.732
                         Elapsed time (sec):    11081.016
  
                   Maximum memory used (kb):     1177992.
                   Average memory used (kb):           0.
  
                          Minor page faults:      1048283
                          Major page faults:           22
                 Voluntary context switches:        65768
