  224  224    1    2
  0.1357572E+02  0.1537960E-08  0.1537962E-08  0.1395899E-08  0.5000000E-15
  1.000000000000000E-004
  CAR 
 unknown system                          
   1664      8   1208
 
  0.0000000E+00  0.0000000E+00  0.0000000E+00  0.1250000E+00
    1      -51.145557    -46.394340   1.000000   1.000000
    2      -51.145442    -46.394147   1.000000   1.000000
    3      -51.141957    -46.391299   1.000000   1.000000
    4      -51.141778    -46.390975   1.000000   1.000000
    5      -51.141590    -46.390833   1.000000   1.000000
    6      -51.141586    -46.390811   1.000000   1.000000
    7      -51.141484    -46.390569   1.000000   1.000000
    8      -51.141330    -46.390459   1.000000   1.000000
    9      -51.141298    -46.390432   1.000000   1.000000
   10      -51.141181    -46.390418   1.000000   1.000000
   11      -51.141159    -46.390335   1.000000   1.000000
   12      -51.141139    -46.390235   1.000000   1.000000
   13      -51.141102    -46.390150   1.000000   1.000000
   14      -51.141043    -46.390099   1.000000   1.000000
   15      -51.140984    -46.390040   1.000000   1.000000
   16      -51.140905    -46.390032   1.000000   1.000000
   17      -51.140886    -46.389981   1.000000   1.000000
   18      -51.140845    -46.389963   1.000000   1.000000
   19      -51.140790    -46.389869   1.000000   1.000000
   20      -51.140761    -46.389797   1.000000   1.000000
   21      -51.140742    -46.389723   1.000000   1.000000
   22      -51.140682    -46.389678   1.000000   1.000000
   23      -51.140626    -46.389592   1.000000   1.000000
   24      -51.140545    -46.389575   1.000000   1.000000
   25      -51.140522    -46.389534   1.000000   1.000000
   26      -51.140516    -46.389500   1.000000   1.000000
   27      -51.140482    -46.389448   1.000000   1.000000
   28      -51.140450    -46.389434   1.000000   1.000000
   29      -51.140447    -46.389332   1.000000   1.000000
   30      -51.140422    -46.389300   1.000000   1.000000
   31      -51.140347    -46.389259   1.000000   1.000000
   32      -51.140340    -46.389247   1.000000   1.000000
   33      -51.140286    -46.389202   1.000000   1.000000
   34      -51.140267    -46.389160   1.000000   1.000000
   35      -51.140213    -46.389114   1.000000   1.000000
   36      -51.140205    -46.389068   1.000000   1.000000
   37      -51.140187    -46.389003   1.000000   1.000000
   38      -51.140147    -46.388925   1.000000   1.000000
   39      -51.140140    -46.388914   1.000000   1.000000
   40      -51.140124    -46.388869   1.000000   1.000000
   41      -51.140109    -46.388860   1.000000   1.000000
   42      -51.140046    -46.388834   1.000000   1.000000
   43      -51.139983    -46.388756   1.000000   1.000000
   44      -51.139931    -46.388678   1.000000   1.000000
   45      -51.139916    -46.388663   1.000000   1.000000
   46      -51.139896    -46.388623   1.000000   1.000000
   47      -51.139841    -46.388563   1.000000   1.000000
   48      -51.139784    -46.388535   1.000000   1.000000
   49      -51.139771    -46.388479   1.000000   1.000000
   50      -51.139696    -46.388410   1.000000   1.000000
   51      -51.139686    -46.388371   1.000000   1.000000
   52      -51.139648    -46.388338   1.000000   1.000000
   53      -51.139594    -46.388282   1.000000   1.000000
   54      -51.139548    -46.388222   1.000000   1.000000
   55      -51.139489    -46.388124   1.000000   1.000000
   56      -51.139433    -46.388053   1.000000   1.000000
   57      -51.139355    -46.387992   1.000000   1.000000
   58      -51.139171    -46.387864   1.000000   1.000000
   59      -51.139104    -46.387745   1.000000   1.000000
   60      -51.138990    -46.387674   1.000000   1.000000
   61      -51.138882    -46.387578   1.000000   1.000000
   62      -51.138765    -46.387327   1.000000   1.000000
   63      -51.135198    -46.384288   1.000000   1.000000
   64      -51.135172    -46.384226   1.000000   1.000000
   65      -49.652114    -45.933219   1.000000   1.000000
   66      -49.651621    -45.932888   1.000000   1.000000
   67      -49.650271    -45.932046   1.000000   1.000000
   68      -49.649860    -45.931519   1.000000   1.000000
   69      -49.648088    -45.929413   1.000000   1.000000
   70      -49.647944    -45.929334   1.000000   1.000000
   71      -49.647935    -45.929287   1.000000   1.000000
   72      -49.647737    -45.929223   1.000000   1.000000
   73      -49.647686    -45.929037   1.000000   1.000000
   74      -49.647634    -45.928971   1.000000   1.000000
   75      -49.647565    -45.928870   1.000000   1.000000
   76      -49.647513    -45.928834   1.000000   1.000000
   77      -49.647496    -45.928810   1.000000   1.000000
   78      -49.647423    -45.928765   1.000000   1.000000
   79      -49.647345    -45.928718   1.000000   1.000000
   80      -49.647331    -45.928708   1.000000   1.000000
   81      -49.647292    -45.928676   1.000000   1.000000
   82      -49.647223    -45.928578   1.000000   1.000000
   83      -49.647169    -45.928567   1.000000   1.000000
   84      -49.647158    -45.928555   1.000000   1.000000
   85      -49.647148    -45.928529   1.000000   1.000000
   86      -49.647128    -45.928446   1.000000   1.000000
   87      -49.647071    -45.928432   1.000000   1.000000
   88      -49.647031    -45.928413   1.000000   1.000000
   89      -49.647027    -45.928399   1.000000   1.000000
   90      -49.647007    -45.928374   1.000000   1.000000
   91      -49.647001    -45.928355   1.000000   1.000000
   92      -49.646908    -45.928333   1.000000   1.000000
   93      -49.646868    -45.928292   1.000000   1.000000
   94      -49.646823    -45.928262   1.000000   1.000000
   95      -49.646818    -45.928233   1.000000   1.000000
   96      -49.646780    -45.928213   1.000000   1.000000
   97      -49.646769    -45.928177   1.000000   1.000000
   98      -49.646748    -45.928121   1.000000   1.000000
   99      -49.646665    -45.928106   1.000000   1.000000
  100      -49.646655    -45.928030   1.000000   1.000000
  101      -49.646632    -45.928003   1.000000   1.000000
  102      -49.646513    -45.927916   1.000000   1.000000
  103      -49.646452    -45.927881   1.000000   1.000000
  104      -49.646431    -45.927873   1.000000   1.000000
  105      -49.646381    -45.927859   1.000000   1.000000
  106      -49.646367    -45.927824   1.000000   1.000000
  107      -49.646332    -45.927806   1.000000   1.000000
  108      -49.646285    -45.927747   1.000000   1.000000
  109      -49.646266    -45.927734   1.000000   1.000000
  110      -49.646233    -45.927676   1.000000   1.000000
  111      -49.646217    -45.927599   1.000000   1.000000
  112      -49.646132    -45.927564   1.000000   1.000000
  113      -49.646124    -45.927553   1.000000   1.000000
  114      -49.646104    -45.927493   1.000000   1.000000
  115      -49.646078    -45.927477   1.000000   1.000000
  116      -49.646012    -45.927442   1.000000   1.000000
  117      -49.645966    -45.927416   1.000000   1.000000
  118      -49.645905    -45.927380   1.000000   1.000000
  119      -49.645824    -45.927369   1.000000   1.000000
  120      -49.645794    -45.927351   1.000000   1.000000
  121      -49.645786    -45.927330   1.000000   1.000000
  122      -49.645769    -45.927317   1.000000   1.000000
  123      -49.645702    -45.927285   1.000000   1.000000
  124      -49.645693    -45.927268   1.000000   1.000000
  125      -49.645665    -45.927222   1.000000   1.000000
  126      -49.645627    -45.927202   1.000000   1.000000
  127      -49.645608    -45.927157   1.000000   1.000000
  128      -49.645581    -45.927152   1.000000   1.000000
  129      -49.645538    -45.927141   1.000000   1.000000
  130      -49.645480    -45.927129   1.000000   1.000000
  131      -49.645478    -45.927115   1.000000   1.000000
  132      -49.645445    -45.927085   1.000000   1.000000
  133      -49.645404    -45.927050   1.000000   1.000000
  134      -49.645395    -45.927006   1.000000   1.000000
  135      -49.645346    -45.927000   1.000000   1.000000
  136      -49.645334    -45.926957   1.000000   1.000000
  137      -49.645323    -45.926945   1.000000   1.000000
  138      -49.645286    -45.926916   1.000000   1.000000
  139      -49.645266    -45.926894   1.000000   1.000000
  140      -49.645253    -45.926877   1.000000   1.000000
  141      -49.645231    -45.926829   1.000000   1.000000
  142      -49.645189    -45.926806   1.000000   1.000000
  143      -49.645172    -45.926774   1.000000   1.000000
  144      -49.645169    -45.926750   1.000000   1.000000
  145      -49.645094    -45.926728   1.000000   1.000000
  146      -49.645077    -45.926705   1.000000   1.000000
  147      -49.645036    -45.926681   1.000000   1.000000
  148      -49.645012    -45.926632   1.000000   1.000000
  149      -49.644987    -45.926596   1.000000   1.000000
  150      -49.644963    -45.926590   1.000000   1.000000
  151      -49.644947    -45.926586   1.000000   1.000000
  152      -49.644857    -45.926559   1.000000   1.000000
  153      -49.644797    -45.926541   1.000000   1.000000
  154      -49.644775    -45.926512   1.000000   1.000000
  155      -49.644757    -45.926501   1.000000   1.000000
  156      -49.644743    -45.926473   1.000000   1.000000
  157      -49.644716    -45.926436   1.000000   1.000000
  158      -49.644694    -45.926433   1.000000   1.000000
  159      -49.644667    -45.926399   1.000000   1.000000
  160      -49.644628    -45.926383   1.000000   1.000000
  161      -49.644611    -45.926330   1.000000   1.000000
  162      -49.644580    -45.926306   1.000000   1.000000
  163      -49.644501    -45.926278   1.000000   1.000000
  164      -49.644437    -45.926251   1.000000   1.000000
  165      -49.644430    -45.926239   1.000000   1.000000
  166      -49.644392    -45.926200   1.000000   1.000000
  167      -49.644344    -45.926191   1.000000   1.000000
  168      -49.644336    -45.926143   1.000000   1.000000
  169      -49.644240    -45.926091   1.000000   1.000000
  170      -49.644189    -45.926077   1.000000   1.000000
  171      -49.644158    -45.926064   1.000000   1.000000
  172      -49.644148    -45.925981   1.000000   1.000000
  173      -49.644140    -45.925945   1.000000   1.000000
  174      -49.644112    -45.925919   1.000000   1.000000
  175      -49.644102    -45.925840   1.000000   1.000000
  176      -49.644076    -45.925788   1.000000   1.000000
  177      -49.643977    -45.925768   1.000000   1.000000
  178      -49.643959    -45.925756   1.000000   1.000000
  179      -49.643896    -45.925708   1.000000   1.000000
  180      -49.643752    -45.925674   1.000000   1.000000
  181      -49.643744    -45.925661   1.000000   1.000000
  182      -49.643700    -45.925597   1.000000   1.000000
  183      -49.643510    -45.925569   1.000000   1.000000
  184      -49.643460    -45.925531   1.000000   1.000000
  185      -49.643379    -45.925454   1.000000   1.000000
  186      -49.643339    -45.925380   1.000000   1.000000
  187      -49.643151    -45.925036   1.000000   1.000000
  188      -49.643074    -45.924987   1.000000   1.000000
  189      -49.642116    -45.922924   1.000000   1.000000
  190      -49.641381    -45.922545   1.000000   1.000000
  191      -49.639172    -45.921553   1.000000   1.000000
  192      -49.638568    -45.921185   1.000000   1.000000
  193      -39.641163    -39.640246   1.000000   1.000000
  194      -39.641073    -39.640156   1.000000   1.000000
  195      -39.634074    -39.633203   1.000000   1.000000
  196      -39.633618    -39.632746   1.000000   1.000000
  197      -39.633483    -39.632610   1.000000   1.000000
  198      -39.633436    -39.632564   1.000000   1.000000
  199      -39.633421    -39.632548   1.000000   1.000000
  200      -39.633405    -39.632532   1.000000   1.000000
  201      -39.633192    -39.632318   1.000000   1.000000
  202      -39.632879    -39.632006   1.000000   1.000000
  203      -39.628038    -39.627201   1.000000   1.000000
  204      -39.627923    -39.627085   1.000000   1.000000
  205      -39.627849    -39.627012   1.000000   1.000000
  206      -39.627818    -39.626980   1.000000   1.000000
  207      -39.627704    -39.626865   1.000000   1.000000
  208      -39.627644    -39.626805   1.000000   1.000000
  209      -39.627566    -39.626728   1.000000   1.000000
  210      -39.627460    -39.626621   1.000000   1.000000
  211      -39.616984    -39.616214   1.000000   1.000000
  212      -39.616249    -39.615474   1.000000   1.000000
  213      -39.616104    -39.615329   1.000000   1.000000
  214      -39.615974    -39.615197   1.000000   1.000000
  215      -39.615963    -39.615187   1.000000   1.000000
  216      -39.615930    -39.615157   1.000000   1.000000
  217      -39.615828    -39.615053   1.000000   1.000000
  218      -39.615624    -39.614843   1.000000   1.000000
  219      -39.615537    -39.614758   1.000000   1.000000
  220      -39.615341    -39.614572   1.000000   1.000000
  221      -39.615254    -39.614484   1.000000   1.000000
  222      -39.615242    -39.614473   1.000000   1.000000
  223      -39.615221    -39.614453   1.000000   1.000000
  224      -39.615156    -39.614389   1.000000   1.000000
  225      -39.615145    -39.614378   1.000000   1.000000
  226      -39.615012    -39.614245   1.000000   1.000000
  227      -39.615002    -39.614233   1.000000   1.000000
  228      -39.614998    -39.614229   1.000000   1.000000
  229      -39.614941    -39.614172   1.000000   1.000000
  230      -39.614927    -39.614158   1.000000   1.000000
  231      -39.614890    -39.614122   1.000000   1.000000
  232      -39.614797    -39.614031   1.000000   1.000000
  233      -39.614683    -39.613917   1.000000   1.000000
  234      -39.614671    -39.613901   1.000000   1.000000
  235      -39.614192    -39.613432   1.000000   1.000000
  236      -39.614064    -39.613303   1.000000   1.000000
  237      -39.613758    -39.612996   1.000000   1.000000
  238      -39.613459    -39.612693   1.000000   1.000000
  239      -39.604136    -39.603418   1.000000   1.000000
  240      -39.604006    -39.603286   1.000000   1.000000
  241      -39.603957    -39.603238   1.000000   1.000000
  242      -39.603867    -39.603148   1.000000   1.000000
  243      -39.603762    -39.603041   1.000000   1.000000
  244      -39.603718    -39.602998   1.000000   1.000000
  245      -39.603667    -39.602947   1.000000   1.000000
  246      -39.603550    -39.602830   1.000000   1.000000
  247      -39.600038    -39.599332   1.000000   1.000000
  248      -39.599759    -39.599054   1.000000   1.000000
  249      -39.599559    -39.598853   1.000000   1.000000
  250      -39.599529    -39.598822   1.000000   1.000000
  251      -39.599513    -39.598806   1.000000   1.000000
  252      -39.599460    -39.598753   1.000000   1.000000
  253      -39.599343    -39.598636   1.000000   1.000000
  254      -39.598871    -39.598164   1.000000   1.000000
  255      -39.593271    -39.592588   1.000000   1.000000
  256      -39.593144    -39.592460   1.000000   1.000000
  257      -12.747251    -12.467786   1.000000   1.000000
  258      -12.747200    -12.467730   1.000000   1.000000
  259      -12.720357    -12.440667   1.000000   1.000000
  260      -12.719501    -12.439744   1.000000   1.000000
  261      -12.719390    -12.439645   1.000000   1.000000
  262      -12.719350    -12.439596   1.000000   1.000000
  263      -12.719336    -12.439584   1.000000   1.000000
  264      -12.719316    -12.439565   1.000000   1.000000
  265      -12.719151    -12.439403   1.000000   1.000000
  266      -12.718377    -12.438574   1.000000   1.000000
  267      -12.697297    -12.417162   1.000000   1.000000
  268      -12.697244    -12.417105   1.000000   1.000000
  269      -12.694918    -12.415301   1.000000   1.000000
  270      -12.694767    -12.415158   1.000000   1.000000
  271      -12.694755    -12.415148   1.000000   1.000000
  272      -12.694751    -12.415143   1.000000   1.000000
  273      -12.692522    -12.413363   1.000000   1.000000
  274      -12.692304    -12.413222   1.000000   1.000000
  275      -12.691257    -12.411224   1.000000   1.000000
  276      -12.691226    -12.411198   1.000000   1.000000
  277      -12.691103    -12.411103   1.000000   1.000000
  278      -12.690937    -12.410950   1.000000   1.000000
  279      -12.673198    -12.393222   1.000000   1.000000
  280      -12.672721    -12.392703   1.000000   1.000000
  281      -12.672621    -12.392603   1.000000   1.000000
  282      -12.672134    -12.392109   1.000000   1.000000
  283      -12.668063    -12.389179   1.000000   1.000000
  284      -12.667651    -12.388757   1.000000   1.000000
  285      -12.667553    -12.388660   1.000000   1.000000
  286      -12.666991    -12.388054   1.000000   1.000000
  287      -12.654491    -12.374534   1.000000   1.000000
  288      -12.643724    -12.365994   1.000000   1.000000
  289       -7.800026     -7.599027   1.000000   1.000000
  290       -7.748234     -7.551512   1.000000   1.000000
  291       -7.505563     -7.319320   1.000000   1.000000
  292       -7.505406     -7.319152   1.000000   1.000000
  293       -7.505335     -7.319079   1.000000   1.000000
  294       -7.505161     -7.318895   1.000000   1.000000
  295       -7.501108     -7.308980   1.000000   1.000000
  296       -7.500977     -7.308831   1.000000   1.000000
  297       -7.500906     -7.308757   1.000000   1.000000
  298       -7.500731     -7.308587   1.000000   1.000000
  299       -7.315280     -7.117837   1.000000   1.000000
  300       -7.315027     -7.117565   1.000000   1.000000
  301       -7.297083     -7.093821   1.000000   1.000000
  302       -7.296829     -7.093546   1.000000   1.000000
  303       -7.296794     -7.093510   1.000000   1.000000
  304       -7.296550     -7.093245   1.000000   1.000000
  305       -7.269379     -7.062091   1.000000   1.000000
  306       -7.269091     -7.061781   1.000000   1.000000
  307       -7.088643     -6.894019   1.000000   1.000000
  308       -7.084802     -6.893849   1.000000   1.000000
  309       -7.084660     -6.893846   1.000000   1.000000
  310       -7.084654     -6.893655   1.000000   1.000000
  311       -7.084465     -6.796734   1.000000   1.000000
  312       -7.046571     -6.783804   1.000000   1.000000
  313       -7.000364     -6.768123   1.000000   1.000000
  314       -7.000143     -6.767993   1.000000   1.000000
  315       -6.999911     -6.767972   1.000000   1.000000
  316       -6.999770     -6.767737   1.000000   1.000000
  317       -6.999758     -6.766678   1.000000   1.000000
  318       -6.999659     -6.766454   1.000000   1.000000
  319       -6.999404     -6.766197   1.000000   1.000000
  320       -6.999200     -6.766079   1.000000   1.000000
  321       -6.994476     -6.766066   1.000000   1.000000
  322       -6.994213     -6.765950   1.000000   1.000000
  323       -6.994134     -6.765651   1.000000   1.000000
  324       -6.993833     -6.765407   1.000000   1.000000
  325       -6.955916     -6.745236   1.000000   1.000000
  326       -6.955771     -6.744916   1.000000   1.000000
  327       -6.955770     -6.744840   1.000000   1.000000
  328       -6.955589     -6.744508   1.000000   1.000000
  329       -6.948342     -6.697484   1.000000   1.000000
  330       -6.948280     -6.697426   1.000000   1.000000
  331       -6.928923     -6.689412   1.000000   1.000000
  332       -6.928638     -6.689091   1.000000   1.000000
  333       -6.928542     -6.689003   1.000000   1.000000
  334       -6.928299     -6.688721   1.000000   1.000000
  335       -6.911321     -6.639865   1.000000   1.000000
  336       -6.911298     -6.639472   1.000000   1.000000
  337       -6.885750     -6.639319   1.000000   1.000000
  338       -6.885643     -6.639088   1.000000   1.000000
  339       -6.885641     -6.639025   1.000000   1.000000
  340       -6.885582     -6.638960   1.000000   1.000000
  341       -6.877376     -6.638815   1.000000   1.000000
  342       -6.877174     -6.638598   1.000000   1.000000
  343       -6.876929     -6.638344   1.000000   1.000000
  344       -6.876810     -6.638308   1.000000   1.000000
  345       -6.876794     -6.638115   1.000000   1.000000
  346       -6.876671     -6.637795   1.000000   1.000000
  347       -6.876429     -6.628056   1.000000   1.000000
  348       -6.876184     -6.628038   1.000000   1.000000
  349       -6.832629     -6.586669   1.000000   1.000000
  350       -6.832555     -6.586590   1.000000   1.000000
  351       -6.794267     -6.499089   1.000000   1.000000
  352       -6.794249     -6.499070   1.000000   1.000000
  353       -1.525524     -0.414704   1.000000   1.000000
  354       -1.468102     -0.414513   1.000000   1.000000
  355       -1.467758     -0.414452   1.000000   1.000000
  356       -1.467644     -0.414389   1.000000   1.000000
  357       -1.467189      0.026028   1.000000   1.000000
  358       -1.460341      0.026262   1.000000   1.000000
  359       -1.460330      0.026456   1.000000   1.000000
  360       -1.460223      0.026777   1.000000   1.000000
  361       -1.460076      0.037662   1.000000   1.000000
  362       -1.421387      0.037815   1.000000   1.000000
  363       -1.421339      0.037961   1.000000   1.000000
  364       -1.382820      0.037963   1.000000   1.000000
  365       -1.382777      0.038155   1.000000   1.000000
  366       -1.382770      0.038172   1.000000   1.000000
  367       -1.382735      0.038319   1.000000   1.000000
  368       -1.333357      0.038403   1.000000   1.000000
  369       -1.332706      0.102889   1.000000   1.000000
  370       -1.332555      0.102915   1.000000   1.000000
  371       -1.332510      0.207407   1.000000   1.000000
  372       -1.332483      0.207539   1.000000   1.000000
  373       -1.332427      0.207543   1.000000   1.000000
  374       -1.332270      0.207696   1.000000   1.000000
  375       -1.331651      0.304165   1.000000   1.000000
  376       -1.292948      0.392041   1.000000   1.000000
  377       -1.292558      0.392495   1.000000   1.000000
  378       -1.292429      0.392691   1.000000   1.000000
  379       -1.291968      0.392995   1.000000   1.000000
  380       -1.256792      0.490793   1.000000   1.000000
  381       -1.256778      0.490996   1.000000   1.000000
  382       -1.232174      0.497348   1.000000   1.000000
  383       -1.232149      0.497657   1.000000   1.000000
  384       -1.220370      0.497717   1.000000   1.000000
  385       -0.822849      0.497919   1.000000   1.000000
  386       -0.822713      0.510668   1.000000   1.000000
  387       -0.822647      0.510702   1.000000   1.000000
  388       -0.822576      0.531096   1.000000   1.000000
  389       -0.722717      0.531197   1.000000   1.000000
  390       -0.722586      0.531229   1.000000   1.000000
  391       -0.699250      0.531475   1.000000   1.000000
  392       -0.699139      0.574076   1.000000   1.000000
  393       -0.699055      0.574231   1.000000   1.000000
  394       -0.698891      0.574317   1.000000   1.000000
  395       -0.688455      0.574361   1.000000   1.000000
  396       -0.688438      0.574385   1.000000   1.000000
  397       -0.688196      0.574520   1.000000   1.000000
  398       -0.688151      0.574554   1.000000   1.000000
  399       -0.666835      0.574631   1.000000   1.000000
  400       -0.666599      0.638615   1.000000   1.000000
  401       -0.666404      0.666301   1.000000   1.000000
  402       -0.666290      0.666339   1.000000   1.000000
  403       -0.652095      0.733082   1.000000   1.000000
  404       -0.651925      0.733101   1.000000   1.000000
  405       -0.651745      0.931365   1.000000   1.000000
  406       -0.651721      0.932550   1.000000   1.000000
  407       -0.589436      0.935491   1.000000   1.000000
  408       -0.589387      0.935751   1.000000   1.000000
  409       -0.576629      0.948820   1.000000   1.000000
  410       -0.576538      0.948913   1.000000   1.000000
  411       -0.576517      0.949019   1.000000   1.000000
  412       -0.576480      0.949320   1.000000   1.000000
  413       -0.553422      0.985987   1.000000   1.000000
  414       -0.553365      0.986166   1.000000   1.000000
  415       -0.553100      0.986274   1.000000   1.000000
  416       -0.552860      0.986406   1.000000   1.000000
  417       -0.497629      0.992781   1.000000   1.000000
  418       -0.496877      0.992975   1.000000   1.000000
  419       -0.472914      1.008777   1.000000   1.000000
  420       -0.472688      1.008932   1.000000   1.000000
  421       -0.461603      1.008947   1.000000   1.000000
  422       -0.461493      1.009130   1.000000   1.000000
  423       -0.461278      1.018467   1.000000   1.000000
  424       -0.461104      1.049092   1.000000   1.000000
  425       -0.459851      1.049152   1.000000   1.000000
  426       -0.459732      1.051587   1.000000   1.000000
  427       -0.459441      1.051699   1.000000   1.000000
  428       -0.459280      1.051802   1.000000   1.000000
  429       -0.410028      1.051872   1.000000   1.000000
  430       -0.409991      1.078653   1.000000   1.000000
  431       -0.407599      1.078827   1.000000   1.000000
  432       -0.407548      1.078833   1.000000   1.000000
  433       -0.407486      1.078944   1.000000   1.000000
  434       -0.407407      1.079754   1.000000   1.000000
  435       -0.407388      1.079875   1.000000   1.000000
  436       -0.407333      1.079948   1.000000   1.000000
  437       -0.383300      1.079961   1.000000   1.000000
  438       -0.383270      1.192805   1.000000   1.000000
  439       -0.378166      1.192919   1.000000   1.000000
  440       -0.369028      1.376459   1.000000   1.000000
  441       -0.368921      1.390366   1.000000   1.000000
  442       -0.368742      1.390974   1.000000   1.000000
  443       -0.368691      1.391209   1.000000   1.000000
  444       -0.368661      1.391457   1.000000   1.000000
  445       -0.368638      1.391639   1.000000   1.000000
  446       -0.368503      1.437311   1.000000   1.000000
  447       -0.368393      1.450203   1.000000   1.000000
  448       -0.353570      1.526154   1.000000   1.000000
  449       -0.353508      1.526441   1.000000   1.000000
  450       -0.349054      1.526443   1.000000   1.000000
  451       -0.341789      1.526592   1.000000   1.000000
  452       -0.335849      1.528751   1.000000   1.000000
  453       -0.335783      1.528922   1.000000   1.000000
  454       -0.335387      1.529022   1.000000   1.000000
  455       -0.335354      1.529162   1.000000   1.000000
  456       -0.334164      1.558293   1.000000   1.000000
  457       -0.334155      1.558306   1.000000   1.000000
  458       -0.334118      1.558339   1.000000   1.000000
  459       -0.334016      1.558404   1.000000   1.000000
  460       -0.324478      1.566374   1.000000   1.000000
  461       -0.324029      1.566739   1.000000   1.000000
  462       -0.323858      1.566961   1.000000   1.000000
  463       -0.323845      1.567032   1.000000   1.000000
  464       -0.321865      1.568008   1.000000   1.000000
  465       -0.321369      1.568303   1.000000   1.000000
  466       -0.321190      1.568508   1.000000   1.000000
  467       -0.321171      1.568669   1.000000   1.000000
  468       -0.303822      1.586368   1.000000   1.000000
  469       -0.295898      1.586863   1.000000   1.000000
  470       -0.288081      1.695606   1.000000   1.000000
  471       -0.287922      1.695834   1.000000   1.000000
  472       -0.287766      1.740831   1.000000   1.000000
  473       -0.287515      1.740891   1.000000   1.000000
  474       -0.280409      1.741199   1.000000   1.000000
  475       -0.280361      1.741246   1.000000   1.000000
  476       -0.275112      1.746855   1.000000   1.000000
  477       -0.275070      1.746872   1.000000   1.000000
  478       -0.274892      1.746896   1.000000   1.000000
  479       -0.274672      1.746897   1.000000   1.000000
  480       -0.241859      1.779032   1.000000   1.000000
  481       -0.241660      1.780580   1.000000   1.000000
  482       -0.241586      1.780683   1.000000   1.000000
  483       -0.241551      1.836803   1.000000   1.000000
  484       -0.241457      1.836913   1.000000   1.000000
  485       -0.241403      1.837087   1.000000   1.000000
  486       -0.241244      1.837427   1.000000   1.000000
  487       -0.241128      1.837731   1.000000   1.000000
  488       -0.207397      1.837769   1.000000   1.000000
  489       -0.207391      1.838442   1.000000   1.000000
  490       -0.199707      1.838589   1.000000   1.000000
  491       -0.199572      1.866212   1.000000   1.000000
  492       -0.199558      1.866416   1.000000   1.000000
  493       -0.199406      1.913223   1.000000   1.000000
  494       -0.194069      1.913352   1.000000   1.000000
  495       -0.193931      1.913374   1.000000   1.000000
  496       -0.164074      1.913597   1.000000   1.000000
  497       -0.163956      1.913623   1.000000   1.000000
  498       -0.163781      1.913703   1.000000   1.000000
  499       -0.163593      1.913976   1.000000   1.000000
  500       -0.156664      1.914026   1.000000   1.000000
  501       -0.156652      1.926605   1.000000   1.000000
  502       -0.156380      1.926983   1.000000   1.000000
  503       -0.156004      1.927069   1.000000   1.000000
  504       -0.139037      1.927463   1.000000   1.000000
  505       -0.139025      2.133169   1.000000   1.000000
  506       -0.138842      2.133329   1.000000   1.000000
  507       -0.138811      2.191257   1.000000   1.000000
  508       -0.090986      2.193190   1.000000   1.000000
  509       -0.090934      2.300642   1.000000   1.000000
  510       -0.082544      2.300695   1.000000   1.000000
  511       -0.082492      2.301090   1.000000   1.000000
  512       -0.082462      2.301618   1.000000   1.000000