  99  99   0   0
  0.1430410E+02  0.1177748E-08  0.1177748E-08  0.1058004E-08  0.5000000E-15
  1.000000000000000E-004
  CAR 
 unknown system                          
     18.02286146    -54.34079510  301      5.29891851      1.00000000
    -54.341  0.0000E+00  0.0000E+00  0.0000E+00  0.0000E+00
    -54.100  0.0000E+00  0.0000E+00  0.0000E+00  0.0000E+00
    -53.858  0.0000E+00  0.0000E+00  0.0000E+00  0.0000E+00
    -53.617  0.0000E+00  0.0000E+00  0.0000E+00  0.0000E+00
    -53.376  0.0000E+00  0.0000E+00  0.0000E+00  0.0000E+00
    -53.135  0.0000E+00  0.0000E+00  0.0000E+00  0.0000E+00
    -52.894  0.0000E+00  0.0000E+00  0.0000E+00  0.0000E+00
    -52.652  0.0000E+00  0.0000E+00  0.0000E+00  0.0000E+00
    -52.411  0.0000E+00  0.0000E+00  0.0000E+00  0.0000E+00
    -52.170  0.0000E+00  0.0000E+00  0.0000E+00  0.0000E+00
    -51.929  0.0000E+00  0.0000E+00  0.0000E+00  0.0000E+00
    -51.687  0.0000E+00  0.0000E+00  0.0000E+00  0.0000E+00
    -51.446  0.0000E+00  0.0000E+00  0.0000E+00  0.0000E+00
    -51.205  0.4370E-03  0.0000E+00  0.1054E-03  0.0000E+00
    -50.964  0.1471E+03  0.0000E+00  0.3549E+02  0.0000E+00
    -50.723  0.2114E+01  0.0000E+00  0.3600E+02  0.0000E+00
    -50.481  0.0000E+00  0.0000E+00  0.3600E+02  0.0000E+00
    -50.240  0.0000E+00  0.0000E+00  0.3600E+02  0.0000E+00
    -49.999  0.0000E+00  0.0000E+00  0.3600E+02  0.0000E+00
    -49.758  0.2042E+01  0.0000E+00  0.3649E+02  0.0000E+00
    -49.517  0.2723E+03  0.0000E+00  0.1022E+03  0.0000E+00
    -49.275  0.2418E+02  0.0000E+00  0.1080E+03  0.0000E+00
    -49.034  0.0000E+00  0.0000E+00  0.1080E+03  0.0000E+00
    -48.793  0.0000E+00  0.0000E+00  0.1080E+03  0.0000E+00
    -48.552  0.0000E+00  0.0000E+00  0.1080E+03  0.0000E+00
    -48.310  0.0000E+00  0.0000E+00  0.1080E+03  0.0000E+00
    -48.069  0.0000E+00  0.0000E+00  0.1080E+03  0.0000E+00
    -47.828  0.0000E+00  0.0000E+00  0.1080E+03  0.0000E+00
    -47.587  0.0000E+00  0.0000E+00  0.1080E+03  0.0000E+00
    -47.346  0.0000E+00  0.0000E+00  0.1080E+03  0.0000E+00
    -47.104  0.0000E+00  0.0000E+00  0.1080E+03  0.0000E+00
    -46.863  0.0000E+00  0.0000E+00  0.1080E+03  0.0000E+00
    -46.622  0.0000E+00  0.0000E+00  0.1080E+03  0.0000E+00
    -46.381  0.0000E+00  0.5467E+00  0.1080E+03  0.1319E+00
    -46.140  0.0000E+00  0.1487E+03  0.1080E+03  0.3600E+02
    -45.898  0.0000E+00  0.7800E+02  0.1080E+03  0.5481E+02
    -45.657  0.0000E+00  0.2205E+03  0.1080E+03  0.1080E+03
    -45.416  0.0000E+00  0.0000E+00  0.1080E+03  0.1080E+03
    -45.175  0.0000E+00  0.0000E+00  0.1080E+03  0.1080E+03
    -44.934  0.0000E+00  0.0000E+00  0.1080E+03  0.1080E+03
    -44.692  0.0000E+00  0.0000E+00  0.1080E+03  0.1080E+03
    -44.451  0.0000E+00  0.0000E+00  0.1080E+03  0.1080E+03
    -44.210  0.0000E+00  0.0000E+00  0.1080E+03  0.1080E+03
    -43.969  0.0000E+00  0.0000E+00  0.1080E+03  0.1080E+03
    -43.727  0.0000E+00  0.0000E+00  0.1080E+03  0.1080E+03
    -43.486  0.0000E+00  0.0000E+00  0.1080E+03  0.1080E+03
    -43.245  0.0000E+00  0.0000E+00  0.1080E+03  0.1080E+03
    -43.004  0.0000E+00  0.0000E+00  0.1080E+03  0.1080E+03
    -42.763  0.0000E+00  0.0000E+00  0.1080E+03  0.1080E+03
    -42.521  0.0000E+00  0.0000E+00  0.1080E+03  0.1080E+03
    -42.280  0.0000E+00  0.0000E+00  0.1080E+03  0.1080E+03
    -42.039  0.0000E+00  0.0000E+00  0.1080E+03  0.1080E+03
    -41.798  0.0000E+00  0.0000E+00  0.1080E+03  0.1080E+03
    -41.557  0.0000E+00  0.0000E+00  0.1080E+03  0.1080E+03
    -41.315  0.0000E+00  0.0000E+00  0.1080E+03  0.1080E+03
    -41.074  0.0000E+00  0.0000E+00  0.1080E+03  0.1080E+03
    -40.833  0.0000E+00  0.0000E+00  0.1080E+03  0.1080E+03
    -40.592  0.0000E+00  0.0000E+00  0.1080E+03  0.1080E+03
    -40.350  0.0000E+00  0.0000E+00  0.1080E+03  0.1080E+03
    -40.109  0.4128E-09  0.2614E-09  0.1080E+03  0.1080E+03
    -39.868  0.3805E+02  0.3610E+02  0.1172E+03  0.1167E+03
    -39.627  0.3657E+02  0.3853E+02  0.1260E+03  0.1260E+03
    -39.386  0.0000E+00  0.0000E+00  0.1260E+03  0.1260E+03
    -39.144  0.0000E+00  0.0000E+00  0.1260E+03  0.1260E+03
    -38.903  0.0000E+00  0.0000E+00  0.1260E+03  0.1260E+03
    -38.662  0.0000E+00  0.0000E+00  0.1260E+03  0.1260E+03
    -38.421  0.0000E+00  0.0000E+00  0.1260E+03  0.1260E+03
    -38.180  0.0000E+00  0.0000E+00  0.1260E+03  0.1260E+03
    -37.938  0.0000E+00  0.0000E+00  0.1260E+03  0.1260E+03
    -37.697  0.0000E+00  0.0000E+00  0.1260E+03  0.1260E+03
    -37.456  0.0000E+00  0.0000E+00  0.1260E+03  0.1260E+03
    -37.215  0.0000E+00  0.0000E+00  0.1260E+03  0.1260E+03
    -36.974  0.0000E+00  0.0000E+00  0.1260E+03  0.1260E+03
    -36.732  0.0000E+00  0.0000E+00  0.1260E+03  0.1260E+03
    -36.491  0.0000E+00  0.0000E+00  0.1260E+03  0.1260E+03
    -36.250  0.0000E+00  0.0000E+00  0.1260E+03  0.1260E+03
    -36.009  0.0000E+00  0.0000E+00  0.1260E+03  0.1260E+03
    -35.767  0.0000E+00  0.0000E+00  0.1260E+03  0.1260E+03
    -35.526  0.0000E+00  0.0000E+00  0.1260E+03  0.1260E+03
    -35.285  0.0000E+00  0.0000E+00  0.1260E+03  0.1260E+03
    -35.044  0.0000E+00  0.0000E+00  0.1260E+03  0.1260E+03
    -34.803  0.0000E+00  0.0000E+00  0.1260E+03  0.1260E+03
    -34.561  0.0000E+00  0.0000E+00  0.1260E+03  0.1260E+03
    -34.320  0.0000E+00  0.0000E+00  0.1260E+03  0.1260E+03
    -34.079  0.0000E+00  0.0000E+00  0.1260E+03  0.1260E+03
    -33.838  0.0000E+00  0.0000E+00  0.1260E+03  0.1260E+03
    -33.597  0.0000E+00  0.0000E+00  0.1260E+03  0.1260E+03
    -33.355  0.0000E+00  0.0000E+00  0.1260E+03  0.1260E+03
    -33.114  0.0000E+00  0.0000E+00  0.1260E+03  0.1260E+03
    -32.873  0.0000E+00  0.0000E+00  0.1260E+03  0.1260E+03
    -32.632  0.0000E+00  0.0000E+00  0.1260E+03  0.1260E+03
    -32.390  0.0000E+00  0.0000E+00  0.1260E+03  0.1260E+03
    -32.149  0.0000E+00  0.0000E+00  0.1260E+03  0.1260E+03
    -31.908  0.0000E+00  0.0000E+00  0.1260E+03  0.1260E+03
    -31.667  0.0000E+00  0.0000E+00  0.1260E+03  0.1260E+03
    -31.426  0.0000E+00  0.0000E+00  0.1260E+03  0.1260E+03
    -31.184  0.0000E+00  0.0000E+00  0.1260E+03  0.1260E+03
    -30.943  0.0000E+00  0.0000E+00  0.1260E+03  0.1260E+03
    -30.702  0.0000E+00  0.0000E+00  0.1260E+03  0.1260E+03
    -30.461  0.0000E+00  0.0000E+00  0.1260E+03  0.1260E+03
    -30.220  0.0000E+00  0.0000E+00  0.1260E+03  0.1260E+03
    -29.978  0.0000E+00  0.0000E+00  0.1260E+03  0.1260E+03
    -29.737  0.0000E+00  0.0000E+00  0.1260E+03  0.1260E+03
    -29.496  0.0000E+00  0.0000E+00  0.1260E+03  0.1260E+03
    -29.255  0.0000E+00  0.0000E+00  0.1260E+03  0.1260E+03
    -29.014  0.0000E+00  0.0000E+00  0.1260E+03  0.1260E+03
    -28.772  0.0000E+00  0.0000E+00  0.1260E+03  0.1260E+03
    -28.531  0.0000E+00  0.0000E+00  0.1260E+03  0.1260E+03
    -28.290  0.0000E+00  0.0000E+00  0.1260E+03  0.1260E+03
    -28.049  0.0000E+00  0.0000E+00  0.1260E+03  0.1260E+03
    -27.807  0.0000E+00  0.0000E+00  0.1260E+03  0.1260E+03
    -27.566  0.0000E+00  0.0000E+00  0.1260E+03  0.1260E+03
    -27.325  0.0000E+00  0.0000E+00  0.1260E+03  0.1260E+03
    -27.084  0.0000E+00  0.0000E+00  0.1260E+03  0.1260E+03
    -26.843  0.0000E+00  0.0000E+00  0.1260E+03  0.1260E+03
    -26.601  0.0000E+00  0.0000E+00  0.1260E+03  0.1260E+03
    -26.360  0.0000E+00  0.0000E+00  0.1260E+03  0.1260E+03
    -26.119  0.0000E+00  0.0000E+00  0.1260E+03  0.1260E+03
    -25.878  0.0000E+00  0.0000E+00  0.1260E+03  0.1260E+03
    -25.637  0.0000E+00  0.0000E+00  0.1260E+03  0.1260E+03
    -25.395  0.0000E+00  0.0000E+00  0.1260E+03  0.1260E+03
    -25.154  0.0000E+00  0.0000E+00  0.1260E+03  0.1260E+03
    -24.913  0.0000E+00  0.0000E+00  0.1260E+03  0.1260E+03
    -24.672  0.0000E+00  0.0000E+00  0.1260E+03  0.1260E+03
    -24.430  0.0000E+00  0.0000E+00  0.1260E+03  0.1260E+03
    -24.189  0.0000E+00  0.0000E+00  0.1260E+03  0.1260E+03
    -23.948  0.0000E+00  0.0000E+00  0.1260E+03  0.1260E+03
    -23.707  0.0000E+00  0.0000E+00  0.1260E+03  0.1260E+03
    -23.466  0.0000E+00  0.0000E+00  0.1260E+03  0.1260E+03
    -23.224  0.0000E+00  0.0000E+00  0.1260E+03  0.1260E+03
    -22.983  0.0000E+00  0.0000E+00  0.1260E+03  0.1260E+03
    -22.742  0.0000E+00  0.0000E+00  0.1260E+03  0.1260E+03
    -22.501  0.0000E+00  0.0000E+00  0.1260E+03  0.1260E+03
    -22.260  0.0000E+00  0.0000E+00  0.1260E+03  0.1260E+03
    -22.018  0.0000E+00  0.0000E+00  0.1260E+03  0.1260E+03
    -21.777  0.0000E+00  0.0000E+00  0.1260E+03  0.1260E+03
    -21.536  0.0000E+00  0.0000E+00  0.1260E+03  0.1260E+03
    -21.295  0.0000E+00  0.0000E+00  0.1260E+03  0.1260E+03
    -21.054  0.0000E+00  0.0000E+00  0.1260E+03  0.1260E+03
    -20.812  0.0000E+00  0.0000E+00  0.1260E+03  0.1260E+03
    -20.571  0.0000E+00  0.0000E+00  0.1260E+03  0.1260E+03
    -20.330  0.0000E+00  0.0000E+00  0.1260E+03  0.1260E+03
    -20.089  0.0000E+00  0.0000E+00  0.1260E+03  0.1260E+03
    -19.847  0.0000E+00  0.0000E+00  0.1260E+03  0.1260E+03
    -19.606  0.0000E+00  0.0000E+00  0.1260E+03  0.1260E+03
    -19.365  0.0000E+00  0.0000E+00  0.1260E+03  0.1260E+03
    -19.124  0.0000E+00  0.0000E+00  0.1260E+03  0.1260E+03
    -18.883  0.0000E+00  0.0000E+00  0.1260E+03  0.1260E+03
    -18.641  0.0000E+00  0.0000E+00  0.1260E+03  0.1260E+03
    -18.400  0.0000E+00  0.0000E+00  0.1260E+03  0.1260E+03
    -18.159  0.0000E+00  0.0000E+00  0.1260E+03  0.1260E+03
    -17.918  0.0000E+00  0.0000E+00  0.1260E+03  0.1260E+03
    -17.677  0.0000E+00  0.0000E+00  0.1260E+03  0.1260E+03
    -17.435  0.0000E+00  0.0000E+00  0.1260E+03  0.1260E+03
    -17.194  0.0000E+00  0.0000E+00  0.1260E+03  0.1260E+03
    -16.953  0.0000E+00  0.0000E+00  0.1260E+03  0.1260E+03
    -16.712  0.0000E+00  0.0000E+00  0.1260E+03  0.1260E+03
    -16.470  0.0000E+00  0.0000E+00  0.1260E+03  0.1260E+03
    -16.229  0.0000E+00  0.0000E+00  0.1260E+03  0.1260E+03
    -15.988  0.0000E+00  0.0000E+00  0.1260E+03  0.1260E+03
    -15.747  0.0000E+00  0.0000E+00  0.1260E+03  0.1260E+03
    -15.506  0.0000E+00  0.0000E+00  0.1260E+03  0.1260E+03
    -15.264  0.0000E+00  0.0000E+00  0.1260E+03  0.1260E+03
    -15.023  0.0000E+00  0.0000E+00  0.1260E+03  0.1260E+03
    -14.782  0.0000E+00  0.0000E+00  0.1260E+03  0.1260E+03
    -14.541  0.0000E+00  0.0000E+00  0.1260E+03  0.1260E+03
    -14.300  0.0000E+00  0.0000E+00  0.1260E+03  0.1260E+03
    -14.058  0.0000E+00  0.0000E+00  0.1260E+03  0.1260E+03
    -13.817  0.0000E+00  0.0000E+00  0.1260E+03  0.1260E+03
    -13.576  0.0000E+00  0.0000E+00  0.1260E+03  0.1260E+03
    -13.335  0.1770E-01  0.0000E+00  0.1260E+03  0.1260E+03
    -13.094  0.3934E+02  0.1989E-12  0.1355E+03  0.1260E+03
    -12.852  0.3526E+02  0.2861E+01  0.1440E+03  0.1267E+03
    -12.611  0.5995E-02  0.6687E+02  0.1440E+03  0.1428E+03
    -12.370  0.0000E+00  0.4897E+01  0.1440E+03  0.1440E+03
    -12.129  0.0000E+00  0.0000E+00  0.1440E+03  0.1440E+03
    -11.887  0.0000E+00  0.0000E+00  0.1440E+03  0.1440E+03
    -11.646  0.0000E+00  0.0000E+00  0.1440E+03  0.1440E+03
    -11.405  0.0000E+00  0.0000E+00  0.1440E+03  0.1440E+03
    -11.164  0.0000E+00  0.0000E+00  0.1440E+03  0.1440E+03
    -10.923  0.0000E+00  0.0000E+00  0.1440E+03  0.1440E+03
    -10.681  0.0000E+00  0.0000E+00  0.1440E+03  0.1440E+03
    -10.440  0.0000E+00  0.0000E+00  0.1440E+03  0.1440E+03
    -10.199  0.0000E+00  0.0000E+00  0.1440E+03  0.1440E+03
     -9.958  0.0000E+00  0.0000E+00  0.1440E+03  0.1440E+03
     -9.717  0.0000E+00  0.0000E+00  0.1440E+03  0.1440E+03
     -9.475  0.0000E+00  0.0000E+00  0.1440E+03  0.1440E+03
     -9.234  0.0000E+00  0.0000E+00  0.1440E+03  0.1440E+03
     -8.993  0.0000E+00  0.0000E+00  0.1440E+03  0.1440E+03
     -8.752  0.0000E+00  0.0000E+00  0.1440E+03  0.1440E+03
     -8.510  0.0000E+00  0.0000E+00  0.1440E+03  0.1440E+03
     -8.269  0.0000E+00  0.0000E+00  0.1440E+03  0.1440E+03
     -8.028  0.0000E+00  0.0000E+00  0.1440E+03  0.1440E+03
     -7.787  0.9284E-07  0.0000E+00  0.1440E+03  0.1440E+03
     -7.546  0.1960E+01  0.1898E-07  0.1445E+03  0.1440E+03
     -7.304  0.2381E+02  0.1870E+01  0.1502E+03  0.1445E+03
     -7.063  0.2908E+02  0.2581E+02  0.1572E+03  0.1507E+03
     -6.822  0.4316E+02  0.2714E+02  0.1676E+03  0.1572E+03
     -6.581  0.1393E+02  0.3317E+02  0.1710E+03  0.1652E+03
     -6.340  0.0000E+00  0.2395E+02  0.1710E+03  0.1710E+03
     -6.098  0.0000E+00  0.2321E-02  0.1710E+03  0.1710E+03
     -5.857  0.0000E+00  0.0000E+00  0.1710E+03  0.1710E+03
     -5.616  0.0000E+00  0.0000E+00  0.1710E+03  0.1710E+03
     -5.375  0.0000E+00  0.0000E+00  0.1710E+03  0.1710E+03
     -5.134  0.0000E+00  0.0000E+00  0.1710E+03  0.1710E+03
     -4.892  0.0000E+00  0.0000E+00  0.1710E+03  0.1710E+03
     -4.651  0.0000E+00  0.0000E+00  0.1710E+03  0.1710E+03
     -4.410  0.0000E+00  0.0000E+00  0.1710E+03  0.1710E+03
     -4.169  0.0000E+00  0.0000E+00  0.1710E+03  0.1710E+03
     -3.927  0.0000E+00  0.0000E+00  0.1710E+03  0.1710E+03
     -3.686  0.0000E+00  0.0000E+00  0.1710E+03  0.1710E+03
     -3.445  0.0000E+00  0.0000E+00  0.1710E+03  0.1710E+03
     -3.204  0.0000E+00  0.0000E+00  0.1710E+03  0.1710E+03
     -2.963  0.0000E+00  0.0000E+00  0.1710E+03  0.1710E+03
     -2.721  0.0000E+00  0.0000E+00  0.1710E+03  0.1710E+03
     -2.480  0.0000E+00  0.0000E+00  0.1710E+03  0.1710E+03
     -2.239  0.2216E-15  0.0000E+00  0.1710E+03  0.1710E+03
     -1.998  0.5257E+00  0.0000E+00  0.1711E+03  0.1710E+03
     -1.757  0.3019E+02  0.0000E+00  0.1784E+03  0.1710E+03
     -1.515  0.1765E+02  0.0000E+00  0.1827E+03  0.1710E+03
     -1.274  0.1588E+02  0.0000E+00  0.1865E+03  0.1710E+03
     -1.033  0.2657E+02  0.0000E+00  0.1929E+03  0.1710E+03
     -0.792  0.5844E+02  0.0000E+00  0.2070E+03  0.1710E+03
     -0.550  0.6215E+02  0.2469E-01  0.2220E+03  0.1710E+03
     -0.309  0.4668E+02  0.1575E+02  0.2333E+03  0.1748E+03
     -0.068  0.8011E+02  0.1727E+02  0.2526E+03  0.1790E+03
      0.173  0.9380E+02  0.1527E+02  0.2752E+03  0.1827E+03
      0.414  0.7911E+02  0.2423E+02  0.2943E+03  0.1885E+03
      0.656  0.7484E+02  0.3744E+02  0.3123E+03  0.1975E+03
      0.897  0.5220E+02  0.4606E+02  0.3249E+03  0.2086E+03
      1.138  0.3564E+02  0.3949E+02  0.3335E+03  0.2182E+03
      1.379  0.4190E+02  0.3053E+02  0.3436E+03  0.2255E+03
      1.620  0.4713E+02  0.2726E+02  0.3550E+03  0.2321E+03
      1.862  0.6376E+02  0.3316E+02  0.3704E+03  0.2401E+03
      2.103  0.7858E+02  0.4024E+02  0.3893E+03  0.2498E+03
      2.344  0.4707E+02  0.2480E+02  0.4007E+03  0.2558E+03
      2.585  0.3608E+02  0.3052E+02  0.4094E+03  0.2632E+03
      2.826  0.5057E+02  0.4417E+02  0.4216E+03  0.2738E+03
      3.068  0.1524E+02  0.4928E+02  0.4253E+03  0.2857E+03
      3.309  0.1441E+02  0.4374E+02  0.4287E+03  0.2962E+03
      3.550  0.3854E+02  0.3367E+02  0.4380E+03  0.3044E+03
      3.791  0.2653E+02  0.7077E+01  0.4444E+03  0.3061E+03
      4.033  0.4081E+02  0.3505E+02  0.4543E+03  0.3145E+03
      4.274  0.3787E+02  0.7627E+02  0.4634E+03  0.3329E+03
      4.515  0.3908E+02  0.3231E+02  0.4728E+03  0.3407E+03
      4.756  0.3266E+02  0.5297E+01  0.4807E+03  0.3420E+03
      4.997  0.2091E+02  0.0000E+00  0.4858E+03  0.3420E+03
      5.239  0.9720E+00  0.0000E+00  0.4860E+03  0.3420E+03
      5.480  0.0000E+00  0.0000E+00  0.4860E+03  0.3420E+03
      5.721  0.0000E+00  0.0000E+00  0.4860E+03  0.3420E+03
      5.962  0.0000E+00  0.0000E+00  0.4860E+03  0.3420E+03
      6.203  0.0000E+00  0.6285E-05  0.4860E+03  0.3420E+03
      6.445  0.0000E+00  0.2048E+01  0.4860E+03  0.3425E+03
      6.686  0.0000E+00  0.5253E+01  0.4860E+03  0.3438E+03
      6.927  0.0000E+00  0.1399E+02  0.4860E+03  0.3471E+03
      7.168  0.2113E-08  0.2769E+02  0.4860E+03  0.3538E+03
      7.410  0.1378E+00  0.6019E+02  0.4860E+03  0.3683E+03
      7.651  0.1594E-01  0.6622E+02  0.4860E+03  0.3843E+03
      7.892  0.6384E+00  0.6422E+02  0.4862E+03  0.3998E+03
      8.133  0.1234E+01  0.7551E+02  0.4865E+03  0.4180E+03
      8.374  0.2792E+01  0.8311E+02  0.4872E+03  0.4381E+03
      8.616  0.5050E+01  0.6614E+02  0.4884E+03  0.4540E+03
      8.857  0.1111E+02  0.6160E+02  0.4911E+03  0.4689E+03
      9.098  0.1444E+02  0.4200E+02  0.4945E+03  0.4790E+03
      9.339  0.1988E+02  0.2592E+02  0.4993E+03  0.4853E+03
      9.580  0.1662E+02  0.6227E+01  0.5033E+03  0.4868E+03
      9.822  0.1790E+02  0.7261E+01  0.5077E+03  0.4885E+03
     10.063  0.2474E+02  0.1176E+02  0.5136E+03  0.4913E+03
     10.304  0.1801E+02  0.2114E+02  0.5180E+03  0.4964E+03
     10.545  0.2027E+02  0.2145E+02  0.5229E+03  0.5016E+03
     10.786  0.1165E+02  0.2282E+02  0.5257E+03  0.5071E+03
     11.028  0.1805E+02  0.2727E+02  0.5300E+03  0.5137E+03
     11.269  0.2505E+02  0.2572E+02  0.5361E+03  0.5199E+03
     11.510  0.3219E+02  0.2078E+02  0.5438E+03  0.5249E+03
     11.751  0.2741E+02  0.1551E+02  0.5505E+03  0.5287E+03
     11.993  0.3395E+02  0.1165E+02  0.5586E+03  0.5315E+03
     12.234  0.3316E+02  0.3085E+02  0.5666E+03  0.5389E+03
     12.475  0.2264E+02  0.4628E+02  0.5721E+03  0.5501E+03
     12.716  0.2008E+02  0.3564E+02  0.5769E+03  0.5587E+03
     12.957  0.2427E+02  0.2615E+02  0.5828E+03  0.5650E+03
     13.199  0.2787E+02  0.2082E+02  0.5895E+03  0.5700E+03
     13.440  0.2811E+02  0.2820E+02  0.5963E+03  0.5768E+03
     13.681  0.2288E+02  0.3121E+02  0.6018E+03  0.5843E+03
     13.922  0.1553E+02  0.2653E+02  0.6056E+03  0.5907E+03
     14.163  0.1806E+01  0.2463E+02  0.6060E+03  0.5967E+03
     14.405  0.0000E+00  0.2258E+02  0.6060E+03  0.6021E+03
     14.646  0.0000E+00  0.1518E+02  0.6060E+03  0.6058E+03
     14.887  0.0000E+00  0.9046E+00  0.6060E+03  0.6060E+03
     15.128  0.0000E+00  0.2172E-05  0.6060E+03  0.6060E+03
     15.370  0.0000E+00  0.0000E+00  0.6060E+03  0.6060E+03
     15.611  0.0000E+00  0.0000E+00  0.6060E+03  0.6060E+03
     15.852  0.0000E+00  0.0000E+00  0.6060E+03  0.6060E+03
     16.093  0.0000E+00  0.0000E+00  0.6060E+03  0.6060E+03
     16.334  0.0000E+00  0.0000E+00  0.6060E+03  0.6060E+03
     16.576  0.0000E+00  0.0000E+00  0.6060E+03  0.6060E+03
     16.817  0.0000E+00  0.0000E+00  0.6060E+03  0.6060E+03
     17.058  0.0000E+00  0.0000E+00  0.6060E+03  0.6060E+03
     17.299  0.0000E+00  0.0000E+00  0.6060E+03  0.6060E+03
     17.540  0.0000E+00  0.0000E+00  0.6060E+03  0.6060E+03
     17.782  0.0000E+00  0.0000E+00  0.6060E+03  0.6060E+03
     18.023  0.0000E+00  0.0000E+00  0.6060E+03  0.6060E+03
