 224 224   0   0
  0.1357572E+02  0.1537960E-08  0.1537962E-08  0.1395899E-08  0.5000000E-15
  1.000000000000000E-004
  CAR 
 unknown system                          
     17.69955743    -54.42389726  301      5.25826150      1.00000000
    -54.424  0.0000E+00  0.0000E+00  0.0000E+00  0.0000E+00
    -54.183  0.0000E+00  0.0000E+00  0.0000E+00  0.0000E+00
    -53.943  0.0000E+00  0.0000E+00  0.0000E+00  0.0000E+00
    -53.703  0.0000E+00  0.0000E+00  0.0000E+00  0.0000E+00
    -53.462  0.0000E+00  0.0000E+00  0.0000E+00  0.0000E+00
    -53.222  0.0000E+00  0.0000E+00  0.0000E+00  0.0000E+00
    -52.981  0.0000E+00  0.0000E+00  0.0000E+00  0.0000E+00
    -52.741  0.0000E+00  0.0000E+00  0.0000E+00  0.0000E+00
    -52.501  0.0000E+00  0.0000E+00  0.0000E+00  0.0000E+00
    -52.260  0.0000E+00  0.0000E+00  0.0000E+00  0.0000E+00
    -52.020  0.0000E+00  0.0000E+00  0.0000E+00  0.0000E+00
    -51.779  0.0000E+00  0.0000E+00  0.0000E+00  0.0000E+00
    -51.539  0.0000E+00  0.0000E+00  0.0000E+00  0.0000E+00
    -51.299  0.1037E-02  0.0000E+00  0.2492E-03  0.0000E+00
    -51.058  0.2635E+03  0.0000E+00  0.6335E+02  0.0000E+00
    -50.818  0.2686E+01  0.0000E+00  0.6400E+02  0.0000E+00
    -50.577  0.0000E+00  0.0000E+00  0.6400E+02  0.0000E+00
    -50.337  0.0000E+00  0.0000E+00  0.6400E+02  0.0000E+00
    -50.096  0.0000E+00  0.0000E+00  0.6400E+02  0.0000E+00
    -49.856  0.7392E-06  0.0000E+00  0.6400E+02  0.0000E+00
    -49.616  0.4266E+03  0.0000E+00  0.1666E+03  0.0000E+00
    -49.375  0.1058E+03  0.0000E+00  0.1920E+03  0.0000E+00
    -49.135  0.0000E+00  0.0000E+00  0.1920E+03  0.0000E+00
    -48.894  0.0000E+00  0.0000E+00  0.1920E+03  0.0000E+00
    -48.654  0.0000E+00  0.0000E+00  0.1920E+03  0.0000E+00
    -48.414  0.0000E+00  0.0000E+00  0.1920E+03  0.0000E+00
    -48.173  0.0000E+00  0.0000E+00  0.1920E+03  0.0000E+00
    -47.933  0.0000E+00  0.0000E+00  0.1920E+03  0.0000E+00
    -47.692  0.0000E+00  0.0000E+00  0.1920E+03  0.0000E+00
    -47.452  0.0000E+00  0.0000E+00  0.1920E+03  0.0000E+00
    -47.212  0.0000E+00  0.0000E+00  0.1920E+03  0.0000E+00
    -46.971  0.0000E+00  0.0000E+00  0.1920E+03  0.0000E+00
    -46.731  0.0000E+00  0.0000E+00  0.1920E+03  0.0000E+00
    -46.490  0.0000E+00  0.5705E+00  0.1920E+03  0.1372E+00
    -46.250  0.0000E+00  0.2656E+03  0.1920E+03  0.6400E+02
    -46.009  0.0000E+00  0.5360E+01  0.1920E+03  0.6529E+02
    -45.769  0.0000E+00  0.5271E+03  0.1920E+03  0.1920E+03
    -45.529  0.0000E+00  0.1919E-02  0.1920E+03  0.1920E+03
    -45.288  0.0000E+00  0.0000E+00  0.1920E+03  0.1920E+03
    -45.048  0.0000E+00  0.0000E+00  0.1920E+03  0.1920E+03
    -44.807  0.0000E+00  0.0000E+00  0.1920E+03  0.1920E+03
    -44.567  0.0000E+00  0.0000E+00  0.1920E+03  0.1920E+03
    -44.327  0.0000E+00  0.0000E+00  0.1920E+03  0.1920E+03
    -44.086  0.0000E+00  0.0000E+00  0.1920E+03  0.1920E+03
    -43.846  0.0000E+00  0.0000E+00  0.1920E+03  0.1920E+03
    -43.605  0.0000E+00  0.0000E+00  0.1920E+03  0.1920E+03
    -43.365  0.0000E+00  0.0000E+00  0.1920E+03  0.1920E+03
    -43.125  0.0000E+00  0.0000E+00  0.1920E+03  0.1920E+03
    -42.884  0.0000E+00  0.0000E+00  0.1920E+03  0.1920E+03
    -42.644  0.0000E+00  0.0000E+00  0.1920E+03  0.1920E+03
    -42.403  0.0000E+00  0.0000E+00  0.1920E+03  0.1920E+03
    -42.163  0.0000E+00  0.0000E+00  0.1920E+03  0.1920E+03
    -41.922  0.0000E+00  0.0000E+00  0.1920E+03  0.1920E+03
    -41.682  0.0000E+00  0.0000E+00  0.1920E+03  0.1920E+03
    -41.442  0.0000E+00  0.0000E+00  0.1920E+03  0.1920E+03
    -41.201  0.0000E+00  0.0000E+00  0.1920E+03  0.1920E+03
    -40.961  0.0000E+00  0.0000E+00  0.1920E+03  0.1920E+03
    -40.720  0.0000E+00  0.0000E+00  0.1920E+03  0.1920E+03
    -40.480  0.0000E+00  0.0000E+00  0.1920E+03  0.1920E+03
    -40.240  0.0000E+00  0.0000E+00  0.1920E+03  0.1920E+03
    -39.999  0.0000E+00  0.0000E+00  0.1920E+03  0.1920E+03
    -39.759  0.1682E-01  0.1531E-01  0.1920E+03  0.1920E+03
    -39.518  0.2650E+03  0.2649E+03  0.2557E+03  0.2557E+03
    -39.278  0.1180E+01  0.1250E+01  0.2560E+03  0.2560E+03
    -39.038  0.0000E+00  0.0000E+00  0.2560E+03  0.2560E+03
    -38.797  0.0000E+00  0.0000E+00  0.2560E+03  0.2560E+03
    -38.557  0.0000E+00  0.0000E+00  0.2560E+03  0.2560E+03
    -38.316  0.0000E+00  0.0000E+00  0.2560E+03  0.2560E+03
    -38.076  0.0000E+00  0.0000E+00  0.2560E+03  0.2560E+03
    -37.836  0.0000E+00  0.0000E+00  0.2560E+03  0.2560E+03
    -37.595  0.0000E+00  0.0000E+00  0.2560E+03  0.2560E+03
    -37.355  0.0000E+00  0.0000E+00  0.2560E+03  0.2560E+03
    -37.114  0.0000E+00  0.0000E+00  0.2560E+03  0.2560E+03
    -36.874  0.0000E+00  0.0000E+00  0.2560E+03  0.2560E+03
    -36.633  0.0000E+00  0.0000E+00  0.2560E+03  0.2560E+03
    -36.393  0.0000E+00  0.0000E+00  0.2560E+03  0.2560E+03
    -36.153  0.0000E+00  0.0000E+00  0.2560E+03  0.2560E+03
    -35.912  0.0000E+00  0.0000E+00  0.2560E+03  0.2560E+03
    -35.672  0.0000E+00  0.0000E+00  0.2560E+03  0.2560E+03
    -35.431  0.0000E+00  0.0000E+00  0.2560E+03  0.2560E+03
    -35.191  0.0000E+00  0.0000E+00  0.2560E+03  0.2560E+03
    -34.951  0.0000E+00  0.0000E+00  0.2560E+03  0.2560E+03
    -34.710  0.0000E+00  0.0000E+00  0.2560E+03  0.2560E+03
    -34.470  0.0000E+00  0.0000E+00  0.2560E+03  0.2560E+03
    -34.229  0.0000E+00  0.0000E+00  0.2560E+03  0.2560E+03
    -33.989  0.0000E+00  0.0000E+00  0.2560E+03  0.2560E+03
    -33.749  0.0000E+00  0.0000E+00  0.2560E+03  0.2560E+03
    -33.508  0.0000E+00  0.0000E+00  0.2560E+03  0.2560E+03
    -33.268  0.0000E+00  0.0000E+00  0.2560E+03  0.2560E+03
    -33.027  0.0000E+00  0.0000E+00  0.2560E+03  0.2560E+03
    -32.787  0.0000E+00  0.0000E+00  0.2560E+03  0.2560E+03
    -32.546  0.0000E+00  0.0000E+00  0.2560E+03  0.2560E+03
    -32.306  0.0000E+00  0.0000E+00  0.2560E+03  0.2560E+03
    -32.066  0.0000E+00  0.0000E+00  0.2560E+03  0.2560E+03
    -31.825  0.0000E+00  0.0000E+00  0.2560E+03  0.2560E+03
    -31.585  0.0000E+00  0.0000E+00  0.2560E+03  0.2560E+03
    -31.344  0.0000E+00  0.0000E+00  0.2560E+03  0.2560E+03
    -31.104  0.0000E+00  0.0000E+00  0.2560E+03  0.2560E+03
    -30.864  0.0000E+00  0.0000E+00  0.2560E+03  0.2560E+03
    -30.623  0.0000E+00  0.0000E+00  0.2560E+03  0.2560E+03
    -30.383  0.0000E+00  0.0000E+00  0.2560E+03  0.2560E+03
    -30.142  0.0000E+00  0.0000E+00  0.2560E+03  0.2560E+03
    -29.902  0.0000E+00  0.0000E+00  0.2560E+03  0.2560E+03
    -29.662  0.0000E+00  0.0000E+00  0.2560E+03  0.2560E+03
    -29.421  0.0000E+00  0.0000E+00  0.2560E+03  0.2560E+03
    -29.181  0.0000E+00  0.0000E+00  0.2560E+03  0.2560E+03
    -28.940  0.0000E+00  0.0000E+00  0.2560E+03  0.2560E+03
    -28.700  0.0000E+00  0.0000E+00  0.2560E+03  0.2560E+03
    -28.459  0.0000E+00  0.0000E+00  0.2560E+03  0.2560E+03
    -28.219  0.0000E+00  0.0000E+00  0.2560E+03  0.2560E+03
    -27.979  0.0000E+00  0.0000E+00  0.2560E+03  0.2560E+03
    -27.738  0.0000E+00  0.0000E+00  0.2560E+03  0.2560E+03
    -27.498  0.0000E+00  0.0000E+00  0.2560E+03  0.2560E+03
    -27.257  0.0000E+00  0.0000E+00  0.2560E+03  0.2560E+03
    -27.017  0.0000E+00  0.0000E+00  0.2560E+03  0.2560E+03
    -26.777  0.0000E+00  0.0000E+00  0.2560E+03  0.2560E+03
    -26.536  0.0000E+00  0.0000E+00  0.2560E+03  0.2560E+03
    -26.296  0.0000E+00  0.0000E+00  0.2560E+03  0.2560E+03
    -26.055  0.0000E+00  0.0000E+00  0.2560E+03  0.2560E+03
    -25.815  0.0000E+00  0.0000E+00  0.2560E+03  0.2560E+03
    -25.575  0.0000E+00  0.0000E+00  0.2560E+03  0.2560E+03
    -25.334  0.0000E+00  0.0000E+00  0.2560E+03  0.2560E+03
    -25.094  0.0000E+00  0.0000E+00  0.2560E+03  0.2560E+03
    -24.853  0.0000E+00  0.0000E+00  0.2560E+03  0.2560E+03
    -24.613  0.0000E+00  0.0000E+00  0.2560E+03  0.2560E+03
    -24.372  0.0000E+00  0.0000E+00  0.2560E+03  0.2560E+03
    -24.132  0.0000E+00  0.0000E+00  0.2560E+03  0.2560E+03
    -23.892  0.0000E+00  0.0000E+00  0.2560E+03  0.2560E+03
    -23.651  0.0000E+00  0.0000E+00  0.2560E+03  0.2560E+03
    -23.411  0.0000E+00  0.0000E+00  0.2560E+03  0.2560E+03
    -23.170  0.0000E+00  0.0000E+00  0.2560E+03  0.2560E+03
    -22.930  0.0000E+00  0.0000E+00  0.2560E+03  0.2560E+03
    -22.690  0.0000E+00  0.0000E+00  0.2560E+03  0.2560E+03
    -22.449  0.0000E+00  0.0000E+00  0.2560E+03  0.2560E+03
    -22.209  0.0000E+00  0.0000E+00  0.2560E+03  0.2560E+03
    -21.968  0.0000E+00  0.0000E+00  0.2560E+03  0.2560E+03
    -21.728  0.0000E+00  0.0000E+00  0.2560E+03  0.2560E+03
    -21.488  0.0000E+00  0.0000E+00  0.2560E+03  0.2560E+03
    -21.247  0.0000E+00  0.0000E+00  0.2560E+03  0.2560E+03
    -21.007  0.0000E+00  0.0000E+00  0.2560E+03  0.2560E+03
    -20.766  0.0000E+00  0.0000E+00  0.2560E+03  0.2560E+03
    -20.526  0.0000E+00  0.0000E+00  0.2560E+03  0.2560E+03
    -20.285  0.0000E+00  0.0000E+00  0.2560E+03  0.2560E+03
    -20.045  0.0000E+00  0.0000E+00  0.2560E+03  0.2560E+03
    -19.805  0.0000E+00  0.0000E+00  0.2560E+03  0.2560E+03
    -19.564  0.0000E+00  0.0000E+00  0.2560E+03  0.2560E+03
    -19.324  0.0000E+00  0.0000E+00  0.2560E+03  0.2560E+03
    -19.083  0.0000E+00  0.0000E+00  0.2560E+03  0.2560E+03
    -18.843  0.0000E+00  0.0000E+00  0.2560E+03  0.2560E+03
    -18.603  0.0000E+00  0.0000E+00  0.2560E+03  0.2560E+03
    -18.362  0.0000E+00  0.0000E+00  0.2560E+03  0.2560E+03
    -18.122  0.0000E+00  0.0000E+00  0.2560E+03  0.2560E+03
    -17.881  0.0000E+00  0.0000E+00  0.2560E+03  0.2560E+03
    -17.641  0.0000E+00  0.0000E+00  0.2560E+03  0.2560E+03
    -17.401  0.0000E+00  0.0000E+00  0.2560E+03  0.2560E+03
    -17.160  0.0000E+00  0.0000E+00  0.2560E+03  0.2560E+03
    -16.920  0.0000E+00  0.0000E+00  0.2560E+03  0.2560E+03
    -16.679  0.0000E+00  0.0000E+00  0.2560E+03  0.2560E+03
    -16.439  0.0000E+00  0.0000E+00  0.2560E+03  0.2560E+03
    -16.198  0.0000E+00  0.0000E+00  0.2560E+03  0.2560E+03
    -15.958  0.0000E+00  0.0000E+00  0.2560E+03  0.2560E+03
    -15.718  0.0000E+00  0.0000E+00  0.2560E+03  0.2560E+03
    -15.477  0.0000E+00  0.0000E+00  0.2560E+03  0.2560E+03
    -15.237  0.0000E+00  0.0000E+00  0.2560E+03  0.2560E+03
    -14.996  0.0000E+00  0.0000E+00  0.2560E+03  0.2560E+03
    -14.756  0.0000E+00  0.0000E+00  0.2560E+03  0.2560E+03
    -14.516  0.0000E+00  0.0000E+00  0.2560E+03  0.2560E+03
    -14.275  0.0000E+00  0.0000E+00  0.2560E+03  0.2560E+03
    -14.035  0.0000E+00  0.0000E+00  0.2560E+03  0.2560E+03
    -13.794  0.0000E+00  0.0000E+00  0.2560E+03  0.2560E+03
    -13.554  0.0000E+00  0.0000E+00  0.2560E+03  0.2560E+03
    -13.314  0.0000E+00  0.0000E+00  0.2560E+03  0.2560E+03
    -13.073  0.0000E+00  0.0000E+00  0.2560E+03  0.2560E+03
    -12.833  0.8015E-01  0.0000E+00  0.2560E+03  0.2560E+03
    -12.592  0.1320E+03  0.1583E-02  0.2878E+03  0.2560E+03
    -12.352  0.1013E+01  0.1238E+03  0.2880E+03  0.2858E+03
    -12.111  0.0000E+00  0.9285E+01  0.2880E+03  0.2880E+03
    -11.871  0.0000E+00  0.0000E+00  0.2880E+03  0.2880E+03
    -11.631  0.0000E+00  0.0000E+00  0.2880E+03  0.2880E+03
    -11.390  0.0000E+00  0.0000E+00  0.2880E+03  0.2880E+03
    -11.150  0.0000E+00  0.0000E+00  0.2880E+03  0.2880E+03
    -10.909  0.0000E+00  0.0000E+00  0.2880E+03  0.2880E+03
    -10.669  0.0000E+00  0.0000E+00  0.2880E+03  0.2880E+03
    -10.429  0.0000E+00  0.0000E+00  0.2880E+03  0.2880E+03
    -10.188  0.0000E+00  0.0000E+00  0.2880E+03  0.2880E+03
     -9.948  0.0000E+00  0.0000E+00  0.2880E+03  0.2880E+03
     -9.707  0.0000E+00  0.0000E+00  0.2880E+03  0.2880E+03
     -9.467  0.0000E+00  0.0000E+00  0.2880E+03  0.2880E+03
     -9.227  0.0000E+00  0.0000E+00  0.2880E+03  0.2880E+03
     -8.986  0.0000E+00  0.0000E+00  0.2880E+03  0.2880E+03
     -8.746  0.0000E+00  0.0000E+00  0.2880E+03  0.2880E+03
     -8.505  0.0000E+00  0.0000E+00  0.2880E+03  0.2880E+03
     -8.265  0.0000E+00  0.0000E+00  0.2880E+03  0.2880E+03
     -8.024  0.5733E-10  0.0000E+00  0.2880E+03  0.2880E+03
     -7.784  0.9510E+00  0.4510E-07  0.2882E+03  0.2880E+03
     -7.544  0.1881E+02  0.2902E+01  0.2928E+03  0.2887E+03
     -7.303  0.2822E+02  0.2241E+02  0.2995E+03  0.2941E+03
     -7.063  0.5395E+02  0.3109E+02  0.3125E+03  0.3016E+03
     -6.822  0.1469E+03  0.4891E+02  0.3478E+03  0.3133E+03
     -6.582  0.1737E+02  0.1390E+03  0.3520E+03  0.3467E+03
     -6.342  0.0000E+00  0.2194E+02  0.3520E+03  0.3520E+03
     -6.101  0.0000E+00  0.1041E-04  0.3520E+03  0.3520E+03
     -5.861  0.0000E+00  0.0000E+00  0.3520E+03  0.3520E+03
     -5.620  0.0000E+00  0.0000E+00  0.3520E+03  0.3520E+03
     -5.380  0.0000E+00  0.0000E+00  0.3520E+03  0.3520E+03
     -5.140  0.0000E+00  0.0000E+00  0.3520E+03  0.3520E+03
     -4.899  0.0000E+00  0.0000E+00  0.3520E+03  0.3520E+03
     -4.659  0.0000E+00  0.0000E+00  0.3520E+03  0.3520E+03
     -4.418  0.0000E+00  0.0000E+00  0.3520E+03  0.3520E+03
     -4.178  0.0000E+00  0.0000E+00  0.3520E+03  0.3520E+03
     -3.937  0.0000E+00  0.0000E+00  0.3520E+03  0.3520E+03
     -3.697  0.0000E+00  0.0000E+00  0.3520E+03  0.3520E+03
     -3.457  0.0000E+00  0.0000E+00  0.3520E+03  0.3520E+03
     -3.216  0.0000E+00  0.0000E+00  0.3520E+03  0.3520E+03
     -2.976  0.0000E+00  0.0000E+00  0.3520E+03  0.3520E+03
     -2.735  0.0000E+00  0.0000E+00  0.3520E+03  0.3520E+03
     -2.495  0.0000E+00  0.0000E+00  0.3520E+03  0.3520E+03
     -2.255  0.0000E+00  0.0000E+00  0.3520E+03  0.3520E+03
     -2.014  0.0000E+00  0.0000E+00  0.3520E+03  0.3520E+03
     -1.774  0.6164E-12  0.0000E+00  0.3520E+03  0.3520E+03
     -1.533  0.1308E+01  0.0000E+00  0.3523E+03  0.3520E+03
     -1.293  0.1004E+03  0.0000E+00  0.3765E+03  0.3520E+03
     -1.053  0.3135E+02  0.0000E+00  0.3840E+03  0.3520E+03
     -0.812  0.1262E+02  0.0000E+00  0.3870E+03  0.3520E+03
     -0.572  0.8987E+02  0.9082E-05  0.4086E+03  0.3520E+03
     -0.331  0.2245E+03  0.4151E+01  0.4626E+03  0.3530E+03
     -0.091  0.2014E+03  0.2462E+02  0.5110E+03  0.3589E+03
      0.150  0.1766E+03  0.4118E+02  0.5535E+03  0.3688E+03
      0.390  0.1516E+03  0.4250E+02  0.5899E+03  0.3790E+03
      0.630  0.1194E+03  0.7210E+02  0.6186E+03  0.3964E+03
      0.871  0.5420E+02  0.6021E+02  0.6317E+03  0.4108E+03
      1.111  0.7004E+02  0.6555E+02  0.6485E+03  0.4266E+03
      1.352  0.7320E+02  0.6778E+02  0.6661E+03  0.4429E+03
      1.592  0.6803E+02  0.7757E+02  0.6824E+03  0.4615E+03
      1.832  0.1111E+03  0.1112E+03  0.7092E+03  0.4883E+03
      2.073  0.2134E+03  0.6158E+02  0.7605E+03  0.5031E+03
      2.313  0.1396E+03  0.3802E+02  0.7940E+03  0.5122E+03
      2.554  0.8438E+02  0.7766E+02  0.8143E+03  0.5309E+03
      2.794  0.6856E+02  0.1040E+03  0.8308E+03  0.5559E+03
      3.034  0.3518E+02  0.7076E+02  0.8393E+03  0.5729E+03
      3.275  0.4057E+02  0.1315E+03  0.8490E+03  0.6045E+03
      3.515  0.5189E+02  0.1167E+03  0.8615E+03  0.6326E+03
      3.756  0.6737E+02  0.2512E+02  0.8777E+03  0.6386E+03
      3.996  0.8008E+02  0.4424E+02  0.8969E+03  0.6493E+03
      4.237  0.8000E+02  0.1787E+03  0.9162E+03  0.6922E+03
      4.477  0.7559E+02  0.4730E+02  0.9343E+03  0.7036E+03
      4.717  0.2867E+02  0.1623E+01  0.9412E+03  0.7040E+03
      4.958  0.6450E+02  0.0000E+00  0.9567E+03  0.7040E+03
      5.198  0.1352E+02  0.0000E+00  0.9600E+03  0.7040E+03
      5.439  0.0000E+00  0.0000E+00  0.9600E+03  0.7040E+03
      5.679  0.0000E+00  0.0000E+00  0.9600E+03  0.7040E+03
      5.919  0.0000E+00  0.0000E+00  0.9600E+03  0.7040E+03
      6.160  0.0000E+00  0.1081E-06  0.9600E+03  0.7040E+03
      6.400  0.0000E+00  0.1041E+01  0.9600E+03  0.7043E+03
      6.641  0.0000E+00  0.1018E+02  0.9600E+03  0.7067E+03
      6.881  0.0000E+00  0.2674E+02  0.9600E+03  0.7131E+03
      7.121  0.5773E-16  0.6610E+02  0.9600E+03  0.7290E+03
      7.362  0.6345E-01  0.1115E+03  0.9600E+03  0.7558E+03
      7.602  0.1496E+01  0.1393E+03  0.9604E+03  0.7893E+03
      7.843  0.5219E+01  0.1181E+03  0.9616E+03  0.8177E+03
      8.083  0.7088E+01  0.1789E+03  0.9633E+03  0.8607E+03
      8.324  0.9289E+01  0.1451E+03  0.9656E+03  0.8956E+03
      8.564  0.1253E+02  0.6234E+02  0.9686E+03  0.9106E+03
      8.804  0.1464E+02  0.8245E+02  0.9721E+03  0.9304E+03
      9.045  0.2709E+02  0.7275E+02  0.9786E+03  0.9479E+03
      9.285  0.3351E+02  0.5731E+02  0.9867E+03  0.9617E+03
      9.526  0.3565E+02  0.2298E+02  0.9952E+03  0.9672E+03
      9.766  0.5296E+02  0.3405E+02  0.1008E+04  0.9754E+03
     10.006  0.5119E+02  0.2269E+02  0.1020E+04  0.9809E+03
     10.247  0.3366E+02  0.3894E+02  0.1028E+04  0.9902E+03
     10.487  0.2163E+02  0.4321E+02  0.1034E+04  0.1001E+04
     10.728  0.4558E+02  0.6134E+02  0.1045E+04  0.1015E+04
     10.968  0.3308E+02  0.4332E+02  0.1052E+04  0.1026E+04
     11.208  0.4381E+02  0.4014E+02  0.1063E+04  0.1035E+04
     11.449  0.7802E+02  0.3460E+02  0.1082E+04  0.1044E+04
     11.689  0.4266E+02  0.4373E+02  0.1092E+04  0.1054E+04
     11.930  0.6454E+02  0.5218E+02  0.1108E+04  0.1067E+04
     12.170  0.6676E+02  0.5727E+02  0.1124E+04  0.1081E+04
     12.411  0.6920E+02  0.5323E+02  0.1140E+04  0.1093E+04
     12.651  0.6100E+02  0.6708E+02  0.1155E+04  0.1110E+04
     12.891  0.5273E+02  0.7974E+02  0.1168E+04  0.1129E+04
     13.132  0.5841E+02  0.6439E+02  0.1182E+04  0.1144E+04
     13.372  0.4847E+02  0.6644E+02  0.1193E+04  0.1160E+04
     13.613  0.4011E+02  0.6455E+02  0.1203E+04  0.1176E+04
     13.853  0.1868E+02  0.5720E+02  0.1207E+04  0.1189E+04
     14.093  0.2481E+01  0.5299E+02  0.1208E+04  0.1202E+04
     14.334  0.0000E+00  0.2130E+02  0.1208E+04  0.1207E+04
     14.574  0.0000E+00  0.3046E+01  0.1208E+04  0.1208E+04
     14.815  0.0000E+00  0.3926E-05  0.1208E+04  0.1208E+04
     15.055  0.0000E+00  0.0000E+00  0.1208E+04  0.1208E+04
     15.295  0.0000E+00  0.0000E+00  0.1208E+04  0.1208E+04
     15.536  0.0000E+00  0.0000E+00  0.1208E+04  0.1208E+04
     15.776  0.0000E+00  0.0000E+00  0.1208E+04  0.1208E+04
     16.017  0.0000E+00  0.0000E+00  0.1208E+04  0.1208E+04
     16.257  0.0000E+00  0.0000E+00  0.1208E+04  0.1208E+04
     16.497  0.0000E+00  0.0000E+00  0.1208E+04  0.1208E+04
     16.738  0.0000E+00  0.0000E+00  0.1208E+04  0.1208E+04
     16.978  0.0000E+00  0.0000E+00  0.1208E+04  0.1208E+04
     17.219  0.0000E+00  0.0000E+00  0.1208E+04  0.1208E+04
     17.459  0.0000E+00  0.0000E+00  0.1208E+04  0.1208E+04
     17.700  0.0000E+00  0.0000E+00  0.1208E+04  0.1208E+04
