  224  224    1    2
  0.1357572E+02  0.1537960E-08  0.1537962E-08  0.1395899E-08  0.5000000E-15
  1.000000000000000E-004
  CAR 
 unknown system                          
   1664      8   1208
 
  0.0000000E+00  0.0000000E+00  0.0000000E+00  0.1250000E+00
    1      -51.145554    -46.394341   1.000000   1.000000
    2      -51.145462    -46.394165   1.000000   1.000000
    3      -51.141935    -46.391290   1.000000   1.000000
    4      -51.141743    -46.390945   1.000000   1.000000
    5      -51.141609    -46.390846   1.000000   1.000000
    6      -51.141566    -46.390801   1.000000   1.000000
    7      -51.141470    -46.390550   1.000000   1.000000
    8      -51.141330    -46.390467   1.000000   1.000000
    9      -51.141291    -46.390423   1.000000   1.000000
   10      -51.141189    -46.390413   1.000000   1.000000
   11      -51.141156    -46.390339   1.000000   1.000000
   12      -51.141133    -46.390228   1.000000   1.000000
   13      -51.141091    -46.390127   1.000000   1.000000
   14      -51.141042    -46.390095   1.000000   1.000000
   15      -51.140991    -46.390043   1.000000   1.000000
   16      -51.140892    -46.390023   1.000000   1.000000
   17      -51.140877    -46.389983   1.000000   1.000000
   18      -51.140842    -46.389958   1.000000   1.000000
   19      -51.140781    -46.389869   1.000000   1.000000
   20      -51.140766    -46.389792   1.000000   1.000000
   21      -51.140749    -46.389722   1.000000   1.000000
   22      -51.140677    -46.389686   1.000000   1.000000
   23      -51.140628    -46.389583   1.000000   1.000000
   24      -51.140541    -46.389567   1.000000   1.000000
   25      -51.140521    -46.389530   1.000000   1.000000
   26      -51.140512    -46.389505   1.000000   1.000000
   27      -51.140480    -46.389440   1.000000   1.000000
   28      -51.140454    -46.389436   1.000000   1.000000
   29      -51.140436    -46.389345   1.000000   1.000000
   30      -51.140409    -46.389295   1.000000   1.000000
   31      -51.140350    -46.389259   1.000000   1.000000
   32      -51.140327    -46.389248   1.000000   1.000000
   33      -51.140291    -46.389198   1.000000   1.000000
   34      -51.140277    -46.389166   1.000000   1.000000
   35      -51.140226    -46.389113   1.000000   1.000000
   36      -51.140201    -46.389074   1.000000   1.000000
   37      -51.140189    -46.389016   1.000000   1.000000
   38      -51.140149    -46.388937   1.000000   1.000000
   39      -51.140146    -46.388900   1.000000   1.000000
   40      -51.140105    -46.388867   1.000000   1.000000
   41      -51.140100    -46.388839   1.000000   1.000000
   42      -51.140054    -46.388828   1.000000   1.000000
   43      -51.139979    -46.388759   1.000000   1.000000
   44      -51.139931    -46.388678   1.000000   1.000000
   45      -51.139920    -46.388659   1.000000   1.000000
   46      -51.139888    -46.388614   1.000000   1.000000
   47      -51.139843    -46.388563   1.000000   1.000000
   48      -51.139798    -46.388539   1.000000   1.000000
   49      -51.139773    -46.388487   1.000000   1.000000
   50      -51.139690    -46.388413   1.000000   1.000000
   51      -51.139674    -46.388360   1.000000   1.000000
   52      -51.139652    -46.388336   1.000000   1.000000
   53      -51.139585    -46.388284   1.000000   1.000000
   54      -51.139562    -46.388219   1.000000   1.000000
   55      -51.139491    -46.388139   1.000000   1.000000
   56      -51.139435    -46.388049   1.000000   1.000000
   57      -51.139364    -46.388000   1.000000   1.000000
   58      -51.139183    -46.387886   1.000000   1.000000
   59      -51.139097    -46.387726   1.000000   1.000000
   60      -51.139011    -46.387679   1.000000   1.000000
   61      -51.138891    -46.387597   1.000000   1.000000
   62      -51.138771    -46.387327   1.000000   1.000000
   63      -51.135211    -46.384300   1.000000   1.000000
   64      -51.135183    -46.384238   1.000000   1.000000
   65      -49.652697    -45.933291   1.000000   1.000000
   66      -49.652111    -45.932931   1.000000   1.000000
   67      -49.649969    -45.931929   1.000000   1.000000
   68      -49.649169    -45.931562   1.000000   1.000000
   69      -49.648123    -45.929430   1.000000   1.000000
   70      -49.647941    -45.929334   1.000000   1.000000
   71      -49.647828    -45.929290   1.000000   1.000000
   72      -49.647721    -45.929244   1.000000   1.000000
   73      -49.647608    -45.928949   1.000000   1.000000
   74      -49.647577    -45.928934   1.000000   1.000000
   75      -49.647486    -45.928894   1.000000   1.000000
   76      -49.647475    -45.928830   1.000000   1.000000
   77      -49.647442    -45.928758   1.000000   1.000000
   78      -49.647406    -45.928752   1.000000   1.000000
   79      -49.647381    -45.928710   1.000000   1.000000
   80      -49.647366    -45.928688   1.000000   1.000000
   81      -49.647358    -45.928665   1.000000   1.000000
   82      -49.647319    -45.928648   1.000000   1.000000
   83      -49.647291    -45.928600   1.000000   1.000000
   84      -49.647281    -45.928543   1.000000   1.000000
   85      -49.647157    -45.928528   1.000000   1.000000
   86      -49.647147    -45.928502   1.000000   1.000000
   87      -49.647128    -45.928425   1.000000   1.000000
   88      -49.647080    -45.928406   1.000000   1.000000
   89      -49.647049    -45.928398   1.000000   1.000000
   90      -49.647040    -45.928378   1.000000   1.000000
   91      -49.647008    -45.928291   1.000000   1.000000
   92      -49.646999    -45.928243   1.000000   1.000000
   93      -49.646896    -45.928227   1.000000   1.000000
   94      -49.646880    -45.928199   1.000000   1.000000
   95      -49.646809    -45.928179   1.000000   1.000000
   96      -49.646768    -45.928162   1.000000   1.000000
   97      -49.646715    -45.928124   1.000000   1.000000
   98      -49.646677    -45.928071   1.000000   1.000000
   99      -49.646664    -45.928049   1.000000   1.000000
  100      -49.646630    -45.928024   1.000000   1.000000
  101      -49.646570    -45.927992   1.000000   1.000000
  102      -49.646485    -45.927975   1.000000   1.000000
  103      -49.646424    -45.927957   1.000000   1.000000
  104      -49.646410    -45.927909   1.000000   1.000000
  105      -49.646359    -45.927898   1.000000   1.000000
  106      -49.646331    -45.927875   1.000000   1.000000
  107      -49.646277    -45.927863   1.000000   1.000000
  108      -49.646256    -45.927827   1.000000   1.000000
  109      -49.646206    -45.927706   1.000000   1.000000
  110      -49.646195    -45.927693   1.000000   1.000000
  111      -49.646118    -45.927676   1.000000   1.000000
  112      -49.646068    -45.927652   1.000000   1.000000
  113      -49.646055    -45.927647   1.000000   1.000000
  114      -49.646033    -45.927522   1.000000   1.000000
  115      -49.646002    -45.927475   1.000000   1.000000
  116      -49.645975    -45.927444   1.000000   1.000000
  117      -49.645944    -45.927429   1.000000   1.000000
  118      -49.645923    -45.927405   1.000000   1.000000
  119      -49.645908    -45.927378   1.000000   1.000000
  120      -49.645857    -45.927354   1.000000   1.000000
  121      -49.645841    -45.927329   1.000000   1.000000
  122      -49.645788    -45.927293   1.000000   1.000000
  123      -49.645697    -45.927251   1.000000   1.000000
  124      -49.645691    -45.927213   1.000000   1.000000
  125      -49.645688    -45.927193   1.000000   1.000000
  126      -49.645632    -45.927181   1.000000   1.000000
  127      -49.645619    -45.927153   1.000000   1.000000
  128      -49.645597    -45.927149   1.000000   1.000000
  129      -49.645548    -45.927114   1.000000   1.000000
  130      -49.645502    -45.927075   1.000000   1.000000
  131      -49.645484    -45.927058   1.000000   1.000000
  132      -49.645421    -45.927033   1.000000   1.000000
  133      -49.645395    -45.927023   1.000000   1.000000
  134      -49.645372    -45.927016   1.000000   1.000000
  135      -49.645311    -45.926975   1.000000   1.000000
  136      -49.645306    -45.926964   1.000000   1.000000
  137      -49.645304    -45.926934   1.000000   1.000000
  138      -49.645266    -45.926925   1.000000   1.000000
  139      -49.645231    -45.926890   1.000000   1.000000
  140      -49.645205    -45.926865   1.000000   1.000000
  141      -49.645182    -45.926844   1.000000   1.000000
  142      -49.645158    -45.926817   1.000000   1.000000
  143      -49.645147    -45.926782   1.000000   1.000000
  144      -49.645134    -45.926768   1.000000   1.000000
  145      -49.645115    -45.926728   1.000000   1.000000
  146      -49.645108    -45.926720   1.000000   1.000000
  147      -49.645051    -45.926670   1.000000   1.000000
  148      -49.645015    -45.926662   1.000000   1.000000
  149      -49.644994    -45.926616   1.000000   1.000000
  150      -49.644953    -45.926586   1.000000   1.000000
  151      -49.644934    -45.926569   1.000000   1.000000
  152      -49.644923    -45.926552   1.000000   1.000000
  153      -49.644864    -45.926539   1.000000   1.000000
  154      -49.644808    -45.926507   1.000000   1.000000
  155      -49.644787    -45.926484   1.000000   1.000000
  156      -49.644728    -45.926481   1.000000   1.000000
  157      -49.644705    -45.926430   1.000000   1.000000
  158      -49.644696    -45.926413   1.000000   1.000000
  159      -49.644655    -45.926394   1.000000   1.000000
  160      -49.644614    -45.926380   1.000000   1.000000
  161      -49.644542    -45.926375   1.000000   1.000000
  162      -49.644530    -45.926366   1.000000   1.000000
  163      -49.644519    -45.926315   1.000000   1.000000
  164      -49.644453    -45.926268   1.000000   1.000000
  165      -49.644415    -45.926226   1.000000   1.000000
  166      -49.644403    -45.926179   1.000000   1.000000
  167      -49.644330    -45.926131   1.000000   1.000000
  168      -49.644311    -45.926114   1.000000   1.000000
  169      -49.644300    -45.926102   1.000000   1.000000
  170      -49.644241    -45.926073   1.000000   1.000000
  171      -49.644202    -45.926067   1.000000   1.000000
  172      -49.644171    -45.925997   1.000000   1.000000
  173      -49.644167    -45.925962   1.000000   1.000000
  174      -49.644113    -45.925930   1.000000   1.000000
  175      -49.644084    -45.925897   1.000000   1.000000
  176      -49.644020    -45.925859   1.000000   1.000000
  177      -49.644005    -45.925854   1.000000   1.000000
  178      -49.643908    -45.925810   1.000000   1.000000
  179      -49.643883    -45.925741   1.000000   1.000000
  180      -49.643872    -45.925731   1.000000   1.000000
  181      -49.643741    -45.925564   1.000000   1.000000
  182      -49.643707    -45.925518   1.000000   1.000000
  183      -49.643605    -45.925423   1.000000   1.000000
  184      -49.643533    -45.925385   1.000000   1.000000
  185      -49.643493    -45.925359   1.000000   1.000000
  186      -49.643466    -45.925251   1.000000   1.000000
  187      -49.642974    -45.925221   1.000000   1.000000
  188      -49.642930    -45.925139   1.000000   1.000000
  189      -49.641414    -45.922961   1.000000   1.000000
  190      -49.641034    -45.922422   1.000000   1.000000
  191      -49.639693    -45.921589   1.000000   1.000000
  192      -49.639167    -45.921282   1.000000   1.000000
  193      -39.641164    -39.640247   1.000000   1.000000
  194      -39.641074    -39.640157   1.000000   1.000000
  195      -39.634077    -39.633206   1.000000   1.000000
  196      -39.633617    -39.632745   1.000000   1.000000
  197      -39.633480    -39.632607   1.000000   1.000000
  198      -39.633438    -39.632566   1.000000   1.000000
  199      -39.633420    -39.632547   1.000000   1.000000
  200      -39.633406    -39.632533   1.000000   1.000000
  201      -39.633194    -39.632321   1.000000   1.000000
  202      -39.632882    -39.632009   1.000000   1.000000
  203      -39.628082    -39.627245   1.000000   1.000000
  204      -39.627885    -39.627048   1.000000   1.000000
  205      -39.627866    -39.627028   1.000000   1.000000
  206      -39.627788    -39.626950   1.000000   1.000000
  207      -39.627728    -39.626889   1.000000   1.000000
  208      -39.627631    -39.626792   1.000000   1.000000
  209      -39.627613    -39.626775   1.000000   1.000000
  210      -39.627416    -39.626577   1.000000   1.000000
  211      -39.616926    -39.616156   1.000000   1.000000
  212      -39.616181    -39.615406   1.000000   1.000000
  213      -39.616161    -39.615387   1.000000   1.000000
  214      -39.616096    -39.615320   1.000000   1.000000
  215      -39.616039    -39.615262   1.000000   1.000000
  216      -39.615866    -39.615090   1.000000   1.000000
  217      -39.615819    -39.615048   1.000000   1.000000
  218      -39.615561    -39.614782   1.000000   1.000000
  219      -39.615475    -39.614696   1.000000   1.000000
  220      -39.615333    -39.614563   1.000000   1.000000
  221      -39.615321    -39.614552   1.000000   1.000000
  222      -39.615248    -39.614480   1.000000   1.000000
  223      -39.615235    -39.614468   1.000000   1.000000
  224      -39.615226    -39.614458   1.000000   1.000000
  225      -39.615145    -39.614377   1.000000   1.000000
  226      -39.615093    -39.614325   1.000000   1.000000
  227      -39.615008    -39.614239   1.000000   1.000000
  228      -39.614925    -39.614156   1.000000   1.000000
  229      -39.614920    -39.614152   1.000000   1.000000
  230      -39.614877    -39.614111   1.000000   1.000000
  231      -39.614864    -39.614096   1.000000   1.000000
  232      -39.614811    -39.614042   1.000000   1.000000
  233      -39.614755    -39.613984   1.000000   1.000000
  234      -39.614597    -39.613832   1.000000   1.000000
  235      -39.614150    -39.613388   1.000000   1.000000
  236      -39.614116    -39.613356   1.000000   1.000000
  237      -39.613843    -39.613081   1.000000   1.000000
  238      -39.613382    -39.612616   1.000000   1.000000
  239      -39.604181    -39.603463   1.000000   1.000000
  240      -39.603972    -39.603253   1.000000   1.000000
  241      -39.603956    -39.603236   1.000000   1.000000
  242      -39.603855    -39.603135   1.000000   1.000000
  243      -39.603788    -39.603069   1.000000   1.000000
  244      -39.603714    -39.602995   1.000000   1.000000
  245      -39.603693    -39.602972   1.000000   1.000000
  246      -39.603507    -39.602786   1.000000   1.000000
  247      -39.600036    -39.599330   1.000000   1.000000
  248      -39.599760    -39.599055   1.000000   1.000000
  249      -39.599558    -39.598853   1.000000   1.000000
  250      -39.599530    -39.598824   1.000000   1.000000
  251      -39.599514    -39.598808   1.000000   1.000000
  252      -39.599464    -39.598757   1.000000   1.000000
  253      -39.599347    -39.598641   1.000000   1.000000
  254      -39.598865    -39.598157   1.000000   1.000000
  255      -39.593272    -39.592589   1.000000   1.000000
  256      -39.593144    -39.592461   1.000000   1.000000
  257      -12.747249    -12.467784   1.000000   1.000000
  258      -12.747200    -12.467730   1.000000   1.000000
  259      -12.720354    -12.440665   1.000000   1.000000
  260      -12.719500    -12.439744   1.000000   1.000000
  261      -12.719388    -12.439642   1.000000   1.000000
  262      -12.719350    -12.439597   1.000000   1.000000
  263      -12.719333    -12.439581   1.000000   1.000000
  264      -12.719311    -12.439560   1.000000   1.000000
  265      -12.719155    -12.439407   1.000000   1.000000
  266      -12.718377    -12.438574   1.000000   1.000000
  267      -12.697296    -12.417162   1.000000   1.000000
  268      -12.697243    -12.417104   1.000000   1.000000
  269      -12.694916    -12.415300   1.000000   1.000000
  270      -12.694766    -12.415158   1.000000   1.000000
  271      -12.694754    -12.415147   1.000000   1.000000
  272      -12.694752    -12.415143   1.000000   1.000000
  273      -12.692516    -12.413357   1.000000   1.000000
  274      -12.692302    -12.413221   1.000000   1.000000
  275      -12.691258    -12.411223   1.000000   1.000000
  276      -12.691226    -12.411198   1.000000   1.000000
  277      -12.691102    -12.411102   1.000000   1.000000
  278      -12.690938    -12.410952   1.000000   1.000000
  279      -12.673196    -12.393220   1.000000   1.000000
  280      -12.672721    -12.392703   1.000000   1.000000
  281      -12.672617    -12.392600   1.000000   1.000000
  282      -12.672137    -12.392112   1.000000   1.000000
  283      -12.668060    -12.389176   1.000000   1.000000
  284      -12.667651    -12.388757   1.000000   1.000000
  285      -12.667550    -12.388658   1.000000   1.000000
  286      -12.666992    -12.388055   1.000000   1.000000
  287      -12.654490    -12.374534   1.000000   1.000000
  288      -12.643723    -12.365994   1.000000   1.000000
  289       -7.800026     -7.599027   1.000000   1.000000
  290       -7.748234     -7.551512   1.000000   1.000000
  291       -7.505564     -7.319320   1.000000   1.000000
  292       -7.505407     -7.319153   1.000000   1.000000
  293       -7.505332     -7.319078   1.000000   1.000000
  294       -7.505162     -7.318896   1.000000   1.000000
  295       -7.501109     -7.308981   1.000000   1.000000
  296       -7.500975     -7.308830   1.000000   1.000000
  297       -7.500904     -7.308757   1.000000   1.000000
  298       -7.500734     -7.308588   1.000000   1.000000
  299       -7.315280     -7.117837   1.000000   1.000000
  300       -7.315028     -7.117565   1.000000   1.000000
  301       -7.297084     -7.093822   1.000000   1.000000
  302       -7.296828     -7.093546   1.000000   1.000000
  303       -7.296793     -7.093509   1.000000   1.000000
  304       -7.296552     -7.093246   1.000000   1.000000
  305       -7.269379     -7.062091   1.000000   1.000000
  306       -7.269091     -7.061782   1.000000   1.000000
  307       -7.088643     -6.894030   1.000000   1.000000
  308       -7.084819     -6.893838   1.000000   1.000000
  309       -7.084642     -6.893836   1.000000   1.000000
  310       -7.084637     -6.893666   1.000000   1.000000
  311       -7.084483     -6.796734   1.000000   1.000000
  312       -7.046571     -6.783804   1.000000   1.000000
  313       -7.000365     -6.768135   1.000000   1.000000
  314       -7.000139     -6.767981   1.000000   1.000000
  315       -6.999912     -6.767961   1.000000   1.000000
  316       -6.999772     -6.767749   1.000000   1.000000
  317       -6.999763     -6.766679   1.000000   1.000000
  318       -6.999657     -6.766452   1.000000   1.000000
  319       -6.999402     -6.766196   1.000000   1.000000
  320       -6.999201     -6.766086   1.000000   1.000000
  321       -6.994478     -6.766064   1.000000   1.000000
  322       -6.994214     -6.765950   1.000000   1.000000
  323       -6.994132     -6.765650   1.000000   1.000000
  324       -6.993834     -6.765407   1.000000   1.000000
  325       -6.955934     -6.745237   1.000000   1.000000
  326       -6.955759     -6.744915   1.000000   1.000000
  327       -6.955746     -6.744840   1.000000   1.000000
  328       -6.955607     -6.744508   1.000000   1.000000
  329       -6.948341     -6.697483   1.000000   1.000000
  330       -6.948282     -6.697427   1.000000   1.000000
  331       -6.928923     -6.689412   1.000000   1.000000
  332       -6.928630     -6.689086   1.000000   1.000000
  333       -6.928549     -6.689007   1.000000   1.000000
  334       -6.928300     -6.688722   1.000000   1.000000
  335       -6.911321     -6.639866   1.000000   1.000000
  336       -6.911298     -6.639471   1.000000   1.000000
  337       -6.885745     -6.639322   1.000000   1.000000
  338       -6.885648     -6.639092   1.000000   1.000000
  339       -6.885638     -6.639022   1.000000   1.000000
  340       -6.885586     -6.638957   1.000000   1.000000
  341       -6.877377     -6.638811   1.000000   1.000000
  342       -6.877169     -6.638596   1.000000   1.000000
  343       -6.876928     -6.638344   1.000000   1.000000
  344       -6.876809     -6.638311   1.000000   1.000000
  345       -6.876803     -6.638117   1.000000   1.000000
  346       -6.876673     -6.637798   1.000000   1.000000
  347       -6.876427     -6.628057   1.000000   1.000000
  348       -6.876185     -6.628038   1.000000   1.000000
  349       -6.832629     -6.586669   1.000000   1.000000
  350       -6.832555     -6.586590   1.000000   1.000000
  351       -6.794268     -6.499090   1.000000   1.000000
  352       -6.794249     -6.499070   1.000000   1.000000
  353       -1.525523     -0.414641   1.000000   1.000000
  354       -1.468110     -0.414577   1.000000   1.000000
  355       -1.467756     -0.414516   1.000000   1.000000
  356       -1.467620     -0.414323   1.000000   1.000000
  357       -1.467206      0.026028   1.000000   1.000000
  358       -1.460367      0.026273   1.000000   1.000000
  359       -1.460238      0.026412   1.000000   1.000000
  360       -1.460200      0.026812   1.000000   1.000000
  361       -1.460163      0.037730   1.000000   1.000000
  362       -1.421384      0.037830   1.000000   1.000000
  363       -1.421340      0.037871   1.000000   1.000000
  364       -1.382820      0.038007   1.000000   1.000000
  365       -1.382777      0.038086   1.000000   1.000000
  366       -1.382765      0.038163   1.000000   1.000000
  367       -1.382738      0.038286   1.000000   1.000000
  368       -1.333337      0.038479   1.000000   1.000000
  369       -1.332706      0.102889   1.000000   1.000000
  370       -1.332551      0.102915   1.000000   1.000000
  371       -1.332531      0.207402   1.000000   1.000000
  372       -1.332489      0.207546   1.000000   1.000000
  373       -1.332427      0.207557   1.000000   1.000000
  374       -1.332277      0.207684   1.000000   1.000000
  375       -1.331635      0.304166   1.000000   1.000000
  376       -1.292951      0.392084   1.000000   1.000000
  377       -1.292555      0.392487   1.000000   1.000000
  378       -1.292417      0.392645   1.000000   1.000000
  379       -1.291978      0.393007   1.000000   1.000000
  380       -1.256792      0.490794   1.000000   1.000000
  381       -1.256777      0.490996   1.000000   1.000000
  382       -1.232168      0.497350   1.000000   1.000000
  383       -1.232154      0.497660   1.000000   1.000000
  384       -1.220370      0.497713   1.000000   1.000000
  385       -0.822818      0.497918   1.000000   1.000000
  386       -0.822743      0.510668   1.000000   1.000000
  387       -0.822684      0.510702   1.000000   1.000000
  388       -0.822539      0.531028   1.000000   1.000000
  389       -0.722718      0.531269   1.000000   1.000000
  390       -0.722585      0.531293   1.000000   1.000000
  391       -0.699367      0.531408   1.000000   1.000000
  392       -0.699111      0.574086   1.000000   1.000000
  393       -0.698947      0.574218   1.000000   1.000000
  394       -0.698908      0.574310   1.000000   1.000000
  395       -0.688468      0.574368   1.000000   1.000000
  396       -0.688431      0.574396   1.000000   1.000000
  397       -0.688182      0.574512   1.000000   1.000000
  398       -0.688158      0.574545   1.000000   1.000000
  399       -0.666715      0.574643   1.000000   1.000000
  400       -0.666660      0.638615   1.000000   1.000000
  401       -0.666460      0.666301   1.000000   1.000000
  402       -0.666290      0.666339   1.000000   1.000000
  403       -0.652067      0.733083   1.000000   1.000000
  404       -0.651977      0.733102   1.000000   1.000000
  405       -0.651840      0.931365   1.000000   1.000000
  406       -0.651602      0.932550   1.000000   1.000000
  407       -0.589434      0.935491   1.000000   1.000000
  408       -0.589387      0.935751   1.000000   1.000000
  409       -0.576600      0.948829   1.000000   1.000000
  410       -0.576555      0.948940   1.000000   1.000000
  411       -0.576542      0.949003   1.000000   1.000000
  412       -0.576466      0.949301   1.000000   1.000000
  413       -0.553524      0.986003   1.000000   1.000000
  414       -0.553211      0.986157   1.000000   1.000000
  415       -0.553023      0.986235   1.000000   1.000000
  416       -0.552988      0.986441   1.000000   1.000000
  417       -0.497629      0.992781   1.000000   1.000000
  418       -0.496877      0.992975   1.000000   1.000000
  419       -0.472914      1.008768   1.000000   1.000000
  420       -0.472687      1.008945   1.000000   1.000000
  421       -0.461636      1.008956   1.000000   1.000000
  422       -0.461492      1.009120   1.000000   1.000000
  423       -0.461221      1.018467   1.000000   1.000000
  424       -0.461129      1.049089   1.000000   1.000000
  425       -0.459856      1.049155   1.000000   1.000000
  426       -0.459663      1.051609   1.000000   1.000000
  427       -0.459432      1.051679   1.000000   1.000000
  428       -0.459350      1.051784   1.000000   1.000000
  429       -0.410028      1.051889   1.000000   1.000000
  430       -0.409989      1.078671   1.000000   1.000000
  431       -0.407579      1.078809   1.000000   1.000000
  432       -0.407535      1.078827   1.000000   1.000000
  433       -0.407508      1.078953   1.000000   1.000000
  434       -0.407434      1.079794   1.000000   1.000000
  435       -0.407381      1.079870   1.000000   1.000000
  436       -0.407322      1.079909   1.000000   1.000000
  437       -0.383305      1.079964   1.000000   1.000000
  438       -0.383264      1.192805   1.000000   1.000000
  439       -0.378166      1.192920   1.000000   1.000000
  440       -0.369024      1.376460   1.000000   1.000000
  441       -0.368907      1.390366   1.000000   1.000000
  442       -0.368760      1.390967   1.000000   1.000000
  443       -0.368701      1.391283   1.000000   1.000000
  444       -0.368667      1.391434   1.000000   1.000000
  445       -0.368633      1.391595   1.000000   1.000000
  446       -0.368494      1.437312   1.000000   1.000000
  447       -0.368386      1.450204   1.000000   1.000000
  448       -0.353570      1.526188   1.000000   1.000000
  449       -0.353508      1.526402   1.000000   1.000000
  450       -0.349051      1.526412   1.000000   1.000000
  451       -0.341790      1.526630   1.000000   1.000000
  452       -0.335797      1.528784   1.000000   1.000000
  453       -0.335770      1.528879   1.000000   1.000000
  454       -0.335436      1.528992   1.000000   1.000000
  455       -0.335365      1.529205   1.000000   1.000000
  456       -0.334216      1.558296   1.000000   1.000000
  457       -0.334116      1.558323   1.000000   1.000000
  458       -0.334063      1.558336   1.000000   1.000000
  459       -0.334060      1.558387   1.000000   1.000000
  460       -0.324255      1.566451   1.000000   1.000000
  461       -0.324242      1.566710   1.000000   1.000000
  462       -0.324075      1.566838   1.000000   1.000000
  463       -0.323633      1.567112   1.000000   1.000000
  464       -0.321653      1.568110   1.000000   1.000000
  465       -0.321635      1.568218   1.000000   1.000000
  466       -0.321396      1.568448   1.000000   1.000000
  467       -0.320911      1.568711   1.000000   1.000000
  468       -0.303823      1.586368   1.000000   1.000000
  469       -0.295897      1.586863   1.000000   1.000000
  470       -0.288087      1.695606   1.000000   1.000000
  471       -0.287928      1.695834   1.000000   1.000000
  472       -0.287777      1.740830   1.000000   1.000000
  473       -0.287490      1.740890   1.000000   1.000000
  474       -0.280409      1.741201   1.000000   1.000000
  475       -0.280360      1.741247   1.000000   1.000000
  476       -0.275185      1.746857   1.000000   1.000000
  477       -0.274971      1.746857   1.000000   1.000000
  478       -0.274822      1.746896   1.000000   1.000000
  479       -0.274766      1.746912   1.000000   1.000000
  480       -0.241883      1.779032   1.000000   1.000000
  481       -0.241731      1.780579   1.000000   1.000000
  482       -0.241601      1.780684   1.000000   1.000000
  483       -0.241540      1.836542   1.000000   1.000000
  484       -0.241372      1.836825   1.000000   1.000000
  485       -0.241336      1.837297   1.000000   1.000000
  486       -0.241268      1.837440   1.000000   1.000000
  487       -0.241154      1.837780   1.000000   1.000000
  488       -0.207397      1.837997   1.000000   1.000000
  489       -0.207390      1.838422   1.000000   1.000000
  490       -0.199712      1.838461   1.000000   1.000000
  491       -0.199569      1.866212   1.000000   1.000000
  492       -0.199537      1.866415   1.000000   1.000000
  493       -0.199423      1.913216   1.000000   1.000000
  494       -0.194066      1.913354   1.000000   1.000000
  495       -0.193934      1.913396   1.000000   1.000000
  496       -0.164153      1.913585   1.000000   1.000000
  497       -0.163807      1.913630   1.000000   1.000000
  498       -0.163748      1.913712   1.000000   1.000000
  499       -0.163694      1.913956   1.000000   1.000000
  500       -0.156859      1.914026   1.000000   1.000000
  501       -0.156488      1.926684   1.000000   1.000000
  502       -0.156183      1.926960   1.000000   1.000000
  503       -0.156168      1.927098   1.000000   1.000000
  504       -0.139045      1.927378   1.000000   1.000000
  505       -0.139020      2.133169   1.000000   1.000000
  506       -0.138825      2.133330   1.000000   1.000000
  507       -0.138823      2.191257   1.000000   1.000000
  508       -0.090984      2.193190   1.000000   1.000000
  509       -0.090934      2.300579   1.000000   1.000000
  510       -0.082540      2.301073   1.000000   1.000000
  511       -0.082490      2.301166   1.000000   1.000000
  512       -0.082472      2.301226   1.000000   1.000000