 160 160   0   0
  0.1218736E+02  0.1542482E-08  0.1121024E-08  0.1127703E-08  0.5000000E-15
  1.000000000000000E-004
  CAR 
 unknown system                          
     16.87600840    -54.74531626  301      4.96896317      1.00000000
    -54.745  0.0000E+00  0.0000E+00  0.0000E+00  0.0000E+00
    -54.507  0.0000E+00  0.0000E+00  0.0000E+00  0.0000E+00
    -54.268  0.0000E+00  0.0000E+00  0.0000E+00  0.0000E+00
    -54.029  0.0000E+00  0.0000E+00  0.0000E+00  0.0000E+00
    -53.790  0.0000E+00  0.0000E+00  0.0000E+00  0.0000E+00
    -53.552  0.0000E+00  0.0000E+00  0.0000E+00  0.0000E+00
    -53.313  0.0000E+00  0.0000E+00  0.0000E+00  0.0000E+00
    -53.074  0.0000E+00  0.0000E+00  0.0000E+00  0.0000E+00
    -52.835  0.0000E+00  0.0000E+00  0.0000E+00  0.0000E+00
    -52.597  0.0000E+00  0.0000E+00  0.0000E+00  0.0000E+00
    -52.358  0.0000E+00  0.0000E+00  0.0000E+00  0.0000E+00
    -52.119  0.0000E+00  0.0000E+00  0.0000E+00  0.0000E+00
    -51.880  0.0000E+00  0.0000E+00  0.0000E+00  0.0000E+00
    -51.642  0.7223E-03  0.0000E+00  0.1724E-03  0.0000E+00
    -51.403  0.1328E+03  0.0000E+00  0.3170E+02  0.0000E+00
    -51.164  0.1270E+01  0.0000E+00  0.3200E+02  0.0000E+00
    -50.926  0.0000E+00  0.0000E+00  0.3200E+02  0.0000E+00
    -50.687  0.0000E+00  0.0000E+00  0.3200E+02  0.0000E+00
    -50.448  0.0000E+00  0.0000E+00  0.3200E+02  0.0000E+00
    -50.209  0.8105E-01  0.0000E+00  0.3202E+02  0.0000E+00
    -49.971  0.2659E+03  0.0000E+00  0.9551E+02  0.0000E+00
    -49.732  0.2072E+01  0.0000E+00  0.9600E+02  0.0000E+00
    -49.493  0.0000E+00  0.0000E+00  0.9600E+02  0.0000E+00
    -49.254  0.0000E+00  0.0000E+00  0.9600E+02  0.0000E+00
    -49.016  0.0000E+00  0.0000E+00  0.9600E+02  0.0000E+00
    -48.777  0.0000E+00  0.0000E+00  0.9600E+02  0.0000E+00
    -48.538  0.0000E+00  0.0000E+00  0.9600E+02  0.0000E+00
    -48.299  0.0000E+00  0.0000E+00  0.9600E+02  0.0000E+00
    -48.061  0.0000E+00  0.0000E+00  0.9600E+02  0.0000E+00
    -47.822  0.0000E+00  0.0000E+00  0.9600E+02  0.0000E+00
    -47.583  0.0000E+00  0.0000E+00  0.9600E+02  0.0000E+00
    -47.344  0.0000E+00  0.0000E+00  0.9600E+02  0.0000E+00
    -47.106  0.0000E+00  0.0000E+00  0.9600E+02  0.0000E+00
    -46.867  0.0000E+00  0.2755E-01  0.9600E+02  0.6577E-02
    -46.628  0.0000E+00  0.1339E+03  0.9600E+02  0.3198E+02
    -46.389  0.0000E+00  0.5911E+02  0.9600E+02  0.4609E+02
    -46.151  0.0000E+00  0.2091E+03  0.9600E+02  0.9600E+02
    -45.912  0.0000E+00  0.0000E+00  0.9600E+02  0.9600E+02
    -45.673  0.0000E+00  0.0000E+00  0.9600E+02  0.9600E+02
    -45.435  0.0000E+00  0.0000E+00  0.9600E+02  0.9600E+02
    -45.196  0.0000E+00  0.0000E+00  0.9600E+02  0.9600E+02
    -44.957  0.0000E+00  0.0000E+00  0.9600E+02  0.9600E+02
    -44.718  0.0000E+00  0.0000E+00  0.9600E+02  0.9600E+02
    -44.480  0.0000E+00  0.0000E+00  0.9600E+02  0.9600E+02
    -44.241  0.0000E+00  0.0000E+00  0.9600E+02  0.9600E+02
    -44.002  0.0000E+00  0.0000E+00  0.9600E+02  0.9600E+02
    -43.763  0.0000E+00  0.0000E+00  0.9600E+02  0.9600E+02
    -43.525  0.0000E+00  0.0000E+00  0.9600E+02  0.9600E+02
    -43.286  0.0000E+00  0.0000E+00  0.9600E+02  0.9600E+02
    -43.047  0.0000E+00  0.0000E+00  0.9600E+02  0.9600E+02
    -42.808  0.0000E+00  0.0000E+00  0.9600E+02  0.9600E+02
    -42.570  0.0000E+00  0.0000E+00  0.9600E+02  0.9600E+02
    -42.331  0.0000E+00  0.0000E+00  0.9600E+02  0.9600E+02
    -42.092  0.0000E+00  0.0000E+00  0.9600E+02  0.9600E+02
    -41.853  0.0000E+00  0.0000E+00  0.9600E+02  0.9600E+02
    -41.615  0.0000E+00  0.0000E+00  0.9600E+02  0.9600E+02
    -41.376  0.0000E+00  0.0000E+00  0.9600E+02  0.9600E+02
    -41.137  0.0000E+00  0.0000E+00  0.9600E+02  0.9600E+02
    -40.899  0.0000E+00  0.0000E+00  0.9600E+02  0.9600E+02
    -40.660  0.0000E+00  0.0000E+00  0.9600E+02  0.9600E+02
    -40.421  0.8960E+00  0.7983E+00  0.9621E+02  0.9619E+02
    -40.182  0.2466E+03  0.2482E+03  0.1551E+03  0.1554E+03
    -39.944  0.2053E+02  0.1910E+02  0.1600E+03  0.1600E+03
    -39.705  0.0000E+00  0.0000E+00  0.1600E+03  0.1600E+03
    -39.466  0.0000E+00  0.0000E+00  0.1600E+03  0.1600E+03
    -39.227  0.0000E+00  0.0000E+00  0.1600E+03  0.1600E+03
    -38.989  0.0000E+00  0.0000E+00  0.1600E+03  0.1600E+03
    -38.750  0.0000E+00  0.0000E+00  0.1600E+03  0.1600E+03
    -38.511  0.0000E+00  0.0000E+00  0.1600E+03  0.1600E+03
    -38.272  0.0000E+00  0.0000E+00  0.1600E+03  0.1600E+03
    -38.034  0.0000E+00  0.0000E+00  0.1600E+03  0.1600E+03
    -37.795  0.0000E+00  0.0000E+00  0.1600E+03  0.1600E+03
    -37.556  0.0000E+00  0.0000E+00  0.1600E+03  0.1600E+03
    -37.317  0.0000E+00  0.0000E+00  0.1600E+03  0.1600E+03
    -37.079  0.0000E+00  0.0000E+00  0.1600E+03  0.1600E+03
    -36.840  0.0000E+00  0.0000E+00  0.1600E+03  0.1600E+03
    -36.601  0.0000E+00  0.0000E+00  0.1600E+03  0.1600E+03
    -36.363  0.0000E+00  0.0000E+00  0.1600E+03  0.1600E+03
    -36.124  0.0000E+00  0.0000E+00  0.1600E+03  0.1600E+03
    -35.885  0.0000E+00  0.0000E+00  0.1600E+03  0.1600E+03
    -35.646  0.0000E+00  0.0000E+00  0.1600E+03  0.1600E+03
    -35.408  0.0000E+00  0.0000E+00  0.1600E+03  0.1600E+03
    -35.169  0.0000E+00  0.0000E+00  0.1600E+03  0.1600E+03
    -34.930  0.0000E+00  0.0000E+00  0.1600E+03  0.1600E+03
    -34.691  0.0000E+00  0.0000E+00  0.1600E+03  0.1600E+03
    -34.453  0.0000E+00  0.0000E+00  0.1600E+03  0.1600E+03
    -34.214  0.0000E+00  0.0000E+00  0.1600E+03  0.1600E+03
    -33.975  0.0000E+00  0.0000E+00  0.1600E+03  0.1600E+03
    -33.736  0.0000E+00  0.0000E+00  0.1600E+03  0.1600E+03
    -33.498  0.0000E+00  0.0000E+00  0.1600E+03  0.1600E+03
    -33.259  0.0000E+00  0.0000E+00  0.1600E+03  0.1600E+03
    -33.020  0.0000E+00  0.0000E+00  0.1600E+03  0.1600E+03
    -32.781  0.0000E+00  0.0000E+00  0.1600E+03  0.1600E+03
    -32.543  0.0000E+00  0.0000E+00  0.1600E+03  0.1600E+03
    -32.304  0.0000E+00  0.0000E+00  0.1600E+03  0.1600E+03
    -32.065  0.0000E+00  0.0000E+00  0.1600E+03  0.1600E+03
    -31.826  0.0000E+00  0.0000E+00  0.1600E+03  0.1600E+03
    -31.588  0.0000E+00  0.0000E+00  0.1600E+03  0.1600E+03
    -31.349  0.0000E+00  0.0000E+00  0.1600E+03  0.1600E+03
    -31.110  0.0000E+00  0.0000E+00  0.1600E+03  0.1600E+03
    -30.872  0.0000E+00  0.0000E+00  0.1600E+03  0.1600E+03
    -30.633  0.0000E+00  0.0000E+00  0.1600E+03  0.1600E+03
    -30.394  0.0000E+00  0.0000E+00  0.1600E+03  0.1600E+03
    -30.155  0.0000E+00  0.0000E+00  0.1600E+03  0.1600E+03
    -29.917  0.0000E+00  0.0000E+00  0.1600E+03  0.1600E+03
    -29.678  0.0000E+00  0.0000E+00  0.1600E+03  0.1600E+03
    -29.439  0.0000E+00  0.0000E+00  0.1600E+03  0.1600E+03
    -29.200  0.0000E+00  0.0000E+00  0.1600E+03  0.1600E+03
    -28.962  0.0000E+00  0.0000E+00  0.1600E+03  0.1600E+03
    -28.723  0.0000E+00  0.0000E+00  0.1600E+03  0.1600E+03
    -28.484  0.0000E+00  0.0000E+00  0.1600E+03  0.1600E+03
    -28.245  0.0000E+00  0.0000E+00  0.1600E+03  0.1600E+03
    -28.007  0.0000E+00  0.0000E+00  0.1600E+03  0.1600E+03
    -27.768  0.0000E+00  0.0000E+00  0.1600E+03  0.1600E+03
    -27.529  0.0000E+00  0.0000E+00  0.1600E+03  0.1600E+03
    -27.290  0.0000E+00  0.0000E+00  0.1600E+03  0.1600E+03
    -27.052  0.0000E+00  0.0000E+00  0.1600E+03  0.1600E+03
    -26.813  0.0000E+00  0.0000E+00  0.1600E+03  0.1600E+03
    -26.574  0.0000E+00  0.0000E+00  0.1600E+03  0.1600E+03
    -26.336  0.0000E+00  0.0000E+00  0.1600E+03  0.1600E+03
    -26.097  0.0000E+00  0.0000E+00  0.1600E+03  0.1600E+03
    -25.858  0.0000E+00  0.0000E+00  0.1600E+03  0.1600E+03
    -25.619  0.0000E+00  0.0000E+00  0.1600E+03  0.1600E+03
    -25.381  0.0000E+00  0.0000E+00  0.1600E+03  0.1600E+03
    -25.142  0.0000E+00  0.0000E+00  0.1600E+03  0.1600E+03
    -24.903  0.0000E+00  0.0000E+00  0.1600E+03  0.1600E+03
    -24.664  0.0000E+00  0.0000E+00  0.1600E+03  0.1600E+03
    -24.426  0.0000E+00  0.0000E+00  0.1600E+03  0.1600E+03
    -24.187  0.0000E+00  0.0000E+00  0.1600E+03  0.1600E+03
    -23.948  0.0000E+00  0.0000E+00  0.1600E+03  0.1600E+03
    -23.709  0.0000E+00  0.0000E+00  0.1600E+03  0.1600E+03
    -23.471  0.0000E+00  0.0000E+00  0.1600E+03  0.1600E+03
    -23.232  0.0000E+00  0.0000E+00  0.1600E+03  0.1600E+03
    -22.993  0.0000E+00  0.0000E+00  0.1600E+03  0.1600E+03
    -22.754  0.0000E+00  0.0000E+00  0.1600E+03  0.1600E+03
    -22.516  0.0000E+00  0.0000E+00  0.1600E+03  0.1600E+03
    -22.277  0.0000E+00  0.0000E+00  0.1600E+03  0.1600E+03
    -22.038  0.0000E+00  0.0000E+00  0.1600E+03  0.1600E+03
    -21.800  0.0000E+00  0.0000E+00  0.1600E+03  0.1600E+03
    -21.561  0.0000E+00  0.0000E+00  0.1600E+03  0.1600E+03
    -21.322  0.0000E+00  0.0000E+00  0.1600E+03  0.1600E+03
    -21.083  0.0000E+00  0.0000E+00  0.1600E+03  0.1600E+03
    -20.845  0.0000E+00  0.0000E+00  0.1600E+03  0.1600E+03
    -20.606  0.0000E+00  0.0000E+00  0.1600E+03  0.1600E+03
    -20.367  0.0000E+00  0.0000E+00  0.1600E+03  0.1600E+03
    -20.128  0.0000E+00  0.0000E+00  0.1600E+03  0.1600E+03
    -19.890  0.0000E+00  0.0000E+00  0.1600E+03  0.1600E+03
    -19.651  0.0000E+00  0.0000E+00  0.1600E+03  0.1600E+03
    -19.412  0.0000E+00  0.0000E+00  0.1600E+03  0.1600E+03
    -19.173  0.0000E+00  0.0000E+00  0.1600E+03  0.1600E+03
    -18.935  0.0000E+00  0.0000E+00  0.1600E+03  0.1600E+03
    -18.696  0.0000E+00  0.0000E+00  0.1600E+03  0.1600E+03
    -18.457  0.0000E+00  0.0000E+00  0.1600E+03  0.1600E+03
    -18.218  0.0000E+00  0.0000E+00  0.1600E+03  0.1600E+03
    -17.980  0.0000E+00  0.0000E+00  0.1600E+03  0.1600E+03
    -17.741  0.0000E+00  0.0000E+00  0.1600E+03  0.1600E+03
    -17.502  0.0000E+00  0.0000E+00  0.1600E+03  0.1600E+03
    -17.263  0.0000E+00  0.0000E+00  0.1600E+03  0.1600E+03
    -17.025  0.0000E+00  0.0000E+00  0.1600E+03  0.1600E+03
    -16.786  0.0000E+00  0.0000E+00  0.1600E+03  0.1600E+03
    -16.547  0.0000E+00  0.0000E+00  0.1600E+03  0.1600E+03
    -16.309  0.0000E+00  0.0000E+00  0.1600E+03  0.1600E+03
    -16.070  0.0000E+00  0.0000E+00  0.1600E+03  0.1600E+03
    -15.831  0.0000E+00  0.0000E+00  0.1600E+03  0.1600E+03
    -15.592  0.0000E+00  0.0000E+00  0.1600E+03  0.1600E+03
    -15.354  0.0000E+00  0.0000E+00  0.1600E+03  0.1600E+03
    -15.115  0.0000E+00  0.0000E+00  0.1600E+03  0.1600E+03
    -14.876  0.0000E+00  0.0000E+00  0.1600E+03  0.1600E+03
    -14.637  0.0000E+00  0.0000E+00  0.1600E+03  0.1600E+03
    -14.399  0.0000E+00  0.0000E+00  0.1600E+03  0.1600E+03
    -14.160  0.0000E+00  0.0000E+00  0.1600E+03  0.1600E+03
    -13.921  0.0000E+00  0.0000E+00  0.1600E+03  0.1600E+03
    -13.682  0.8963E-05  0.0000E+00  0.1600E+03  0.1600E+03
    -13.444  0.3798E+02  0.7315E-11  0.1691E+03  0.1600E+03
    -13.205  0.7574E+02  0.7920E+01  0.1872E+03  0.1619E+03
    -12.966  0.2031E+02  0.1101E+03  0.1920E+03  0.1882E+03
    -12.727  0.0000E+00  0.1605E+02  0.1920E+03  0.1920E+03
    -12.489  0.0000E+00  0.0000E+00  0.1920E+03  0.1920E+03
    -12.250  0.0000E+00  0.0000E+00  0.1920E+03  0.1920E+03
    -12.011  0.0000E+00  0.0000E+00  0.1920E+03  0.1920E+03
    -11.773  0.0000E+00  0.0000E+00  0.1920E+03  0.1920E+03
    -11.534  0.0000E+00  0.0000E+00  0.1920E+03  0.1920E+03
    -11.295  0.0000E+00  0.0000E+00  0.1920E+03  0.1920E+03
    -11.056  0.0000E+00  0.0000E+00  0.1920E+03  0.1920E+03
    -10.818  0.0000E+00  0.0000E+00  0.1920E+03  0.1920E+03
    -10.579  0.0000E+00  0.0000E+00  0.1920E+03  0.1920E+03
    -10.340  0.0000E+00  0.0000E+00  0.1920E+03  0.1920E+03
    -10.101  0.0000E+00  0.0000E+00  0.1920E+03  0.1920E+03
     -9.863  0.0000E+00  0.0000E+00  0.1920E+03  0.1920E+03
     -9.624  0.0000E+00  0.0000E+00  0.1920E+03  0.1920E+03
     -9.385  0.0000E+00  0.0000E+00  0.1920E+03  0.1920E+03
     -9.146  0.0000E+00  0.0000E+00  0.1920E+03  0.1920E+03
     -8.908  0.0000E+00  0.0000E+00  0.1920E+03  0.1920E+03
     -8.669  0.0000E+00  0.0000E+00  0.1920E+03  0.1920E+03
     -8.430  0.0000E+00  0.0000E+00  0.1920E+03  0.1920E+03
     -8.191  0.0000E+00  0.0000E+00  0.1920E+03  0.1920E+03
     -7.953  0.0000E+00  0.0000E+00  0.1920E+03  0.1920E+03
     -7.714  0.1080E-01  0.1240E-14  0.1920E+03  0.1920E+03
     -7.475  0.2541E+02  0.2235E+00  0.1981E+03  0.1921E+03
     -7.237  0.6283E+02  0.4413E+02  0.2131E+03  0.2026E+03
     -6.998  0.4451E+02  0.6325E+02  0.2237E+03  0.2177E+03
     -6.759  0.1277E+01  0.2582E+02  0.2240E+03  0.2239E+03
     -6.520  0.0000E+00  0.6177E+00  0.2240E+03  0.2240E+03
     -6.282  0.0000E+00  0.0000E+00  0.2240E+03  0.2240E+03
     -6.043  0.0000E+00  0.0000E+00  0.2240E+03  0.2240E+03
     -5.804  0.0000E+00  0.0000E+00  0.2240E+03  0.2240E+03
     -5.565  0.0000E+00  0.0000E+00  0.2240E+03  0.2240E+03
     -5.327  0.0000E+00  0.0000E+00  0.2240E+03  0.2240E+03
     -5.088  0.0000E+00  0.0000E+00  0.2240E+03  0.2240E+03
     -4.849  0.0000E+00  0.0000E+00  0.2240E+03  0.2240E+03
     -4.610  0.0000E+00  0.0000E+00  0.2240E+03  0.2240E+03
     -4.372  0.0000E+00  0.0000E+00  0.2240E+03  0.2240E+03
     -4.133  0.0000E+00  0.0000E+00  0.2240E+03  0.2240E+03
     -3.894  0.0000E+00  0.0000E+00  0.2240E+03  0.2240E+03
     -3.655  0.0000E+00  0.0000E+00  0.2240E+03  0.2240E+03
     -3.417  0.0000E+00  0.0000E+00  0.2240E+03  0.2240E+03
     -3.178  0.0000E+00  0.0000E+00  0.2240E+03  0.2240E+03
     -2.939  0.0000E+00  0.0000E+00  0.2240E+03  0.2240E+03
     -2.700  0.1458E-03  0.0000E+00  0.2240E+03  0.2240E+03
     -2.462  0.1769E+02  0.0000E+00  0.2282E+03  0.2240E+03
     -2.223  0.1595E+02  0.0000E+00  0.2320E+03  0.2240E+03
     -1.984  0.2221E+02  0.0000E+00  0.2373E+03  0.2240E+03
     -1.746  0.3138E+00  0.0000E+00  0.2374E+03  0.2240E+03
     -1.507  0.2203E+02  0.0000E+00  0.2427E+03  0.2240E+03
     -1.268  0.3387E+02  0.1890E-13  0.2508E+03  0.2240E+03
     -1.029  0.7651E+02  0.1650E+00  0.2690E+03  0.2240E+03
     -0.791  0.7223E+02  0.2353E+02  0.2863E+03  0.2297E+03
     -0.552  0.7075E+02  0.2655E+02  0.3032E+03  0.2360E+03
     -0.313  0.9667E+02  0.1594E+02  0.3262E+03  0.2398E+03
     -0.074  0.1016E+03  0.1372E+02  0.3505E+03  0.2431E+03
      0.164  0.5367E+02  0.2756E+02  0.3633E+03  0.2497E+03
      0.403  0.4762E+02  0.5502E+02  0.3747E+03  0.2628E+03
      0.642  0.5228E+02  0.7693E+02  0.3872E+03  0.2812E+03
      0.881  0.4311E+02  0.7197E+02  0.3974E+03  0.2983E+03
      1.119  0.6484E+02  0.7655E+02  0.4129E+03  0.3166E+03
      1.358  0.8462E+02  0.2667E+02  0.4331E+03  0.3230E+03
      1.597  0.7788E+02  0.3933E+02  0.4517E+03  0.3324E+03
      1.836  0.3984E+02  0.5020E+02  0.4612E+03  0.3444E+03
      2.074  0.4063E+02  0.4162E+02  0.4709E+03  0.3543E+03
      2.313  0.4854E+02  0.2946E+02  0.4825E+03  0.3613E+03
      2.552  0.4474E+02  0.5137E+02  0.4932E+03  0.3736E+03
      2.790  0.5554E+02  0.6918E+02  0.5065E+03  0.3901E+03
      3.029  0.5571E+02  0.8098E+02  0.5198E+03  0.4094E+03
      3.268  0.5430E+02  0.2674E+02  0.5327E+03  0.4158E+03
      3.507  0.4487E+02  0.2343E+02  0.5434E+03  0.4214E+03
      3.745  0.5707E+02  0.4922E+02  0.5571E+03  0.4332E+03
      3.984  0.3635E+02  0.5399E+02  0.5657E+03  0.4461E+03
      4.223  0.2566E+02  0.8160E+01  0.5719E+03  0.4480E+03
      4.462  0.1558E+02  0.1129E-03  0.5756E+03  0.4480E+03
      4.700  0.1751E+01  0.0000E+00  0.5760E+03  0.4480E+03
      4.939  0.2071E-04  0.0000E+00  0.5760E+03  0.4480E+03
      5.178  0.0000E+00  0.0000E+00  0.5760E+03  0.4480E+03
      5.417  0.0000E+00  0.0000E+00  0.5760E+03  0.4480E+03
      5.655  0.0000E+00  0.0000E+00  0.5760E+03  0.4480E+03
      5.894  0.0000E+00  0.0000E+00  0.5760E+03  0.4480E+03
      6.133  0.0000E+00  0.0000E+00  0.5760E+03  0.4480E+03
      6.372  0.0000E+00  0.1185E-09  0.5760E+03  0.4480E+03
      6.610  0.0000E+00  0.2389E+01  0.5760E+03  0.4486E+03
      6.849  0.1575E-13  0.5734E+02  0.5760E+03  0.4623E+03
      7.088  0.6013E-01  0.7674E+02  0.5760E+03  0.4806E+03
      7.326  0.1727E+00  0.5677E+02  0.5761E+03  0.4941E+03
      7.565  0.1014E+01  0.6980E+02  0.5763E+03  0.5108E+03
      7.804  0.1567E+01  0.6630E+02  0.5767E+03  0.5266E+03
      8.043  0.3418E+01  0.9604E+02  0.5775E+03  0.5496E+03
      8.281  0.9067E+01  0.6813E+02  0.5797E+03  0.5658E+03
      8.520  0.1121E+02  0.3406E+02  0.5823E+03  0.5739E+03
      8.759  0.2274E+02  0.1102E+02  0.5878E+03  0.5766E+03
      8.998  0.2766E+02  0.8449E+01  0.5944E+03  0.5786E+03
      9.236  0.2823E+02  0.1179E+02  0.6011E+03  0.5814E+03
      9.475  0.3286E+02  0.2188E+02  0.6089E+03  0.5866E+03
      9.714  0.2881E+02  0.2583E+02  0.6158E+03  0.5928E+03
      9.953  0.2044E+02  0.4196E+02  0.6207E+03  0.6028E+03
     10.191  0.2192E+02  0.3224E+02  0.6259E+03  0.6105E+03
     10.430  0.2637E+02  0.3445E+02  0.6322E+03  0.6187E+03
     10.669  0.4200E+02  0.3166E+02  0.6423E+03  0.6263E+03
     10.908  0.3887E+02  0.2453E+02  0.6515E+03  0.6322E+03
     11.146  0.4528E+02  0.3379E+02  0.6623E+03  0.6402E+03
     11.385  0.3990E+02  0.2206E+02  0.6719E+03  0.6455E+03
     11.624  0.3912E+02  0.3791E+02  0.6812E+03  0.6545E+03
     11.863  0.4646E+02  0.5255E+02  0.6923E+03  0.6671E+03
     12.101  0.2996E+02  0.5913E+02  0.6995E+03  0.6812E+03
     12.340  0.2903E+02  0.4338E+02  0.7064E+03  0.6916E+03
     12.579  0.3352E+02  0.3084E+02  0.7144E+03  0.6989E+03
     12.817  0.4135E+02  0.3304E+02  0.7243E+03  0.7068E+03
     13.056  0.1850E+02  0.3576E+02  0.7287E+03  0.7153E+03
     13.295  0.1367E+02  0.3493E+02  0.7319E+03  0.7237E+03
     13.534  0.2330E+00  0.2875E+02  0.7320E+03  0.7305E+03
     13.772  0.0000E+00  0.6107E+01  0.7320E+03  0.7320E+03
     14.011  0.0000E+00  0.4028E-05  0.7320E+03  0.7320E+03
     14.250  0.0000E+00  0.0000E+00  0.7320E+03  0.7320E+03
     14.489  0.0000E+00  0.0000E+00  0.7320E+03  0.7320E+03
     14.727  0.0000E+00  0.0000E+00  0.7320E+03  0.7320E+03
     14.966  0.0000E+00  0.0000E+00  0.7320E+03  0.7320E+03
     15.205  0.0000E+00  0.0000E+00  0.7320E+03  0.7320E+03
     15.444  0.0000E+00  0.0000E+00  0.7320E+03  0.7320E+03
     15.682  0.0000E+00  0.0000E+00  0.7320E+03  0.7320E+03
     15.921  0.0000E+00  0.0000E+00  0.7320E+03  0.7320E+03
     16.160  0.0000E+00  0.0000E+00  0.7320E+03  0.7320E+03
     16.399  0.0000E+00  0.0000E+00  0.7320E+03  0.7320E+03
     16.637  0.0000E+00  0.0000E+00  0.7320E+03  0.7320E+03
     16.876  0.0000E+00  0.0000E+00  0.7320E+03  0.7320E+03
