 vasp.5.4.4.18Apr17-6-g9f103f2a35 (build Oct 25 2017 14:42:18) complex          
  
 executed on             LinuxIFC date 2021.06.15  09:53:57
 running on   48 total cores
 distrk:  each k-point on   24 cores,    2 groups
 distr:  one band on NCORES_PER_BAND=   6 cores,    4 groups


--------------------------------------------------------------------------------------------------------


 INCAR:
 POTCAR:    PAW_PBE Li_sv 10Sep2004               
 POTCAR:    PAW_PBE Fe_pv 02Aug2007               
 POTCAR:    PAW_PBE S 06Sep2000                   
 POTCAR:    PAW_PBE O 08Apr2002                   

 ----------------------------------------------------------------------------- 
|                                                                             |
|           W    W    AA    RRRRR   N    N  II  N    N   GGGG   !!!           |
|           W    W   A  A   R    R  NN   N  II  NN   N  G    G  !!!           |
|           W    W  A    A  R    R  N N  N  II  N N  N  G       !!!           |
|           W WW W  AAAAAA  RRRRR   N  N N  II  N  N N  G  GGG   !            |
|           WW  WW  A    A  R   R   N   NN  II  N   NN  G    G                |
|           W    W  A    A  R    R  N    N  II  N    N   GGGG   !!!           |
|                                                                             |
|      You have enabled k-point parallelism (KPAR>1).                         |
|      This developmental code was originally  written by Paul Kent at ORNL,  |
|      and carefully double checked in Vienna.                                |
|      GW as well as linear response parallelism added by Martijn Marsman     |
|      and Georg Kresse.                                                      |
|      Carefully verify results versus KPAR=1.                                |
|      Report problems to Paul Kent and Vienna.                               |
|                                                                             |
 ----------------------------------------------------------------------------- 

 POTCAR:    PAW_PBE Li_sv 10Sep2004               
  local pseudopotential read in
  atomic valenz-charges read in
  non local Contribution for L=           0  read in
    real space projection operators read in
  non local Contribution for L=           0  read in
    real space projection operators read in
  non local Contribution for L=           1  read in
    real space projection operators read in
    PAW grid and wavefunctions read in
 
   number of l-projection  operators is LMAX  =           3
   number of lm-projection operators is LMMAX =           5
 
 POTCAR:    PAW_PBE Fe_pv 02Aug2007               
  local pseudopotential read in
  partial core-charges read in
  partial kinetic energy density read in
  atomic valenz-charges read in
  non local Contribution for L=           1  read in
    real space projection operators read in
  non local Contribution for L=           1  read in
    real space projection operators read in
  non local Contribution for L=           2  read in
    real space projection operators read in
  non local Contribution for L=           2  read in
    real space projection operators read in
  non local Contribution for L=           0  read in
    real space projection operators read in
  non local Contribution for L=           0  read in
    real space projection operators read in
    PAW grid and wavefunctions read in
 
   number of l-projection  operators is LMAX  =           6
   number of lm-projection operators is LMMAX =          18
 
 POTCAR:    PAW_PBE S 06Sep2000                   
  local pseudopotential read in
  partial core-charges read in
  partial kinetic energy density read in
  atomic valenz-charges read in
  non local Contribution for L=           0  read in
    real space projection operators read in
  non local Contribution for L=           0  read in
    real space projection operators read in
  non local Contribution for L=           1  read in
    real space projection operators read in
  non local Contribution for L=           1  read in
    real space projection operators read in
    PAW grid and wavefunctions read in
 
   number of l-projection  operators is LMAX  =           4
   number of lm-projection operators is LMMAX =           8
 
 POTCAR:    PAW_PBE O 08Apr2002                   
  local pseudopotential read in
  partial core-charges read in
  partial kinetic energy density read in
  kinetic energy density of atom read in
  atomic valenz-charges read in
  non local Contribution for L=           0  read in
    real space projection operators read in
  non local Contribution for L=           0  read in
    real space projection operators read in
  non local Contribution for L=           1  read in
    real space projection operators read in
  non local Contribution for L=           1  read in
    real space projection operators read in
    PAW grid and wavefunctions read in
 
   number of l-projection  operators is LMAX  =           4
   number of lm-projection operators is LMMAX =           8
 

 ----------------------------------------------------------------------------- 
|                                                                             |
|  ADVICE TO THIS USER RUNNING 'VASP/VAMP'   (HEAR YOUR MASTER'S VOICE ...):  |
|                                                                             |
|      You have a (more or less) 'large supercell' and for larger cells       |
|      it might be more efficient to use real space projection opertators     |
|      So try LREAL= Auto  in the INCAR   file.                               |
|      Mind:          For very  accurate calculation you might also keep the  |
|      reciprocal projection scheme          (i.e. LREAL=.FALSE.)             |
|                                                                             |
 ----------------------------------------------------------------------------- 

  PAW_PBE Li_sv 10Sep2004               :
 energy of atom  1       EATOM= -202.7858
 kinetic energy error for atom=    0.0072 (will be added to EATOM!!)
  PAW_PBE Fe_pv 02Aug2007               :
 energy of atom  2       EATOM=-2457.4239
 kinetic energy error for atom=    0.0041 (will be added to EATOM!!)
  PAW_PBE S 06Sep2000                   :
 energy of atom  3       EATOM= -276.8230
 kinetic energy error for atom=    0.0008 (will be added to EATOM!!)
  PAW_PBE O 08Apr2002                   :
 energy of atom  4       EATOM= -432.3788
 kinetic energy error for atom=    0.0129 (will be added to EATOM!!)
 
 
 POSCAR: # Compound: Li64Fe32S32O32. Old comment:
  positions in direct lattice
  No initial velocities read in
 exchange correlation table for  LEXCH =        8
   RHO(1)=    0.500       N(1)  =     2000
   RHO(2)=  100.500       N(2)  =     4000
 


--------------------------------------------------------------------------------------------------------


 ion  position               nearest neighbor table
   1  0.125  0.250  0.468- 133 1.96 149 1.96 105 2.46
   2  0.625  0.250  0.468- 134 1.96 150 1.96 106 2.46
   3  0.125  0.750  0.468- 135 1.96 151 1.96 107 2.46
   4  0.625  0.750  0.468- 136 1.96 152 1.96 108 2.46
   5  0.125  0.250  0.968- 129 1.96 145 1.96 109 2.46
   6  0.625  0.250  0.968- 130 1.96 146 1.96 110 2.46
   7  0.125  0.750  0.968- 131 1.96 147 1.96 111 2.46
   8  0.625  0.750  0.968- 132 1.96 148 1.96 112 2.46
   9  0.125  0.000  0.282- 137 1.96 153 1.96  97 2.46
  10  0.625  0.000  0.282- 138 1.96 154 1.96  98 2.46
  11  0.125  0.500  0.282- 139 1.96 155 1.96  99 2.46
  12  0.625  0.500  0.282- 140 1.96 156 1.96 100 2.46
  13  0.125  0.000  0.782- 141 1.96 157 1.96 101 2.46
  14  0.625  0.000  0.782- 142 1.96 158 1.96 102 2.46
  15  0.125  0.500  0.782- 143 1.96 159 1.96 103 2.46
  16  0.625  0.500  0.782- 144 1.96 160 1.96 104 2.46
  17  0.375  0.250  0.032- 130 1.96 145 1.96 121 2.46
  18  0.875  0.250  0.032- 129 1.96 146 1.96 122 2.46
  19  0.375  0.750  0.032- 132 1.96 147 1.96 123 2.46
  20  0.875  0.750  0.032- 131 1.96 148 1.96 124 2.46
  21  0.375  0.250  0.532- 134 1.96 149 1.96 125 2.46
  22  0.875  0.250  0.532- 133 1.96 150 1.96 126 2.46
  23  0.375  0.750  0.532- 136 1.96 151 1.96 127 2.46
  24  0.875  0.750  0.532- 135 1.96 152 1.96 128 2.46
  25  0.375  0.000  0.218- 138 1.96 153 1.96 113 2.46
  26  0.875  0.000  0.218- 137 1.96 154 1.96 114 2.46
  27  0.375  0.500  0.218- 140 1.96 155 1.96 115 2.46
  28  0.875  0.500  0.218- 139 1.96 156 1.96 116 2.46
  29  0.375  0.000  0.718- 142 1.96 157 1.96 117 2.46
  30  0.875  0.000  0.718- 141 1.96 158 1.96 118 2.46
  31  0.375  0.500  0.718- 144 1.96 159 1.96 119 2.46
  32  0.875  0.500  0.718- 143 1.96 160 1.96 120 2.46
  33  0.269  0.375  0.375- 149 2.01 155 2.01 119 2.56 121 2.56
  34  0.769  0.375  0.375- 150 2.01 156 2.01 120 2.56 122 2.56
  35  0.269  0.875  0.375- 151 2.01 153 2.01 117 2.56 123 2.56
  36  0.769  0.875  0.375- 152 2.01 154 2.01 118 2.56 124 2.56
  37  0.269  0.375  0.875- 145 2.01 159 2.01 115 2.56 125 2.56
  38  0.769  0.375  0.875- 146 2.01 160 2.01 116 2.56 126 2.56
  39  0.269  0.875  0.875- 147 2.01 157 2.01 113 2.56 127 2.56
  40  0.769  0.875  0.875- 148 2.01 158 2.01 114 2.56 128 2.56
  41  0.231  0.125  0.125- 145 2.01 153 2.01 101 2.56 105 2.56
  42  0.731  0.125  0.125- 146 2.01 154 2.01 102 2.56 106 2.56
  43  0.231  0.625  0.125- 147 2.01 155 2.01 103 2.56 107 2.56
  44  0.731  0.625  0.125- 148 2.01 156 2.01 104 2.56 108 2.56
  45  0.231  0.125  0.625- 149 2.01 157 2.01  97 2.56 109 2.56
  46  0.731  0.125  0.625- 150 2.01 158 2.01  98 2.56 110 2.56
  47  0.231  0.625  0.625- 151 2.01 159 2.01  99 2.56 111 2.56
  48  0.731  0.625  0.625- 152 2.01 160 2.01 100 2.56 112 2.56
  49  0.019  0.375  0.125- 129 2.01 139 2.01 103 2.56 105 2.56
  50  0.519  0.375  0.125- 130 2.01 140 2.01 104 2.56 106 2.56
  51  0.019  0.875  0.125- 131 2.01 137 2.01 101 2.56 107 2.56
  52  0.519  0.875  0.125- 132 2.01 138 2.01 102 2.56 108 2.56
  53  0.019  0.375  0.625- 133 2.01 143 2.01  99 2.56 109 2.56
  54  0.519  0.375  0.625- 134 2.01 144 2.01 100 2.56 110 2.56
  55  0.019  0.875  0.625- 135 2.01 141 2.01  97 2.56 111 2.56
  56  0.519  0.875  0.625- 136 2.01 142 2.01  98 2.56 112 2.56
  57  0.481  0.125  0.375- 134 2.01 138 2.01 117 2.56 121 2.56
  58  0.981  0.125  0.375- 133 2.01 137 2.01 118 2.56 122 2.56
  59  0.481  0.625  0.375- 136 2.01 140 2.01 119 2.56 123 2.56
  60  0.981  0.625  0.375- 135 2.01 139 2.01 120 2.56 124 2.56
  61  0.481  0.125  0.875- 130 2.01 142 2.01 113 2.56 125 2.56
  62  0.981  0.125  0.875- 129 2.01 141 2.01 114 2.56 126 2.56
  63  0.481  0.625  0.875- 132 2.01 144 2.01 115 2.56 127 2.56
  64  0.981  0.625  0.875- 131 2.01 143 2.01 116 2.56 128 2.56
  65  0.487  0.376  0.375- 140 1.99 134 2.00 119 2.62 121 2.63
  66  0.986  0.375  0.375- 133 2.00 139 2.00 120 2.62 122 2.62
  67  0.486  0.875  0.375- 136 2.00 138 2.00 117 2.62 123 2.62
  68  0.986  0.875  0.375- 135 2.00 137 2.00 118 2.62 124 2.62
  69  0.486  0.375  0.875- 130 2.00 144 2.00 115 2.62 125 2.62
  70  0.986  0.375  0.875- 129 2.00 143 2.00 116 2.62 126 2.62
  71  0.486  0.875  0.875- 132 2.00 142 2.00 113 2.62 127 2.62
  72  0.986  0.875  0.875- 131 2.00 141 2.00 114 2.62 128 2.62
  73  0.014  0.125  0.125- 129 2.00 137 2.00 101 2.62 105 2.62
  74  0.514  0.125  0.125- 130 2.00 138 2.00 102 2.62 106 2.62
  75  0.014  0.625  0.125- 131 2.00 139 2.00 103 2.62 107 2.62
  76  0.514  0.625  0.125- 132 2.00 140 2.00 104 2.62 108 2.62
  77  0.014  0.125  0.625- 133 2.00 141 2.00  97 2.62 109 2.62
  78  0.514  0.125  0.625- 134 2.00 142 2.00  98 2.62 110 2.62
  79  0.014  0.625  0.625- 135 2.00 143 2.00  99 2.62 111 2.62
  80  0.514  0.625  0.625- 136 2.00 144 2.00 100 2.62 112 2.62
  81  0.236  0.375  0.125- 145 2.00 155 2.00 103 2.62 105 2.62
  82  0.736  0.375  0.125- 146 2.00 156 2.00 104 2.62 106 2.62
  83  0.236  0.875  0.125- 147 2.00 153 2.00 101 2.62 107 2.62
  84  0.736  0.875  0.125- 148 2.00 154 2.00 102 2.62 108 2.62
  85  0.236  0.375  0.625- 149 2.00 159 2.00  99 2.62 109 2.62
  86  0.736  0.375  0.625- 150 2.00 160 2.00 100 2.62 110 2.62
  87  0.236  0.875  0.625- 151 2.00 157 2.00  97 2.62 111 2.62
  88  0.736  0.875  0.625- 152 2.00 158 2.00  98 2.62 112 2.62
  89  0.264  0.125  0.375- 149 2.00 153 2.00 117 2.62 121 2.62
  90  0.764  0.125  0.375- 150 2.00 154 2.00 118 2.62 122 2.62
  91  0.264  0.625  0.375- 151 2.00 155 2.00 119 2.62 123 2.62
  92  0.764  0.625  0.375- 152 2.00 156 2.00 120 2.62 124 2.62
  93  0.264  0.125  0.875- 145 2.00 157 2.00 113 2.62 125 2.62
  94  0.764  0.125  0.875- 146 2.00 158 2.00 114 2.62 126 2.62
  95  0.264  0.625  0.875- 147 2.00 159 2.00 115 2.62 127 2.62
  96  0.764  0.625  0.875- 148 2.00 160 2.00 116 2.62 128 2.62
  97  0.125  0.000  0.501-   9 2.46  45 2.56  55 2.56  77 2.62  87 2.62
  98  0.625  0.000  0.501-  10 2.46  46 2.56  56 2.56  78 2.62  88 2.62
  99  0.125  0.500  0.501-  11 2.46  47 2.56  53 2.56  79 2.62  85 2.62
 100  0.625  0.500  0.501-  12 2.46  48 2.56  54 2.56  80 2.62  86 2.62
 101  0.125  0.000  0.001-  13 2.46  41 2.56  51 2.56  73 2.62  83 2.62
 102  0.625  0.000  0.001-  14 2.46  42 2.56  52 2.56  74 2.62  84 2.62
 103  0.125  0.500  0.001-  15 2.46  43 2.56  49 2.56  75 2.62  81 2.62
 104  0.625  0.500  0.001-  16 2.46  44 2.56  50 2.56  76 2.62  82 2.62
 105  0.125  0.250  0.249-   1 2.46  41 2.56  49 2.56  73 2.62  81 2.62
 106  0.625  0.250  0.249-   2 2.46  42 2.56  50 2.56  74 2.62  82 2.62
 107  0.125  0.750  0.249-   3 2.46  43 2.56  51 2.56  75 2.62  83 2.62
 108  0.625  0.750  0.249-   4 2.46  44 2.56  52 2.56  76 2.62  84 2.62
 109  0.125  0.250  0.749-   5 2.46  45 2.56  53 2.56  77 2.62  85 2.62
 110  0.625  0.250  0.749-   6 2.46  46 2.56  54 2.56  78 2.62  86 2.62
 111  0.125  0.750  0.749-   7 2.46  47 2.56  55 2.56  79 2.62  87 2.62
 112  0.625  0.750  0.749-   8 2.46  48 2.56  56 2.56  80 2.62  88 2.62
 113  0.375  0.000  0.999-  25 2.46  39 2.56  61 2.56  71 2.62  93 2.62
 114  0.875  0.000  0.999-  26 2.46  40 2.56  62 2.56  72 2.62  94 2.62
 115  0.375  0.500  0.999-  27 2.46  37 2.56  63 2.56  69 2.62  95 2.62
 116  0.875  0.500  0.999-  28 2.46  38 2.56  64 2.56  70 2.62  96 2.62
 117  0.375  0.000  0.499-  29 2.46  35 2.56  57 2.56  67 2.62  89 2.62
 118  0.875  0.000  0.499-  30 2.46  36 2.56  58 2.56  68 2.62  90 2.62
 119  0.375  0.500  0.499-  31 2.46  33 2.56  59 2.56  91 2.62  65 2.62
 120  0.875  0.500  0.499-  32 2.46  34 2.56  60 2.56  66 2.62  92 2.62
 121  0.375  0.250  0.251-  17 2.46  33 2.56  57 2.56  89 2.62  65 2.63
 122  0.875  0.250  0.251-  18 2.46  34 2.56  58 2.56  66 2.62  90 2.62
 123  0.375  0.750  0.251-  19 2.46  35 2.56  59 2.56  67 2.62  91 2.62
 124  0.875  0.750  0.251-  20 2.46  36 2.56  60 2.56  68 2.62  92 2.62
 125  0.375  0.250  0.751-  21 2.46  37 2.56  61 2.56  69 2.62  93 2.62
 126  0.875  0.250  0.751-  22 2.46  38 2.56  62 2.56  70 2.62  94 2.62
 127  0.375  0.750  0.751-  23 2.46  39 2.56  63 2.56  71 2.62  95 2.62
 128  0.875  0.750  0.751-  24 2.46  40 2.56  64 2.56  72 2.62  96 2.62
 129  0.000  0.250  0.000-   5 1.96  18 1.96  70 2.00  73 2.00  49 2.01  62 2.01
 130  0.500  0.250  0.000-   6 1.96  17 1.96  69 2.00  74 2.00  50 2.01  61 2.01
 131  0.000  0.750  0.000-   7 1.96  20 1.96  72 2.00  75 2.00  51 2.01  64 2.01
 132  0.500  0.750  0.000-   8 1.96  19 1.96  71 2.00  76 2.00  52 2.01  63 2.01
 133  0.000  0.250  0.500-   1 1.96  22 1.96  66 2.00  77 2.00  53 2.01  58 2.01
 134  0.500  0.250  0.500-   2 1.96  21 1.96  78 2.00  65 2.00  54 2.01  57 2.01
 135  0.000  0.750  0.500-   3 1.96  24 1.96  68 2.00  79 2.00  55 2.01  60 2.01
 136  0.500  0.750  0.500-   4 1.96  23 1.96  67 2.00  80 2.00  56 2.01  59 2.01
 137  0.000  0.000  0.250-   9 1.96  26 1.96  68 2.00  73 2.00  51 2.01  58 2.01
 138  0.500  0.000  0.250-  10 1.96  25 1.96  67 2.00  74 2.00  52 2.01  57 2.01
 139  0.000  0.500  0.250-  11 1.96  28 1.96  66 2.00  75 2.00  49 2.01  60 2.01
 140  0.500  0.500  0.250-  12 1.96  27 1.96  65 1.99  76 2.00  50 2.01  59 2.01
 141  0.000  0.000  0.750-  13 1.96  30 1.96  72 2.00  77 2.00  55 2.01  62 2.01
 142  0.500  0.000  0.750-  14 1.96  29 1.96  71 2.00  78 2.00  56 2.01  61 2.01
 143  0.000  0.500  0.750-  15 1.96  32 1.96  70 2.00  79 2.00  53 2.01  64 2.01
 144  0.500  0.500  0.750-  16 1.96  31 1.96  69 2.00  80 2.00  54 2.01  63 2.01
 145  0.250  0.250  0.000-   5 1.96  17 1.96  81 2.00  93 2.00  37 2.01  41 2.01
 146  0.750  0.250  0.000-   6 1.96  18 1.96  82 2.00  94 2.00  38 2.01  42 2.01
 147  0.250  0.750  0.000-   7 1.96  19 1.96  83 2.00  95 2.00  39 2.01  43 2.01
 148  0.750  0.750  0.000-   8 1.96  20 1.96  84 2.00  96 2.00  40 2.01  44 2.01
 149  0.250  0.250  0.500-   1 1.96  21 1.96  85 2.00  89 2.00  33 2.01  45 2.01
 150  0.750  0.250  0.500-   2 1.96  22 1.96  86 2.00  90 2.00  34 2.01  46 2.01
 151  0.250  0.750  0.500-   3 1.96  23 1.96  87 2.00  91 2.00  35 2.01  47 2.01
 152  0.750  0.750  0.500-   4 1.96  24 1.96  88 2.00  92 2.00  36 2.01  48 2.01
 153  0.250  0.000  0.250-   9 1.96  25 1.96  83 2.00  89 2.00  35 2.01  41 2.01
 154  0.750  0.000  0.250-  10 1.96  26 1.96  84 2.00  90 2.00  36 2.01  42 2.01
 155  0.250  0.500  0.250-  11 1.96  27 1.96  81 2.00  91 2.00  33 2.01  43 2.01
 156  0.750  0.500  0.250-  12 1.96  28 1.96  82 2.00  92 2.00  34 2.01  44 2.01
 157  0.250  0.000  0.750-  13 1.96  29 1.96  87 2.00  93 2.00  39 2.01  45 2.01
 158  0.750  0.000  0.750-  14 1.96  30 1.96  88 2.00  94 2.00  40 2.01  46 2.01
 159  0.250  0.500  0.750-  15 1.96  31 1.96  85 2.00  95 2.00  37 2.01  47 2.01
 160  0.750  0.500  0.750-  16 1.96  32 1.96  86 2.00  96 2.00  38 2.01  48 2.01
 
  LATTYP: Found a simple orthorhombic cell.
 ALAT       =    11.2102424200
 B/A-ratio  =     1.0059574590
 C/A-ratio  =     1.3759579358
  
  Lattice vectors:
  
 A1 = (   0.0000000000,  11.2102424200,   0.0000000000)
 A2 = (   0.0000000000,   0.0000000000, -11.2770269800)
 A3 = ( -15.4248220200,   0.0000000000,   0.0000000000)


Analysis of symmetry for initial positions (statically):
=====================================================================
 Subroutine PRICEL returns:
 Original cell was already a primitive cell.
 

 Routine SETGRP: Setting up the symmetry group for a 
 simple orthorhombic supercell.


 Subroutine GETGRP returns: Found  1 space group operations
 (whereof  1 operations were pure point group operations)
 out of a pool of  8 trial point group operations.


The static configuration has the point symmetry C_1 .


Analysis of symmetry for dynamics (positions and initial velocities):
=====================================================================
 Subroutine PRICEL returns:
 Original cell was already a primitive cell.
 

 Routine SETGRP: Setting up the symmetry group for a 
 simple orthorhombic supercell.


 Subroutine GETGRP returns: Found  1 space group operations
 (whereof  1 operations were pure point group operations)
 out of a pool of  8 trial point group operations.


The dynamic configuration has the point symmetry C_1 .


Analysis of structural, dynamic, and magnetic symmetry:
=====================================================================
 Subroutine PRICEL returns:
 Original cell was already a primitive cell.
 

 Routine SETGRP: Setting up the symmetry group for a 
 simple orthorhombic supercell.


 Subroutine GETGRP returns: Found  1 space group operations
 (whereof  1 operations were pure point group operations)
 out of a pool of  8 trial point group operations.


The magnetic configuration has the point symmetry C_1 .


 Subroutine INISYM returns: Found  1 space group operations
 (whereof  1 operations are pure point group operations),
 and found     1 'primitive' translations

 
 
 KPOINTS: # No comment                            

Automatic generation of k-mesh.
Space group operators:
 irot       det(A)        alpha          n_x          n_y          n_z        tau_x        tau_y        tau_z
    1     1.000000     0.000000     1.000000     0.000000     0.000000     0.000000     0.000000     0.000000
 
 Subroutine IBZKPT returns following result:
 ===========================================
 
 Found     10 irreducible k-points:
 
 Following reciprocal coordinates:
            Coordinates               Weight
  0.000000  0.000000  0.000000      1.000000
  0.500000  0.000000  0.000000      1.000000
  0.000000  0.333333  0.000000      2.000000
  0.500000  0.333333  0.000000      2.000000
  0.000000  0.000000  0.333333      2.000000
  0.500000  0.000000  0.333333      2.000000
  0.000000  0.333333  0.333333      2.000000
  0.500000  0.333333  0.333333      2.000000
  0.000000 -0.333333  0.333333      2.000000
  0.500000 -0.333333  0.333333      2.000000
 
 Following cartesian coordinates:
            Coordinates               Weight
  0.000000  0.000000  0.000000      1.000000
  0.032415  0.000000  0.000000      1.000000
  0.000000  0.029735  0.000000      2.000000
  0.032415  0.029735  0.000000      2.000000
  0.000000  0.000000  0.029559      2.000000
  0.032415  0.000000  0.029559      2.000000
  0.000000  0.029735  0.029559      2.000000
  0.032415  0.029735  0.029559      2.000000
  0.000000 -0.029735  0.029559      2.000000
  0.032415 -0.029735  0.029559      2.000000
 


--------------------------------------------------------------------------------------------------------




 Dimension of arrays:
   k-points           NKPTS =     10   k-points in BZ     NKDIM =     10   number of bands    NBANDS=    732
   number of dos      NEDOS =    301   number of ions     NIONS =    160
   non local maximal  LDIM  =      6   non local SUM 2l+1 LMDIM =     18
   total plane-waves  NPLWV = ******
   max r-space proj   IRMAX =      1   max aug-charges    IRDMAX= 152654
   dimension x,y,z NGX =   128 NGY =   96 NGZ =   96
   dimension x,y,z NGXF=   256 NGYF=  192 NGZF=  192
   support grid    NGXF=   512 NGYF=  384 NGZF=  384
   ions per type =              64  32  32  32
   NGX,Y,Z   is equivalent  to a cutoff of  13.80, 14.24, 14.15 a.u.
   NGXF,Y,Z  is equivalent  to a cutoff of  27.59, 28.47, 28.30 a.u.

 SYSTEM =  unknown system                          
 POSCAR =  # Compound: Li64Fe32S32O32. Old comment:

 Startparameter for this run:
   NWRITE =      1    write-flag & timer
   PREC   = accura    normal or accurate (medium, high low for compatibility)
   ISTART =      0    job   : 0-new  1-cont  2-samecut
   ICHARG =      1    charge: 1-file 2-atom 10-const
   ISPIN  =      2    spin polarized calculation?
   LNONCOLLINEAR =      F non collinear calculations
   LSORBIT =      F    spin-orbit coupling
   INIWAV =      1    electr: 0-lowe 1-rand  2-diag
   LASPH  =      T    aspherical Exc in radial PAW
   METAGGA=      F    non-selfconsistent MetaGGA calc.

 Electronic Relaxation 1
   ENCUT  =  650.0 eV  47.77 Ry    6.91 a.u.  32.07 23.30 23.44*2*pi/ulx,y,z
   ENINI  =  650.0     initial cutoff
   ENAUG  =  628.9 eV  augmentation charge cutoff
   NELM   =    200;   NELMIN=  8; NELMDL=  0     # of ELM steps 
   EDIFF  = 0.1E-05   stopping-criterion for ELM
   LREAL  =      F    real-space projection
   NLSPLINE    = F    spline interpolate recip. space projectors
   LCOMPAT=      F    compatible to vasp.4.4
   GGA_COMPAT  = T    GGA compatible to vasp.4.4-vasp.4.6
   LMAXPAW     = -100 max onsite density
   LMAXMIX     =    4 max onsite mixed and CHGCAR
   VOSKOWN=      0    Vosko Wilk Nusair interpolation
   ROPT   =    0.00000   0.00000   0.00000   0.00000
 Ionic relaxation
   EDIFFG = 0.1E-04   stopping-criterion for IOM
   NSW    =      0    number of steps for IOM
   NBLOCK =      1;   KBLOCK =      1    inner block; outer block 
   IBRION =     -1    ionic relax: 0-MD 1-quasi-New 2-CG
   NFREE  =      0    steps in history (QN), initial steepest desc. (CG)
   ISIF   =      2    stress and relaxation
   IWAVPR =     10    prediction:  0-non 1-charg 2-wave 3-comb
   ISYM   =      2    0-nonsym 1-usesym 2-fastsym
   LCORR  =      T    Harris-Foulkes like correction to forces

   POTIM  = 0.5000    time-step for ionic-motion
   TEIN   =    0.0    initial temperature
   TEBEG  =    0.0;   TEEND  =   0.0 temperature during run
   SMASS  =  -3.00    Nose mass-parameter (am)
   estimated Nose-frequenzy (Omega)   =  0.10E-29 period in steps =****** mass=  -0.544E-26a.u.
   SCALEE = 1.0000    scale energy and forces
   NPACO  =    256;   APACO  = 16.0  distance and # of slots for P.C.
   PSTRESS=    0.0 pullay stress

  Mass of Ions in am
   POMASS =   7.01 55.85 32.07 16.00
  Ionic Valenz
   ZVAL   =   3.00 14.00  6.00  6.00
  Atomic Wigner-Seitz radii
   RWIGS  =  -1.00 -1.00 -1.00 -1.00
  virtual crystal weights 
   VCA    =   1.00  1.00  1.00  1.00
   NELECT =    1024.0000    total number of electrons
   NUPDOWN=      -1.0000    fix difference up-down

 DOS related values:
   EMIN   =  10.00;   EMAX   =-10.00  energy-range for DOS
   EFERMI =   0.00
   ISMEAR =     0;   SIGMA  =   0.05  broadening in eV -4-tet -1-fermi 0-gaus

 Electronic relaxation 2 (details)
   IALGO  =     38    algorithm
   LDIAG  =      T    sub-space diagonalisation (order eigenvalues)
   LSUBROT=      F    optimize rotation matrix (better conditioning)
   TURBO    =      0    0=normal 1=particle mesh
   IRESTART =      0    0=no restart 2=restart with 2 vectors
   NREBOOT  =      0    no. of reboots
   NMIN     =      0    reboot dimension
   EREF     =   0.00    reference energy to select bands
   IMIX   =      4    mixing-type and parameters
     AMIX     =   0.40;   BMIX     =  1.00
     AMIX_MAG =   1.60;   BMIX_MAG =  1.00
     AMIN     =   0.10
     WC   =   100.;   INIMIX=   1;  MIXPRE=   1;  MAXMIX= -45

 Intra band minimization:
   WEIMIN = 0.0000     energy-eigenvalue tresh-hold
   EBREAK =  0.34E-09  absolut break condition
   DEPER  =   0.30     relativ break condition  

   TIME   =   0.40     timestep for ELM

  volume/ion in A,a.u.               =      12.19        82.24
  Fermi-wavevector in a.u.,A,eV,Ry     =   1.320783  2.495918 23.734934  1.744468
  Thomas-Fermi vector in A             =   2.450584
 
 Write flags
   LWAVE        =      F    write WAVECAR
   LDOWNSAMPLE  =      F    k-point downsampling of WAVECAR
   LCHARG       =      T    write CHGCAR
   LVTOT        =      F    write LOCPOT, total local potential
   LVHAR        =      F    write LOCPOT, Hartree potential only
   LELF         =      F    write electronic localiz. function (ELF)
   LORBIT       =      0    0 simple, 1 ext, 2 COOP (PROOUT), +10 PAW based schemes


 Dipole corrections
   LMONO  =      F    monopole corrections only (constant potential shift)
   LDIPOL =      F    correct potential (dipole corrections)
   IDIPOL =      0    1-x, 2-y, 3-z, 4-all directions 
   EPSILON=  1.0000000 bulk dielectric constant

 LDA+U is selected, type is set to LDAUTYPE =  2
   angular momentum for each species LDAUL =    -1    2   -1   -1
   U (eV)           for each species LDAUU =   0.0  4.0  0.0  0.0
   J (eV)           for each species LDAUJ =   0.0  0.0  0.0  0.0
 Exchange correlation treatment:
   GGA     =    PE    GGA type
   LEXCH   =     8    internal setting for exchange type
   VOSKOWN=      0    Vosko Wilk Nusair interpolation
   LHFCALC =     F    Hartree Fock is set to
   LHFONE  =     F    Hartree Fock one center treatment
   AEXX    =    0.0000 exact exchange contribution

 Linear response parameters
   LEPSILON=     F    determine dielectric tensor
   LRPA    =     F    only Hartree local field effects (RPA)
   LNABLA  =     F    use nabla operator in PAW spheres
   LVEL    =     F    velocity operator in full k-point grid
   LINTERFAST=   F  fast interpolation
   KINTER  =     0    interpolate to denser k-point grid
   CSHIFT  =0.1000    complex shift for real part using Kramers Kronig
   OMEGAMAX=  -1.0    maximum frequency
   DEG_THRESHOLD= 0.2000000E-02 threshold for treating states as degnerate
   RTIME   =   -0.100 relaxation time in fs
  (WPLASMAI=    0.000 imaginary part of plasma frequency in eV, 0.658/RTIME)
   DFIELD  = 0.0000000 0.0000000 0.0000000 field for delta impulse in time
 
 Orbital magnetization related:
   ORBITALMAG=     F  switch on orbital magnetization
   LCHIMAG   =     F  perturbation theory with respect to B field
   DQ        =  0.001000  dq finite difference perturbation B field
   LLRAUG    =     F  two centre corrections for induced B field



--------------------------------------------------------------------------------------------------------


 Static calculation
 charge density and potential will be updated during run
 spin polarized calculation
 Variant of blocked Davidson
 Davidson routine will perform the subspace rotation
 perform sub-space diagonalisation
    after iterative eigenvector-optimisation
 modified Broyden-mixing scheme, WC =      100.0
 initial mixing is a Kerker type mixing with AMIX =  0.4000 and BMIX =      1.0000
 Hartree-type preconditioning will be used
 using additional bands          220
 reciprocal scheme for non local part
 use partial core corrections
 calculate Harris-corrections to forces 
   (improved forces if not selfconsistent)
 use gradient corrections 
 use of overlap-Matrix (Vanderbilt PP)
 Gauss-broadening in eV      SIGMA  =   0.05


--------------------------------------------------------------------------------------------------------


  energy-cutoff  :      650.00
  volume of cell :     1949.98
      direct lattice vectors                 reciprocal lattice vectors
    15.424822020  0.000000000  0.000000000     0.064830570  0.000000000  0.000000000
     0.000000000 11.210242420  0.000000000     0.000000000  0.089204137  0.000000000
     0.000000000  0.000000000 11.277026980     0.000000000  0.000000000  0.088675854

  length of vectors
    15.424822020 11.210242420 11.277026980     0.064830570  0.089204137  0.088675854


 
 k-points in units of 2pi/SCALE and weight: # No comment                            
   0.00000000  0.00000000  0.00000000       0.056
   0.03241528  0.00000000  0.00000000       0.056
   0.00000000  0.02973471  0.00000000       0.111
   0.03241528  0.02973471  0.00000000       0.111
   0.00000000  0.00000000  0.02955862       0.111
   0.03241528  0.00000000  0.02955862       0.111
   0.00000000  0.02973471  0.02955862       0.111
   0.03241528  0.02973471  0.02955862       0.111
   0.00000000 -0.02973471  0.02955862       0.111
   0.03241528 -0.02973471  0.02955862       0.111
 
 k-points in reciprocal lattice and weights: # No comment                            
   0.00000000  0.00000000  0.00000000       0.056
   0.50000000  0.00000000  0.00000000       0.056
   0.00000000  0.33333333  0.00000000       0.111
   0.50000000  0.33333333  0.00000000       0.111
   0.00000000  0.00000000  0.33333333       0.111
   0.50000000  0.00000000  0.33333333       0.111
   0.00000000  0.33333333  0.33333333       0.111
   0.50000000  0.33333333  0.33333333       0.111
   0.00000000 -0.33333333  0.33333333       0.111
   0.50000000 -0.33333333  0.33333333       0.111
 
 position of ions in fractional coordinates (direct lattice) 
   0.12500000  0.25000000  0.46751010
   0.62500000  0.25000000  0.46751010
   0.12500000  0.75000000  0.46751010
   0.62500000  0.75000000  0.46751010
   0.12500000  0.25000000  0.96751010
   0.62500000  0.25000000  0.96751010
   0.12500000  0.75000000  0.96751010
   0.62500000  0.75000000  0.96751010
   0.12500000  0.00000000  0.28248990
   0.62500000  0.00000000  0.28248990
   0.12500000  0.50000000  0.28248990
   0.62500000  0.50000000  0.28248990
   0.12500000  0.00000000  0.78248990
   0.62500000  0.00000000  0.78248990
   0.12500000  0.50000000  0.78248990
   0.62500000  0.50000000  0.78248990
   0.37500000  0.25000000  0.03248990
   0.87500000  0.25000000  0.03248990
   0.37500000  0.75000000  0.03248990
   0.87500000  0.75000000  0.03248990
   0.37500000  0.25000000  0.53248990
   0.87500000  0.25000000  0.53248990
   0.37500000  0.75000000  0.53248990
   0.87500000  0.75000000  0.53248990
   0.37500000  0.00000000  0.21751010
   0.87500000  0.00000000  0.21751010
   0.37500000  0.50000000  0.21751010
   0.87500000  0.50000000  0.21751010
   0.37500000  0.00000000  0.71751010
   0.87500000  0.00000000  0.71751010
   0.37500000  0.50000000  0.71751010
   0.87500000  0.50000000  0.71751010
   0.26924068  0.37500000  0.37500000
   0.76924068  0.37500000  0.37500000
   0.26924068  0.87500000  0.37500000
   0.76924068  0.87500000  0.37500000
   0.26924068  0.37500000  0.87500000
   0.76924068  0.37500000  0.87500000
   0.26924068  0.87500000  0.87500000
   0.76924068  0.87500000  0.87500000
   0.23075932  0.12500000  0.12500000
   0.73075932  0.12500000  0.12500000
   0.23075932  0.62500000  0.12500000
   0.73075932  0.62500000  0.12500000
   0.23075932  0.12500000  0.62500000
   0.73075932  0.12500000  0.62500000
   0.23075932  0.62500000  0.62500000
   0.73075932  0.62500000  0.62500000
   0.01924068  0.37500000  0.12500000
   0.51924068  0.37500000  0.12500000
   0.01924068  0.87500000  0.12500000
   0.51924068  0.87500000  0.12500000
   0.01924068  0.37500000  0.62500000
   0.51924068  0.37500000  0.62500000
   0.01924068  0.87500000  0.62500000
   0.51924068  0.87500000  0.62500000
   0.48075932  0.12500000  0.37500000
   0.98075932  0.12500000  0.37500000
   0.48075932  0.62500000  0.37500000
   0.98075932  0.62500000  0.37500000
   0.48075932  0.12500000  0.87500000
   0.98075932  0.12500000  0.87500000
   0.48075932  0.62500000  0.87500000
   0.98075932  0.62500000  0.87500000
   0.48659091  0.37552443  0.37500000
   0.98606648  0.37500000  0.37500000
   0.48606648  0.87500000  0.37500000
   0.98606648  0.87500000  0.37500000
   0.48606648  0.37500000  0.87500000
   0.98606648  0.37500000  0.87500000
   0.48606648  0.87500000  0.87500000
   0.98606648  0.87500000  0.87500000
   0.01393352  0.12500000  0.12500000
   0.51393352  0.12500000  0.12500000
   0.01393352  0.62500000  0.12500000
   0.51393352  0.62500000  0.12500000
   0.01393352  0.12500000  0.62500000
   0.51393352  0.12500000  0.62500000
   0.01393352  0.62500000  0.62500000
   0.51393352  0.62500000  0.62500000
   0.23606648  0.37500000  0.12500000
   0.73606648  0.37500000  0.12500000
   0.23606648  0.87500000  0.12500000
   0.73606648  0.87500000  0.12500000
   0.23606648  0.37500000  0.62500000
   0.73606648  0.37500000  0.62500000
   0.23606648  0.87500000  0.62500000
   0.73606648  0.87500000  0.62500000
   0.26393352  0.12500000  0.37500000
   0.76393352  0.12500000  0.37500000
   0.26393352  0.62500000  0.37500000
   0.76393352  0.62500000  0.37500000
   0.26393352  0.12500000  0.87500000
   0.76393352  0.12500000  0.87500000
   0.26393352  0.62500000  0.87500000
   0.76393352  0.62500000  0.87500000
   0.12500000  0.00000000  0.50106053
   0.62500000  0.00000000  0.50106053
   0.12500000  0.50000000  0.50106053
   0.62500000  0.50000000  0.50106053
   0.12500000  0.00000000  0.00106053
   0.62500000  0.00000000  0.00106053
   0.12500000  0.50000000  0.00106053
   0.62500000  0.50000000  0.00106053
   0.12500000  0.25000000  0.24893947
   0.62500000  0.25000000  0.24893947
   0.12500000  0.75000000  0.24893947
   0.62500000  0.75000000  0.24893947
   0.12500000  0.25000000  0.74893947
   0.62500000  0.25000000  0.74893947
   0.12500000  0.75000000  0.74893947
   0.62500000  0.75000000  0.74893947
   0.37500000  0.00000000  0.99893947
   0.87500000  0.00000000  0.99893947
   0.37500000  0.50000000  0.99893947
   0.87500000  0.50000000  0.99893947
   0.37500000  0.00000000  0.49893947
   0.87500000  0.00000000  0.49893947
   0.37500000  0.50000000  0.49893947
   0.87500000  0.50000000  0.49893947
   0.37500000  0.25000000  0.25106053
   0.87500000  0.25000000  0.25106053
   0.37500000  0.75000000  0.25106053
   0.87500000  0.75000000  0.25106053
   0.37500000  0.25000000  0.75106053
   0.87500000  0.25000000  0.75106053
   0.37500000  0.75000000  0.75106053
   0.87500000  0.75000000  0.75106053
   0.00000000  0.25000000  0.00000000
   0.50000000  0.25000000  0.00000000
   0.00000000  0.75000000  0.00000000
   0.50000000  0.75000000  0.00000000
   0.00000000  0.25000000  0.50000000
   0.50000000  0.25000000  0.50000000
   0.00000000  0.75000000  0.50000000
   0.50000000  0.75000000  0.50000000
   0.00000000  0.00000000  0.25000000
   0.50000000  0.00000000  0.25000000
   0.00000000  0.50000000  0.25000000
   0.50000000  0.50000000  0.25000000
   0.00000000  0.00000000  0.75000000
   0.50000000  0.00000000  0.75000000
   0.00000000  0.50000000  0.75000000
   0.50000000  0.50000000  0.75000000
   0.25000000  0.25000000  0.00000000
   0.75000000  0.25000000  0.00000000
   0.25000000  0.75000000  0.00000000
   0.75000000  0.75000000  0.00000000
   0.25000000  0.25000000  0.50000000
   0.75000000  0.25000000  0.50000000
   0.25000000  0.75000000  0.50000000
   0.75000000  0.75000000  0.50000000
   0.25000000  0.00000000  0.25000000
   0.75000000  0.00000000  0.25000000
   0.25000000  0.50000000  0.25000000
   0.75000000  0.50000000  0.25000000
   0.25000000  0.00000000  0.75000000
   0.75000000  0.00000000  0.75000000
   0.25000000  0.50000000  0.75000000
   0.75000000  0.50000000  0.75000000
 
 position of ions in cartesian coordinates  (Angst):
   1.92810275  2.80256061  5.27212395
   9.64051376  2.80256061  5.27212395
   1.92810275  8.40768182  5.27212395
   9.64051376  8.40768182  5.27212395
   1.92810275  2.80256061 10.91063744
   9.64051376  2.80256061 10.91063744
   1.92810275  8.40768182 10.91063744
   9.64051376  8.40768182 10.91063744
   1.92810275  0.00000000  3.18564628
   9.64051376  0.00000000  3.18564628
   1.92810275  5.60512121  3.18564628
   9.64051376  5.60512121  3.18564628
   1.92810275  0.00000000  8.82415977
   9.64051376  0.00000000  8.82415977
   1.92810275  5.60512121  8.82415977
   9.64051376  5.60512121  8.82415977
   5.78430826  2.80256061  0.36638954
  13.49671927  2.80256061  0.36638954
   5.78430826  8.40768182  0.36638954
  13.49671927  8.40768182  0.36638954
   5.78430826  2.80256061  6.00490303
  13.49671927  2.80256061  6.00490303
   5.78430826  8.40768182  6.00490303
  13.49671927  8.40768182  6.00490303
   5.78430826  0.00000000  2.45286721
  13.49671927  0.00000000  2.45286721
   5.78430826  5.60512121  2.45286721
  13.49671927  5.60512121  2.45286721
   5.78430826  0.00000000  8.09138070
  13.49671927  0.00000000  8.09138070
   5.78430826  5.60512121  8.09138070
  13.49671927  5.60512121  8.09138070
   4.15298957  4.20384091  4.22888512
  11.86540058  4.20384091  4.22888512
   4.15298957  9.80896212  4.22888512
  11.86540058  9.80896212  4.22888512
   4.15298957  4.20384091  9.86739861
  11.86540058  4.20384091  9.86739861
   4.15298957  9.80896212  9.86739861
  11.86540058  9.80896212  9.86739861
   3.55942144  1.40128030  1.40962837
  11.27183245  1.40128030  1.40962837
   3.55942144  7.00640151  1.40962837
  11.27183245  7.00640151  1.40962837
   3.55942144  1.40128030  7.04814186
  11.27183245  1.40128030  7.04814186
   3.55942144  7.00640151  7.04814186
  11.27183245  7.00640151  7.04814186
   0.29678406  4.20384091  1.40962837
   8.00919507  4.20384091  1.40962837
   0.29678406  9.80896212  1.40962837
   8.00919507  9.80896212  1.40962837
   0.29678406  4.20384091  7.04814186
   8.00919507  4.20384091  7.04814186
   0.29678406  9.80896212  7.04814186
   8.00919507  9.80896212  7.04814186
   7.41562695  1.40128030  4.22888512
  15.12803796  1.40128030  4.22888512
   7.41562695  7.00640151  4.22888512
  15.12803796  7.00640151  4.22888512
   7.41562695  1.40128030  9.86739861
  15.12803796  1.40128030  9.86739861
   7.41562695  7.00640151  9.86739861
  15.12803796  7.00640151  9.86739861
   7.50557818  4.20971995  4.22888512
  15.20989988  4.20384091  4.22888512
   7.49748887  9.80896212  4.22888512
  15.20989988  9.80896212  4.22888512
   7.49748887  4.20384091  9.86739861
  15.20989988  4.20384091  9.86739861
   7.49748887  9.80896212  9.86739861
  15.20989988  9.80896212  9.86739861
   0.21492214  1.40128030  1.40962837
   7.92733315  1.40128030  1.40962837
   0.21492214  7.00640151  1.40962837
   7.92733315  7.00640151  1.40962837
   0.21492214  1.40128030  7.04814186
   7.92733315  1.40128030  7.04814186
   0.21492214  7.00640151  7.04814186
   7.92733315  7.00640151  7.04814186
   3.64128336  4.20384091  1.40962837
  11.35369437  4.20384091  1.40962837
   3.64128336  9.80896212  1.40962837
  11.35369437  9.80896212  1.40962837
   3.64128336  4.20384091  7.04814186
  11.35369437  4.20384091  7.04814186
   3.64128336  9.80896212  7.04814186
  11.35369437  9.80896212  7.04814186
   4.07112765  1.40128030  4.22888512
  11.78353866  1.40128030  4.22888512
   4.07112765  7.00640151  4.22888512
  11.78353866  7.00640151  4.22888512
   4.07112765  1.40128030  9.86739861
  11.78353866  1.40128030  9.86739861
   4.07112765  7.00640151  9.86739861
  11.78353866  7.00640151  9.86739861
   1.92810275  0.00000000  5.65047312
   9.64051376  0.00000000  5.65047312
   1.92810275  5.60512121  5.65047312
   9.64051376  5.60512121  5.65047312
   1.92810275  0.00000000  0.01195963
   9.64051376  0.00000000  0.01195963
   1.92810275  5.60512121  0.01195963
   9.64051376  5.60512121  0.01195963
   1.92810275  2.80256061  2.80729712
   9.64051376  2.80256061  2.80729712
   1.92810275  8.40768182  2.80729712
   9.64051376  8.40768182  2.80729712
   1.92810275  2.80256061  8.44581061
   9.64051376  2.80256061  8.44581061
   1.92810275  8.40768182  8.44581061
   9.64051376  8.40768182  8.44581061
   5.78430826  0.00000000 11.26506735
  13.49671927  0.00000000 11.26506735
   5.78430826  5.60512121 11.26506735
  13.49671927  5.60512121 11.26506735
   5.78430826  0.00000000  5.62655386
  13.49671927  0.00000000  5.62655386
   5.78430826  5.60512121  5.62655386
  13.49671927  5.60512121  5.62655386
   5.78430826  2.80256061  2.83121637
  13.49671927  2.80256061  2.83121637
   5.78430826  8.40768182  2.83121637
  13.49671927  8.40768182  2.83121637
   5.78430826  2.80256061  8.46972986
  13.49671927  2.80256061  8.46972986
   5.78430826  8.40768182  8.46972986
  13.49671927  8.40768182  8.46972986
   0.00000000  2.80256061  0.00000000
   7.71241101  2.80256061  0.00000000
   0.00000000  8.40768182  0.00000000
   7.71241101  8.40768182  0.00000000
   0.00000000  2.80256061  5.63851349
   7.71241101  2.80256061  5.63851349
   0.00000000  8.40768182  5.63851349
   7.71241101  8.40768182  5.63851349
   0.00000000  0.00000000  2.81925675
   7.71241101  0.00000000  2.81925675
   0.00000000  5.60512121  2.81925675
   7.71241101  5.60512121  2.81925675
   0.00000000  0.00000000  8.45777023
   7.71241101  0.00000000  8.45777023
   0.00000000  5.60512121  8.45777023
   7.71241101  5.60512121  8.45777023
   3.85620551  2.80256061  0.00000000
  11.56861652  2.80256061  0.00000000
   3.85620551  8.40768182  0.00000000
  11.56861652  8.40768182  0.00000000
   3.85620551  2.80256061  5.63851349
  11.56861652  2.80256061  5.63851349
   3.85620551  8.40768182  5.63851349
  11.56861652  8.40768182  5.63851349
   3.85620551  0.00000000  2.81925675
  11.56861652  0.00000000  2.81925675
   3.85620551  5.60512121  2.81925675
  11.56861652  5.60512121  2.81925675
   3.85620551  0.00000000  8.45777023
  11.56861652  0.00000000  8.45777023
   3.85620551  5.60512121  8.45777023
  11.56861652  5.60512121  8.45777023
 


--------------------------------------------------------------------------------------------------------


 k-point  1 :   0.0000 0.0000 0.0000  plane waves:   73361
 k-point  2 :   0.5000 0.0000 0.0000  plane waves:   73360
 k-point  3 :   0.0000 0.3333 0.0000  plane waves:   73390
 k-point  4 :   0.5000 0.3333 0.0000  plane waves:   73436
 k-point  5 :   0.0000 0.0000 0.3333  plane waves:   73375
 k-point  6 :   0.5000 0.0000 0.3333  plane waves:   73362
 k-point  7 :   0.0000 0.3333 0.3333  plane waves:   73334
 k-point  8 :   0.5000 0.3333 0.3333  plane waves:   73372
 k-point  9 :   0.0000-0.3333 0.3333  plane waves:   73334
 k-point 10 :   0.5000-0.3333 0.3333  plane waves:   73372

 maximum and minimum number of plane-waves per node :     12308    12161

 maximum number of plane-waves:     73436
 maximum index in each direction: 
   IXMAX=   32   IYMAX=   23   IZMAX=   23
   IXMIN=  -32   IYMIN=  -23   IZMIN=  -23


 parallel 3D FFT for wavefunctions:
    minimum data exchange during FFTs selected (reduces bandwidth)
 parallel 3D FFT for charge:
    minimum data exchange during FFTs selected (reduces bandwidth)


 total amount of memory used by VASP MPI-rank0   984794. kBytes
=======================================================================

   base      :      30000. kBytes
   nonl-proj :     101936. kBytes
   fftplans  :      64934. kBytes
   grid      :      55554. kBytes
   one-center:        839. kBytes
   wavefun   :     731531. kBytes
 
     INWAV:  cpu time    0.0000: real time    0.0000
 Broyden mixing: mesh for mixing (old mesh)
   NGX = 65   NGY = 47   NGZ = 47
  (NGX  =256   NGY  =192   NGZ  =192)
  gives a total of 143585 points

 initial charge density was supplied:
 number of electron    1024.0000020 magnetization     128.0001055
 keeping initial charge density in first step


--------------------------------------------------------------------------------------------------------


 Maximum index for augmentation-charges         8055 (set IRDMAX)


--------------------------------------------------------------------------------------------------------


 First call to EWALD:  gamma=   0.142
 Maximum number of real-space cells 2x 3x 3
 Maximum number of reciprocal cells 3x 3x 3

    FEWALD:  cpu time    0.0161: real time    0.0195


--------------------------------------- Iteration      1(   1)  ---------------------------------------


    POTLOK:  cpu time    0.6757: real time    0.6914
    SETDIJ:  cpu time    1.6794: real time    1.6998
     EDDAV:  cpu time  355.9953: real time  362.5161
       DOS:  cpu time    0.0046: real time    0.0048
    --------------------------------------------
      LOOP:  cpu time  358.3550: real time  364.9121

 eigenvalue-minimisations  : 30688
 total energy-change (2. order) : 0.1345941E+05  (-0.5521201E+05)
 number of electron    1024.0000020 magnetization     128.0001055
 augmentation part     1024.0000020 magnetization     128.0001055

 Free energy of the ion-electron system (eV)
  ---------------------------------------------------
  alpha Z        PSCENC =      2574.33730679
  Ewald energy   TEWEN  =    -67378.42243822
  -Hartree energ DENC   =    -36045.64401303
  -exchange      EXHF   =         0.00000000
  -V(xc)+E(xc)   XCENC  =      4397.16396477
  PAW double counting   =    108725.82191982  -112342.66432617
  entropy T*S    EENTRO =        -0.02989496
  eigenvalues    EBANDS =      -780.43942088
  atomic energy  EATOM  =    114309.28505226
  Solvation  Ediel_sol  =         0.00000000
  ---------------------------------------------------
  free energy    TOTEN  =     13459.40815037 eV

  energy without entropy =    13459.43804533  energy(sigma->0) =    13459.42309785


--------------------------------------------------------------------------------------------------------




--------------------------------------- Iteration      1(   2)  ---------------------------------------


     EDDAV:  cpu time  341.8967: real time  348.0501
       DOS:  cpu time    0.0053: real time    0.0053
    --------------------------------------------
      LOOP:  cpu time  341.9020: real time  348.0554

 eigenvalue-minimisations  : 29280
 total energy-change (2. order) :-0.1205100E+05  (-0.1120293E+05)
 number of electron    1024.0000020 magnetization     128.0001055
 augmentation part     1024.0000020 magnetization     128.0001055

 Free energy of the ion-electron system (eV)
  ---------------------------------------------------
  alpha Z        PSCENC =      2574.33730679
  Ewald energy   TEWEN  =    -67378.42243822
  -Hartree energ DENC   =    -36045.64401303
  -exchange      EXHF   =         0.00000000
  -V(xc)+E(xc)   XCENC  =      4397.16396477
  PAW double counting   =    108725.82191982  -112342.66432617
  entropy T*S    EENTRO =        -0.07024590
  eigenvalues    EBANDS =    -12831.39670305
  atomic energy  EATOM  =    114309.28505226
  Solvation  Ediel_sol  =         0.00000000
  ---------------------------------------------------
  free energy    TOTEN  =      1408.41051726 eV

  energy without entropy =     1408.48076317  energy(sigma->0) =     1408.44564022


--------------------------------------------------------------------------------------------------------




--------------------------------------- Iteration      1(   3)  ---------------------------------------


     EDDAV:  cpu time  376.5064: real time  383.2774
       DOS:  cpu time    0.0023: real time    0.0023
    --------------------------------------------
      LOOP:  cpu time  376.5088: real time  383.2797

 eigenvalue-minimisations  : 32936
 total energy-change (2. order) :-0.1936367E+04  (-0.1738803E+04)
 number of electron    1024.0000020 magnetization     128.0001055
 augmentation part     1024.0000020 magnetization     128.0001055

 Free energy of the ion-electron system (eV)
  ---------------------------------------------------
  alpha Z        PSCENC =      2574.33730679
  Ewald energy   TEWEN  =    -67378.42243822
  -Hartree energ DENC   =    -36045.64401303
  -exchange      EXHF   =         0.00000000
  -V(xc)+E(xc)   XCENC  =      4397.16396477
  PAW double counting   =    108725.82191982  -112342.66432617
  entropy T*S    EENTRO =        -0.00000000
  eigenvalues    EBANDS =    -14767.83352428
  atomic energy  EATOM  =    114309.28505226
  Solvation  Ediel_sol  =         0.00000000
  ---------------------------------------------------
  free energy    TOTEN  =      -527.95605806 eV

  energy without entropy =     -527.95605806  energy(sigma->0) =     -527.95605806


--------------------------------------------------------------------------------------------------------




--------------------------------------- Iteration      1(   4)  ---------------------------------------


     EDDAV:  cpu time  431.1756: real time  438.4447
       DOS:  cpu time    0.0022: real time    0.0022
    --------------------------------------------
      LOOP:  cpu time  431.1779: real time  438.4469

 eigenvalue-minimisations  : 39400
 total energy-change (2. order) :-0.2609926E+03  (-0.2581468E+03)
 number of electron    1024.0000020 magnetization     128.0001055
 augmentation part     1024.0000020 magnetization     128.0001055

 Free energy of the ion-electron system (eV)
  ---------------------------------------------------
  alpha Z        PSCENC =      2574.33730679
  Ewald energy   TEWEN  =    -67378.42243822
  -Hartree energ DENC   =    -36045.64401303
  -exchange      EXHF   =         0.00000000
  -V(xc)+E(xc)   XCENC  =      4397.16396477
  PAW double counting   =    108725.82191982  -112342.66432617
  entropy T*S    EENTRO =        -0.00000000
  eigenvalues    EBANDS =    -15028.82608746
  atomic energy  EATOM  =    114309.28505226
  Solvation  Ediel_sol  =         0.00000000
  ---------------------------------------------------
  free energy    TOTEN  =      -788.94862124 eV

  energy without entropy =     -788.94862124  energy(sigma->0) =     -788.94862124


--------------------------------------------------------------------------------------------------------




--------------------------------------- Iteration      1(   5)  ---------------------------------------


     EDDAV:  cpu time  540.2841: real time  548.9330
       DOS:  cpu time    0.0017: real time    0.0017
    CHARGE:  cpu time    8.3337: real time    8.5278
    MIXING:  cpu time    0.0412: real time    0.0426
    --------------------------------------------
      LOOP:  cpu time  548.6607: real time  557.5052

 eigenvalue-minimisations  : 51256
 total energy-change (2. order) :-0.3148937E+02  (-0.3123827E+02)
 number of electron    1024.0000020 magnetization     128.0000816
 augmentation part      329.1599287 magnetization      84.1491290

 Broyden mixing:
  rms(total) = 0.32259E+00    rms(broyden)= 0.32234E+00
  rms(prec ) = 0.32608E+00
  weight for this iteration     100.00

 Free energy of the ion-electron system (eV)
  ---------------------------------------------------
  alpha Z        PSCENC =      2574.33730679
  Ewald energy   TEWEN  =    -67378.42243822
  -Hartree energ DENC   =    -36045.64401303
  -exchange      EXHF   =         0.00000000
  -V(xc)+E(xc)   XCENC  =      4397.16396477
  PAW double counting   =    108725.82191982  -112342.66432617
  entropy T*S    EENTRO =        -0.00000000
  eigenvalues    EBANDS =    -15060.31545990
  atomic energy  EATOM  =    114309.28505226
  Solvation  Ediel_sol  =         0.00000000
  ---------------------------------------------------
  free energy    TOTEN  =      -820.43799368 eV

  energy without entropy =     -820.43799368  energy(sigma->0) =     -820.43799368


--------------------------------------------------------------------------------------------------------




--------------------------------------- Iteration      1(   6)  ---------------------------------------


    POTLOK:  cpu time    0.6725: real time    0.6900
    SETDIJ:  cpu time    1.6665: real time    1.6749
     EDDAV:  cpu time  449.7160: real time  457.1792
       DOS:  cpu time    0.0017: real time    0.0017
    CHARGE:  cpu time    8.4084: real time    8.5920
    MIXING:  cpu time    0.0338: real time    0.0342
    --------------------------------------------
      LOOP:  cpu time  460.4989: real time  468.1721

 eigenvalue-minimisations  : 41128
 total energy-change (2. order) :-0.1413488E+01  (-0.1458003E+01)
 number of electron    1024.0000020 magnetization     128.0000683
 augmentation part      327.4816848 magnetization      84.3385877

 Broyden mixing:
  rms(total) = 0.13086E+00    rms(broyden)= 0.13063E+00
  rms(prec ) = 0.13165E+00
  weight for this iteration     100.00

 eigenvalues of (default mixing * dielectric matrix)
  average eigenvalue GAMMA=   0.6858
  0.6858

 Free energy of the ion-electron system (eV)
  ---------------------------------------------------
  alpha Z        PSCENC =      2574.33730679
  Ewald energy   TEWEN  =    -67378.42243822
  -Hartree energ DENC   =    -36037.20649908
  -exchange      EXHF   =         0.00000000
  -V(xc)+E(xc)   XCENC  =      4395.91674089
  PAW double counting   =    108534.03885531  -112145.34432538
  entropy T*S    EENTRO =        -0.00000000
  eigenvalues    EBANDS =    -15074.45617454
  atomic energy  EATOM  =    114309.28505226
  Solvation  Ediel_sol  =         0.00000000
  ---------------------------------------------------
  free energy    TOTEN  =      -821.85148198 eV

  energy without entropy =     -821.85148198  energy(sigma->0) =     -821.85148198


--------------------------------------------------------------------------------------------------------




--------------------------------------- Iteration      1(   7)  ---------------------------------------


    POTLOK:  cpu time    0.6875: real time    0.6944
    SETDIJ:  cpu time    1.6770: real time    1.6933
     EDDAV:  cpu time  494.3852: real time  502.7160
       DOS:  cpu time    0.0017: real time    0.0017
    CHARGE:  cpu time    8.2853: real time    8.5547
    MIXING:  cpu time    0.0338: real time    0.0346
    --------------------------------------------
      LOOP:  cpu time  505.0706: real time  513.6947

 eigenvalue-minimisations  : 46784
 total energy-change (2. order) :-0.7389178E-01  (-0.7459508E-01)
 number of electron    1024.0000020 magnetization     128.0000626
 augmentation part      327.1705860 magnetization      84.2679289

 Broyden mixing:
  rms(total) = 0.97296E-01    rms(broyden)= 0.97201E-01
  rms(prec ) = 0.98687E-01
  weight for this iteration     100.00

 eigenvalues of (default mixing * dielectric matrix)
  average eigenvalue GAMMA=   0.5789
  0.5789  0.5789

 Free energy of the ion-electron system (eV)
  ---------------------------------------------------
  alpha Z        PSCENC =      2574.33730679
  Ewald energy   TEWEN  =    -67378.42243822
  -Hartree energ DENC   =    -36039.85408142
  -exchange      EXHF   =         0.00000000
  -V(xc)+E(xc)   XCENC  =      4396.25391955
  PAW double counting   =    108579.54227819  -112192.24239788
  entropy T*S    EENTRO =        -0.00000000
  eigenvalues    EBANDS =    -15070.82501303
  atomic energy  EATOM  =    114309.28505226
  Solvation  Ediel_sol  =         0.00000000
  ---------------------------------------------------
  free energy    TOTEN  =      -821.92537375 eV

  energy without entropy =     -821.92537375  energy(sigma->0) =     -821.92537375


--------------------------------------------------------------------------------------------------------




--------------------------------------- Iteration      1(   8)  ---------------------------------------


    POTLOK:  cpu time    0.6656: real time    0.6884
    SETDIJ:  cpu time    1.6822: real time    1.7019
     EDDAV:  cpu time  479.0107: real time  486.9661
       DOS:  cpu time    0.0018: real time    0.0018
    CHARGE:  cpu time    8.4239: real time    8.5958
    MIXING:  cpu time    0.0283: real time    0.0287
    --------------------------------------------
      LOOP:  cpu time  489.8125: real time  497.9827

 eigenvalue-minimisations  : 44896
 total energy-change (2. order) :-0.3970704E-03  (-0.2948498E-02)
 number of electron    1024.0000020 magnetization     128.0000598
 augmentation part      327.1144535 magnetization      84.2580850

 Broyden mixing:
  rms(total) = 0.85349E-01    rms(broyden)= 0.85340E-01
  rms(prec ) = 0.86703E-01
  weight for this iteration     100.00

 eigenvalues of (default mixing * dielectric matrix)
  average eigenvalue GAMMA=   0.4839
  0.5452  0.5452  0.3615

 Free energy of the ion-electron system (eV)
  ---------------------------------------------------
  alpha Z        PSCENC =      2574.33730679
  Ewald energy   TEWEN  =    -67378.42243822
  -Hartree energ DENC   =    -36040.69153551
  -exchange      EXHF   =         0.00000000
  -V(xc)+E(xc)   XCENC  =      4396.39176382
  PAW double counting   =    108604.20765331  -112217.60787460
  entropy T*S    EENTRO =        -0.00000000
  eigenvalues    EBANDS =    -15069.42569866
  atomic energy  EATOM  =    114309.28505226
  Solvation  Ediel_sol  =         0.00000000
  ---------------------------------------------------
  free energy    TOTEN  =      -821.92577082 eV

  energy without entropy =     -821.92577082  energy(sigma->0) =     -821.92577082


--------------------------------------------------------------------------------------------------------




--------------------------------------- Iteration      1(   9)  ---------------------------------------


    POTLOK:  cpu time    0.6807: real time    0.7099
    SETDIJ:  cpu time    1.6731: real time    1.6775
     EDDAV:  cpu time  504.4104: real time  513.5487
       DOS:  cpu time    0.0019: real time    0.0020
    CHARGE:  cpu time    8.4336: real time    8.5839
    MIXING:  cpu time    0.0305: real time    0.0340
    --------------------------------------------
      LOOP:  cpu time  515.2302: real time  524.5560

 eigenvalue-minimisations  : 47568
 total energy-change (2. order) : 0.1098382E-02  (-0.1717402E-03)
 number of electron    1024.0000020 magnetization     128.0000464
 augmentation part      327.1222064 magnetization      84.2536702

 Broyden mixing:
  rms(total) = 0.77755E-01    rms(broyden)= 0.77755E-01
  rms(prec ) = 0.78974E-01
  weight for this iteration     100.00

 eigenvalues of (default mixing * dielectric matrix)
  average eigenvalue GAMMA=   0.8509
  1.1511  1.1511  0.5506  0.5506

 Free energy of the ion-electron system (eV)
  ---------------------------------------------------
  alpha Z        PSCENC =      2574.33730679
  Ewald energy   TEWEN  =    -67378.42243822
  -Hartree energ DENC   =    -36040.98741612
  -exchange      EXHF   =         0.00000000
  -V(xc)+E(xc)   XCENC  =      4396.46012719
  PAW double counting   =    108612.96340071  -112226.66795369
  entropy T*S    EENTRO =        -0.00000000
  eigenvalues    EBANDS =    -15068.89275136
  atomic energy  EATOM  =    114309.28505226
  Solvation  Ediel_sol  =         0.00000000
  ---------------------------------------------------
  free energy    TOTEN  =      -821.92467244 eV

  energy without entropy =     -821.92467244  energy(sigma->0) =     -821.92467244


--------------------------------------------------------------------------------------------------------




--------------------------------------- Iteration      1(  10)  ---------------------------------------


    POTLOK:  cpu time    0.6937: real time    0.7018
    SETDIJ:  cpu time    1.6658: real time    1.6833
     EDDAV:  cpu time  531.6994: real time  540.5194
       DOS:  cpu time    0.0019: real time    0.0019
    CHARGE:  cpu time    8.4322: real time    8.5982
    MIXING:  cpu time    0.0373: real time    0.0373
    --------------------------------------------
      LOOP:  cpu time  542.5303: real time  551.5419

 eigenvalue-minimisations  : 50768
 total energy-change (2. order) : 0.3273117E-02  (-0.1537016E-03)
 number of electron    1024.0000020 magnetization     128.0000247
 augmentation part      327.1522272 magnetization      84.2518097

 Broyden mixing:
  rms(total) = 0.47721E-01    rms(broyden)= 0.47721E-01
  rms(prec ) = 0.48318E-01
  weight for this iteration     100.00

 eigenvalues of (default mixing * dielectric matrix)
  average eigenvalue GAMMA=   0.9376
  1.4804  1.4804  0.6153  0.6153  0.4966

 Free energy of the ion-electron system (eV)
  ---------------------------------------------------
  alpha Z        PSCENC =      2574.33730679
  Ewald energy   TEWEN  =    -67378.42243822
  -Hartree energ DENC   =    -36042.95403740
  -exchange      EXHF   =         0.00000000
  -V(xc)+E(xc)   XCENC  =      4396.77468977
  PAW double counting   =    108650.48016492  -112265.52314276
  entropy T*S    EENTRO =        -0.00000000
  eigenvalues    EBANDS =    -15065.89899468
  atomic energy  EATOM  =    114309.28505226
  Solvation  Ediel_sol  =         0.00000000
  ---------------------------------------------------
  free energy    TOTEN  =      -821.92139932 eV

  energy without entropy =     -821.92139932  energy(sigma->0) =     -821.92139932


--------------------------------------------------------------------------------------------------------




--------------------------------------- Iteration      1(  11)  ---------------------------------------


    POTLOK:  cpu time    0.6714: real time    0.6731
    SETDIJ:  cpu time    1.6826: real time    1.6892
     EDDAV:  cpu time  500.3993: real time  508.3659
       DOS:  cpu time    0.0018: real time    0.0018
    CHARGE:  cpu time    8.4978: real time    8.6201
    MIXING:  cpu time    0.0390: real time    0.0411
    --------------------------------------------
      LOOP:  cpu time  511.2919: real time  519.3912

 eigenvalue-minimisations  : 47304
 total energy-change (2. order) : 0.1350296E-02  (-0.3454383E-03)
 number of electron    1024.0000020 magnetization     128.0000183
 augmentation part      327.1965645 magnetization      84.2496258

 Broyden mixing:
  rms(total) = 0.10813E-01    rms(broyden)= 0.10807E-01
  rms(prec ) = 0.10897E-01
  weight for this iteration     100.00

 eigenvalues of (default mixing * dielectric matrix)
  average eigenvalue GAMMA=   0.9757
  1.9919  1.1681  0.7774  0.7774  0.6221  0.5172

 Free energy of the ion-electron system (eV)
  ---------------------------------------------------
  alpha Z        PSCENC =      2574.33730679
  Ewald energy   TEWEN  =    -67378.42243822
  -Hartree energ DENC   =    -36045.68159094
  -exchange      EXHF   =         0.00000000
  -V(xc)+E(xc)   XCENC  =      4397.19466855
  PAW double counting   =    108707.71354604  -112324.63211102
  entropy T*S    EENTRO =        -0.00000000
  eigenvalues    EBANDS =    -15061.71448248
  atomic energy  EATOM  =    114309.28505226
  Solvation  Ediel_sol  =         0.00000000
  ---------------------------------------------------
  free energy    TOTEN  =      -821.92004903 eV

  energy without entropy =     -821.92004903  energy(sigma->0) =     -821.92004903


--------------------------------------------------------------------------------------------------------




--------------------------------------- Iteration      1(  12)  ---------------------------------------


    POTLOK:  cpu time    0.6711: real time    0.6835
    SETDIJ:  cpu time    1.6721: real time    1.6926
     EDDAV:  cpu time  435.4181: real time  443.0112
       DOS:  cpu time    0.0020: real time    0.0020
    CHARGE:  cpu time    8.4647: real time    8.6064
    MIXING:  cpu time    0.0271: real time    0.0271
    --------------------------------------------
      LOOP:  cpu time  446.2551: real time  454.0227

 eigenvalue-minimisations  : 39888
 total energy-change (2. order) :-0.1473787E-03  (-0.9186992E-04)
 number of electron    1024.0000020 magnetization     128.0000153
 augmentation part      327.2064429 magnetization      84.2508173

 Broyden mixing:
  rms(total) = 0.95353E-02    rms(broyden)= 0.95340E-02
  rms(prec ) = 0.98188E-02
  weight for this iteration     100.00

 eigenvalues of (default mixing * dielectric matrix)
  average eigenvalue GAMMA=   1.0085
  2.1995  1.0644  1.0644  1.0652  0.5386  0.5386  0.5888

 Free energy of the ion-electron system (eV)
  ---------------------------------------------------
  alpha Z        PSCENC =      2574.33730679
  Ewald energy   TEWEN  =    -67378.42243822
  -Hartree energ DENC   =    -36045.99252280
  -exchange      EXHF   =         0.00000000
  -V(xc)+E(xc)   XCENC  =      4397.24563394
  PAW double counting   =    108719.83164598  -112336.96987273
  entropy T*S    EENTRO =        -0.00000000
  eigenvalues    EBANDS =    -15061.23500161
  atomic energy  EATOM  =    114309.28505226
  Solvation  Ediel_sol  =         0.00000000
  ---------------------------------------------------
  free energy    TOTEN  =      -821.92019641 eV

  energy without entropy =     -821.92019641  energy(sigma->0) =     -821.92019641


--------------------------------------------------------------------------------------------------------




--------------------------------------- Iteration      1(  13)  ---------------------------------------


    POTLOK:  cpu time    0.6790: real time    0.6805
    SETDIJ:  cpu time    1.6921: real time    1.6998
     EDDAV:  cpu time  429.7734: real time  437.2793
       DOS:  cpu time    0.0025: real time    0.0025
    CHARGE:  cpu time    8.4145: real time    8.5876
    MIXING:  cpu time    0.0322: real time    0.0350
    --------------------------------------------
      LOOP:  cpu time  440.5938: real time  448.2847

 eigenvalue-minimisations  : 39064
 total energy-change (2. order) : 0.3207811E-04  (-0.5990544E-05)
 number of electron    1024.0000020 magnetization     128.0000105
 augmentation part      327.2104603 magnetization      84.2506761

 Broyden mixing:
  rms(total) = 0.76797E-02    rms(broyden)= 0.76791E-02
  rms(prec ) = 0.79306E-02
  weight for this iteration     100.00

 eigenvalues of (default mixing * dielectric matrix)
  average eigenvalue GAMMA=   1.1078
  2.4097  1.4953  1.4953  1.0272  0.6694  0.6694  0.5966  0.5000

 Free energy of the ion-electron system (eV)
  ---------------------------------------------------
  alpha Z        PSCENC =      2574.33730679
  Ewald energy   TEWEN  =    -67378.42243822
  -Hartree energ DENC   =    -36045.85649548
  -exchange      EXHF   =         0.00000000
  -V(xc)+E(xc)   XCENC  =      4397.22434862
  PAW double counting   =    108721.39052941  -112338.42887683
  entropy T*S    EENTRO =        -0.00000000
  eigenvalues    EBANDS =    -15061.44959087
  atomic energy  EATOM  =    114309.28505226
  Solvation  Ediel_sol  =         0.00000000
  ---------------------------------------------------
  free energy    TOTEN  =      -821.92016433 eV

  energy without entropy =     -821.92016433  energy(sigma->0) =     -821.92016433


--------------------------------------------------------------------------------------------------------




--------------------------------------- Iteration      1(  14)  ---------------------------------------


    POTLOK:  cpu time    0.6660: real time    0.6732
    SETDIJ:  cpu time    1.6704: real time    1.6817
     EDDAV:  cpu time  399.6374: real time  405.8400
       DOS:  cpu time    0.0019: real time    0.0019
    CHARGE:  cpu time    8.5460: real time    8.6574
    MIXING:  cpu time    0.0384: real time    0.0393
    --------------------------------------------
      LOOP:  cpu time  410.5602: real time  416.8935

 eigenvalue-minimisations  : 35984
 total energy-change (2. order) : 0.3514207E-04  (-0.2485452E-05)
 number of electron    1024.0000020 magnetization     128.0000064
 augmentation part      327.2075454 magnetization      84.2506274

 Broyden mixing:
  rms(total) = 0.38071E-02    rms(broyden)= 0.38064E-02
  rms(prec ) = 0.39448E-02
  weight for this iteration     100.00

 eigenvalues of (default mixing * dielectric matrix)
  average eigenvalue GAMMA=   1.1188
  2.4838  1.5689  1.5689  1.0612  0.8095  0.8095  0.6620  0.5124  0.5932

 Free energy of the ion-electron system (eV)
  ---------------------------------------------------
  alpha Z        PSCENC =      2574.33730679
  Ewald energy   TEWEN  =    -67378.42243822
  -Hartree energ DENC   =    -36045.72524669
  -exchange      EXHF   =         0.00000000
  -V(xc)+E(xc)   XCENC  =      4397.19032833
  PAW double counting   =    108724.06140065  -112340.95664301
  entropy T*S    EENTRO =        -0.00000000
  eigenvalues    EBANDS =    -15061.68988929
  atomic energy  EATOM  =    114309.28505226
  Solvation  Ediel_sol  =         0.00000000
  ---------------------------------------------------
  free energy    TOTEN  =      -821.92012919 eV

  energy without entropy =     -821.92012919  energy(sigma->0) =     -821.92012919


--------------------------------------------------------------------------------------------------------




--------------------------------------- Iteration      1(  15)  ---------------------------------------


    POTLOK:  cpu time    0.6651: real time    0.6769
    SETDIJ:  cpu time    1.6675: real time    1.6866
     EDDAV:  cpu time  386.2804: real time  392.8708
       DOS:  cpu time    0.0017: real time    0.0017
    CHARGE:  cpu time    8.3751: real time    8.5655
    MIXING:  cpu time    0.0424: real time    0.0427
    --------------------------------------------
      LOOP:  cpu time  397.0322: real time  403.8442

 eigenvalue-minimisations  : 34360
 total energy-change (2. order) :-0.3272915E-05  (-0.5764496E-05)
 number of electron    1024.0000020 magnetization     128.0000051
 augmentation part      327.2024051 magnetization      84.2509970

 Broyden mixing:
  rms(total) = 0.74712E-03    rms(broyden)= 0.74324E-03
  rms(prec ) = 0.76866E-03
  weight for this iteration     100.00

 eigenvalues of (default mixing * dielectric matrix)
  average eigenvalue GAMMA=   1.1089
  2.6641  1.6121  1.6121  0.9406  0.9406  0.8687  0.6932  0.6932  0.5104  0.5537

 Free energy of the ion-electron system (eV)
  ---------------------------------------------------
  alpha Z        PSCENC =      2574.33730679
  Ewald energy   TEWEN  =    -67378.42243822
  -Hartree energ DENC   =    -36045.65096768
  -exchange      EXHF   =         0.00000000
  -V(xc)+E(xc)   XCENC  =      4397.16275161
  PAW double counting   =    108725.01447783  -112341.80605323
  entropy T*S    EENTRO =        -0.00000000
  eigenvalues    EBANDS =    -15061.84026181
  atomic energy  EATOM  =    114309.28505226
  Solvation  Ediel_sol  =         0.00000000
  ---------------------------------------------------
  free energy    TOTEN  =      -821.92013246 eV

  energy without entropy =     -821.92013246  energy(sigma->0) =     -821.92013246


--------------------------------------------------------------------------------------------------------




--------------------------------------- Iteration      1(  16)  ---------------------------------------


    POTLOK:  cpu time    0.6488: real time    0.6831
    SETDIJ:  cpu time    1.6657: real time    1.6879
     EDDAV:  cpu time  433.6405: real time  440.5583
       DOS:  cpu time    0.0020: real time    0.0020
    CHARGE:  cpu time    8.3398: real time    8.5268
    MIXING:  cpu time    0.0310: real time    0.0444
    --------------------------------------------
      LOOP:  cpu time  444.3278: real time  451.5025

 eigenvalue-minimisations  : 39840
 total energy-change (2. order) :-0.5502938E-05  (-0.3263612E-05)
 number of electron    1024.0000020 magnetization     128.0000045
 augmentation part      327.1989842 magnetization      84.2509995

 Broyden mixing:
  rms(total) = 0.47494E-03    rms(broyden)= 0.46790E-03
  rms(prec ) = 0.47679E-03
  weight for this iteration     100.00

 eigenvalues of (default mixing * dielectric matrix)
  average eigenvalue GAMMA=   1.0757
  2.7793  1.6331  1.6331  0.9675  0.9675  0.8533  0.6977  0.6977  0.6164  0.4935
  0.4935

 Free energy of the ion-electron system (eV)
  ---------------------------------------------------
  alpha Z        PSCENC =      2574.33730679
  Ewald energy   TEWEN  =    -67378.42243822
  -Hartree energ DENC   =    -36045.66123577
  -exchange      EXHF   =         0.00000000
  -V(xc)+E(xc)   XCENC  =      4397.16307822
  PAW double counting   =    108725.31302631  -112342.12314721
  entropy T*S    EENTRO =        -0.00000000
  eigenvalues    EBANDS =    -15061.81178034
  atomic energy  EATOM  =    114309.28505226
  Solvation  Ediel_sol  =         0.00000000
  ---------------------------------------------------
  free energy    TOTEN  =      -821.92013796 eV

  energy without entropy =     -821.92013796  energy(sigma->0) =     -821.92013796


--------------------------------------------------------------------------------------------------------




--------------------------------------- Iteration      1(  17)  ---------------------------------------


    POTLOK:  cpu time    0.6775: real time    0.6827
    SETDIJ:  cpu time    1.6814: real time    1.6933
     EDDAV:  cpu time  269.2813: real time  273.5179
       DOS:  cpu time    0.0017: real time    0.0018
    --------------------------------------------
      LOOP:  cpu time  271.6418: real time  275.8957

 eigenvalue-minimisations  : 21272
 total energy-change (2. order) :-0.2506276E-06  (-0.6028040E-07)
 number of electron    1024.0000020 magnetization     128.0000045
 augmentation part      327.1989842 magnetization      84.2509995

 Free energy of the ion-electron system (eV)
  ---------------------------------------------------
  alpha Z        PSCENC =      2574.33730679
  Ewald energy   TEWEN  =    -67378.42243822
  -Hartree energ DENC   =    -36045.65520180
  -exchange      EXHF   =         0.00000000
  -V(xc)+E(xc)   XCENC  =      4397.16351191
  PAW double counting   =    108725.48827742  -112342.30717598
  entropy T*S    EENTRO =        -0.00000000
  eigenvalues    EBANDS =    -15061.80947060
  atomic energy  EATOM  =    114309.28505226
  Solvation  Ediel_sol  =         0.00000000
  ---------------------------------------------------
  free energy    TOTEN  =      -821.92013821 eV

  energy without entropy =     -821.92013821  energy(sigma->0) =     -821.92013821


--------------------------------------------------------------------------------------------------------




 average (electrostatic) potential at core
  the test charge radii are     0.7079  0.9500  0.9698  0.7215
  (the norm of the test charge is              1.0000)
       1 -59.3045       2 -59.3060       3 -59.3051       4 -59.3073       5 -59.3047
       6 -59.3059       7 -59.3051       8 -59.3064       9 -59.3045      10 -59.3064
      11 -59.3052      12 -59.3132      13 -59.3053      14 -59.3056      15 -59.3050
      16 -59.3069      17 -59.3023      18 -59.3058      19 -59.3055      20 -59.3061
      21 -59.2998      22 -59.3060      23 -59.3045      24 -59.3063      25 -59.3034
      26 -59.3061      27 -59.3064      28 -59.3065      29 -59.3045      30 -59.3061
      31 -59.3048      32 -59.3066      33 -59.4137      34 -59.4185      35 -59.4160
      36 -59.4179      37 -59.4159      38 -59.4180      39 -59.4162      40 -59.4172
      41 -59.4149      42 -59.4181      43 -59.4161      44 -59.4179      45 -59.4161
      46 -59.4174      47 -59.4166      48 -59.4200      49 -59.4165      50 -59.4198
      51 -59.4171      52 -59.4176      53 -59.4167      54 -59.4162      55 -59.4166
      56 -59.4168      57 -59.4115      58 -59.4171      59 -59.4213      60 -59.4175
      61 -59.4165      62 -59.4170      63 -59.4172      64 -59.4172      65 -79.0440
      66 -79.0455      67 -79.0452      68 -79.0454      69 -79.0453      70 -79.0454
      71 -79.0452      72 -79.0454      73 -79.0451      74 -79.0449      75 -79.0453
      76 -79.0487      77 -79.0452      78 -79.0430      79 -79.0454      80 -79.0465
      81 -79.0434      82 -79.0465      83 -79.0447      84 -79.0463      85 -79.0445
      86 -79.0476      87 -79.0445      88 -79.0459      89 -79.0427      90 -79.0462
      91 -79.0444      92 -79.0472      93 -79.0442      94 -79.0458      95 -79.0450
      96 -79.0464      97 -85.9363      98 -85.9369      99 -85.9367     100 -85.9449
     101 -85.9365     102 -85.9376     103 -85.9366     104 -85.9386     105 -85.9359
     106 -85.9400     107 -85.9367     108 -85.9387     109 -85.9365     110 -85.9371
     111 -85.9367     112 -85.9380     113 -85.9360     114 -85.9374     115 -85.9371
     116 -85.9377     117 -85.9354     118 -85.9374     119 -85.9341     120 -85.9382
     121 -85.9279     122 -85.9375     123 -85.9374     124 -85.9377     125 -85.9358
     126 -85.9375     127 -85.9365     128 -85.9376     129 -70.1517     130 -70.1513
     131 -70.1518     132 -70.1526     133 -70.1517     134 -70.1431     135 -70.1519
     136 -70.1524     137 -70.1517     138 -70.1511     139 -70.1519     140 -70.1638
     141 -70.1517     142 -70.1512     143 -70.1519     144 -70.1523     145 -70.1499
     146 -70.1525     147 -70.1514     148 -70.1526     149 -70.1497     150 -70.1531
     151 -70.1508     152 -70.1533     153 -70.1501     154 -70.1528     155 -70.1503
     156 -70.1536     157 -70.1510     158 -70.1522     159 -70.1512     160 -70.1536
 
 
 
 E-fermi :   4.9690     XC(G=0): -10.2321     alpha+bet :-12.7705


 spin component 1

 k-point     1 :       0.0000    0.0000    0.0000
  band No.  band energies     occupation 
      1     -51.4898      1.00000
      2     -51.4884      1.00000
      3     -51.4881      1.00000
      4     -51.4873      1.00000
      5     -51.4873      1.00000
      6     -51.4872      1.00000
      7     -51.4870      1.00000
      8     -51.4868      1.00000
      9     -51.4867      1.00000
     10     -51.4867      1.00000
     11     -51.4865      1.00000
     12     -51.4861      1.00000
     13     -51.4861      1.00000
     14     -51.4861      1.00000
     15     -51.4861      1.00000
     16     -51.4860      1.00000
     17     -51.4859      1.00000
     18     -51.4859      1.00000
     19     -51.4859      1.00000
     20     -51.4859      1.00000
     21     -51.4856      1.00000
     22     -51.4854      1.00000
     23     -51.4853      1.00000
     24     -51.4853      1.00000
     25     -51.4852      1.00000
     26     -51.4850      1.00000
     27     -51.4849      1.00000
     28     -51.4848      1.00000
     29     -51.4844      1.00000
     30     -51.4839      1.00000
     31     -51.4833      1.00000
     32     -51.4832      1.00000
     33     -50.0980      1.00000
     34     -50.0971      1.00000
     35     -50.0967      1.00000
     36     -50.0962      1.00000
     37     -50.0958      1.00000
     38     -50.0958      1.00000
     39     -50.0958      1.00000
     40     -50.0957      1.00000
     41     -50.0953      1.00000
     42     -50.0952      1.00000
     43     -50.0952      1.00000
[...]
   0.124E+00 0.489E-01 -.460E-01   -.129E+00 -.501E-01 0.473E-01   0.622E-02 0.184E-02 -.200E-02   -.624E-04 -.172E-04 0.137E-04
   -.439E-01 -.529E-02 0.321E-03   0.452E-01 0.543E-02 -.377E-03   -.185E-02 -.123E-03 0.131E-03   0.345E-04 -.427E-04 -.330E-04
   0.610E-01 -.468E-01 0.281E-01   -.630E-01 0.486E-01 -.295E-01   0.285E-02 -.317E-02 0.278E-02   -.195E-04 -.207E-04 -.102E-03
   -.867E-01 0.644E-02 0.293E-02   0.886E-01 -.697E-02 -.322E-02   -.260E-02 0.709E-03 0.258E-03   0.199E-04 0.626E-04 0.592E-04
   0.131E+01 -.154E+00 0.975E+00   -.138E+01 0.177E+00 -.104E+01   0.763E-01 -.904E-02 0.575E-01   -.266E-03 -.601E-04 0.769E-05
   -.571E-01 -.686E-02 -.436E-03   0.587E-01 0.726E-02 0.409E-03   -.219E-02 -.647E-03 -.117E-04   0.125E-04 0.471E-04 0.621E-04
   0.113E+00 -.194E+00 -.653E-01   -.118E+00 0.197E+00 0.667E-01   0.587E-02 -.463E-02 -.156E-02   -.375E-04 0.382E-04 -.417E-06
   -.592E-01 -.979E-02 -.207E-02   0.608E-01 0.103E-01 0.213E-02   -.230E-02 -.714E-03 -.211E-04   0.849E-04 0.752E-05 0.717E-05
   0.131E+00 -.167E+00 -.549E-01   -.136E+00 0.171E+00 0.560E-01   0.656E-02 -.535E-02 -.128E-02   -.105E-03 0.704E-04 0.634E-04
   -.842E-01 0.102E-01 -.548E-03   0.861E-01 -.105E-01 0.366E-03   -.259E-02 0.557E-03 0.347E-03   -.262E-04 -.356E-04 -.771E-04
   0.945E+00 -.661E+00 0.150E+01   -.991E+00 0.717E+00 -.160E+01   0.555E-01 -.358E-01 0.851E-01   0.236E-04 -.401E-04 0.479E-04
   -.450E-01 -.679E-02 0.188E-02   0.463E-01 0.697E-02 -.193E-02   -.183E-02 -.251E-03 0.152E-03   0.180E-04 -.331E-04 -.234E-04
   0.647E-01 -.423E-01 0.230E-01   -.667E-01 0.435E-01 -.241E-01   0.261E-02 -.221E-02 0.211E-02   0.697E-05 -.294E-05 -.546E-04
   -.573E-01 0.693E-02 0.512E-03   0.588E-01 -.705E-02 -.230E-03   -.216E-02 0.189E-03 -.418E-03   0.951E-04 -.612E-05 -.330E-06
   0.117E+00 0.395E-01 -.717E-01   -.121E+00 -.405E-01 0.725E-01   0.560E-02 0.160E-02 -.136E-02   0.647E-04 -.679E-05 0.393E-04
   -.369E-01 -.303E-02 -.588E-01   0.402E-01 0.201E-02 0.635E-01   -.461E-02 0.933E-03 -.681E-02   0.494E-04 0.826E-04 -.437E-04
   -.186E-01 0.371E-01 0.305E-01   0.194E-01 -.375E-01 -.319E-01   -.118E-02 0.787E-03 0.202E-02   -.535E-05 -.468E-04 0.483E-04
   0.724E-02 -.359E-02 -.848E-02   -.732E-02 0.409E-02 0.826E-02   0.130E-03 -.729E-03 0.205E-03   -.269E-04 -.111E-04 0.232E-04
   -.237E-01 -.324E-01 0.221E-01   0.246E-01 0.330E-01 -.224E-01   -.108E-02 -.754E-03 0.365E-03   -.348E-04 0.210E-05 -.187E-04
   -.274E+00 -.684E-01 0.146E+00   0.279E+00 0.689E-01 -.149E+00   -.666E-02 -.218E-03 0.510E-02   0.120E-03 0.350E-04 -.456E-04
   -.107E+00 0.118E+00 -.621E-01   0.108E+00 -.121E+00 0.629E-01   -.197E-02 0.470E-02 -.747E-03   0.417E-04 0.262E-04 -.475E-04
   0.141E-01 -.521E-04 0.105E-01   -.125E-01 -.935E-03 -.988E-02   -.232E-02 0.143E-02 -.593E-03   0.310E-04 0.679E-04 -.852E-04
   -.627E-01 -.768E-01 -.304E-01   0.651E-01 0.811E-01 0.304E-01   -.317E-02 -.637E-02 -.554E-03   -.858E-05 -.163E-04 0.294E-04
   -.578E-01 -.947E-01 -.372E-01   0.606E-01 0.999E-01 0.370E-01   -.402E-02 -.770E-02 -.390E-03   0.910E-05 -.231E-04 0.522E-04
   -.226E-02 0.214E-02 0.105E-01   0.382E-02 -.293E-02 -.101E-01   -.218E-02 0.116E-02 -.474E-03   -.373E-05 0.180E-04 -.275E-04
   -.108E+00 0.160E+00 -.841E-01   0.110E+00 -.165E+00 0.854E-01   -.289E-02 0.573E-02 -.133E-02   0.288E-04 0.212E-04 -.441E-04
   -.225E+00 -.440E-01 0.101E+00   0.229E+00 0.442E-01 -.104E+00   -.533E-02 -.148E-03 0.369E-02   0.385E-04 0.871E-05 -.401E-04
   -.164E-01 -.372E-01 0.256E-01   0.171E-01 0.377E-01 -.259E-01   -.972E-03 -.655E-03 0.245E-03   0.819E-04 -.458E-04 0.322E-04
   -.253E-02 -.227E-02 -.870E-02   0.255E-02 0.274E-02 0.844E-02   0.403E-04 -.596E-03 0.210E-03   -.607E-04 -.641E-04 0.764E-04
   -.660E-02 0.436E-01 0.357E-01   0.705E-02 -.437E-01 -.368E-01   -.515E-03 0.544E-03 0.159E-02   -.524E-04 -.980E-04 0.970E-04
   -.448E-01 -.254E-02 -.482E-01   0.481E-01 0.183E-02 0.519E-01   -.456E-02 0.499E-03 -.555E-02   -.847E-04 0.603E-04 0.775E-05
 -----------------------------------------------------------------------------------------------
   -.348E-01 0.181E+00 -.214E+00   -.262E-12 0.115E-12 -.227E-12   0.353E-01 -.181E+00 0.214E+00   -.431E-03 -.261E-03 -.112E-04
 
 
 POSITION                                       TOTAL-FORCE (eV/Angst)
 -----------------------------------------------------------------------------------
      1.92810      2.80256      5.27212         0.000508     -0.000094     -0.000191
      9.64051      2.80256      5.27212         0.000548     -0.004700      0.002401
      1.92810      8.40768      5.27212         0.000266      0.000049     -0.000075
      9.64051      8.40768      5.27212        -0.000261      0.001543     -0.000088
      1.92810      2.80256     10.91064         0.000426     -0.000009      0.000001
      9.64051      2.80256     10.91064        -0.000261     -0.000141     -0.000549
      1.92810      8.40768     10.91064         0.000094      0.000001     -0.000065
      9.64051      8.40768     10.91064        -0.000008      0.000182     -0.000175
      1.92810      0.00000      3.18565         0.000395      0.000155      0.000095
      9.64051      0.00000      3.18565        -0.000525     -0.000301      0.000446
      1.92810      5.60512      3.18565         0.000375     -0.000140      0.000012
      9.64051      5.60512      3.18565         0.010168      0.005293     -0.005102
      1.92810      0.00000      8.82416         0.000193      0.000060      0.000074
      9.64051      0.00000      8.82416        -0.000258      0.000185     -0.000078
      1.92810      5.60512      8.82416         0.000153     -0.000043      0.000111
      9.64051      5.60512      8.82416        -0.000427     -0.000199      0.000926
      5.78431      2.80256      0.36639        -0.000779     -0.000371      0.002235
     13.49672      2.80256      0.36639         0.000215     -0.000060      0.000076
      5.78431      8.40768      0.36639        -0.000364      0.000286     -0.000138
     13.49672      8.40768      0.36639         0.000193      0.000037      0.000036
      5.78431      2.80256      6.00490         0.005615      0.003698     -0.006682
     13.49672      2.80256      6.00490         0.000358     -0.000166      0.000091
      5.78431      8.40768      6.00490        -0.000523     -0.000591      0.000151
     13.49672      8.40768      6.00490         0.000333      0.000127      0.000145
      5.78431      0.00000      2.45287        -0.000387      0.002040      0.000093
     13.49672      0.00000      2.45287         0.000272      0.000054     -0.000121
      5.78431      5.60512      2.45287        -0.001968     -0.003874      0.002225
     13.49672      5.60512      2.45287         0.000408     -0.000032     -0.000172
      5.78431      0.00000      8.09138        -0.000008      0.000118     -0.000262
     13.49672      0.00000      8.09138         0.000107      0.000018     -0.000072
      5.78431      5.60512      8.09138        -0.000254      0.000029     -0.000813
     13.49672      5.60512      8.09138         0.000429      0.000007      0.000020
      4.15299      4.20384      4.22889         0.002214     -0.000961     -0.000649
     11.86540      4.20384      4.22889         0.000978     -0.000534     -0.000342
      4.15299      9.80896      4.22889        -0.000160      0.000429      0.000250
     11.86540      9.80896      4.22889        -0.000012      0.000298      0.000149
      4.15299      4.20384      9.86740        -0.000156     -0.000512      0.000026
     11.86540      4.20384      9.86740         0.000009     -0.000386      0.000021
      4.15299      9.80896      9.86740         0.000043      0.000174      0.000021
     11.86540      9.80896      9.86740         0.000019      0.000150     -0.000005
      3.55942      1.40128      1.40963         0.001780      0.000996      0.000850
     11.27183      1.40128      1.40963         0.000737     -0.000295     -0.000518
      3.55942      7.00640      1.40963        -0.000021     -0.000202      0.000162
     11.27183      7.00640      1.40963         0.000400      0.000166     -0.000215
      3.55942      1.40128      7.04814         0.000322      0.000171     -0.000263
     11.27183      1.40128      7.04814        -0.000109     -0.000169      0.000101
      3.55942      7.00640      7.04814         0.000655     -0.000050     -0.000273
     11.27183      7.00640      7.04814         0.001503      0.001378      0.001121
      0.29678      4.20384      1.40963         0.000347     -0.000163      0.000093
      8.00920      4.20384      1.40963        -0.002231     -0.003142     -0.001896
      0.29678      9.80896      1.40963         0.000214      0.000086     -0.000035
      8.00920      9.80896      1.40963        -0.000598      0.000543     -0.000003
      0.29678      4.20384      7.04814         0.000301     -0.000132      0.000063
      8.00920      4.20384      7.04814        -0.002395     -0.002693      0.001010
      0.29678      9.80896      7.04814         0.000222      0.000104     -0.000061
      8.00920      9.80896      7.04814        -0.000564      0.000476     -0.000034
      7.41563      1.40128      4.22889        -0.002111      0.008067      0.000654
     15.12804      1.40128      4.22889         0.000530      0.000029     -0.000038
      7.41563      7.00640      4.22889        -0.003024      0.007244      0.001749
     15.12804      7.00640      4.22889         0.000529      0.000073     -0.000069
      7.41563      1.40128      9.86740        -0.000359      0.000032     -0.000104
     15.12804      1.40128      9.86740         0.000415     -0.000004      0.000032
      7.41563      7.00640      9.86740        -0.000402      0.000044     -0.000198
     15.12804      7.00640      9.86740         0.000429      0.000007      0.000017
      7.50558      4.20972      4.22889        -0.031103     -0.061685      0.036390
     15.20990      4.20384      4.22889         0.000865     -0.000420     -0.000270
      7.49749      9.80896      4.22889        -0.000827      0.001345      0.000014
     15.20990      9.80896      4.22889         0.000609      0.000237      0.000044
      7.49749      4.20384      9.86740        -0.000822     -0.000925     -0.000024
     15.20990      4.20384      9.86740         0.000596     -0.000159      0.000043
      7.49749      9.80896      9.86740        -0.001034      0.000936     -0.000550
     15.20990      9.80896      9.86740         0.000494      0.000128      0.000058
      0.21492      1.40128      1.40963         0.000726      0.000141      0.000130
      7.92733      1.40128      1.40963        -0.002940      0.000880      0.001255
      0.21492      7.00640      1.40963         0.000669     -0.000013     -0.000067
      7.92733      7.00640      1.40963         0.000315      0.005758     -0.005585
      0.21492      1.40128      7.04814         0.000655     -0.000033     -0.000060
      7.92733      1.40128      7.04814        -0.000760      0.004288     -0.004219
      0.21492      7.00640      7.04814         0.000700      0.000096      0.000101
      7.92733      7.00640      7.04814        -0.002747      0.001148      0.001322
      3.64128      4.20384      1.40963         0.002221     -0.002177      0.001405
     11.35369      4.20384      1.40963         0.000938     -0.000411     -0.000614
      3.64128      9.80896      1.40963        -0.000103      0.000931      0.000341
     11.35369      9.80896      1.40963         0.000403      0.000232     -0.000482
      3.64128      4.20384      7.04814         0.000552     -0.000944     -0.000736
     11.35369      4.20384      7.04814         0.001848     -0.002724      0.001470
      3.64128      9.80896      7.04814         0.000360      0.000170     -0.000422
     11.35369      9.80896      7.04814        -0.000148      0.000867      0.000179
      4.07113      1.40128      4.22889         0.002881      0.001850     -0.001670
     11.78354      1.40128      4.22889         0.000604     -0.000523      0.000455
      4.07113      7.00640      4.22889         0.000867     -0.000930      0.000714
     11.78354      7.00640      4.22889         0.001801      0.001119     -0.001040
      4.07113      1.40128      9.86740         0.000332      0.000681      0.000492
     11.78354      1.40128      9.86740        -0.000050     -0.000068     -0.000257
      4.07113      7.00640      9.86740        -0.000061      0.000139     -0.000244
     11.78354      7.00640      9.86740         0.000483      0.000674      0.000359
      1.92810      0.00000      5.65047        -0.000787     -0.000200      0.000203
      9.64051      0.00000      5.65047         0.001279     -0.000990     -0.000222
      1.92810      5.60512      5.65047        -0.000585      0.000181      0.000128
      9.64051      5.60512      5.65047        -0.003625     -0.000962     -0.004504
      1.92810      0.00000      0.01196        -0.000513     -0.000235     -0.000118
      9.64051      0.00000      0.01196         0.000491     -0.000094      0.000369
      1.92810      5.60512      0.01196        -0.000534      0.000310     -0.000209
      9.64051      5.60512      0.01196        -0.000400      0.000181      0.001308
      1.92810      2.80256      2.80730        -0.001522      0.000108      0.000007
      9.64051      2.80256      2.80730         0.000443      0.003857      0.001029
      1.92810      8.40768      2.80730        -0.000486     -0.000075     -0.000073
      9.64051      8.40768      2.80730        -0.000315     -0.001717      0.000338
      1.92810      2.80256      8.44581        -0.000673      0.000062     -0.000007
      9.64051      2.80256      8.44581         0.001397      0.000913      0.000555
      1.92810      8.40768      8.44581        -0.000375     -0.000086      0.000066
      9.64051      8.40768      8.44581         0.000388     -0.000931     -0.000447
      5.78431      0.00000     11.26507         0.000493     -0.000991     -0.000605
     13.49672      0.00000     11.26507        -0.000410     -0.000052      0.000046
      5.78431      5.60512     11.26507         0.001622      0.000849      0.000574
     13.49672      5.60512     11.26507        -0.000713      0.000055     -0.000050
      5.78431      0.00000      5.62655         0.000001     -0.001652      0.000541
     13.49672      0.00000      5.62655        -0.000484     -0.000030     -0.000101
      5.78431      5.60512      5.62655         0.003132      0.003051     -0.000741
     13.49672      5.60512      5.62655        -0.001452      0.000092      0.000084
      5.78431      2.80256      2.83122         0.004265      0.004635      0.001412
     13.49672      2.80256      2.83122        -0.000738      0.000127      0.000108
      5.78431      8.40768      2.83122         0.001621     -0.001261     -0.000363
     13.49672      8.40768      2.83122        -0.000741     -0.000215      0.000165
      5.78431      2.80256      8.46973        -0.000133      0.000140      0.001047
     13.49672      2.80256      8.46973        -0.000533      0.000263     -0.000140
      5.78431      8.40768      8.46973         0.000520     -0.000032      0.000469
     13.49672      8.40768      8.46973        -0.000498     -0.000233     -0.000059
      0.00000      2.80256      0.00000        -0.000608      0.000136     -0.000161
      7.71241      2.80256      0.00000         0.001622      0.000605     -0.000715
      0.00000      8.40768      0.00000        -0.000499     -0.000033      0.000042
      7.71241      8.40768      0.00000         0.000849     -0.001390      0.001281
      0.00000      2.80256      5.63851        -0.000695      0.000236      0.000033
      7.71241      2.80256      5.63851         0.005763      0.014331     -0.009614
      0.00000      8.40768      5.63851        -0.000584     -0.000194      0.000023
      7.71241      8.40768      5.63851         0.001599     -0.001400     -0.000165
      0.00000      0.00000      2.81926        -0.000617     -0.000243      0.000041
      7.71241      0.00000      2.81926         0.001720     -0.001513     -0.000128
      0.00000      5.60512      2.81926        -0.000691      0.000145      0.000089
      7.71241      5.60512      2.81926         0.009266      0.020143     -0.015394
      0.00000      0.00000      8.45777        -0.000505     -0.000105      0.000075
      7.71241      0.00000      8.45777         0.000635     -0.000927      0.000918
      0.00000      5.60512      8.45777        -0.000571      0.000062     -0.000136
      7.71241      5.60512      8.45777         0.001531      0.000633     -0.000565
      3.85621      2.80256      0.00000        -0.001240     -0.000006     -0.002179
     11.56862      2.80256      0.00000        -0.000366      0.000372      0.000729
      3.85621      8.40768      0.00000         0.000028     -0.000240      0.000010
     11.56862      8.40768      0.00000        -0.000288     -0.000216      0.000059
      3.85621      2.80256      5.63851        -0.001710      0.000299      0.001635
     11.56862      2.80256      5.63851        -0.000574      0.001486      0.000044
      3.85621      8.40768      5.63851        -0.000679      0.000506     -0.000099
     11.56862      8.40768      5.63851        -0.000832     -0.002073     -0.000494
      3.85621      0.00000      2.81926        -0.001183     -0.002539     -0.000528
     11.56862      0.00000      2.81926        -0.000620      0.000390     -0.000100
      3.85621      5.60512      2.81926        -0.000719      0.001700     -0.000131
     11.56862      5.60512      2.81926        -0.001307      0.000077      0.001103
      3.85621      0.00000      8.45777        -0.000263     -0.000216      0.000013
     11.56862      0.00000      8.45777        -0.000003     -0.000193      0.000026
      3.85621      5.60512      8.45777        -0.000119      0.000251      0.000549
     11.56862      5.60512      8.45777        -0.001330     -0.000145     -0.001776
 -----------------------------------------------------------------------------------
    total drift:                                0.000071      0.000048     -0.000006


--------------------------------------------------------------------------------------------------------



  FREE ENERGIE OF THE ION-ELECTRON SYSTEM (eV)
  ---------------------------------------------------
  free  energy   TOTEN  =      -821.92013821 eV

  energy  without entropy=     -821.92013821  energy(sigma->0) =     -821.92013821
 


--------------------------------------------------------------------------------------------------------


    POTLOK:  cpu time    2.3354: real time    2.3780


--------------------------------------------------------------------------------------------------------


     LOOP+:  cpu time 8102.4811: real time 8236.5237
    4ORBIT:  cpu time    0.0000: real time    0.0000

 total amount of memory used by VASP MPI-rank0   984794. kBytes
=======================================================================

   base      :      30000. kBytes
   nonl-proj :     101936. kBytes
   fftplans  :      64934. kBytes
   grid      :      55554. kBytes
   one-center:        839. kBytes
   wavefun   :     731531. kBytes
 
  
  
 General timing and accounting informations for this job:
 ========================================================
  
                  Total CPU time used (sec):     8246.555
                            User time (sec):     8194.641
                          System time (sec):       51.914
                         Elapsed time (sec):     8384.297
  
                   Maximum memory used (kb):     1177192.
                   Average memory used (kb):           0.
  
                          Minor page faults:       412719
                          Major page faults:            9
                 Voluntary context switches:        50042
