  99  99   0   0
  0.1430410E+02  0.1177748E-08  0.1177748E-08  0.1058004E-08  0.5000000E-15
  1.000000000000000E-004
  CAR 
 unknown system                          
     17.94970899    -54.33816760  301      5.23909069      1.00000000
    -54.338  0.0000E+00  0.0000E+00  0.0000E+00  0.0000E+00
    -54.097  0.0000E+00  0.0000E+00  0.0000E+00  0.0000E+00
    -53.856  0.0000E+00  0.0000E+00  0.0000E+00  0.0000E+00
    -53.615  0.0000E+00  0.0000E+00  0.0000E+00  0.0000E+00
    -53.374  0.0000E+00  0.0000E+00  0.0000E+00  0.0000E+00
    -53.133  0.0000E+00  0.0000E+00  0.0000E+00  0.0000E+00
    -52.892  0.0000E+00  0.0000E+00  0.0000E+00  0.0000E+00
    -52.651  0.0000E+00  0.0000E+00  0.0000E+00  0.0000E+00
    -52.410  0.0000E+00  0.0000E+00  0.0000E+00  0.0000E+00
    -52.170  0.0000E+00  0.0000E+00  0.0000E+00  0.0000E+00
    -51.929  0.0000E+00  0.0000E+00  0.0000E+00  0.0000E+00
    -51.688  0.0000E+00  0.0000E+00  0.0000E+00  0.0000E+00
    -51.447  0.0000E+00  0.0000E+00  0.0000E+00  0.0000E+00
    -51.206  0.4394E-03  0.0000E+00  0.1059E-03  0.0000E+00
    -50.965  0.1471E+03  0.0000E+00  0.3545E+02  0.0000E+00
    -50.724  0.2275E+01  0.0000E+00  0.3600E+02  0.0000E+00
    -50.483  0.0000E+00  0.0000E+00  0.3600E+02  0.0000E+00
    -50.242  0.0000E+00  0.0000E+00  0.3600E+02  0.0000E+00
    -50.001  0.0000E+00  0.0000E+00  0.3600E+02  0.0000E+00
    -49.760  0.1619E+01  0.0000E+00  0.3639E+02  0.0000E+00
    -49.519  0.2705E+03  0.0000E+00  0.1016E+03  0.0000E+00
    -49.278  0.2664E+02  0.0000E+00  0.1080E+03  0.0000E+00
    -49.037  0.0000E+00  0.0000E+00  0.1080E+03  0.0000E+00
    -48.796  0.0000E+00  0.0000E+00  0.1080E+03  0.0000E+00
    -48.555  0.0000E+00  0.0000E+00  0.1080E+03  0.0000E+00
    -48.314  0.0000E+00  0.0000E+00  0.1080E+03  0.0000E+00
    -48.073  0.0000E+00  0.0000E+00  0.1080E+03  0.0000E+00
    -47.832  0.0000E+00  0.0000E+00  0.1080E+03  0.0000E+00
    -47.591  0.0000E+00  0.0000E+00  0.1080E+03  0.0000E+00
    -47.350  0.0000E+00  0.0000E+00  0.1080E+03  0.0000E+00
    -47.109  0.0000E+00  0.0000E+00  0.1080E+03  0.0000E+00
    -46.868  0.0000E+00  0.0000E+00  0.1080E+03  0.0000E+00
    -46.627  0.0000E+00  0.0000E+00  0.1080E+03  0.0000E+00
    -46.387  0.0000E+00  0.3763E+00  0.1080E+03  0.9066E-01
    -46.146  0.0000E+00  0.1490E+03  0.1080E+03  0.3599E+02
    -45.905  0.0000E+00  0.6917E+02  0.1080E+03  0.5266E+02
    -45.664  0.0000E+00  0.2297E+03  0.1080E+03  0.1080E+03
    -45.423  0.0000E+00  0.0000E+00  0.1080E+03  0.1080E+03
    -45.182  0.0000E+00  0.0000E+00  0.1080E+03  0.1080E+03
    -44.941  0.0000E+00  0.0000E+00  0.1080E+03  0.1080E+03
    -44.700  0.0000E+00  0.0000E+00  0.1080E+03  0.1080E+03
    -44.459  0.0000E+00  0.0000E+00  0.1080E+03  0.1080E+03
    -44.218  0.0000E+00  0.0000E+00  0.1080E+03  0.1080E+03
    -43.977  0.0000E+00  0.0000E+00  0.1080E+03  0.1080E+03
    -43.736  0.0000E+00  0.0000E+00  0.1080E+03  0.1080E+03
    -43.495  0.0000E+00  0.0000E+00  0.1080E+03  0.1080E+03
    -43.254  0.0000E+00  0.0000E+00  0.1080E+03  0.1080E+03
    -43.013  0.0000E+00  0.0000E+00  0.1080E+03  0.1080E+03
    -42.772  0.0000E+00  0.0000E+00  0.1080E+03  0.1080E+03
    -42.531  0.0000E+00  0.0000E+00  0.1080E+03  0.1080E+03
    -42.290  0.0000E+00  0.0000E+00  0.1080E+03  0.1080E+03
    -42.049  0.0000E+00  0.0000E+00  0.1080E+03  0.1080E+03
    -41.808  0.0000E+00  0.0000E+00  0.1080E+03  0.1080E+03
    -41.567  0.0000E+00  0.0000E+00  0.1080E+03  0.1080E+03
    -41.326  0.0000E+00  0.0000E+00  0.1080E+03  0.1080E+03
    -41.085  0.0000E+00  0.0000E+00  0.1080E+03  0.1080E+03
    -40.844  0.0000E+00  0.0000E+00  0.1080E+03  0.1080E+03
    -40.603  0.0000E+00  0.0000E+00  0.1080E+03  0.1080E+03
    -40.363  0.0000E+00  0.0000E+00  0.1080E+03  0.1080E+03
    -40.122  0.8446E-11  0.5442E-11  0.1080E+03  0.1080E+03
    -39.881  0.2251E+02  0.2100E+02  0.1134E+03  0.1131E+03
    -39.640  0.5220E+02  0.5370E+02  0.1260E+03  0.1260E+03
    -39.399  0.0000E+00  0.0000E+00  0.1260E+03  0.1260E+03
    -39.158  0.0000E+00  0.0000E+00  0.1260E+03  0.1260E+03
    -38.917  0.0000E+00  0.0000E+00  0.1260E+03  0.1260E+03
    -38.676  0.0000E+00  0.0000E+00  0.1260E+03  0.1260E+03
    -38.435  0.0000E+00  0.0000E+00  0.1260E+03  0.1260E+03
    -38.194  0.0000E+00  0.0000E+00  0.1260E+03  0.1260E+03
    -37.953  0.0000E+00  0.0000E+00  0.1260E+03  0.1260E+03
    -37.712  0.0000E+00  0.0000E+00  0.1260E+03  0.1260E+03
    -37.471  0.0000E+00  0.0000E+00  0.1260E+03  0.1260E+03
    -37.230  0.0000E+00  0.0000E+00  0.1260E+03  0.1260E+03
    -36.989  0.0000E+00  0.0000E+00  0.1260E+03  0.1260E+03
    -36.748  0.0000E+00  0.0000E+00  0.1260E+03  0.1260E+03
    -36.507  0.0000E+00  0.0000E+00  0.1260E+03  0.1260E+03
    -36.266  0.0000E+00  0.0000E+00  0.1260E+03  0.1260E+03
    -36.025  0.0000E+00  0.0000E+00  0.1260E+03  0.1260E+03
    -35.784  0.0000E+00  0.0000E+00  0.1260E+03  0.1260E+03
    -35.543  0.0000E+00  0.0000E+00  0.1260E+03  0.1260E+03
    -35.302  0.0000E+00  0.0000E+00  0.1260E+03  0.1260E+03
    -35.061  0.0000E+00  0.0000E+00  0.1260E+03  0.1260E+03
    -34.820  0.0000E+00  0.0000E+00  0.1260E+03  0.1260E+03
    -34.579  0.0000E+00  0.0000E+00  0.1260E+03  0.1260E+03
    -34.339  0.0000E+00  0.0000E+00  0.1260E+03  0.1260E+03
    -34.098  0.0000E+00  0.0000E+00  0.1260E+03  0.1260E+03
    -33.857  0.0000E+00  0.0000E+00  0.1260E+03  0.1260E+03
    -33.616  0.0000E+00  0.0000E+00  0.1260E+03  0.1260E+03
    -33.375  0.0000E+00  0.0000E+00  0.1260E+03  0.1260E+03
    -33.134  0.0000E+00  0.0000E+00  0.1260E+03  0.1260E+03
    -32.893  0.0000E+00  0.0000E+00  0.1260E+03  0.1260E+03
    -32.652  0.0000E+00  0.0000E+00  0.1260E+03  0.1260E+03
    -32.411  0.0000E+00  0.0000E+00  0.1260E+03  0.1260E+03
    -32.170  0.0000E+00  0.0000E+00  0.1260E+03  0.1260E+03
    -31.929  0.0000E+00  0.0000E+00  0.1260E+03  0.1260E+03
    -31.688  0.0000E+00  0.0000E+00  0.1260E+03  0.1260E+03
    -31.447  0.0000E+00  0.0000E+00  0.1260E+03  0.1260E+03
    -31.206  0.0000E+00  0.0000E+00  0.1260E+03  0.1260E+03
    -30.965  0.0000E+00  0.0000E+00  0.1260E+03  0.1260E+03
    -30.724  0.0000E+00  0.0000E+00  0.1260E+03  0.1260E+03
    -30.483  0.0000E+00  0.0000E+00  0.1260E+03  0.1260E+03
    -30.242  0.0000E+00  0.0000E+00  0.1260E+03  0.1260E+03
    -30.001  0.0000E+00  0.0000E+00  0.1260E+03  0.1260E+03
    -29.760  0.0000E+00  0.0000E+00  0.1260E+03  0.1260E+03
    -29.519  0.0000E+00  0.0000E+00  0.1260E+03  0.1260E+03
    -29.278  0.0000E+00  0.0000E+00  0.1260E+03  0.1260E+03
    -29.037  0.0000E+00  0.0000E+00  0.1260E+03  0.1260E+03
    -28.796  0.0000E+00  0.0000E+00  0.1260E+03  0.1260E+03
    -28.555  0.0000E+00  0.0000E+00  0.1260E+03  0.1260E+03
    -28.315  0.0000E+00  0.0000E+00  0.1260E+03  0.1260E+03
    -28.074  0.0000E+00  0.0000E+00  0.1260E+03  0.1260E+03
    -27.833  0.0000E+00  0.0000E+00  0.1260E+03  0.1260E+03
    -27.592  0.0000E+00  0.0000E+00  0.1260E+03  0.1260E+03
    -27.351  0.0000E+00  0.0000E+00  0.1260E+03  0.1260E+03
    -27.110  0.0000E+00  0.0000E+00  0.1260E+03  0.1260E+03
    -26.869  0.0000E+00  0.0000E+00  0.1260E+03  0.1260E+03
    -26.628  0.0000E+00  0.0000E+00  0.1260E+03  0.1260E+03
    -26.387  0.0000E+00  0.0000E+00  0.1260E+03  0.1260E+03
    -26.146  0.0000E+00  0.0000E+00  0.1260E+03  0.1260E+03
    -25.905  0.0000E+00  0.0000E+00  0.1260E+03  0.1260E+03
    -25.664  0.0000E+00  0.0000E+00  0.1260E+03  0.1260E+03
    -25.423  0.0000E+00  0.0000E+00  0.1260E+03  0.1260E+03
    -25.182  0.0000E+00  0.0000E+00  0.1260E+03  0.1260E+03
    -24.941  0.0000E+00  0.0000E+00  0.1260E+03  0.1260E+03
    -24.700  0.0000E+00  0.0000E+00  0.1260E+03  0.1260E+03
    -24.459  0.0000E+00  0.0000E+00  0.1260E+03  0.1260E+03
    -24.218  0.0000E+00  0.0000E+00  0.1260E+03  0.1260E+03
    -23.977  0.0000E+00  0.0000E+00  0.1260E+03  0.1260E+03
    -23.736  0.0000E+00  0.0000E+00  0.1260E+03  0.1260E+03
    -23.495  0.0000E+00  0.0000E+00  0.1260E+03  0.1260E+03
    -23.254  0.0000E+00  0.0000E+00  0.1260E+03  0.1260E+03
    -23.013  0.0000E+00  0.0000E+00  0.1260E+03  0.1260E+03
    -22.772  0.0000E+00  0.0000E+00  0.1260E+03  0.1260E+03
    -22.532  0.0000E+00  0.0000E+00  0.1260E+03  0.1260E+03
    -22.291  0.0000E+00  0.0000E+00  0.1260E+03  0.1260E+03
    -22.050  0.0000E+00  0.0000E+00  0.1260E+03  0.1260E+03
    -21.809  0.0000E+00  0.0000E+00  0.1260E+03  0.1260E+03
    -21.568  0.0000E+00  0.0000E+00  0.1260E+03  0.1260E+03
    -21.327  0.0000E+00  0.0000E+00  0.1260E+03  0.1260E+03
    -21.086  0.0000E+00  0.0000E+00  0.1260E+03  0.1260E+03
    -20.845  0.0000E+00  0.0000E+00  0.1260E+03  0.1260E+03
    -20.604  0.0000E+00  0.0000E+00  0.1260E+03  0.1260E+03
    -20.363  0.0000E+00  0.0000E+00  0.1260E+03  0.1260E+03
    -20.122  0.0000E+00  0.0000E+00  0.1260E+03  0.1260E+03
    -19.881  0.0000E+00  0.0000E+00  0.1260E+03  0.1260E+03
    -19.640  0.0000E+00  0.0000E+00  0.1260E+03  0.1260E+03
    -19.399  0.0000E+00  0.0000E+00  0.1260E+03  0.1260E+03
    -19.158  0.0000E+00  0.0000E+00  0.1260E+03  0.1260E+03
    -18.917  0.0000E+00  0.0000E+00  0.1260E+03  0.1260E+03
    -18.676  0.0000E+00  0.0000E+00  0.1260E+03  0.1260E+03
    -18.435  0.0000E+00  0.0000E+00  0.1260E+03  0.1260E+03
    -18.194  0.0000E+00  0.0000E+00  0.1260E+03  0.1260E+03
    -17.953  0.0000E+00  0.0000E+00  0.1260E+03  0.1260E+03
    -17.712  0.0000E+00  0.0000E+00  0.1260E+03  0.1260E+03
    -17.471  0.0000E+00  0.0000E+00  0.1260E+03  0.1260E+03
    -17.230  0.0000E+00  0.0000E+00  0.1260E+03  0.1260E+03
    -16.989  0.0000E+00  0.0000E+00  0.1260E+03  0.1260E+03
    -16.748  0.0000E+00  0.0000E+00  0.1260E+03  0.1260E+03
    -16.508  0.0000E+00  0.0000E+00  0.1260E+03  0.1260E+03
    -16.267  0.0000E+00  0.0000E+00  0.1260E+03  0.1260E+03
    -16.026  0.0000E+00  0.0000E+00  0.1260E+03  0.1260E+03
    -15.785  0.0000E+00  0.0000E+00  0.1260E+03  0.1260E+03
    -15.544  0.0000E+00  0.0000E+00  0.1260E+03  0.1260E+03
    -15.303  0.0000E+00  0.0000E+00  0.1260E+03  0.1260E+03
    -15.062  0.0000E+00  0.0000E+00  0.1260E+03  0.1260E+03
    -14.821  0.0000E+00  0.0000E+00  0.1260E+03  0.1260E+03
    -14.580  0.0000E+00  0.0000E+00  0.1260E+03  0.1260E+03
    -14.339  0.0000E+00  0.0000E+00  0.1260E+03  0.1260E+03
    -14.098  0.0000E+00  0.0000E+00  0.1260E+03  0.1260E+03
    -13.857  0.0000E+00  0.0000E+00  0.1260E+03  0.1260E+03
    -13.616  0.0000E+00  0.0000E+00  0.1260E+03  0.1260E+03
    -13.375  0.2823E-03  0.0000E+00  0.1260E+03  0.1260E+03
    -13.134  0.3102E+02  0.0000E+00  0.1335E+03  0.1260E+03
    -12.893  0.4350E+02  0.2864E+00  0.1440E+03  0.1261E+03
    -12.652  0.1856E+00  0.5929E+02  0.1440E+03  0.1404E+03
    -12.411  0.0000E+00  0.1512E+02  0.1440E+03  0.1440E+03
    -12.170  0.0000E+00  0.0000E+00  0.1440E+03  0.1440E+03
    -11.929  0.0000E+00  0.0000E+00  0.1440E+03  0.1440E+03
    -11.688  0.0000E+00  0.0000E+00  0.1440E+03  0.1440E+03
    -11.447  0.0000E+00  0.0000E+00  0.1440E+03  0.1440E+03
    -11.206  0.0000E+00  0.0000E+00  0.1440E+03  0.1440E+03
    -10.965  0.0000E+00  0.0000E+00  0.1440E+03  0.1440E+03
    -10.724  0.0000E+00  0.0000E+00  0.1440E+03  0.1440E+03
    -10.484  0.0000E+00  0.0000E+00  0.1440E+03  0.1440E+03
    -10.243  0.0000E+00  0.0000E+00  0.1440E+03  0.1440E+03
    -10.002  0.0000E+00  0.0000E+00  0.1440E+03  0.1440E+03
     -9.761  0.0000E+00  0.0000E+00  0.1440E+03  0.1440E+03
     -9.520  0.0000E+00  0.0000E+00  0.1440E+03  0.1440E+03
     -9.279  0.0000E+00  0.0000E+00  0.1440E+03  0.1440E+03
     -9.038  0.0000E+00  0.0000E+00  0.1440E+03  0.1440E+03
     -8.797  0.0000E+00  0.0000E+00  0.1440E+03  0.1440E+03
     -8.556  0.0000E+00  0.0000E+00  0.1440E+03  0.1440E+03
     -8.315  0.0000E+00  0.0000E+00  0.1440E+03  0.1440E+03
     -8.074  0.0000E+00  0.0000E+00  0.1440E+03  0.1440E+03
     -7.833  0.5710E-10  0.0000E+00  0.1440E+03  0.1440E+03
     -7.592  0.6224E+00  0.7491E-11  0.1441E+03  0.1440E+03
     -7.351  0.1727E+02  0.5258E+00  0.1483E+03  0.1441E+03
     -7.110  0.3237E+02  0.1915E+02  0.1561E+03  0.1487E+03
     -6.869  0.3449E+02  0.3099E+02  0.1644E+03  0.1562E+03
     -6.628  0.2730E+02  0.2560E+02  0.1710E+03  0.1624E+03
     -6.387  0.6318E-04  0.3569E+02  0.1710E+03  0.1710E+03
     -6.146  0.0000E+00  0.9168E-01  0.1710E+03  0.1710E+03
     -5.905  0.0000E+00  0.0000E+00  0.1710E+03  0.1710E+03
     -5.664  0.0000E+00  0.0000E+00  0.1710E+03  0.1710E+03
     -5.423  0.0000E+00  0.0000E+00  0.1710E+03  0.1710E+03
     -5.182  0.0000E+00  0.0000E+00  0.1710E+03  0.1710E+03
     -4.941  0.0000E+00  0.0000E+00  0.1710E+03  0.1710E+03
     -4.700  0.0000E+00  0.0000E+00  0.1710E+03  0.1710E+03
     -4.460  0.0000E+00  0.0000E+00  0.1710E+03  0.1710E+03
     -4.219  0.0000E+00  0.0000E+00  0.1710E+03  0.1710E+03
     -3.978  0.0000E+00  0.0000E+00  0.1710E+03  0.1710E+03
     -3.737  0.0000E+00  0.0000E+00  0.1710E+03  0.1710E+03
     -3.496  0.0000E+00  0.0000E+00  0.1710E+03  0.1710E+03
     -3.255  0.0000E+00  0.0000E+00  0.1710E+03  0.1710E+03
     -3.014  0.0000E+00  0.0000E+00  0.1710E+03  0.1710E+03
     -2.773  0.0000E+00  0.0000E+00  0.1710E+03  0.1710E+03
     -2.532  0.0000E+00  0.0000E+00  0.1710E+03  0.1710E+03
     -2.291  0.0000E+00  0.0000E+00  0.1710E+03  0.1710E+03
     -2.050  0.1026E-01  0.0000E+00  0.1710E+03  0.1710E+03
     -1.809  0.2416E+02  0.0000E+00  0.1768E+03  0.1710E+03
     -1.568  0.1873E+02  0.0000E+00  0.1813E+03  0.1710E+03
     -1.327  0.1461E+02  0.0000E+00  0.1849E+03  0.1710E+03
     -1.086  0.2347E+02  0.0000E+00  0.1905E+03  0.1710E+03
     -0.845  0.5642E+02  0.0000E+00  0.2041E+03  0.1710E+03
     -0.604  0.6245E+02  0.2488E-03  0.2192E+03  0.1710E+03
     -0.363  0.3963E+02  0.9204E+01  0.2287E+03  0.1732E+03
     -0.122  0.8202E+02  0.2147E+02  0.2485E+03  0.1784E+03
      0.119  0.8893E+02  0.1302E+02  0.2699E+03  0.1815E+03
      0.360  0.8350E+02  0.2366E+02  0.2900E+03  0.1872E+03
      0.601  0.7284E+02  0.3101E+02  0.3076E+03  0.1947E+03
      0.842  0.6153E+02  0.4783E+02  0.3224E+03  0.2062E+03
      1.083  0.3941E+02  0.4074E+02  0.3319E+03  0.2160E+03
      1.323  0.3524E+02  0.3359E+02  0.3404E+03  0.2241E+03
      1.564  0.5068E+02  0.2422E+02  0.3526E+03  0.2300E+03
      1.805  0.5261E+02  0.3292E+02  0.3653E+03  0.2379E+03
      2.046  0.7557E+02  0.4093E+02  0.3835E+03  0.2478E+03
      2.287  0.6487E+02  0.2814E+02  0.3991E+03  0.2545E+03
      2.528  0.3144E+02  0.2937E+02  0.4067E+03  0.2616E+03
      2.769  0.5074E+02  0.3902E+02  0.4189E+03  0.2710E+03
      3.010  0.2492E+02  0.4574E+02  0.4249E+03  0.2820E+03
      3.251  0.9691E+01  0.4862E+02  0.4273E+03  0.2938E+03
      3.492  0.3868E+02  0.4167E+02  0.4366E+03  0.3038E+03
      3.733  0.2575E+02  0.7275E+01  0.4428E+03  0.3056E+03
      3.974  0.3683E+02  0.2188E+02  0.4517E+03  0.3108E+03
      4.215  0.3929E+02  0.7333E+02  0.4611E+03  0.3285E+03
      4.456  0.3824E+02  0.4485E+02  0.4703E+03  0.3393E+03
      4.697  0.3624E+02  0.1119E+02  0.4791E+03  0.3420E+03
      4.938  0.2524E+02  0.4459E-05  0.4852E+03  0.3420E+03
      5.179  0.3520E+01  0.0000E+00  0.4860E+03  0.3420E+03
      5.420  0.0000E+00  0.0000E+00  0.4860E+03  0.3420E+03
      5.661  0.0000E+00  0.0000E+00  0.4860E+03  0.3420E+03
      5.902  0.0000E+00  0.0000E+00  0.4860E+03  0.3420E+03
      6.143  0.0000E+00  0.6653E-09  0.4860E+03  0.3420E+03
      6.384  0.0000E+00  0.1298E+01  0.4860E+03  0.3423E+03
      6.625  0.0000E+00  0.5078E+01  0.4860E+03  0.3435E+03
      6.866  0.0000E+00  0.1002E+02  0.4860E+03  0.3459E+03
      7.107  0.2276E-13  0.2029E+02  0.4860E+03  0.3508E+03
      7.347  0.4847E-01  0.6027E+02  0.4860E+03  0.3654E+03
      7.588  0.1052E+00  0.6085E+02  0.4860E+03  0.3800E+03
      7.829  0.5814E+00  0.6292E+02  0.4862E+03  0.3952E+03
      8.070  0.5806E+00  0.7490E+02  0.4863E+03  0.4132E+03
      8.311  0.2432E+01  0.7961E+02  0.4869E+03  0.4324E+03
      8.552  0.4571E+01  0.6954E+02  0.4880E+03  0.4492E+03
      8.793  0.9578E+01  0.6632E+02  0.4903E+03  0.4652E+03
      9.034  0.1496E+02  0.4665E+02  0.4939E+03  0.4764E+03
      9.275  0.1613E+02  0.3294E+02  0.4978E+03  0.4843E+03
      9.516  0.1964E+02  0.8906E+01  0.5025E+03  0.4865E+03
      9.757  0.1580E+02  0.5643E+01  0.5063E+03  0.4878E+03
      9.998  0.2418E+02  0.1149E+02  0.5122E+03  0.4906E+03
     10.239  0.1667E+02  0.1648E+02  0.5162E+03  0.4946E+03
     10.480  0.2189E+02  0.2387E+02  0.5215E+03  0.5003E+03
     10.721  0.1434E+02  0.2191E+02  0.5249E+03  0.5056E+03
     10.962  0.1511E+02  0.2215E+02  0.5286E+03  0.5110E+03
     11.203  0.2208E+02  0.3172E+02  0.5339E+03  0.5186E+03
     11.444  0.3241E+02  0.2007E+02  0.5417E+03  0.5234E+03
     11.685  0.2870E+02  0.1842E+02  0.5486E+03  0.5279E+03
     11.926  0.3303E+02  0.1172E+02  0.5566E+03  0.5307E+03
     12.167  0.3639E+02  0.2464E+02  0.5653E+03  0.5366E+03
     12.408  0.2204E+02  0.4488E+02  0.5706E+03  0.5474E+03
     12.649  0.1981E+02  0.3534E+02  0.5754E+03  0.5560E+03
     12.890  0.2541E+02  0.3283E+02  0.5815E+03  0.5639E+03
     13.131  0.2570E+02  0.2052E+02  0.5877E+03  0.5688E+03
     13.371  0.2837E+02  0.2387E+02  0.5946E+03  0.5746E+03
     13.612  0.2510E+02  0.3311E+02  0.6006E+03  0.5825E+03
     13.853  0.1839E+02  0.2639E+02  0.6050E+03  0.5889E+03
     14.094  0.3964E+01  0.2636E+02  0.6060E+03  0.5953E+03
     14.335  0.4388E-03  0.2275E+02  0.6060E+03  0.6007E+03
     14.576  0.0000E+00  0.1943E+02  0.6060E+03  0.6054E+03
     14.817  0.0000E+00  0.2411E+01  0.6060E+03  0.6060E+03
     15.058  0.0000E+00  0.2220E-05  0.6060E+03  0.6060E+03
     15.299  0.0000E+00  0.0000E+00  0.6060E+03  0.6060E+03
     15.540  0.0000E+00  0.0000E+00  0.6060E+03  0.6060E+03
     15.781  0.0000E+00  0.0000E+00  0.6060E+03  0.6060E+03
     16.022  0.0000E+00  0.0000E+00  0.6060E+03  0.6060E+03
     16.263  0.0000E+00  0.0000E+00  0.6060E+03  0.6060E+03
     16.504  0.0000E+00  0.0000E+00  0.6060E+03  0.6060E+03
     16.745  0.0000E+00  0.0000E+00  0.6060E+03  0.6060E+03
     16.986  0.0000E+00  0.0000E+00  0.6060E+03  0.6060E+03
     17.227  0.0000E+00  0.0000E+00  0.6060E+03  0.6060E+03
     17.468  0.0000E+00  0.0000E+00  0.6060E+03  0.6060E+03
     17.709  0.0000E+00  0.0000E+00  0.6060E+03  0.6060E+03
     17.950  0.0000E+00  0.0000E+00  0.6060E+03  0.6060E+03
