 vasp.5.4.4.18Apr17-6-g9f103f2a35 (build Oct 25 2017 14:42:18) complex          
  
 executed on             LinuxIFC date 2021.05.28  05:37:58
 running on   24 total cores
 distrk:  each k-point on   12 cores,    2 groups
 distr:  one band on NCORES_PER_BAND=   6 cores,    2 groups


--------------------------------------------------------------------------------------------------------


 INCAR:
 POTCAR:    PAW_PBE Li_sv 10Sep2004               
 POTCAR:    PAW_PBE O 08Apr2002                   
 POTCAR:    PAW_PBE S 06Sep2000                   
 POTCAR:    PAW_PBE Fe_pv 02Aug2007               

 ----------------------------------------------------------------------------- 
|                                                                             |
|           W    W    AA    RRRRR   N    N  II  N    N   GGGG   !!!           |
|           W    W   A  A   R    R  NN   N  II  NN   N  G    G  !!!           |
|           W    W  A    A  R    R  N N  N  II  N N  N  G       !!!           |
|           W WW W  AAAAAA  RRRRR   N  N N  II  N  N N  G  GGG   !            |
|           WW  WW  A    A  R   R   N   NN  II  N   NN  G    G                |
|           W    W  A    A  R    R  N    N  II  N    N   GGGG   !!!           |
|                                                                             |
|      You have enabled k-point parallelism (KPAR>1).                         |
|      This developmental code was originally  written by Paul Kent at ORNL,  |
|      and carefully double checked in Vienna.                                |
|      GW as well as linear response parallelism added by Martijn Marsman     |
|      and Georg Kresse.                                                      |
|      Carefully verify results versus KPAR=1.                                |
|      Report problems to Paul Kent and Vienna.                               |
|                                                                             |
 ----------------------------------------------------------------------------- 

 POTCAR:    PAW_PBE Li_sv 10Sep2004               
  local pseudopotential read in
  atomic valenz-charges read in
  non local Contribution for L=           0  read in
    real space projection operators read in
  non local Contribution for L=           0  read in
    real space projection operators read in
  non local Contribution for L=           1  read in
    real space projection operators read in
    PAW grid and wavefunctions read in
 
   number of l-projection  operators is LMAX  =           3
   number of lm-projection operators is LMMAX =           5
 
 POTCAR:    PAW_PBE O 08Apr2002                   
  local pseudopotential read in
  partial core-charges read in
  partial kinetic energy density read in
  kinetic energy density of atom read in
  atomic valenz-charges read in
  non local Contribution for L=           0  read in
    real space projection operators read in
  non local Contribution for L=           0  read in
    real space projection operators read in
  non local Contribution for L=           1  read in
    real space projection operators read in
  non local Contribution for L=           1  read in
    real space projection operators read in
    PAW grid and wavefunctions read in
 
   number of l-projection  operators is LMAX  =           4
   number of lm-projection operators is LMMAX =           8
 
 POTCAR:    PAW_PBE S 06Sep2000                   
  local pseudopotential read in
  partial core-charges read in
  partial kinetic energy density read in
  atomic valenz-charges read in
  non local Contribution for L=           0  read in
    real space projection operators read in
  non local Contribution for L=           0  read in
    real space projection operators read in
  non local Contribution for L=           1  read in
    real space projection operators read in
  non local Contribution for L=           1  read in
    real space projection operators read in
    PAW grid and wavefunctions read in
 
   number of l-projection  operators is LMAX  =           4
   number of lm-projection operators is LMMAX =           8
 
 POTCAR:    PAW_PBE Fe_pv 02Aug2007               
  local pseudopotential read in
  partial core-charges read in
  partial kinetic energy density read in
  atomic valenz-charges read in
  non local Contribution for L=           1  read in
    real space projection operators read in
  non local Contribution for L=           1  read in
    real space projection operators read in
  non local Contribution for L=           2  read in
    real space projection operators read in
  non local Contribution for L=           2  read in
    real space projection operators read in
  non local Contribution for L=           0  read in
    real space projection operators read in
  non local Contribution for L=           0  read in
    real space projection operators read in
    PAW grid and wavefunctions read in
 
   number of l-projection  operators is LMAX  =           6
   number of lm-projection operators is LMMAX =          18
 

 ----------------------------------------------------------------------------- 
|                                                                             |
|  ADVICE TO THIS USER RUNNING 'VASP/VAMP'   (HEAR YOUR MASTER'S VOICE ...):  |
|                                                                             |
|      You have a (more or less) 'large supercell' and for larger cells       |
|      it might be more efficient to use real space projection opertators     |
|      So try LREAL= Auto  in the INCAR   file.                               |
|      Mind:          For very  accurate calculation you might also keep the  |
|      reciprocal projection scheme          (i.e. LREAL=.FALSE.)             |
|                                                                             |
 ----------------------------------------------------------------------------- 

  PAW_PBE Li_sv 10Sep2004               :
 energy of atom  1       EATOM= -202.7858
 kinetic energy error for atom=    0.0072 (will be added to EATOM!!)
  PAW_PBE O 08Apr2002                   :
 energy of atom  2       EATOM= -432.3788
 kinetic energy error for atom=    0.0129 (will be added to EATOM!!)
  PAW_PBE S 06Sep2000                   :
 energy of atom  3       EATOM= -276.8230
 kinetic energy error for atom=    0.0008 (will be added to EATOM!!)
  PAW_PBE Fe_pv 02Aug2007               :
 energy of atom  4       EATOM=-2457.4239
 kinetic energy error for atom=    0.0041 (will be added to EATOM!!)
 
 
 POSCAR: # Compound: Li18O18S27Fe36. Old comment:
  positions in direct lattice
  No initial velocities read in
 exchange correlation table for  LEXCH =        8
   RHO(1)=    0.500       N(1)  =     2000
   RHO(2)=  100.500       N(2)  =     4000
 


--------------------------------------------------------------------------------------------------------


 ion  position               nearest neighbor table
   1  0.202  0.242  0.832-  31 1.98  28 1.99  56 2.61  55 2.61
   2  0.536  0.242  0.832-  32 1.98  29 1.99  57 2.61  56 2.61
   3  0.869  0.242  0.832-  33 1.98  30 1.99  55 2.61  57 2.61
   4  0.202  0.575  0.832-  34 1.98  31 1.99  59 2.61  58 2.61
   5  0.536  0.575  0.832-  35 1.98  32 1.99  60 2.61  59 2.61
   6  0.869  0.575  0.832-  36 1.98  33 1.99  58 2.61  60 2.61
   7  0.202  0.909  0.832-  28 1.98  34 1.99  62 2.61  61 2.61
   8  0.536  0.909  0.832-  29 1.98  35 1.99  63 2.61  62 2.61
   9  0.869  0.909  0.832-  30 1.98  36 1.99  61 2.61  63 2.61
  10  0.091  0.131  0.168-  21 1.98  19 1.99  61 2.61  55 2.61
  11  0.425  0.131  0.168-  19 1.98  20 1.99  62 2.61  56 2.61
  12  0.758  0.131  0.168-  20 1.98  21 1.99  63 2.61  57 2.61
  13  0.091  0.464  0.168-  24 1.98  22 1.99  55 2.61  58 2.61
  14  0.425  0.464  0.168-  22 1.98  23 1.99  56 2.61  59 2.61
  15  0.758  0.464  0.168-  23 1.98  24 1.99  57 2.61  60 2.61
  16  0.091  0.798  0.168-  27 1.98  25 1.99  58 2.61  61 2.61
  17  0.425  0.798  0.168-  25 1.98  26 1.99  59 2.61  62 2.61
  18  0.758  0.798  0.168-  26 1.98  27 1.99  60 2.61  63 2.61
  19  0.263  0.136  0.197-  11 1.98  10 1.99  97 2.01  64 2.01  91 2.01
  20  0.596  0.136  0.197-  12 1.98  11 1.99  98 2.01  65 2.01  92 2.01
  21  0.930  0.136  0.197-  10 1.98  12 1.99  99 2.01  66 2.01  93 2.01
  22  0.263  0.469  0.197-  14 1.98  13 1.99  91 2.01  67 2.01  94 2.01
  23  0.596  0.469  0.197-  15 1.98  14 1.99  92 2.01  68 2.01  95 2.01
  24  0.930  0.469  0.197-  13 1.98  15 1.99  93 2.01  69 2.01  96 2.01
  25  0.263  0.803  0.197-  17 1.98  16 1.99  94 2.01  70 2.01  97 2.01
  26  0.596  0.803  0.197-  18 1.98  17 1.99  95 2.01  71 2.01  98 2.01
  27  0.930  0.803  0.197-  16 1.98  18 1.99  96 2.01  72 2.01  99 2.01
  28  0.197  0.070  0.803-   7 1.98   1 1.99  82 2.01  83 2.01  73 2.01
  29  0.531  0.070  0.803-   8 1.98   2 1.99  84 2.01  74 2.01  83 2.01
  30  0.864  0.070  0.803-   9 1.98   3 1.99  82 2.01  75 2.01  84 2.01
  31  0.197  0.404  0.803-   1 1.98   4 1.99  86 2.01  76 2.01  85 2.01
  32  0.531  0.404  0.803-   2 1.98   5 1.99  87 2.01  77 2.01  86 2.01
  33  0.864  0.404  0.803-   3 1.98   6 1.99  85 2.01  78 2.01  87 2.01
  34  0.197  0.737  0.803-   4 1.98   7 1.99  89 2.01  79 2.01  88 2.01
  35  0.531  0.737  0.803-   5 1.98   8 1.99  90 2.01  80 2.01  89 2.01
  36  0.864  0.737  0.803-   6 1.98   9 1.99  88 2.01  81 2.01  90 2.01
  37  0.003  0.207  0.629-  66 2.41  73 2.70  75 2.76
  38  0.336  0.207  0.629-  64 2.41  74 2.70  73 2.76
  39  0.669  0.207  0.629-  65 2.41  75 2.70  74 2.76
  40  0.003  0.540  0.629-  69 2.41  76 2.70  78 2.76
  41  0.336  0.540  0.629-  67 2.41  77 2.70  76 2.76
  42  0.669  0.540  0.629-  68 2.41  78 2.70  77 2.76
  43  0.003  0.873  0.629-  72 2.41  79 2.70  81 2.76
  44  0.336  0.873  0.629-  70 2.41  80 2.70  79 2.76
  45  0.669  0.873  0.629-  71 2.41  81 2.70  80 2.76
  46  0.127  0.331  0.371-  76 2.41  64 2.70  67 2.76
  47  0.460  0.331  0.371-  77 2.41  65 2.70  68 2.76
  48  0.793  0.331  0.371-  78 2.41  66 2.70  69 2.76
  49  0.127  0.664  0.371-  79 2.41  67 2.70  70 2.76
  50  0.460  0.664  0.371-  80 2.41  68 2.70  71 2.76
  51  0.793  0.664  0.371-  81 2.41  69 2.70  72 2.76
  52  0.127  0.997  0.371-  73 2.41  70 2.70  64 2.76
  53  0.460  0.997  0.371-  74 2.41  71 2.70  65 2.76
  54  0.793  0.997  0.371-  75 2.41  72 2.70  66 2.76
  55  0.064  0.270  0.000-  85 2.52  93 2.52  91 2.52  82 2.52  13 2.61   3 2.61  10 2.61   1 2.61

  56  0.397  0.270  0.000-  86 2.52  91 2.52  83 2.52  92 2.52  14 2.61   1 2.61  11 2.61   2 2.61

  57  0.730  0.270  0.000-  87 2.52  92 2.52  84 2.52  93 2.52  15 2.61   2 2.61  12 2.61   3 2.61

  58  0.064  0.603  0.000-  88 2.52  96 2.52  85 2.52  94 2.52  16 2.61   6 2.61  13 2.61   4 2.61

  59  0.397  0.603  0.000-  89 2.52  94 2.52  86 2.52  95 2.52  17 2.61   4 2.61  14 2.61   5 2.61

  60  0.730  0.603  0.000-  90 2.52  95 2.52  87 2.52  96 2.52  18 2.61   5 2.61  15 2.61   6 2.61

  61  0.064  0.936  0.000-  99 2.52  88 2.52  97 2.52  82 2.53  10 2.61   9 2.61  16 2.61   7 2.61

  62  0.397  0.936  0.000-  83 2.52  97 2.52  89 2.52  98 2.52  11 2.61   7 2.61  17 2.61   8 2.61

  63  0.730  0.936  0.000-  84 2.52  98 2.52  90 2.52  99 2.52  12 2.61   8 2.61  18 2.61   9 2.61

  64  0.290  0.172  0.394-  19 2.01  38 2.41  46 2.70  52 2.76
  65  0.624  0.172  0.394-  20 2.01  39 2.41  47 2.70  53 2.76
  66  0.957  0.172  0.394-  21 2.01  37 2.41  48 2.70  54 2.76
  67  0.290  0.505  0.394-  22 2.01  41 2.41  49 2.70  46 2.76
  68  0.624  0.505  0.394-  23 2.01  42 2.41  50 2.70  47 2.76
  69  0.957  0.505  0.394-  24 2.01  40 2.41  51 2.70  48 2.76
  70  0.290  0.839  0.394-  25 2.01  44 2.41  52 2.70  49 2.76
  71  0.624  0.839  0.394-  26 2.01  45 2.41  53 2.70  50 2.76
  72  0.957  0.839  0.394-  27 2.01  43 2.41  54 2.70  51 2.76
  73  0.161  0.043  0.606-  28 2.01  52 2.41  37 2.70  38 2.76
  74  0.495  0.043  0.606-  29 2.01  53 2.41  38 2.70  39 2.76
  75  0.828  0.043  0.606-  30 2.01  54 2.41  39 2.70  37 2.76
  76  0.161  0.376  0.606-  31 2.01  46 2.41  40 2.70  41 2.76
  77  0.495  0.376  0.606-  32 2.01  47 2.41  41 2.70  42 2.76
  78  0.828  0.376  0.606-  33 2.01  48 2.41  42 2.70  40 2.76
  79  0.161  0.710  0.606-  34 2.01  49 2.41  43 2.70  44 2.76
  80  0.495  0.710  0.606-  35 2.01  50 2.41  44 2.70  45 2.76
  81  0.828  0.710  0.606-  36 2.01  51 2.41  45 2.70  43 2.76
  82  0.038  0.077  0.844-  28 2.01  30 2.01  55 2.52  61 2.53
  83  0.371  0.077  0.845-  28 2.01  29 2.01  62 2.52  56 2.52
  84  0.704  0.077  0.845-  29 2.01  30 2.01  63 2.52  57 2.52
  85  0.038  0.411  0.845-  33 2.01  31 2.01  55 2.52  58 2.52
  86  0.371  0.411  0.845-  31 2.01  32 2.01  56 2.52  59 2.52
  87  0.704  0.411  0.845-  32 2.01  33 2.01  57 2.52  60 2.52
  88  0.038  0.744  0.845-  36 2.01  34 2.01  58 2.52  61 2.52
  89  0.371  0.744  0.845-  34 2.01  35 2.01  59 2.52  62 2.52
  90  0.704  0.744  0.845-  35 2.01  36 2.01  60 2.52  63 2.52
  91  0.256  0.296  0.155-  22 2.01  19 2.01  56 2.52  55 2.52
  92  0.589  0.296  0.155-  23 2.01  20 2.01  57 2.52  56 2.52
  93  0.923  0.296  0.155-  24 2.01  21 2.01  55 2.52  57 2.52
  94  0.256  0.629  0.155-  25 2.01  22 2.01  59 2.52  58 2.52
  95  0.589  0.629  0.155-  26 2.01  23 2.01  60 2.52  59 2.52
  96  0.923  0.629  0.155-  27 2.01  24 2.01  58 2.52  60 2.52
  97  0.256  0.962  0.155-  19 2.01  25 2.01  62 2.52  61 2.52
  98  0.589  0.962  0.155-  20 2.01  26 2.01  63 2.52  62 2.52
  99  0.923  0.962  0.155-  21 2.01  27 2.01  61 2.52  63 2.52
 

IMPORTANT INFORMATION: All symmetrisations will be switched off!
NOSYMM: (Re-)initialisation of all symmetry stuff for point group C_1.

 
 
 KPOINTS: # No comment                            

Automatic generation of k-mesh.
Space group operators:
 irot       det(A)        alpha          n_x          n_y          n_z        tau_x        tau_y        tau_z
    1     1.000000     0.000001     1.000000     0.000000     0.000000     0.000000     0.000000     0.000000
 
 Subroutine IBZKPT returns following result:
 ===========================================
 
 Found     14 irreducible k-points:
 
 Following reciprocal coordinates:
            Coordinates               Weight
  0.000000  0.000000  0.000000      1.000000
  0.333333 -0.000000 -0.000000      2.000000
  0.000000  0.333333  0.000000      2.000000
  0.333333  0.333333  0.000000      2.000000
 -0.333333  0.333333  0.000000      2.000000
 -0.000000 -0.000000  0.333333      2.000000
  0.333333 -0.000000  0.333333      2.000000
 -0.333333 -0.000000  0.333333      2.000000
 -0.000000  0.333333  0.333333      2.000000
  0.333333  0.333333  0.333333      2.000000
 -0.333333  0.333333  0.333333      2.000000
 -0.000000 -0.333333  0.333333      2.000000
  0.333333 -0.333333  0.333333      2.000000
 -0.333333 -0.333333  0.333333      2.000000
 
 Following cartesian coordinates:
            Coordinates               Weight
  0.000000  0.000000  0.000000      1.000000
  0.028270  0.000040  0.005614      2.000000
 -0.000053  0.028270  0.005614      2.000000
  0.028217  0.028310  0.011229      2.000000
 -0.028323  0.028230 -0.000000      2.000000
 -0.000192 -0.000192  0.032649      2.000000
  0.028078 -0.000153  0.038263      2.000000
 -0.028462 -0.000232  0.027035      2.000000
 -0.000245  0.028078  0.038263      2.000000
  0.028025  0.028117  0.043878      2.000000
 -0.028515  0.028038  0.032649      2.000000
 -0.000138 -0.028462  0.027035      2.000000
  0.028132 -0.028423  0.032649      2.000000
 -0.028408 -0.028502  0.021421      2.000000
 


--------------------------------------------------------------------------------------------------------




 Dimension of arrays:
   k-points           NKPTS =     14   k-points in BZ     NKDIM =     14   number of bands    NBANDS=    606
   number of dos      NEDOS =    301   number of ions     NIONS =     99
   non local maximal  LDIM  =      6   non local SUM 2l+1 LMDIM =     18
   total plane-waves  NPLWV = 864360
   max r-space proj   IRMAX =      1   max aug-charges    IRDMAX= 154021
   dimension x,y,z NGX =    98 NGY =   98 NGZ =   90
   dimension x,y,z NGXF=   196 NGYF=  196 NGZF=  180
   support grid    NGXF=   392 NGYF=  392 NGZF=  360
   ions per type =              18  18  27  36
   NGX,Y,Z   is equivalent  to a cutoff of  13.83, 13.83, 14.14 a.u.
   NGXF,Y,Z  is equivalent  to a cutoff of  27.67, 27.67, 28.28 a.u.

 SYSTEM =  unknown system                          
 POSCAR =  # Compound: Li18O18S27Fe36. Old comment:

 Startparameter for this run:
   NWRITE =      1    write-flag & timer
   PREC   = accura    normal or accurate (medium, high low for compatibility)
   ISTART =      0    job   : 0-new  1-cont  2-samecut
   ICHARG =      1    charge: 1-file 2-atom 10-const
   ISPIN  =      2    spin polarized calculation?
   LNONCOLLINEAR =      F non collinear calculations
   LSORBIT =      F    spin-orbit coupling
   INIWAV =      1    electr: 0-lowe 1-rand  2-diag
   LASPH  =      T    aspherical Exc in radial PAW
   METAGGA=      F    non-selfconsistent MetaGGA calc.

 Electronic Relaxation 1
   ENCUT  =  650.0 eV  47.77 Ry    6.91 a.u.  24.48 24.48 21.99*2*pi/ulx,y,z
   ENINI  =  650.0     initial cutoff
   ENAUG  =  628.9 eV  augmentation charge cutoff
   NELM   =    200;   NELMIN=  8; NELMDL=  0     # of ELM steps 
   EDIFF  = 0.1E-05   stopping-criterion for ELM
   LREAL  =      F    real-space projection
   NLSPLINE    = F    spline interpolate recip. space projectors
   LCOMPAT=      F    compatible to vasp.4.4
   GGA_COMPAT  = T    GGA compatible to vasp.4.4-vasp.4.6
   LMAXPAW     = -100 max onsite density
   LMAXMIX     =    4 max onsite mixed and CHGCAR
   VOSKOWN=      0    Vosko Wilk Nusair interpolation
   ROPT   =    0.00000   0.00000   0.00000   0.00000
 Ionic relaxation
   EDIFFG = 0.1E-04   stopping-criterion for IOM
   NSW    =      0    number of steps for IOM
   NBLOCK =      1;   KBLOCK =      1    inner block; outer block 
   IBRION =     -1    ionic relax: 0-MD 1-quasi-New 2-CG
   NFREE  =      0    steps in history (QN), initial steepest desc. (CG)
   ISIF   =      2    stress and relaxation
   IWAVPR =     10    prediction:  0-non 1-charg 2-wave 3-comb
   ISYM   =      0    0-nonsym 1-usesym 2-fastsym
   LCORR  =      T    Harris-Foulkes like correction to forces

   POTIM  = 0.5000    time-step for ionic-motion
   TEIN   =    0.0    initial temperature
   TEBEG  =    0.0;   TEEND  =   0.0 temperature during run
   SMASS  =  -3.00    Nose mass-parameter (am)
   estimated Nose-frequenzy (Omega)   =  0.10E-29 period in steps =****** mass=  -0.317E-26a.u.
   SCALEE = 1.0000    scale energy and forces
   NPACO  =    256;   APACO  = 16.0  distance and # of slots for P.C.
   PSTRESS=    0.0 pullay stress

  Mass of Ions in am
   POMASS =   7.01 16.00 32.07 55.85
  Ionic Valenz
   ZVAL   =   3.00  6.00  6.00 14.00
  Atomic Wigner-Seitz radii
   RWIGS  =  -1.00 -1.00 -1.00 -1.00
  virtual crystal weights 
   VCA    =   1.00  1.00  1.00  1.00
   NELECT =     828.0000    total number of electrons
   NUPDOWN=      -1.0000    fix difference up-down

 DOS related values:
   EMIN   =  10.00;   EMAX   =-10.00  energy-range for DOS
   EFERMI =   0.00
   ISMEAR =     0;   SIGMA  =   0.05  broadening in eV -4-tet -1-fermi 0-gaus

 Electronic relaxation 2 (details)
   IALGO  =     38    algorithm
   LDIAG  =      T    sub-space diagonalisation (order eigenvalues)
   LSUBROT=      F    optimize rotation matrix (better conditioning)
   TURBO    =      0    0=normal 1=particle mesh
   IRESTART =      0    0=no restart 2=restart with 2 vectors
   NREBOOT  =      0    no. of reboots
   NMIN     =      0    reboot dimension
   EREF     =   0.00    reference energy to select bands
   IMIX   =      4    mixing-type and parameters
     AMIX     =   0.40;   BMIX     =  1.00
     AMIX_MAG =   1.60;   BMIX_MAG =  1.00
     AMIN     =   0.10
     WC   =   100.;   INIMIX=   1;  MIXPRE=   1;  MAXMIX= -45

 Intra band minimization:
   WEIMIN = 0.0000     energy-eigenvalue tresh-hold
   EBREAK =  0.41E-09  absolut break condition
   DEPER  =   0.30     relativ break condition  

   TIME   =   0.40     timestep for ELM

  volume/ion in A,a.u.               =      14.30        96.53
  Fermi-wavevector in a.u.,A,eV,Ry     =   1.368946  2.586933 25.497507  1.874014
  Thomas-Fermi vector in A             =   2.494865
 
 Write flags
   LWAVE        =      F    write WAVECAR
   LDOWNSAMPLE  =      F    k-point downsampling of WAVECAR
   LCHARG       =      T    write CHGCAR
   LVTOT        =      F    write LOCPOT, total local potential
   LVHAR        =      F    write LOCPOT, Hartree potential only
   LELF         =      F    write electronic localiz. function (ELF)
   LORBIT       =      0    0 simple, 1 ext, 2 COOP (PROOUT), +10 PAW based schemes


 Dipole corrections
   LMONO  =      F    monopole corrections only (constant potential shift)
   LDIPOL =      F    correct potential (dipole corrections)
   IDIPOL =      0    1-x, 2-y, 3-z, 4-all directions 
   EPSILON=  1.0000000 bulk dielectric constant

 LDA+U is selected, type is set to LDAUTYPE =  2
   angular momentum for each species LDAUL =    -1   -1   -1    2
   U (eV)           for each species LDAUU =   0.0  0.0  0.0  4.0
   J (eV)           for each species LDAUJ =   0.0  0.0  0.0  0.0
 Exchange correlation treatment:
   GGA     =    PE    GGA type
   LEXCH   =     8    internal setting for exchange type
   VOSKOWN=      0    Vosko Wilk Nusair interpolation
   LHFCALC =     F    Hartree Fock is set to
   LHFONE  =     F    Hartree Fock one center treatment
   AEXX    =    0.0000 exact exchange contribution

 Linear response parameters
   LEPSILON=     F    determine dielectric tensor
   LRPA    =     F    only Hartree local field effects (RPA)
   LNABLA  =     F    use nabla operator in PAW spheres
   LVEL    =     F    velocity operator in full k-point grid
   LINTERFAST=   F  fast interpolation
   KINTER  =     0    interpolate to denser k-point grid
   CSHIFT  =0.1000    complex shift for real part using Kramers Kronig
   OMEGAMAX=  -1.0    maximum frequency
   DEG_THRESHOLD= 0.2000000E-02 threshold for treating states as degnerate
   RTIME   =   -0.100 relaxation time in fs
  (WPLASMAI=    0.000 imaginary part of plasma frequency in eV, 0.658/RTIME)
   DFIELD  = 0.0000000 0.0000000 0.0000000 field for delta impulse in time
 
 Orbital magnetization related:
   ORBITALMAG=     F  switch on orbital magnetization
   LCHIMAG   =     F  perturbation theory with respect to B field
   DQ        =  0.001000  dq finite difference perturbation B field
   LLRAUG    =     F  two centre corrections for induced B field



--------------------------------------------------------------------------------------------------------


 Static calculation
 charge density and potential will be updated during run
 spin polarized calculation
 Variant of blocked Davidson
 Davidson routine will perform the subspace rotation
 perform sub-space diagonalisation
    after iterative eigenvector-optimisation
 modified Broyden-mixing scheme, WC =      100.0
 initial mixing is a Kerker type mixing with AMIX =  0.4000 and BMIX =      1.0000
 Hartree-type preconditioning will be used
 using additional bands          192
 reciprocal scheme for non local part
 use partial core corrections
 calculate Harris-corrections to forces 
   (improved forces if not selfconsistent)
 use gradient corrections 
 use of overlap-Matrix (Vanderbilt PP)
 Gauss-broadening in eV      SIGMA  =   0.05


--------------------------------------------------------------------------------------------------------


  energy-cutoff  :      650.00
  volume of cell :     1416.11
      direct lattice vectors                 reciprocal lattice vectors
    11.777269740  0.008488710  0.069233160     0.084810225  0.000119058  0.016842962
    -0.030282480 11.777233860  0.069233160    -0.000160141  0.084810158  0.016842962
    -2.020002310 -2.026663200 10.185746220    -0.000575372 -0.000577269  0.097947445

  length of vectors
    11.777476292 11.777476285 10.580037765     0.086466605  0.086466605  0.097950836


 
 k-points in units of 2pi/SCALE and weight: # No comment                            
   0.00000000  0.00000000  0.00000000       0.037
   0.02827008  0.00003969  0.00561432       0.074
  -0.00005338  0.02827005  0.00561432       0.074
   0.02821669  0.02830974  0.01122864       0.074
  -0.02832346  0.02823037 -0.00000000       0.074
  -0.00019179 -0.00019242  0.03264915       0.074
   0.02807828 -0.00015274  0.03826347       0.074
  -0.02846187 -0.00023211  0.02703483       0.074
  -0.00024517  0.02807763  0.03826347       0.074
   0.02802490  0.02811732  0.04387779       0.074
  -0.02851525  0.02803794  0.03264915       0.074
  -0.00013841 -0.02846248  0.02703483       0.074
   0.02813166 -0.02842279  0.03264915       0.074
  -0.02840849 -0.02850216  0.02142051       0.074
 
 k-points in reciprocal lattice and weights: # No comment                            
   0.00000000  0.00000000  0.00000000       0.037
   0.33333333 -0.00000000 -0.00000000       0.074
   0.00000000  0.33333333  0.00000000       0.074
   0.33333333  0.33333333  0.00000000       0.074
  -0.33333333  0.33333333  0.00000000       0.074
  -0.00000000 -0.00000000  0.33333333       0.074
   0.33333333 -0.00000000  0.33333333       0.074
  -0.33333333 -0.00000000  0.33333333       0.074
  -0.00000000  0.33333333  0.33333333       0.074
   0.33333333  0.33333333  0.33333333       0.074
  -0.33333333  0.33333333  0.33333333       0.074
  -0.00000000 -0.33333333  0.33333333       0.074
   0.33333333 -0.33333333  0.33333333       0.074
  -0.33333333 -0.33333333  0.33333333       0.074
 
 position of ions in fractional coordinates (direct lattice) 
   0.20224939  0.24206952  0.83183419
   0.53558272  0.24206952  0.83183419
   0.86891606  0.24206952  0.83183419
   0.20224939  0.57540285  0.83183419
   0.53558272  0.57540285  0.83183419
   0.86891606  0.57540285  0.83183419
   0.20224939  0.90873619  0.83183419
   0.53558272  0.90873619  0.83183419
   0.86891606  0.90873619  0.83183419
   0.09126381  0.13108394  0.16816581
   0.42459715  0.13108394  0.16816581
   0.75793048  0.13108394  0.16816581
   0.09126381  0.46441728  0.16816581
   0.42459715  0.46441728  0.16816581
   0.75793048  0.46441728  0.16816581
   0.09126381  0.79775061  0.16816581
   0.42459715  0.79775061  0.16816581
   0.75793048  0.79775061  0.16816581
   0.26311007  0.13598816  0.19686089
   0.59644341  0.13598816  0.19686089
   0.92977674  0.13598816  0.19686089
   0.26311007  0.46932149  0.19686089
   0.59644341  0.46932149  0.19686089
   0.92977674  0.46932149  0.19686089
   0.26311007  0.80265483  0.19686089
   0.59644341  0.80265483  0.19686089
   0.92977674  0.80265483  0.19686089
   0.19734517  0.07022326  0.80313911
   0.53067851  0.07022326  0.80313911
   0.86401184  0.07022326  0.80313911
   0.19734517  0.40355659  0.80313911
   0.53067851  0.40355659  0.80313911
   0.86401184  0.40355659  0.80313911
   0.19734517  0.73688993  0.80313911
   0.53067851  0.73688993  0.80313911
   0.86401184  0.73688993  0.80313911
   0.00253935  0.20657296  0.62920335
   0.33587268  0.20657296  0.62920335
   0.66920601  0.20657296  0.62920335
   0.00253935  0.53990630  0.62920335
   0.33587268  0.53990630  0.62920335
   0.66920601  0.53990630  0.62920335
   0.00253935  0.87323963  0.62920335
   0.33587268  0.87323963  0.62920335
   0.66920601  0.87323963  0.62920335
   0.12676037  0.33079399  0.37079665
   0.46009370  0.33079399  0.37079665
   0.79342704  0.33079399  0.37079665
   0.12676037  0.66412732  0.37079665
   0.46009370  0.66412732  0.37079665
   0.79342704  0.66412732  0.37079665
   0.12676037  0.99746065  0.37079665
   0.46009370  0.99746065  0.37079665
   0.79342704  0.99746065  0.37079665
   0.06350899  0.26982435  0.00000000
   0.39684232  0.26982435  0.00000000
   0.73017565  0.26982435  0.00000000
   0.06350899  0.60315768  0.00000000
   0.39684232  0.60315768  0.00000000
   0.73017565  0.60315768  0.00000000
   0.06350899  0.93649101  0.00000000
   0.39684232  0.93649101  0.00000000
   0.73017565  0.93649101  0.00000000
   0.29027274  0.17214940  0.39352170
   0.62360607  0.17214940  0.39352170
   0.95693941  0.17214940  0.39352170
   0.29027274  0.50548273  0.39352170
   0.62360607  0.50548273  0.39352170
   0.95693941  0.50548273  0.39352170
   0.29027274  0.83881607  0.39352170
   0.62360607  0.83881607  0.39352170
   0.95693941  0.83881607  0.39352170
   0.16118393  0.04306059  0.60647830
   0.49451727  0.04306059  0.60647830
   0.82785060  0.04306059  0.60647830
   0.16118393  0.37639393  0.60647830
   0.49451727  0.37639393  0.60647830
   0.82785060  0.37639393  0.60647830
   0.16118393  0.70972726  0.60647830
   0.49451727  0.70972726  0.60647830
   0.82785060  0.70972726  0.60647830
   0.03761391  0.07731307  0.84448259
   0.37094724  0.07731307  0.84542777
   0.70428057  0.07731307  0.84542777
   0.03761391  0.41064640  0.84542777
   0.37094724  0.41064640  0.84542777
   0.70428057  0.41064640  0.84542777
   0.03761391  0.74397973  0.84542777
   0.37094724  0.74397973  0.84542777
   0.70428057  0.74397973  0.84542777
   0.25602027  0.29571943  0.15457223
   0.58935360  0.29571943  0.15457223
   0.92268693  0.29571943  0.15457223
   0.25602027  0.62905276  0.15457223
   0.58935360  0.62905276  0.15457223
   0.92268693  0.62905276  0.15457223
   0.25602027  0.96238609  0.15457223
   0.58935360  0.96238609  0.15457223
   0.92268693  0.96238609  0.15457223
 
 position of ions in cartesian coordinates  (Angst):
   0.69430817  1.16677844  8.50361356
   4.62006475  1.16960801  8.52669128
   8.54582133  1.17243758  8.54976900
   0.68421401  5.09252306  8.52669128
   4.60997059  5.09535263  8.54976900
   8.53572717  5.09818220  8.57284672
   0.67411985  9.01826768  8.54976900
   4.59987643  9.02109725  8.57284672
   8.52563301  9.02392682  8.59592444
   0.73117368  1.20376551  1.72828810
   4.65693026  1.20659508  1.75136582
   8.58268684  1.20942465  1.77444354
   0.72107952  5.12951013  1.75136582
   4.64683610  5.13233970  1.77444354
   8.57259268  5.13516927  1.79752126
   0.71098536  9.05525475  1.77444354
   4.63674194  9.05808432  1.79752126
   8.56249852  9.06091389  1.82059898
   2.69694079  1.20482711  2.03280590
   6.62269737  1.20765668  2.05588362
  10.54845395  1.21048625  2.07896134
   2.68684663  5.13057173  2.05588362
   6.61260321  5.13340130  2.07896134
  10.53835979  5.13623087  2.10203906
   2.67675247  9.05631635  2.07896134
   6.60250905  9.05914592  2.10203906
  10.52826563  9.06197549  2.12511678
   0.69971795 -0.79898152  8.19909576
   4.62547453 -0.79615195  8.22217348
   8.55123111 -0.79332238  8.24525120
   0.68962379  3.12676310  8.22217348
   4.61538037  3.12959267  8.24525120
   8.54113695  3.13242224  8.26832892
   0.67952963  7.05250772  8.24525120
   4.60528621  7.05533729  8.26832892
   8.53104279  7.05816686  8.29140664
  -1.24734119  1.15769638  6.42338315
   2.67841539  1.16052595  6.44646087
   6.60417197  1.16335552  6.46953859
  -1.25743535  5.08344100  6.44646087
   2.66832123  5.08627057  6.46953859
   6.59407781  5.08910014  6.49261631
  -1.26752951  9.00918562  6.46953859
   2.65822707  9.01201519  6.49261631
   6.58398365  9.01484476  6.51569403
   0.73386372  3.14543425  3.80851851
   4.65962030  3.14826382  3.83159623
   8.58537688  3.15109339  3.85467395
   0.72376956  7.07117887  3.83159623
   4.64952614  7.07400844  3.85467395
   8.57528272  7.07683801  3.87775167
   0.71367540 10.99692349  3.85467395
   4.63943198 10.99975306  3.87775167
   8.56518856 11.00258263  3.90082939
   0.73979152  3.17832354  0.02307772
   4.66554810  3.18115311  0.04615544
   8.59130468  3.18398268  0.06923316
   0.72969736  7.10406816  0.04615544
   4.65545394  7.10689773  0.06923316
   8.58121052  7.10972730  0.09231088
   0.71960320 11.02981278  0.06923316
   4.64535978 11.03264235  0.09231088
   8.57111636 11.03547192  0.11538860
   2.61849250  1.23237184  4.04032711
   6.54424908  1.23520141  4.06340483
  10.47000566  1.23803098  4.08648255
   2.60839834  5.15811646  4.06340483
   6.53415492  5.16094603  4.08648255
  10.45991150  5.16377560  4.10956027
   2.59830418  9.08386108  4.08648255
   6.52406076  9.08669065  4.10956027
  10.44981734  9.08952022  4.13263799
   0.67191511 -0.72062433  6.19157455
   4.59767169 -0.71779476  6.21465227
   8.52342827 -0.71496519  6.23772999
   0.66182095  3.20512029  6.21465227
   4.58757753  3.20794986  6.23772999
   8.51333411  3.21077943  6.26080771
   0.65172679  7.13086491  6.23772999
   4.57748337  7.13369448  6.26080771
   8.50323995  7.13652405  6.28388543
  -1.26520890 -0.80062844  8.60964215
   2.65863843 -0.79971442  8.64234719
   6.58439500 -0.79688485  8.66542491
  -1.27721231  3.12320063  8.64234719
   2.64854427  3.12603020  8.66542491
   6.57430084  3.12885977  8.68850263
  -1.28730647  7.04894525  8.66542491
   2.63845011  7.05177482  8.68850263
   6.56420668  7.05460439  8.71158035
   2.69402836  3.17166428  1.61263219
   6.61978494  3.17449385  1.63570991
  10.54554152  3.17732342  1.65878763
   2.68393420  7.09740890  1.63570991
   6.60969078  7.10023847  1.65878763
  10.53544736  7.10306804  1.68186535
   2.67384004 11.02315352  1.65878763
   6.59959662 11.02598309  1.68186535
  10.52535320 11.02881266  1.70494307
 


--------------------------------------------------------------------------------------------------------


 k-point  1 :   0.0000 0.0000 0.0000  plane waves:   53279
 k-point  2 :   0.3333-0.0000-0.0000  plane waves:   53283
 k-point  3 :   0.0000 0.3333 0.0000  plane waves:   53283
 k-point  4 :   0.3333 0.3333 0.0000  plane waves:   53248
 k-point  5 :  -0.3333 0.3333 0.0000  plane waves:   53268
 k-point  6 :  -0.0000-0.0000 0.3333  plane waves:   53317
 k-point  7 :   0.3333-0.0000 0.3333  plane waves:   53290
 k-point  8 :  -0.3333-0.0000 0.3333  plane waves:   53280
 k-point  9 :  -0.0000 0.3333 0.3333  plane waves:   53290
 k-point 10 :   0.3333 0.3333 0.3333  plane waves:   53292
 k-point 11 :  -0.3333 0.3333 0.3333  plane waves:   53261
 k-point 12 :  -0.0000-0.3333 0.3333  plane waves:   53280
 k-point 13 :   0.3333-0.3333 0.3333  plane waves:   53261
 k-point 14 :  -0.3333-0.3333 0.3333  plane waves:   53313

 maximum and minimum number of plane-waves per node :      8936     8841

 maximum number of plane-waves:     53317
 maximum index in each direction: 
   IXMAX=   24   IYMAX=   24   IZMAX=   21
   IXMIN=  -24   IYMIN=  -24   IZMIN=  -22


 parallel 3D FFT for wavefunctions:
    minimum data exchange during FFTs selected (reduces bandwidth)
 parallel 3D FFT for charge:
    minimum data exchange during FFTs selected (reduces bandwidth)


 total amount of memory used by VASP MPI-rank0  1508757. kBytes
=======================================================================

   base      :      30000. kBytes
   nonl-proj :      85790. kBytes
   fftplans  :      89726. kBytes
   grid      :      70158. kBytes
   one-center:        528. kBytes
   wavefun   :    1232555. kBytes
 
     INWAV:  cpu time    0.0000: real time    0.0000
 Broyden mixing: mesh for mixing (old mesh)
   NGX = 49   NGY = 49   NGZ = 43
  (NGX  =196   NGY  =196   NGZ  =180)
  gives a total of 103243 points

 initial charge density was supplied:
 number of electron     828.0000017 magnetization     144.0000076
 keeping initial charge density in first step


--------------------------------------------------------------------------------------------------------


 Maximum index for augmentation-charges        13331 (set IRDMAX)


--------------------------------------------------------------------------------------------------------


 First call to EWALD:  gamma=   0.158
 Maximum number of real-space cells 3x 3x 3
 Maximum number of reciprocal cells 3x 3x 3

    FEWALD:  cpu time    0.0285: real time    0.0286


--------------------------------------- Iteration      1(   1)  ---------------------------------------


    POTLOK:  cpu time    1.1396: real time    1.1504
    SETDIJ:  cpu time    2.5846: real time    2.5918
     EDDAV:  cpu time  430.5431: real time  434.8888
       DOS:  cpu time    0.0087: real time    0.0087
    --------------------------------------------
      LOOP:  cpu time  434.2760: real time  438.6397

 eigenvalue-minimisations  : 34880
 total energy-change (2. order) : 0.1170600E+05  (-0.4628330E+05)
 number of electron     828.0000017 magnetization     144.0000076
 augmentation part      828.0000017 magnetization     144.0000076

 Free energy of the ion-electron system (eV)
  ---------------------------------------------------
  alpha Z        PSCENC =      2606.24521607
  Ewald energy   TEWEN  =    -65005.71962928
  -Hartree energ DENC   =    -34083.84580579
  -exchange      EXHF   =         0.00000000
  -V(xc)+E(xc)   XCENC  =      3632.83959705
  PAW double counting   =    104149.30743192  -107360.85880398
  entropy T*S    EENTRO =        -0.01724525
  eigenvalues    EBANDS =       394.13794032
  atomic energy  EATOM  =    107373.91467324
  Solvation  Ediel_sol  =         0.00000000
  ---------------------------------------------------
  free energy    TOTEN  =     11706.00337430 eV

  energy without entropy =    11706.02061955  energy(sigma->0) =    11706.01199693


--------------------------------------------------------------------------------------------------------




--------------------------------------- Iteration      1(   2)  ---------------------------------------


     EDDAV:  cpu time  421.6474: real time  425.4924
       DOS:  cpu time    0.0090: real time    0.0090
    --------------------------------------------
      LOOP:  cpu time  421.6563: real time  425.5014

 eigenvalue-minimisations  : 33936
 total energy-change (2. order) :-0.1037727E+05  (-0.9729339E+04)
 number of electron     828.0000017 magnetization     144.0000076
 augmentation part      828.0000017 magnetization     144.0000076

 Free energy of the ion-electron system (eV)
  ---------------------------------------------------
  alpha Z        PSCENC =      2606.24521607
  Ewald energy   TEWEN  =    -65005.71962928
  -Hartree energ DENC   =    -34083.84580579
  -exchange      EXHF   =         0.00000000
  -V(xc)+E(xc)   XCENC  =      3632.83959705
  PAW double counting   =    104149.30743192  -107360.85880398
  entropy T*S    EENTRO =        -0.06783884
  eigenvalues    EBANDS =     -9983.07772842
  atomic energy  EATOM  =    107373.91467324
  Solvation  Ediel_sol  =         0.00000000
  ---------------------------------------------------
  free energy    TOTEN  =      1328.73711197 eV

  energy without entropy =     1328.80495081  energy(sigma->0) =     1328.77103139


--------------------------------------------------------------------------------------------------------




--------------------------------------- Iteration      1(   3)  ---------------------------------------


     EDDAV:  cpu time  444.8946: real time  449.1156
       DOS:  cpu time    0.0031: real time    0.0031
    --------------------------------------------
      LOOP:  cpu time  444.8977: real time  449.1187

 eigenvalue-minimisations  : 36392
 total energy-change (2. order) :-0.1674213E+04  (-0.1441989E+04)
 number of electron     828.0000017 magnetization     144.0000076
 augmentation part      828.0000017 magnetization     144.0000076

 Free energy of the ion-electron system (eV)
  ---------------------------------------------------
  alpha Z        PSCENC =      2606.24521607
  Ewald energy   TEWEN  =    -65005.71962928
  -Hartree energ DENC   =    -34083.84580579
  -exchange      EXHF   =         0.00000000
  -V(xc)+E(xc)   XCENC  =      3632.83959705
  PAW double counting   =    104149.30743192  -107360.85880398
  entropy T*S    EENTRO =        -0.00000000
  eigenvalues    EBANDS =    -11657.35890138
  atomic energy  EATOM  =    107373.91467324
  Solvation  Ediel_sol  =         0.00000000
  ---------------------------------------------------
  free energy    TOTEN  =      -345.47622215 eV

  energy without entropy =     -345.47622215  energy(sigma->0) =     -345.47622215


--------------------------------------------------------------------------------------------------------




--------------------------------------- Iteration      1(   4)  ---------------------------------------


     EDDAV:  cpu time  478.7439: real time  483.7131
       DOS:  cpu time    0.0028: real time    0.0032
    --------------------------------------------
      LOOP:  cpu time  478.7467: real time  483.7163

 eigenvalue-minimisations  : 39808
 total energy-change (2. order) :-0.1904031E+03  (-0.1872602E+03)
 number of electron     828.0000017 magnetization     144.0000076
 augmentation part      828.0000017 magnetization     144.0000076

 Free energy of the ion-electron system (eV)
  ---------------------------------------------------
  alpha Z        PSCENC =      2606.24521607
  Ewald energy   TEWEN  =    -65005.71962928
  -Hartree energ DENC   =    -34083.84580579
  -exchange      EXHF   =         0.00000000
  -V(xc)+E(xc)   XCENC  =      3632.83959705
  PAW double counting   =    104149.30743192  -107360.85880398
  entropy T*S    EENTRO =        -0.00000000
  eigenvalues    EBANDS =    -11847.76201941
  atomic energy  EATOM  =    107373.91467324
  Solvation  Ediel_sol  =         0.00000000
  ---------------------------------------------------
  free energy    TOTEN  =      -535.87934017 eV

  energy without entropy =     -535.87934017  energy(sigma->0) =     -535.87934017


--------------------------------------------------------------------------------------------------------




--------------------------------------- Iteration      1(   5)  ---------------------------------------


     EDDAV:  cpu time  624.2301: real time  630.8309
       DOS:  cpu time    0.0033: real time    0.0033
    CHARGE:  cpu time   12.0658: real time   12.2610
    MIXING:  cpu time    0.0575: real time    0.0575
    --------------------------------------------
      LOOP:  cpu time  636.3566: real time  643.1527

 eigenvalue-minimisations  : 55248
 total energy-change (2. order) :-0.1390590E+02  (-0.1376551E+02)
 number of electron     828.0000017 magnetization     144.0000050
 augmentation part      313.2939475 magnetization      94.6586027

 Broyden mixing:
  rms(total) = 0.21387E+00    rms(broyden)= 0.21373E+00
  rms(prec ) = 0.21728E+00
  weight for this iteration     100.00

 Free energy of the ion-electron system (eV)
  ---------------------------------------------------
  alpha Z        PSCENC =      2606.24521607
  Ewald energy   TEWEN  =    -65005.71962928
  -Hartree energ DENC   =    -34083.84580579
  -exchange      EXHF   =         0.00000000
  -V(xc)+E(xc)   XCENC  =      3632.83959705
  PAW double counting   =    104149.30743192  -107360.85880398
  entropy T*S    EENTRO =        -0.00000000
  eigenvalues    EBANDS =    -11861.66791909
  atomic energy  EATOM  =    107373.91467324
  Solvation  Ediel_sol  =         0.00000000
  ---------------------------------------------------
  free energy    TOTEN  =      -549.78523986 eV

  energy without entropy =     -549.78523986  energy(sigma->0) =     -549.78523986


--------------------------------------------------------------------------------------------------------




--------------------------------------- Iteration      1(   6)  ---------------------------------------


    POTLOK:  cpu time    1.1342: real time    1.1371
    SETDIJ:  cpu time    2.5525: real time    2.5811
     EDDAV:  cpu time  561.9148: real time  567.6492
       DOS:  cpu time    0.0028: real time    0.0028
    CHARGE:  cpu time   12.1664: real time   12.2774
    MIXING:  cpu time    0.0636: real time    0.0675
    --------------------------------------------
      LOOP:  cpu time  577.8343: real time  583.7151

 eigenvalue-minimisations  : 48656
 total energy-change (2. order) :-0.5368319E+00  (-0.5489898E+00)
 number of electron     828.0000017 magnetization     144.0000039
 augmentation part      312.7274084 magnetization      94.7039278

 Broyden mixing:
  rms(total) = 0.10324E+00    rms(broyden)= 0.10311E+00
  rms(prec ) = 0.10401E+00
  weight for this iteration     100.00

 eigenvalues of (default mixing * dielectric matrix)
  average eigenvalue GAMMA=   0.6582
  0.6582

 Free energy of the ion-electron system (eV)
  ---------------------------------------------------
  alpha Z        PSCENC =      2606.24521607
  Ewald energy   TEWEN  =    -65005.71962928
  -Hartree energ DENC   =    -34081.93168136
  -exchange      EXHF   =         0.00000000
  -V(xc)+E(xc)   XCENC  =      3632.51793143
  PAW double counting   =    103988.24100337  -107197.99434269
  entropy T*S    EENTRO =        -0.00000000
  eigenvalues    EBANDS =    -11865.59524250
  atomic energy  EATOM  =    107373.91467324
  Solvation  Ediel_sol  =         0.00000000
  ---------------------------------------------------
  free energy    TOTEN  =      -550.32207172 eV

  energy without entropy =     -550.32207172  energy(sigma->0) =     -550.32207172


--------------------------------------------------------------------------------------------------------




--------------------------------------- Iteration      1(   7)  ---------------------------------------


    POTLOK:  cpu time    1.1345: real time    1.1524
    SETDIJ:  cpu time    2.5427: real time    2.5855
     EDDAV:  cpu time  586.9481: real time  592.9896
       DOS:  cpu time    0.0031: real time    0.0031
    CHARGE:  cpu time   12.3211: real time   12.4425
    MIXING:  cpu time    0.0534: real time    0.0567
    --------------------------------------------
      LOOP:  cpu time  603.0029: real time  609.2299

 eigenvalue-minimisations  : 51272
 total energy-change (2. order) :-0.1909554E-01  (-0.1941214E-01)
 number of electron     828.0000017 magnetization     144.0000034
 augmentation part      312.6397739 magnetization      94.6960515

 Broyden mixing:
  rms(total) = 0.60585E-01    rms(broyden)= 0.60554E-01
  rms(prec ) = 0.62022E-01
  weight for this iteration     100.00

 eigenvalues of (default mixing * dielectric matrix)
  average eigenvalue GAMMA=   0.5650
  0.5650  0.5650

 Free energy of the ion-electron system (eV)
  ---------------------------------------------------
  alpha Z        PSCENC =      2606.24521607
  Ewald energy   TEWEN  =    -65005.71962928
  -Hartree energ DENC   =    -34082.84566682
  -exchange      EXHF   =         0.00000000
  -V(xc)+E(xc)   XCENC  =      3632.60339053
  PAW double counting   =    104046.33194755  -107256.69925770
  entropy T*S    EENTRO =        -0.00000000
  eigenvalues    EBANDS =    -11864.17184085
  atomic energy  EATOM  =    107373.91467324
  Solvation  Ediel_sol  =         0.00000000
  ---------------------------------------------------
  free energy    TOTEN  =      -550.34116726 eV

  energy without entropy =     -550.34116726  energy(sigma->0) =     -550.34116726


--------------------------------------------------------------------------------------------------------




--------------------------------------- Iteration      1(   8)  ---------------------------------------


    POTLOK:  cpu time    1.1324: real time    1.1408
    SETDIJ:  cpu time    2.5648: real time    2.5690
     EDDAV:  cpu time  567.3052: real time  572.9980
       DOS:  cpu time    0.0034: real time    0.0077
    CHARGE:  cpu time   12.1530: real time   12.3351
    MIXING:  cpu time    0.0568: real time    0.0602
    --------------------------------------------
      LOOP:  cpu time  583.2158: real time  589.1109

 eigenvalue-minimisations  : 49184
 total energy-change (2. order) : 0.4284410E-03  (-0.4061106E-03)
 number of electron     828.0000017 magnetization     144.0000030
 augmentation part      312.6314272 magnetization      94.6988280

 Broyden mixing:
  rms(total) = 0.53049E-01    rms(broyden)= 0.53046E-01
  rms(prec ) = 0.54338E-01
  weight for this iteration     100.00

 eigenvalues of (default mixing * dielectric matrix)
  average eigenvalue GAMMA=   0.5463
  0.5774  0.5774  0.4840

 Free energy of the ion-electron system (eV)
  ---------------------------------------------------
  alpha Z        PSCENC =      2606.24521607
  Ewald energy   TEWEN  =    -65005.71962928
  -Hartree energ DENC   =    -34082.82784547
  -exchange      EXHF   =         0.00000000
  -V(xc)+E(xc)   XCENC  =      3632.63504959
  PAW double counting   =    104060.58891210  -107271.10247909
  entropy T*S    EENTRO =        -0.00000000
  eigenvalues    EBANDS =    -11864.07463598
  atomic energy  EATOM  =    107373.91467324
  Solvation  Ediel_sol  =         0.00000000
  ---------------------------------------------------
  free energy    TOTEN  =      -550.34073881 eV

  energy without entropy =     -550.34073881  energy(sigma->0) =     -550.34073881


--------------------------------------------------------------------------------------------------------




--------------------------------------- Iteration      1(   9)  ---------------------------------------


    POTLOK:  cpu time    1.1181: real time    1.1384
    SETDIJ:  cpu time    2.5679: real time    2.5849
     EDDAV:  cpu time  616.7706: real time  622.5538
       DOS:  cpu time    0.0031: real time    0.0031
    CHARGE:  cpu time   12.1387: real time   12.3319
    MIXING:  cpu time    0.0617: real time    0.0617
    --------------------------------------------
      LOOP:  cpu time  632.6601: real time  638.6737

 eigenvalue-minimisations  : 54608
 total energy-change (2. order) : 0.6576240E-03  (-0.2433822E-04)
 number of electron     828.0000017 magnetization     144.0000011
 augmentation part      312.6342226 magnetization      94.6991438

 Broyden mixing:
  rms(total) = 0.43696E-01    rms(broyden)= 0.43696E-01
  rms(prec ) = 0.44710E-01
  weight for this iteration     100.00

 eigenvalues of (default mixing * dielectric matrix)
  average eigenvalue GAMMA=   1.0848
  1.8413  1.2250  0.6364  0.6364

 Free energy of the ion-electron system (eV)
  ---------------------------------------------------
  alpha Z        PSCENC =      2606.24521607
  Ewald energy   TEWEN  =    -65005.71962928
  -Hartree energ DENC   =    -34082.96161679
  -exchange      EXHF   =         0.00000000
  -V(xc)+E(xc)   XCENC  =      3632.67443499
  PAW double counting   =    104073.67707886  -107284.37533853
  entropy T*S    EENTRO =        -0.00000000
  eigenvalues    EBANDS =    -11863.79489976
  atomic energy  EATOM  =    107373.91467324
  Solvation  Ediel_sol  =         0.00000000
  ---------------------------------------------------
  free energy    TOTEN  =      -550.34008119 eV

  energy without entropy =     -550.34008119  energy(sigma->0) =     -550.34008119


--------------------------------------------------------------------------------------------------------




--------------------------------------- Iteration      1(  10)  ---------------------------------------


    POTLOK:  cpu time    1.1332: real time    1.1354
    SETDIJ:  cpu time    2.5709: real time    2.5726
     EDDAV:  cpu time  623.1929: real time  629.1118
       DOS:  cpu time    0.0028: real time    0.0029
    CHARGE:  cpu time   12.1219: real time   12.2981
    MIXING:  cpu time    0.0536: real time    0.0566
    --------------------------------------------
      LOOP:  cpu time  639.0754: real time  645.1775

 eigenvalue-minimisations  : 55128
 total energy-change (2. order) : 0.1084696E-02  (-0.1949435E-03)
 number of electron     828.0000017 magnetization     144.0000007
 augmentation part      312.6527336 magnetization      94.7011296

 Broyden mixing:
  rms(total) = 0.83033E-02    rms(broyden)= 0.83002E-02
  rms(prec ) = 0.83309E-02
  weight for this iteration     100.00

 eigenvalues of (default mixing * dielectric matrix)
  average eigenvalue GAMMA=   1.0480
  2.4994  0.9237  0.6484  0.6484  0.5201

 Free energy of the ion-electron system (eV)
  ---------------------------------------------------
  alpha Z        PSCENC =      2606.24521607
  Ewald energy   TEWEN  =    -65005.71962928
  -Hartree energ DENC   =    -34083.77586666
  -exchange      EXHF   =         0.00000000
  -V(xc)+E(xc)   XCENC  =      3632.84166600
  PAW double counting   =    104131.45590347  -107342.95225700
  entropy T*S    EENTRO =        -0.00000000
  eigenvalues    EBANDS =    -11862.34870233
  atomic energy  EATOM  =    107373.91467324
  Solvation  Ediel_sol  =         0.00000000
  ---------------------------------------------------
  free energy    TOTEN  =      -550.33899649 eV

  energy without entropy =     -550.33899649  energy(sigma->0) =     -550.33899649


--------------------------------------------------------------------------------------------------------




--------------------------------------- Iteration      1(  11)  ---------------------------------------


    POTLOK:  cpu time    1.1224: real time    1.1321
    SETDIJ:  cpu time    2.5246: real time    2.5847
     EDDAV:  cpu time  494.1422: real time  499.3051
       DOS:  cpu time    0.0029: real time    0.0029
    CHARGE:  cpu time   12.0200: real time   12.2137
    MIXING:  cpu time    0.0727: real time    0.0747
    --------------------------------------------
      LOOP:  cpu time  509.8848: real time  515.3132

 eigenvalue-minimisations  : 41664
 total energy-change (2. order) :-0.8815866E-04  (-0.6282993E-04)
 number of electron     828.0000017 magnetization     144.0000006
 augmentation part      312.6570560 magnetization      94.7009100

 Broyden mixing:
  rms(total) = 0.62507E-02    rms(broyden)= 0.62487E-02
  rms(prec ) = 0.65521E-02
  weight for this iteration     100.00

 eigenvalues of (default mixing * dielectric matrix)
  average eigenvalue GAMMA=   0.9694
  2.5407  0.8825  0.5793  0.5793  0.6172  0.6172

 Free energy of the ion-electron system (eV)
  ---------------------------------------------------
  alpha Z        PSCENC =      2606.24521607
  Ewald energy   TEWEN  =    -65005.71962928
  -Hartree energ DENC   =    -34083.90984532
  -exchange      EXHF   =         0.00000000
  -V(xc)+E(xc)   XCENC  =      3632.86719398
  PAW double counting   =    104144.39911043  -107356.03142364
  entropy T*S    EENTRO =        -0.00000000
  eigenvalues    EBANDS =    -11862.10438013
  atomic energy  EATOM  =    107373.91467324
  Solvation  Ediel_sol  =         0.00000000
  ---------------------------------------------------
  free energy    TOTEN  =      -550.33908465 eV

  energy without entropy =     -550.33908465  energy(sigma->0) =     -550.33908465


--------------------------------------------------------------------------------------------------------




--------------------------------------- Iteration      1(  12)  ---------------------------------------


    POTLOK:  cpu time    1.1247: real time    1.1409
    SETDIJ:  cpu time    2.5837: real time    2.6065
     EDDAV:  cpu time  548.2370: real time  553.4506
       DOS:  cpu time    0.0028: real time    0.0028
    CHARGE:  cpu time   12.1235: real time   12.3028
    MIXING:  cpu time    0.0498: real time    0.0587
    --------------------------------------------
      LOOP:  cpu time  564.1216: real time  569.5623

 eigenvalue-minimisations  : 47224
 total energy-change (2. order) : 0.5946873E-05  (-0.6067896E-05)
 number of electron     828.0000017 magnetization     144.0000006
 augmentation part      312.6594379 magnetization      94.7008578

 Broyden mixing:
  rms(total) = 0.57174E-02    rms(broyden)= 0.57160E-02
  rms(prec ) = 0.59948E-02
  weight for this iteration     100.00

 eigenvalues of (default mixing * dielectric matrix)
  average eigenvalue GAMMA=   1.1151
  2.5670  1.2699  1.2699  0.8831  0.6438  0.6438  0.5284

 Free energy of the ion-electron system (eV)
  ---------------------------------------------------
  alpha Z        PSCENC =      2606.24521607
  Ewald energy   TEWEN  =    -65005.71962928
  -Hartree energ DENC   =    -34083.89960042
  -exchange      EXHF   =         0.00000000
  -V(xc)+E(xc)   XCENC  =      3632.86311279
  PAW double counting   =    104145.23286952  -107356.84978651
  entropy T*S    EENTRO =        -0.00000000
  eigenvalues    EBANDS =    -11862.12593412
  atomic energy  EATOM  =    107373.91467324
  Solvation  Ediel_sol  =         0.00000000
  ---------------------------------------------------
  free energy    TOTEN  =      -550.33907871 eV

  energy without entropy =     -550.33907871  energy(sigma->0) =     -550.33907871


--------------------------------------------------------------------------------------------------------




--------------------------------------- Iteration      1(  13)  ---------------------------------------


    POTLOK:  cpu time    1.1119: real time    1.1410
    SETDIJ:  cpu time    2.5344: real time    2.5866
     EDDAV:  cpu time  482.1449: real time  486.9533
       DOS:  cpu time    0.0031: real time    0.0031
    CHARGE:  cpu time   12.1213: real time   12.2059
    MIXING:  cpu time    0.0770: real time    0.0798
    --------------------------------------------
      LOOP:  cpu time  497.9926: real time  502.9697

 eigenvalue-minimisations  : 40280
 total energy-change (2. order) : 0.1986473E-04  (-0.2076699E-05)
 number of electron     828.0000017 magnetization     144.0000005
 augmentation part      312.6579819 magnetization      94.7007202

 Broyden mixing:
  rms(total) = 0.17384E-02    rms(broyden)= 0.17344E-02
  rms(prec ) = 0.17970E-02
  weight for this iteration     100.00

 eigenvalues of (default mixing * dielectric matrix)
  average eigenvalue GAMMA=   1.1648
  2.5415  1.8183  1.4536  0.9809  0.7306  0.6626  0.5655  0.5655

 Free energy of the ion-electron system (eV)
  ---------------------------------------------------
  alpha Z        PSCENC =      2606.24521607
  Ewald energy   TEWEN  =    -65005.71962928
  -Hartree energ DENC   =    -34083.82253571
  -exchange      EXHF   =         0.00000000
  -V(xc)+E(xc)   XCENC  =      3632.84352623
  PAW double counting   =    104146.44002857  -107357.98737376
  entropy T*S    EENTRO =        -0.00000000
  eigenvalues    EBANDS =    -11862.25296421
  atomic energy  EATOM  =    107373.91467324
  Solvation  Ediel_sol  =         0.00000000
  ---------------------------------------------------
  free energy    TOTEN  =      -550.33905884 eV

  energy without entropy =     -550.33905884  energy(sigma->0) =     -550.33905884


--------------------------------------------------------------------------------------------------------




--------------------------------------- Iteration      1(  14)  ---------------------------------------


    POTLOK:  cpu time    1.1283: real time    1.1447
    SETDIJ:  cpu time    2.5347: real time    2.5888
     EDDAV:  cpu time  442.2556: real time  446.4517
       DOS:  cpu time    0.0030: real time    0.0030
    CHARGE:  cpu time   12.1369: real time   12.1477
    MIXING:  cpu time    0.0596: real time    0.0597
    --------------------------------------------
      LOOP:  cpu time  458.1181: real time  462.3956

 eigenvalue-minimisations  : 36024
 total energy-change (2. order) :-0.6641247E-05  (-0.3255308E-05)
 number of electron     828.0000017 magnetization     144.0000005
 augmentation part      312.6557194 magnetization      94.7004759

 Broyden mixing:
  rms(total) = 0.97248E-03    rms(broyden)= 0.96533E-03
  rms(prec ) = 0.10105E-02
  weight for this iteration     100.00

 eigenvalues of (default mixing * dielectric matrix)
  average eigenvalue GAMMA=   1.1169
  2.8399  1.5565  1.5565  0.8538  0.7460  0.7460  0.6175  0.6175  0.5182

 Free energy of the ion-electron system (eV)
  ---------------------------------------------------
  alpha Z        PSCENC =      2606.24521607
  Ewald energy   TEWEN  =    -65005.71962928
  -Hartree energ DENC   =    -34083.81003052
  -exchange      EXHF   =         0.00000000
  -V(xc)+E(xc)   XCENC  =      3632.83548617
  PAW double counting   =    104147.91928238  -107359.44578393
  entropy T*S    EENTRO =        -0.00000000
  eigenvalues    EBANDS =    -11862.27827962
  atomic energy  EATOM  =    107373.91467324
  Solvation  Ediel_sol  =         0.00000000
  ---------------------------------------------------
  free energy    TOTEN  =      -550.33906548 eV

  energy without entropy =     -550.33906548  energy(sigma->0) =     -550.33906548


--------------------------------------------------------------------------------------------------------




--------------------------------------- Iteration      1(  15)  ---------------------------------------


    POTLOK:  cpu time    1.1311: real time    1.1321
    SETDIJ:  cpu time    2.5741: real time    2.5754
     EDDAV:  cpu time  425.6238: real time  430.1092
       DOS:  cpu time    0.0028: real time    0.0028
    CHARGE:  cpu time   12.1452: real time   12.3104
    MIXING:  cpu time    0.0617: real time    0.0647
    --------------------------------------------
      LOOP:  cpu time  441.5389: real time  446.1949

 eigenvalue-minimisations  : 33968
 total energy-change (2. order) : 0.2276356E-05  (-0.4395774E-06)
 number of electron     828.0000017 magnetization     144.0000005
 augmentation part      312.6554176 magnetization      94.7005080

 Broyden mixing:
  rms(total) = 0.47255E-03    rms(broyden)= 0.45786E-03
  rms(prec ) = 0.47533E-03
  weight for this iteration     100.00

 eigenvalues of (default mixing * dielectric matrix)
  average eigenvalue GAMMA=   1.0839
  2.7130  1.5684  1.5684  1.0267  0.7947  0.7947  0.6697  0.6031  0.5500  0.5500

 Free energy of the ion-electron system (eV)
  ---------------------------------------------------
  alpha Z        PSCENC =      2606.24521607
  Ewald energy   TEWEN  =    -65005.71962928
  -Hartree energ DENC   =    -34083.82142816
  -exchange      EXHF   =         0.00000000
  -V(xc)+E(xc)   XCENC  =      3632.83882878
  PAW double counting   =    104148.51864076  -107360.06183164
  entropy T*S    EENTRO =        -0.00000000
  eigenvalues    EBANDS =    -11862.25353298
  atomic energy  EATOM  =    107373.91467324
  Solvation  Ediel_sol  =         0.00000000
  ---------------------------------------------------
  free energy    TOTEN  =      -550.33906321 eV

  energy without entropy =     -550.33906321  energy(sigma->0) =     -550.33906321


--------------------------------------------------------------------------------------------------------




--------------------------------------- Iteration      1(  16)  ---------------------------------------


    POTLOK:  cpu time    1.1322: real time    1.1364
    SETDIJ:  cpu time    2.5792: real time    2.5835
     EDDAV:  cpu time  315.6033: real time  319.2248
       DOS:  cpu time    0.0029: real time    0.0045
    --------------------------------------------
      LOOP:  cpu time  319.3175: real time  322.9489

 eigenvalue-minimisations  : 22488
 total energy-change (2. order) : 0.2409070E-06  (-0.7251800E-07)
 number of electron     828.0000017 magnetization     144.0000005
 augmentation part      312.6554176 magnetization      94.7005080

 Free energy of the ion-electron system (eV)
  ---------------------------------------------------
  alpha Z        PSCENC =      2606.24521607
  Ewald energy   TEWEN  =    -65005.71962928
  -Hartree energ DENC   =    -34083.82011204
  -exchange      EXHF   =         0.00000000
  -V(xc)+E(xc)   XCENC  =      3632.83903868
  PAW double counting   =    104148.58012700  -107360.12544031
  entropy T*S    EENTRO =        -0.00000000
  eigenvalues    EBANDS =    -11862.25293632
  atomic energy  EATOM  =    107373.91467324
  Solvation  Ediel_sol  =         0.00000000
  ---------------------------------------------------
  free energy    TOTEN  =      -550.33906297 eV

  energy without entropy =     -550.33906297  energy(sigma->0) =     -550.33906297


--------------------------------------------------------------------------------------------------------




 average (electrostatic) potential at core
  the test charge radii are     0.7079  0.7215  0.9698  0.9500
  (the norm of the test charge is              1.0000)
       1 -58.9481       2 -58.9462       3 -58.9453       4 -58.9458       5 -58.9461
       6 -58.9458       7 -58.9467       8 -58.9459       9 -58.9446      10 -58.9428
      11 -58.9459      12 -58.9455      13 -58.9446      14 -58.9459      15 -58.9461
      16 -58.9434      17 -58.9458      18 -58.9457      19 -69.8179      20 -69.8193
      21 -69.8180      22 -69.8186      23 -69.8195      24 -69.8187      25 -69.8183
      26 -69.8194      27 -69.8185      28 -69.8268      29 -69.8198      30 -69.8189
      31 -69.8195      32 -69.8195      33 -69.8193      34 -69.8190      35 -69.8194
      36 -69.8188      37 -85.5644      38 -85.5597      39 -85.5592      40 -85.5593
      41 -85.5591      42 -85.5590      43 -85.5626      44 -85.5596      45 -85.5591
      46 -85.5591      47 -85.5589      48 -85.5594      49 -85.5591      50 -85.5589
      51 -85.5593      52 -85.5591      53 -85.5588      54 -85.5593      55 -85.6404
      56 -85.6464      57 -85.6458      58 -85.6449      59 -85.6462      60 -85.6461
      61 -85.6374      62 -85.6461      63 -85.6456      64 -78.5668      65 -78.5670
      66 -78.5682      67 -78.5668      68 -78.5670      69 -78.5669      70 -78.5669
      71 -78.5670      72 -78.5676      73 -78.5702      74 -78.5673      75 -78.5681
      76 -78.5679      77 -78.5672      78 -78.5678      79 -78.5677      80 -78.5672
      81 -78.5677      82 -78.5790      83 -78.5850      84 -78.5831      85 -78.5818
      86 -78.5832      87 -78.5830      88 -78.5811      89 -78.5830      90 -78.5828
      91 -78.5816      92 -78.5831      93 -78.5817      94 -78.5825      95 -78.5831
      96 -78.5826      97 -78.5808      98 -78.5829      99 -78.5809
 
 
 
 E-fermi :   5.2391     XC(G=0): -10.4947     alpha+bet :-11.8267


 spin component 1

 k-point     1 :       0.0000    0.0000    0.0000
  band No.  band energies     occupation 
      1     -51.0523      1.00000
      2     -51.0508      1.00000
      3     -51.0505      1.00000
      4     -51.0505      1.00000
      5     -51.0504      1.00000
      6     -51.0504      1.00000
      7     -51.0502      1.00000
      8     -51.0501      1.00000
      9     -51.0500      1.00000
     10     -51.0499      1.00000
     11     -51.0496      1.00000
     12     -51.0495      1.00000
     13     -51.0492      1.00000
     14     -51.0483      1.00000
     15     -51.0480      1.00000
     16     -51.0479      1.00000
     17     -51.0475      1.00000
     18     -51.0468      1.00000
     19     -51.0388      1.00000
     20     -51.0373      1.00000
     21     -51.0370      1.00000
     22     -51.0368      1.00000
     23     -51.0366      1.00000
     24     -51.0362      1.00000
     25     -51.0362      1.00000
     26     -51.0362      1.00000
     27     -51.0361      1.00000
     28     -51.0361      1.00000
     29     -51.0360      1.00000
     30     -51.0354      1.00000
     31     -51.0352      1.00000
     32     -51.0351      1.00000
     33     -51.0349      1.00000
     34     -51.0346      1.00000
     35     -51.0344      1.00000
     36     -51.0325      1.00000
     37     -49.6914      1.00000
     38     -49.6897      1.00000
     39     -49.6897      1.00000
     40     -49.6896      1.00000
     41     -49.6895      1.00000
     42     -49.6894      1.00000
     43     -49.6892      1.00000
     44     -49.6891      1.00000
     45     -49.6891      1.00000
     46     -49.6888      1.00000
     47     -49.6885      1.00000
     48     -49.6882      1.00000
     49     -49.6880      1.00000
     50     -49.6876      1.00000
     51     -49.6874      1.00000
     52     -49.6873      1.00000
     53     -49.6869      1.00000
     54     -49.6821      1.00000
     55     -49.5945      1.00000
     56     -49.5926      1.00000
     57     -49.5921      1.00000
     58     -49.5920      1.00000
     59     -49.5915      1.00000
     60     -49.5914      1.00000
     61     -49.5914      1.00000
     62     -49.5913      1.00000
     63     -49.5906      1.00000
     64     -49.5900      1.00000
     65     -49.5894      1.00000
     66     -49.5891      1.00000
     67     -49.5889      1.00000
     68     -49.5888      1.00000
     69     -49.5887      1.00000
     70     -49.5886      1.00000
     71     -49.5885      1.00000
     72     -49.5885      1.00000
     73     -49.5627      1.00000
     74     -49.5621      1.00000
     75     -49.5619      1.00000
     76     -49.5618      1.00000
     77     -49.5616      1.00000
     78     -49.5614      1.00000
     79     -49.5611      1.00000
     80     -49.5604      1.00000
     81     -49.5602      1.00000
     82     -49.5600      1.00000
     83     -49.5599      1.00000
     84     -49.5597      1.00000
     85     -49.5597      1.00000
     86     -49.5594      1.00000
     87     -49.5593      1.00000
     88     -49.5587      1.00000
     89     -49.5583      1.00000
     90     -49.5582      1.00000
     91     -49.5495      1.00000
     92     -49.5486      1.00000
     93     -49.5483      1.00000
     94     -49.5481      1.00000
     95     -49.5476      1.00000
     96     -49.5475      1.00000
     97     -49.5475      1.00000
     98     -49.5472      1.00000
     99     -49.5471      1.00000
    100     -49.5470      1.00000
    101     -49.5469      1.00000
    102     -49.5468      1.00000
    103     -49.5463      1.00000
    104     -49.5462      1.00000
    105     -49.5461      1.00000
    106     -49.5455      1.00000
    107     -49.5454      1.00000
    108     -49.5452      1.00000
    109     -39.8648      1.00000
    110     -39.8634      1.00000
    111     -39.8632      1.00000
    112     -39.8630      1.00000
    113     -39.8627      1.00000
    114     -39.8626      1.00000
    115     -39.8625      1.00000
    116     -39.8625      1.00000
    117     -39.8624      1.00000
    118     -39.8623      1.00000
    119     -39.8623      1.00000
    120     -39.8621      1.00000
    121     -39.8619      1.00000
    122     -39.8618      1.00000
    123     -39.8613      1.00000
    124     -39.8612      1.00000
    125     -39.8599      1.00000
    126     -39.8593      1.00000
    127     -13.2384      1.00000
    128     -13.2349      1.00000
    129     -13.2347      1.00000
    130     -13.2340      1.00000
    131     -13.2262      1.00000
    132     -13.1992      1.00000
    133     -13.0576      1.00000
    134     -13.0553      1.00000
    135     -13.0546      1.00000
    136     -13.0540      1.00000
    137     -13.0434      1.00000
    138     -13.0420      1.00000
    139     -13.0413      1.00000
    140     -13.0410      1.00000
    141     -13.0206      1.00000
    142     -13.0187      1.00000
    143     -13.0182      1.00000
    144     -13.0179      1.00000
    145      -7.6152      1.00000
    146      -7.4101      1.00000
    147      -7.3752      1.00000
    148      -7.3748      1.00000
    149      -7.3732      1.00000
    150      -7.3713      1.00000
    151      -7.1804      1.00000
    152      -7.1795      1.00000
    153      -7.1705      1.00000
    154      -7.1684      1.00000
    155      -7.1520      1.00000
    156      -7.1519      1.00000
    157      -7.1509      1.00000
    158      -7.1506      1.00000
    159      -6.9857      1.00000
    160      -6.9663      1.00000
    161      -6.9657      1.00000
    162      -6.9309      1.00000
    163      -6.9307      1.00000
    164      -6.8732      1.00000
    165      -6.8725      1.00000
    166      -6.8718      1.00000
    167      -6.8717      1.00000
    168      -6.8086      1.00000
    169      -6.8080      1.00000
    170      -6.7814      1.00000
    171      -6.7811      1.00000
    172      -1.8399      1.00000
    173      -1.8373      1.00000
    174      -1.8364      1.00000
    175      -1.8361      1.00000
    176      -1.8173      1.00000
    177      -1.8162      1.00000
    178      -1.8046      1.00000
    179      -1.8035      1.00000
    180      -1.7676      1.00000
    181      -1.7662      1.00000
    182      -1.7546      1.00000
    183      -1.7535      1.00000
    184      -1.2807      1.00000
    185      -1.1978      1.00000
    186      -1.1975      1.00000
    187      -1.1974      1.00000
    188      -1.1969      1.00000
    189      -1.0056      1.00000
    190      -1.0052      1.00000
    191      -0.9748      1.00000
    192      -0.9743      1.00000
    193      -0.9589      1.00000
    194      -0.9586      1.00000
    195      -0.9467      1.00000
    196      -0.9383      1.00000
    197      -0.9310      1.00000
    198      -0.9285      1.00000
    199      -0.9280      1.00000
    200      -0.8845      1.00000
    201      -0.8844      1.00000
    202      -0.8843      1.00000
    203      -0.8839      1.00000
    204      -0.8718      1.00000
    205      -0.8714      1.00000
    206      -0.8683      1.00000
    207      -0.8679      1.00000
    208      -0.8674      1.00000
    209      -0.8669      1.00000
    210      -0.8598      1.00000
    211      -0.8595      1.00000
    212      -0.7018      1.00000
    213      -0.7004      1.00000
    214      -0.6998      1.00000
    215      -0.6995      1.00000
    216      -0.6719      1.00000
    217      -0.6718      1.00000
    218      -0.6239      1.00000
    219      -0.6235      1.00000
    220      -0.6231      1.00000
    221      -0.6228      1.00000
    222      -0.6226      1.00000
    223      -0.6225      1.00000
    224      -0.3525      1.00000
    225      -0.3521      1.00000
    226      -0.3516      1.00000
    227      -0.3513      1.00000
    228      -0.3220      1.00000
    229      -0.3215      1.00000
    230      -0.2919      1.00000
    231      -0.2918      1.00000
    232      -0.2646      1.00000
    233      -0.2644      1.00000
    234      -0.2641      1.00000
    235      -0.2640      1.00000
    236      -0.2611      1.00000
    237      -0.2610      1.00000
    238      -0.2577      1.00000
    239      -0.2494      1.00000
    240      -0.2493      1.00000
    241      -0.2431      1.00000
    242      -0.2196      1.00000
    243      -0.1410      1.00000
    244      -0.1407      1.00000
    245      -0.1403      1.00000
    246      -0.1401      1.00000
    247      -0.1397      1.00000
    248      -0.1392      1.00000
    249      -0.1229      1.00000
    250      -0.1226      1.00000
    251      -0.1220      1.00000
    252      -0.1213      1.00000
    253      -0.1202      1.00000
    254      -0.1200      1.00000
    255      -0.0778      1.00000
    256      -0.0777      1.00000
    257      -0.0599      1.00000
    258      -0.0120      1.00000
    259      -0.0117      1.00000
    260       0.0162      1.00000
    261       0.0164      1.00000
    262       0.0259      1.00000
    263       0.0262      1.00000
    264       0.0424      1.00000
    265       0.0427      1.00000
    266       0.0429      1.00000
    267       0.0431      1.00000
    268       0.0604      1.00000
    269       0.0609      1.00000
    270       0.1493      1.00000
    271       0.1496      1.00000
    272       0.1500      1.00000
    273       0.1503      1.00000
    274       0.1590      1.00000
    275       0.1649      1.00000
    276       0.1665      1.00000
    277       0.1819      1.00000
    278       0.1828      1.00000
    279       0.1929      1.00000
    280       0.1961      1.00000
    281       0.1966      1.00000
    282       0.2077      1.00000
    283       0.2080      1.00000
    284       0.2580      1.00000
    285       0.2581      1.00000
    286       0.2585      1.00000
    287       0.2601      1.00000
    288       0.2785      1.00000
    289       0.2789      1.00000
    290       0.3395      1.00000
    291       0.3397      1.00000
    292       0.3597      1.00000
    293       0.3600      1.00000
    294       0.3605      1.00000
    295       0.3615      1.00000
    296       0.3800      1.00000
    297       0.3831      1.00000
    298       0.4897      1.00000
    299       0.4902      1.00000
    300       0.4905      1.00000
    301       0.4907      1.00000
    302       0.5163      1.00000
    303       0.5167      1.00000
    304       0.5167      1.00000
    305       0.5168      1.00000
    306       0.5591      1.00000
    307       0.5592      1.00000
    308       0.6092      1.00000
    309       0.6095      1.00000
    310       0.6140      1.00000
    311       0.6305      1.00000
    312       0.6307      1.00000
    313       0.6308      1.00000
    314       0.6310      1.00000
    315       0.7520      1.00000
    316       0.7521      1.00000
    317       0.7608      1.00000
    318       0.7611      1.00000
    319       0.7620      1.00000
    320       0.7623      1.00000
    321       0.7902      1.00000
    322       0.7903      1.00000
    323       0.7924      1.00000
    324       0.8465      1.00000
    325       0.8469      1.00000
    326       0.8550      1.00000
    327       0.8552      1.00000
    328       0.9685      1.00000
    329       0.9687      1.00000
    330       0.9690      1.00000
    331       0.9698      1.00000
    332       0.9798      1.00000
    333       1.2398      1.00000
    334       1.2403      1.00000
    335       1.2405      1.00000
    336       1.2405      1.00000
    337       1.2633      1.00000
    338       1.2930      1.00000
    339       1.2932      1.00000
    340       1.3305      1.00000
    341       1.3308      1.00000
    342       1.3584      1.00000
    343       1.3586      1.00000
    344       1.3591      1.00000
    345       1.3596      1.00000
    346       1.4364      1.00000
    347       1.4365      1.00000
    348       1.4639      1.00000
    349       1.4753      1.00000
    350       1.4871      1.00000
    351       1.4872      1.00000
    352       1.5473      1.00000
    353       1.6780      1.00000
    354       1.6805      1.00000
    355       1.6809      1.00000
    356       1.7235      1.00000
    357       1.7236      1.00000
    358       1.7238      1.00000
    359       1.7246      1.00000
    360       1.7658      1.00000
    361       1.7663      1.00000
    362       1.8139      1.00000
    363       1.8145      1.00000
    364       1.8148      1.00000
    365       1.8152      1.00000
    366       1.8260      1.00000
    367       1.8262      1.00000
    368       1.8273      1.00000
    369       1.8277      1.00000
    370       1.8394      1.00000
    371       1.8750      1.00000
    372       1.8860      1.00000
    373       1.9031      1.00000
    374       1.9041      1.00000
    375       1.9177      1.00000
    376       1.9184      1.00000
    377       1.9634      1.00000
    378       1.9637      1.00000
    379       1.9900      1.00000
    380       1.9901      1.00000
    381       1.9981      1.00000
    382       1.9986      1.00000
    383       1.9992      1.00000
    384       1.9995      1.00000
    385       2.0711      1.00000
    386       2.0720      1.00000
    387       2.0768      1.00000
    388       2.0817      1.00000
    389       2.0817      1.00000
    390       2.0824      1.00000
    391       2.0939      1.00000
    392       2.0945      1.00000
    393       2.1156      1.00000
    394       2.1158      1.00000
    395       2.1159      1.00000
    396       2.1164      1.00000
    397       2.1953      1.00000
    398       2.1956      1.00000
    399       2.2888      1.00000
    400       2.2891      1.00000
    401       2.4160      1.00000
    402       2.4166      1.00000
    403       2.4402      1.00000
    404       2.4412      1.00000
    405       2.4412      1.00000
    406       2.4417      1.00000
    407       2.4996      1.00000
    408       2.5159      1.00000
    409       2.5162      1.00000
    410       2.5165      1.00000
    411       2.5172      1.00000
    412       2.5593      1.00000
    413       2.5598      1.00000
    414       2.5648      1.00000
    415       2.7180      1.00000
[...]
   -.360E+01 0.698E+01 -.125E+03   0.376E+01 -.728E+01 0.130E+03   -.144E+00 0.300E+00 -.459E+01   -.945E-04 0.708E-04 -.239E-03
   -.231E+01 0.673E+01 -.124E+03   0.239E+01 -.702E+01 0.129E+03   -.792E-01 0.286E+00 -.454E+01   -.481E-04 -.221E-04 0.181E-04
   -.191E+01 0.698E+01 -.126E+03   0.197E+01 -.728E+01 0.130E+03   -.652E-01 0.300E+00 -.462E+01   -.131E-03 0.176E-03 -.277E-03
   -.231E+01 0.662E+01 -.125E+03   0.239E+01 -.690E+01 0.129E+03   -.757E-01 0.284E+00 -.455E+01   -.554E-04 -.110E-04 0.566E-04
   -.229E+01 0.671E+01 -.124E+03   0.237E+01 -.700E+01 0.129E+03   -.773E-01 0.285E+00 -.454E+01   -.636E-04 0.861E-05 0.898E-04
   -.223E+01 0.667E+01 -.125E+03   0.230E+01 -.696E+01 0.129E+03   -.776E-01 0.285E+00 -.455E+01   -.293E-04 -.683E-04 0.123E-04
   -.226E+01 0.674E+01 -.125E+03   0.234E+01 -.702E+01 0.129E+03   -.742E-01 0.285E+00 -.455E+01   -.255E-04 -.765E-04 0.405E-04
   -.229E+01 0.672E+01 -.124E+03   0.237E+01 -.701E+01 0.129E+03   -.773E-01 0.285E+00 -.454E+01   -.815E-04 -.338E-04 0.895E-04
   -.228E+01 0.668E+01 -.125E+03   0.236E+01 -.697E+01 0.129E+03   -.791E-01 0.284E+00 -.455E+01   -.594E-04 -.116E-03 0.410E-05
   0.474E+01 -.120E+02 -.314E+02   -.483E+01 0.121E+02 0.319E+02   0.854E-01 -.151E+00 -.487E+00   -.221E-04 -.934E-04 0.918E-04
   0.455E+01 -.114E+02 -.318E+02   -.464E+01 0.115E+02 0.323E+02   0.812E-01 -.136E+00 -.498E+00   -.726E-05 -.161E-04 0.685E-04
   0.476E+01 -.113E+02 -.319E+02   -.484E+01 0.115E+02 0.324E+02   0.841E-01 -.134E+00 -.499E+00   0.142E-04 -.716E-05 0.685E-04
   0.468E+01 -.113E+02 -.319E+02   -.477E+01 0.115E+02 0.324E+02   0.834E-01 -.135E+00 -.500E+00   -.180E-04 -.233E-04 0.799E-04
   0.466E+01 -.113E+02 -.319E+02   -.474E+01 0.114E+02 0.324E+02   0.833E-01 -.135E+00 -.499E+00   0.150E-04 -.272E-05 0.889E-04
   0.469E+01 -.113E+02 -.319E+02   -.477E+01 0.114E+02 0.324E+02   0.835E-01 -.135E+00 -.499E+00   -.162E-04 -.289E-04 0.492E-04
   0.475E+01 -.107E+02 -.317E+02   -.483E+01 0.108E+02 0.322E+02   0.854E-01 -.120E+00 -.493E+00   -.201E-05 0.819E-04 0.418E-04
   0.458E+01 -.112E+02 -.319E+02   -.466E+01 0.114E+02 0.324E+02   0.816E-01 -.133E+00 -.498E+00   0.150E-04 -.222E-05 0.790E-04
   0.473E+01 -.113E+02 -.319E+02   -.481E+01 0.114E+02 0.324E+02   0.838E-01 -.134E+00 -.499E+00   -.328E-05 0.700E-05 0.582E-04
   0.113E+02 -.463E+01 0.320E+02   -.114E+02 0.472E+01 -.325E+02   0.134E+00 -.839E-01 0.502E+00   0.187E-04 -.111E-04 -.635E-04
   0.113E+02 -.464E+01 0.319E+02   -.115E+02 0.472E+01 -.324E+02   0.135E+00 -.828E-01 0.500E+00   0.268E-04 0.114E-04 -.471E-04
   0.113E+02 -.466E+01 0.320E+02   -.114E+02 0.474E+01 -.325E+02   0.136E+00 -.840E-01 0.501E+00   -.132E-04 0.354E-05 -.502E-04
   0.113E+02 -.461E+01 0.319E+02   -.114E+02 0.469E+01 -.324E+02   0.134E+00 -.823E-01 0.501E+00   0.127E-04 0.196E-04 -.762E-04
   0.113E+02 -.463E+01 0.319E+02   -.114E+02 0.472E+01 -.324E+02   0.135E+00 -.829E-01 0.500E+00   0.498E-04 -.157E-05 -.743E-04
   0.113E+02 -.461E+01 0.319E+02   -.115E+02 0.470E+01 -.324E+02   0.135E+00 -.822E-01 0.501E+00   -.183E-04 -.101E-05 -.674E-04
   0.112E+02 -.468E+01 0.321E+02   -.114E+02 0.476E+01 -.326E+02   0.134E+00 -.826E-01 0.503E+00   -.520E-04 0.116E-04 -.480E-04
   0.113E+02 -.465E+01 0.319E+02   -.115E+02 0.473E+01 -.324E+02   0.135E+00 -.829E-01 0.500E+00   0.113E-04 0.686E-05 -.544E-04
   0.114E+02 -.465E+01 0.320E+02   -.115E+02 0.473E+01 -.325E+02   0.135E+00 -.826E-01 0.501E+00   0.464E-04 0.196E-05 -.149E-04
   0.112E+00 0.939E+00 -.235E-01   -.110E+00 -.954E+00 0.224E-01   -.958E-03 0.103E-01 -.514E-02   -.229E-04 0.864E-04 -.253E-04
   0.190E-01 0.458E-01 -.736E-01   -.163E-01 -.485E-01 0.746E-01   -.248E-02 0.225E-02 -.186E-02   0.294E-04 0.524E-04 0.173E-04
   -.110E+00 0.832E-01 -.364E-01   0.115E+00 -.866E-01 0.367E-01   -.495E-02 0.344E-02 -.524E-03   -.508E-04 0.212E-04 -.816E-05
   -.589E-02 -.172E-01 -.313E-01   0.919E-02 0.143E-01 0.306E-01   -.328E-02 0.258E-02 0.719E-03   -.578E-05 0.253E-04 -.272E-04
   -.743E-02 0.336E-02 -.186E-01   0.104E-01 -.651E-02 0.188E-01   -.274E-02 0.305E-02 -.285E-03   0.194E-04 0.226E-05 0.285E-05
   -.294E-01 0.456E-02 -.949E-02   0.331E-01 -.778E-02 0.951E-02   -.379E-02 0.309E-02 -.642E-04   -.497E-04 0.353E-04 0.162E-05
   0.113E+00 -.116E+01 0.377E+00   -.111E+00 0.117E+01 -.382E+00   -.966E-03 -.224E-02 -.349E-02   -.117E-04 -.610E-04 0.313E-04
   0.584E-01 -.783E-02 -.518E-01   -.561E-01 0.386E-02 0.529E-01   -.182E-02 0.450E-02 -.206E-02   0.139E-04 -.222E-04 0.107E-04
   -.149E+00 -.481E-01 -.107E-01   0.154E+00 0.448E-01 0.113E-01   -.560E-02 0.329E-02 -.762E-03   -.610E-04 0.494E-05 0.715E-05
   -.273E+01 0.418E+01 -.185E+03   0.204E+01 -.379E+01 0.183E+03   0.688E+00 -.389E+00 0.230E+01   0.255E-04 0.880E-04 -.120E-03
   -.264E+01 0.419E+01 -.185E+03   0.195E+01 -.380E+01 0.183E+03   0.689E+00 -.389E+00 0.230E+01   0.250E-05 0.855E-04 -.484E-04
   -.278E+01 0.403E+01 -.185E+03   0.209E+01 -.365E+01 0.182E+03   0.688E+00 -.387E+00 0.232E+01   -.492E-04 -.145E-04 0.795E-04
   -.271E+01 0.427E+01 -.185E+03   0.202E+01 -.388E+01 0.183E+03   0.688E+00 -.389E+00 0.230E+01   0.417E-04 -.430E-04 0.678E-06
   -.270E+01 0.424E+01 -.185E+03   0.201E+01 -.385E+01 0.183E+03   0.690E+00 -.389E+00 0.230E+01   -.123E-04 -.242E-04 -.213E-03
   -.273E+01 0.426E+01 -.185E+03   0.205E+01 -.387E+01 0.183E+03   0.688E+00 -.389E+00 0.230E+01   -.629E-04 -.213E-04 -.827E-04
   -.278E+01 0.424E+01 -.185E+03   0.209E+01 -.385E+01 0.183E+03   0.688E+00 -.389E+00 0.230E+01   0.223E-04 -.291E-04 -.972E-04
   -.264E+01 0.426E+01 -.185E+03   0.195E+01 -.387E+01 0.183E+03   0.689E+00 -.389E+00 0.230E+01   -.132E-07 -.554E-04 -.158E-03
   -.272E+01 0.438E+01 -.185E+03   0.203E+01 -.399E+01 0.183E+03   0.688E+00 -.392E+00 0.231E+01   -.638E-04 0.691E-04 -.181E-04
   -.559E+01 0.278E+01 0.186E+03   0.522E+01 -.209E+01 -.184E+03   0.378E+00 -.686E+00 -.227E+01   -.348E-03 0.145E-04 0.386E-03
   -.429E+01 0.271E+01 0.185E+03   0.390E+01 -.202E+01 -.183E+03   0.390E+00 -.687E+00 -.229E+01   0.280E-04 0.142E-04 0.913E-04
   -.306E+01 0.280E+01 0.186E+03   0.265E+01 -.212E+01 -.184E+03   0.404E+00 -.685E+00 -.229E+01   0.229E-03 0.422E-04 0.259E-03
   -.436E+01 0.244E+01 0.185E+03   0.397E+01 -.175E+01 -.183E+03   0.386E+00 -.693E+00 -.230E+01   -.574E-04 -.875E-04 0.222E-03
   -.425E+01 0.267E+01 0.185E+03   0.386E+01 -.198E+01 -.183E+03   0.390E+00 -.689E+00 -.230E+01   0.482E-04 -.348E-05 0.123E-03
   -.411E+01 0.250E+01 0.185E+03   0.371E+01 -.181E+01 -.183E+03   0.397E+00 -.693E+00 -.230E+01   0.112E-04 -.844E-04 0.115E-03
   -.431E+01 0.289E+01 0.185E+03   0.392E+01 -.221E+01 -.183E+03   0.386E+00 -.682E+00 -.230E+01   -.218E-04 0.693E-04 0.184E-03
   -.426E+01 0.272E+01 0.185E+03   0.387E+01 -.204E+01 -.183E+03   0.390E+00 -.686E+00 -.230E+01   0.122E-04 0.347E-04 0.107E-03
   -.415E+01 0.282E+01 0.185E+03   0.376E+01 -.214E+01 -.183E+03   0.397E+00 -.683E+00 -.230E+01   -.269E-05 0.731E-04 0.341E-04
   0.550E+01 0.561E+01 -.204E+03   -.557E+01 -.563E+01 0.206E+03   0.348E-01 0.851E-02 -.195E+01   0.134E-03 0.676E-03 -.185E-02
   0.361E+01 0.514E+01 -.202E+03   -.367E+01 -.515E+01 0.204E+03   0.602E-01 0.127E-01 -.199E+01   -.676E-04 0.324E-04 0.249E-04
   0.358E+01 0.514E+01 -.202E+03   -.366E+01 -.515E+01 0.204E+03   0.824E-01 0.127E-01 -.198E+01   -.683E-05 0.388E-04 0.181E-05
   0.385E+01 0.487E+01 -.202E+03   -.393E+01 -.489E+01 0.204E+03   0.808E-01 0.161E-01 -.200E+01   0.510E-04 0.117E-04 -.125E-03
   0.372E+01 0.501E+01 -.202E+03   -.380E+01 -.502E+01 0.204E+03   0.802E-01 0.122E-01 -.198E+01   0.719E-04 0.868E-04 0.227E-03
   0.378E+01 0.507E+01 -.202E+03   -.386E+01 -.508E+01 0.204E+03   0.802E-01 0.131E-01 -.198E+01   -.101E-03 0.426E-04 0.151E-03
   0.385E+01 0.488E+01 -.202E+03   -.393E+01 -.489E+01 0.204E+03   0.808E-01 0.415E-02 -.200E+01   0.970E-04 -.193E-03 -.974E-04
   0.378E+01 0.507E+01 -.202E+03   -.386E+01 -.508E+01 0.204E+03   0.811E-01 0.127E-01 -.198E+01   0.661E-04 -.121E-03 0.198E-03
   0.372E+01 0.501E+01 -.202E+03   -.380E+01 -.502E+01 0.204E+03   0.794E-01 0.117E-01 -.198E+01   -.125E-03 -.103E-03 0.194E-03
   -.475E+01 -.348E+01 0.202E+03   0.475E+01 0.356E+01 -.204E+03   -.339E-02 -.789E-01 0.199E+01   0.263E-03 -.654E-04 -.177E-04
   -.508E+01 -.376E+01 0.202E+03   0.509E+01 0.384E+01 -.204E+03   -.131E-01 -.800E-01 0.198E+01   -.680E-04 0.189E-03 -.154E-03
   -.536E+01 -.341E+01 0.202E+03   0.538E+01 0.349E+01 -.204E+03   -.198E-01 -.785E-01 0.199E+01   -.159E-03 0.421E-04 -.108E-04
   -.502E+01 -.382E+01 0.202E+03   0.503E+01 0.390E+01 -.204E+03   -.108E-01 -.813E-01 0.198E+01   0.161E-03 0.112E-03 -.190E-03
   -.506E+01 -.380E+01 0.202E+03   0.507E+01 0.388E+01 -.203E+03   -.121E-01 -.807E-01 0.198E+01   -.795E-04 -.638E-04 -.187E-03
   -.509E+01 -.381E+01 0.202E+03   0.510E+01 0.389E+01 -.204E+03   -.141E-01 -.810E-01 0.198E+01   -.762E-04 0.375E-04 -.149E-03
   -.469E+01 -.411E+01 0.202E+03   0.468E+01 0.419E+01 -.204E+03   0.177E-02 -.805E-01 0.199E+01   0.333E-03 -.318E-04 0.522E-04
   -.506E+01 -.383E+01 0.202E+03   0.508E+01 0.391E+01 -.204E+03   -.132E-01 -.806E-01 0.198E+01   -.358E-04 -.108E-03 -.111E-03
   -.544E+01 -.420E+01 0.202E+03   0.547E+01 0.428E+01 -.204E+03   -.251E-01 -.814E-01 0.199E+01   -.246E-03 -.466E-04 0.658E-05
 -----------------------------------------------------------------------------------------------
   -.932E+01 0.940E+01 -.125E-01   -.853E-13 0.293E-12 -.128E-11   0.933E+01 -.940E+01 0.141E-01   -.489E-03 0.106E-02 -.160E-02
 
 
 POSITION                                       TOTAL-FORCE (eV/Angst)
 -----------------------------------------------------------------------------------
      0.69431      1.16678      8.50361         0.001562      0.004038      0.003186
      4.62006      1.16961      8.52669         0.000207      0.000637      0.000458
      8.54582      1.17244      8.54977        -0.000210      0.000295      0.003170
      0.68421      5.09252      8.52669        -0.000187     -0.000483      0.000278
      4.60997      5.09535      8.54977         0.000069     -0.000556      0.000079
      8.53573      5.09818      8.57285         0.000150     -0.000489      0.000264
      0.67412      9.01827      8.54977        -0.001360     -0.001303      0.003497
      4.59988      9.02110      8.57285         0.000201      0.000240      0.000519
      8.52563      9.02393      8.59592         0.002765      0.002501      0.003551
      0.73117      1.20377      1.72829        -0.000389     -0.000348     -0.003875
      4.65693      1.20660      1.75137         0.000221      0.000028      0.000156
      8.58269      1.20942      1.77444        -0.000120      0.000021     -0.000395
      0.72108      5.12951      1.75137        -0.000298     -0.000792     -0.001648
      4.64684      5.13234      1.77444         0.000342     -0.000008      0.000124
      8.57259      5.13517      1.79752        -0.000262     -0.000067     -0.000325
      0.71099      9.05525      1.77444        -0.000278      0.001338     -0.002129
      4.63674      9.05808      1.79752         0.000284     -0.000037      0.000105
      8.56250      9.06091      1.82060        -0.000238      0.000038     -0.000330
      2.69694      1.20483      2.03281         0.000907      0.000488      0.002156
      6.62270      1.20766      2.05588        -0.000075      0.000103      0.000305
     10.54845      1.21049      2.07896        -0.001587      0.000466      0.002964
      2.68685      5.13057      2.05588         0.000433      0.000669      0.001319
      6.61260      5.13340      2.07896         0.000017     -0.000094      0.000274
     10.53836      5.13623      2.10204        -0.001089      0.000622      0.001204
      2.67675      9.05632      2.07896         0.000791     -0.001242      0.001791
      6.60251      9.05915      2.10204        -0.000070     -0.000049      0.000254
     10.52827      9.06198      2.12512        -0.001393     -0.001205      0.001970
      0.69972     -0.79898      8.19910         0.019533      0.001679     -0.008024
      4.62547     -0.79615      8.22217        -0.000897      0.000478     -0.000255
      8.55123     -0.79332      8.24525        -0.000625      0.001750     -0.007168
      0.68962      3.12676      8.22217         0.000428     -0.000271     -0.001597
      4.61538      3.12959      8.24525        -0.000108      0.000078     -0.000354
      8.54114      3.13242      8.26833        -0.000186      0.000001     -0.001679
      0.67953      7.05251      8.24525         0.000945      0.000211     -0.001792
      4.60529      7.05534      8.26833        -0.000106      0.000239     -0.000436
      8.53104      7.05817      8.29141        -0.000713     -0.000036     -0.001889
     -1.24734      1.15770      6.42338         0.000673     -0.002272      0.003006
      2.67842      1.16053      6.44646        -0.000839     -0.000487      0.000596
      6.60417      1.16336      6.46954         0.000235      0.000228     -0.000205
     -1.25744      5.08344      6.44646        -0.000015     -0.000115     -0.000449
      2.66832      5.08627      6.46954        -0.000046      0.000018     -0.000064
      6.59408      5.08910      6.49262         0.000121      0.000017     -0.000163
     -1.26753      9.00919      6.46954         0.000672      0.002648      0.000983
      2.65823      9.01202      6.49262        -0.000743      0.000756      0.000505
      6.58398      9.01484      6.51569         0.000135      0.000084     -0.000220
      0.73386      3.14543      3.80852        -0.000635     -0.000435      0.001645
      4.65962      3.14826      3.83160         0.000187      0.000070      0.000437
      8.58538      3.15109      3.85467         0.000484     -0.000485      0.001252
      0.72377      7.07118      3.83160        -0.000384      0.000366      0.001100
      4.64953      7.07401      3.85467         0.000159      0.000050      0.000419
      8.57528      7.07684      3.87775         0.000286      0.000394      0.000912
      0.71368     10.99692      3.85467        -0.000607      0.000160      0.002580
      4.63943     10.99975      3.87775         0.000216      0.000016      0.000581
      8.56519     11.00258      3.90083         0.000368      0.000172      0.001281
      0.73979      3.17832      0.02308         0.000878     -0.005155     -0.006291
      4.66555      3.18115      0.04616         0.000226     -0.000415     -0.000871
      8.59130      3.18398      0.06923        -0.000644      0.000041     -0.000213
      0.72970      7.10407      0.04616         0.000017     -0.000301     -0.000018
      4.65545      7.10690      0.06923         0.000209     -0.000094     -0.000126
      8.58121      7.10973      0.09231        -0.000194     -0.000088     -0.000046
      0.71960     11.02981      0.06923         0.000833      0.010343     -0.008432
      4.64536     11.03264      0.09231         0.000512      0.000506     -0.000900
      8.57112     11.03547      0.11539        -0.000922      0.000037     -0.000231
      2.61849      1.23237      4.04033         0.000229     -0.000185     -0.001555
      6.54425      1.23520      4.06340        -0.000191     -0.000162     -0.000230
     10.47001      1.23803      4.08648         0.000098     -0.000788     -0.004763
      2.60840      5.15812      4.06340         0.000282     -0.000081     -0.000594
      6.53415      5.16095      4.08648        -0.000235     -0.000074      0.000004
     10.45991      5.16378      4.10956         0.000135     -0.000096     -0.000757
      2.59830      9.08386      4.08648         0.000239      0.000108     -0.001206
      6.52406      9.08669      4.10956        -0.000191      0.000060     -0.000109
     10.44982      9.08952      4.13264         0.000118      0.000583     -0.003030
      0.67192     -0.72062      6.19157         0.007310     -0.000539     -0.010463
      4.59767     -0.71779      6.21465         0.000281     -0.000232     -0.000220
      8.52343     -0.71497      6.23773        -0.006227     -0.000727     -0.003055
      0.66182      3.20512      6.21465         0.001347      0.001333      0.000256
      4.58758      3.20795      6.23773         0.000228      0.000087      0.000013
      8.51333      3.21078      6.26081        -0.001641      0.001195      0.000607
      0.65173      7.13086      6.23773         0.001009     -0.001323      0.000541
      4.57748      7.13369      6.26081         0.000238     -0.000532      0.000118
      8.50324      7.13652      6.28389        -0.001370     -0.001250      0.000832
     -1.26521     -0.80063      8.60964        -0.028423     -0.012053      0.034647
      2.65864     -0.79971      8.64235         0.004467     -0.000157      0.001120
      6.58440     -0.79688      8.66542         0.001197     -0.000151      0.000488
     -1.27721      3.12320      8.64235        -0.000057      0.000337      0.003985
      2.64854      3.12603      8.66542         0.000121      0.000073      0.000286
      6.57430      3.12886      8.68850         0.000339     -0.000152      0.000412
     -1.28731      7.04895      8.66542        -0.000055      0.001058      0.004097
      2.63845      7.05177      8.68850        -0.000133     -0.000089      0.000279
      6.56421      7.05460      8.71158         0.000583      0.000142      0.000392
      2.69403      3.17166      1.61263        -0.002149     -0.000701     -0.002390
      6.61978      3.17449      1.63571         0.000134     -0.000380     -0.000545
     10.54554      3.17732      1.65879         0.002116     -0.000819     -0.002627
      2.68393      7.09741      1.63571        -0.000344      0.000178     -0.000482
      6.60969      7.10024      1.65879        -0.000008      0.000005     -0.000400
     10.53545      7.10307      1.68187         0.000556      0.000029     -0.000562
      2.67384     11.02315      1.65879        -0.003167      0.000025     -0.003480
      6.59960     11.02598      1.68187         0.000137     -0.000030     -0.000693
     10.52535     11.02881      1.70494         0.003183      0.000314     -0.003706
 -----------------------------------------------------------------------------------
    total drift:                                0.000156     -0.000125     -0.000022


--------------------------------------------------------------------------------------------------------



  FREE ENERGIE OF THE ION-ELECTRON SYSTEM (eV)
  ---------------------------------------------------
  free  energy   TOTEN  =      -550.33906297 eV

  energy  without entropy=     -550.33906297  energy(sigma->0) =     -550.33906297
 


--------------------------------------------------------------------------------------------------------


    POTLOK:  cpu time    3.6570: real time    3.7355


--------------------------------------------------------------------------------------------------------


     LOOP+:  cpu time 8977.0469: real time 9066.3216
    4ORBIT:  cpu time    0.0000: real time    0.0000

 total amount of memory used by VASP MPI-rank0  1508757. kBytes
=======================================================================

   base      :      30000. kBytes
   nonl-proj :      85790. kBytes
   fftplans  :      89726. kBytes
   grid      :      70158. kBytes
   one-center:        528. kBytes
   wavefun   :    1232555. kBytes
 
  
  
 General timing and accounting informations for this job:
 ========================================================
  
                  Total CPU time used (sec):     9099.107
                            User time (sec):     8998.155
                          System time (sec):      100.952
                         Elapsed time (sec):     9190.815
  
                   Maximum memory used (kb):     1706220.
                   Average memory used (kb):           0.
  
                          Minor page faults:      1003359
                          Major page faults:           17
                 Voluntary context switches:        87859
