<?xml version="1.0" encoding="ISO-8859-1"?>
<modeling>
 <generator>
  <i name="program" type="string">vasp </i>
  <i name="version" type="string">5.4.4.18Apr17-6-g9f103f2a35  </i>
  <i name="subversion" type="string">(build Oct 25 2017 14:42:18) complex            parallel </i>
  <i name="platform" type="string">LinuxIFC </i>
  <i name="date" type="string">2021 05 28 </i>
  <i name="time" type="string">05:37:58 </i>
 </generator>
 <incar>
  <i type="string" name="PREC">accurate</i>
  <i type="string" name="ALGO"> normal</i>
  <i type="logical" name="ADDGRID"> T  </i>
  <i type="int" name="ISPIN">     2</i>
  <i type="int" name="ICHARG">     1</i>
  <i type="int" name="NELM">   200</i>
  <i type="int" name="NELMIN">     8</i>
  <i name="EDIFF">      0.00000100</i>
  <i type="int" name="ISYM">     0</i>
  <i name="ENCUT">    650.00000000</i>
  <v name="MAGMOM">      0.60000000      0.60000000      0.60000000      0.60000000      0.60000000      0.60000000      0.60000000      0.60000000      0.60000000      0.60000000      0.60000000      0.60000000      0.60000000      0.60000000      0.60000000      0.60000000      0.60000000      0.60000000      0.60000000      0.60000000
      0.60000000      0.60000000      0.60000000      0.60000000      0.60000000      0.60000000      0.60000000      0.60000000      0.60000000      0.60000000      0.60000000      0.60000000      0.60000000      0.60000000      0.60000000      0.60000000      0.60000000      0.60000000      0.60000000      0.60000000
      0.60000000      0.60000000      0.60000000      0.60000000      0.60000000      0.60000000      0.60000000      0.60000000      0.60000000      0.60000000      0.60000000      0.60000000      0.60000000      0.60000000      0.60000000      0.60000000      0.60000000      0.60000000      0.60000000      0.60000000
      0.60000000      0.60000000      0.60000000      5.00000000      5.00000000      5.00000000      5.00000000      5.00000000      5.00000000      5.00000000      5.00000000      5.00000000      5.00000000      5.00000000      5.00000000      5.00000000      5.00000000      5.00000000      5.00000000      5.00000000
      5.00000000      5.00000000      5.00000000      5.00000000      5.00000000      5.00000000      5.00000000      5.00000000      5.00000000      5.00000000      5.00000000      5.00000000      5.00000000      5.00000000      5.00000000      5.00000000      5.00000000      5.00000000      5.00000000</v>
  <i type="logical" name="LREAL"> F  </i>
  <i type="int" name="ISMEAR">     0</i>
  <i name="SIGMA">      0.05000000</i>
  <i type="int" name="NWRITE">     1</i>
  <i type="int" name="LMAXMIX">     4</i>
  <i type="logical" name="LWAVE"> F  </i>
  <i type="logical" name="LASPH"> T  </i>
  <v type="int" name="KPOINT_BSE">    -1     0     0     0</v>
  <i type="int" name="NELM">   200</i>
  <i type="string" name="GGA"> pe</i>
  <i type="logical" name="LDAU"> T  </i>
  <v type="int" name="LDAUTYPE">     2</v>
  <v type="int" name="LDAUL">    -1    -1    -1     2</v>
  <v name="LDAUU">      0.00000000      0.00000000      0.00000000      4.00000000</v>
  <v name="LDAUJ">      0.00000000      0.00000000      0.00000000      0.00000000</v>
  <i type="logical" name="LASPH"> T  </i>
 </incar>
 <structure name="primitive_cell" >
  <crystal>
   <varray name="basis" >
    <v>      11.77726974       0.00848871       0.06923316 </v>
    <v>      -0.03028248      11.77723386       0.06923316 </v>
    <v>      -2.02000231      -2.02666320      10.18574622 </v>
   </varray>
   <i name="volume">   1416.10551572 </i>
   <varray name="rec_basis" >
    <v>       0.08481023       0.00011906       0.01684296 </v>
    <v>      -0.00016014       0.08481016       0.01684296 </v>
    <v>      -0.00057537      -0.00057727       0.09794744 </v>
   </varray>
  </crystal>
  <varray name="positions" >
   <v>       0.20224939       0.24206952      -0.16816581 </v>
   <v>       0.19734517       0.40355659      -0.19686089 </v>
   <v>       0.19734517       0.07022326      -0.19686089 </v>
   <v>       0.39684232       0.26982435       0.00000000 </v>
   <v>       0.06350899       0.26982435       0.00000000 </v>
   <v>       0.37094724       0.41064640      -0.15457223 </v>
   <v>       0.03761391       0.07731307      -0.15551741 </v>
   <v>       0.03761391       0.41064640      -0.15457223 </v>
   <v>       0.37094724       0.07731307      -0.15457223 </v>
   <v>       0.00253935       0.20657296      -0.37079665 </v>
   <v>       0.33587268       0.20657296      -0.37079665 </v>
   <v>       0.16118393       0.04306059      -0.39352170 </v>
   <v>       0.16118393       0.37639393      -0.39352170 </v>
   <v>       0.25602027       0.29571943       0.15457223 </v>
   <v>       0.20224939      -0.42459715      -0.16816581 </v>
   <v>       0.20224939      -0.09126381      -0.16816581 </v>
   <v>      -0.13108394       0.24206952      -0.16816581 </v>
   <v>      -0.46441728       0.24206952      -0.16816581 </v>
   <v>       0.26311007       0.46932149       0.19686089 </v>
   <v>       0.26311007       0.13598816       0.19686089 </v>
   <v>      -0.46932149       0.40355659      -0.19686089 </v>
   <v>      -0.13598816       0.07022326      -0.19686089 </v>
   <v>      -0.13598816       0.40355659      -0.19686089 </v>
   <v>      -0.46932149       0.07022326      -0.19686089 </v>
   <v>       0.42459715       0.46441728       0.16816581 </v>
   <v>       0.42459715       0.13108394       0.16816581 </v>
   <v>       0.09126381       0.46441728       0.16816581 </v>
   <v>       0.09126381       0.13108394       0.16816581 </v>
   <v>       0.39684232      -0.39684232       0.00000000 </v>
   <v>       0.06350899      -0.39684232       0.00000000 </v>
   <v>       0.06350899      -0.06350899       0.00000000 </v>
   <v>       0.39684232      -0.06350899       0.00000000 </v>
   <v>       0.00253935      -0.46009370      -0.37079665 </v>
   <v>       0.33587268      -0.46009370      -0.37079665 </v>
   <v>       0.29027274       0.17214940       0.39352170 </v>
   <v>       0.00253935      -0.12676037      -0.37079665 </v>
   <v>       0.33587268      -0.12676037      -0.37079665 </v>
   <v>       0.49451727       0.04306059      -0.39352170 </v>
   <v>      -0.04306059       0.17214940       0.39352170 </v>
   <v>       0.49451727       0.37639393      -0.39352170 </v>
   <v>      -0.17214940       0.04306059      -0.39352170 </v>
   <v>      -0.17214940       0.37639393      -0.39352170 </v>
   <v>       0.12676037       0.33079399       0.37079665 </v>
   <v>       0.12676037      -0.00253935       0.37079665 </v>
   <v>       0.25602027      -0.37094724       0.15457223 </v>
   <v>      -0.41064640       0.29571943       0.15457223 </v>
   <v>      -0.07731307       0.29571943       0.15457223 </v>
   <v>       0.25602027      -0.03761391       0.15457223 </v>
   <v>      -0.46441728      -0.42459715      -0.16816581 </v>
   <v>      -0.13108394      -0.09126381      -0.16816581 </v>
   <v>      -0.13108394      -0.42459715      -0.16816581 </v>
   <v>      -0.46441728      -0.09126381      -0.16816581 </v>
   <v>      -0.40355659       0.46932149       0.19686089 </v>
   <v>      -0.07022326       0.13598816       0.19686089 </v>
   <v>      -0.07022326       0.46932149       0.19686089 </v>
   <v>      -0.40355659       0.13598816       0.19686089 </v>
   <v>       0.46009370       0.33079399       0.37079665 </v>
   <v>       0.19734517      -0.26311007      -0.19686089 </v>
   <v>       0.29027274      -0.49451727       0.39352170 </v>
   <v>      -0.26982435       0.26982435       0.00000000 </v>
   <v>       0.37094724      -0.25602027      -0.15457223 </v>
   <v>      -0.29571943       0.41064640      -0.15457223 </v>
   <v>       0.03761391      -0.25602027      -0.15457223 </v>
   <v>      -0.29571943       0.07731307      -0.15457223 </v>
   <v>       0.29027274      -0.16118393       0.39352170 </v>
   <v>      -0.33079399       0.20657296      -0.37079665 </v>
   <v>      -0.04306059      -0.16118393       0.39352170 </v>
   <v>       0.16118393      -0.29027274      -0.39352170 </v>
   <v>      -0.04306059      -0.49451727       0.39352170 </v>
   <v>      -0.20657296       0.33079399       0.37079665 </v>
   <v>      -0.20657296      -0.00253935       0.37079665 </v>
   <v>      -0.41064640      -0.37094724       0.15457223 </v>
   <v>       0.46009370      -0.00253935       0.37079665 </v>
   <v>      -0.07731307      -0.03761391       0.15457223 </v>
   <v>      -0.07731307      -0.37094724       0.15457223 </v>
   <v>      -0.41064640      -0.03761391       0.15457223 </v>
   <v>       0.26311007      -0.19734517       0.19686089 </v>
   <v>       0.12676037      -0.33587268       0.37079665 </v>
   <v>       0.46009370      -0.33587268       0.37079665 </v>
   <v>      -0.46932149      -0.26311007      -0.19686089 </v>
   <v>      -0.13598816      -0.26311007      -0.19686089 </v>
   <v>       0.42459715      -0.20224939       0.16816581 </v>
   <v>      -0.24206952       0.46441728       0.16816581 </v>
   <v>       0.09126381      -0.20224939       0.16816581 </v>
   <v>      -0.24206952       0.13108394       0.16816581 </v>
   <v>      -0.37639393       0.17214940       0.39352170 </v>
   <v>      -0.37639393      -0.49451727       0.39352170 </v>
   <v>      -0.26982435      -0.39684232       0.00000000 </v>
   <v>      -0.26982435      -0.06350899       0.00000000 </v>
   <v>      -0.33079399      -0.46009370      -0.37079665 </v>
   <v>      -0.33079399      -0.12676037      -0.37079665 </v>
   <v>       0.49451727      -0.29027274      -0.39352170 </v>
   <v>      -0.17214940      -0.29027274      -0.39352170 </v>
   <v>      -0.07022326      -0.19734517       0.19686089 </v>
   <v>      -0.40355659      -0.19734517       0.19686089 </v>
   <v>      -0.37639393      -0.16118393       0.39352170 </v>
   <v>      -0.29571943      -0.25602027      -0.15457223 </v>
   <v>      -0.20657296      -0.33587268       0.37079665 </v>
   <v>      -0.24206952      -0.20224939       0.16816581 </v>
  </varray>
 </structure>
 <varray name="primitive_index" >
  <v type="int" >        1 </v>
  <v type="int" >       31 </v>
  <v type="int" >       28 </v>
  <v type="int" >       56 </v>
  <v type="int" >       55 </v>
  <v type="int" >       86 </v>
  <v type="int" >       82 </v>
  <v type="int" >       85 </v>
  <v type="int" >       83 </v>
  <v type="int" >       37 </v>
  <v type="int" >       38 </v>
  <v type="int" >       73 </v>
  <v type="int" >       76 </v>
  <v type="int" >       91 </v>
  <v type="int" >        4 </v>
  <v type="int" >        7 </v>
  <v type="int" >        3 </v>
  <v type="int" >        2 </v>
  <v type="int" >       22 </v>
  <v type="int" >       19 </v>
  <v type="int" >       32 </v>
  <v type="int" >       30 </v>
  <v type="int" >       33 </v>
  <v type="int" >       29 </v>
  <v type="int" >       14 </v>
  <v type="int" >       11 </v>
  <v type="int" >       13 </v>
  <v type="int" >       10 </v>
  <v type="int" >       59 </v>
  <v type="int" >       58 </v>
  <v type="int" >       61 </v>
  <v type="int" >       62 </v>
  <v type="int" >       40 </v>
  <v type="int" >       41 </v>
  <v type="int" >       64 </v>
  <v type="int" >       43 </v>
  <v type="int" >       44 </v>
  <v type="int" >       74 </v>
  <v type="int" >       66 </v>
  <v type="int" >       77 </v>
  <v type="int" >       75 </v>
  <v type="int" >       78 </v>
  <v type="int" >       46 </v>
  <v type="int" >       52 </v>
  <v type="int" >       94 </v>
  <v type="int" >       92 </v>
  <v type="int" >       93 </v>
  <v type="int" >       97 </v>
  <v type="int" >        5 </v>
  <v type="int" >        9 </v>
  <v type="int" >        6 </v>
  <v type="int" >        8 </v>
  <v type="int" >       23 </v>
  <v type="int" >       21 </v>
  <v type="int" >       24 </v>
  <v type="int" >       20 </v>
  <v type="int" >       47 </v>
  <v type="int" >       34 </v>
  <v type="int" >       67 </v>
  <v type="int" >       57 </v>
  <v type="int" >       89 </v>
  <v type="int" >       87 </v>
  <v type="int" >       88 </v>
  <v type="int" >       84 </v>
  <v type="int" >       70 </v>
  <v type="int" >       39 </v>
  <v type="int" >       72 </v>
  <v type="int" >       79 </v>
  <v type="int" >       69 </v>
  <v type="int" >       48 </v>
  <v type="int" >       54 </v>
  <v type="int" >       95 </v>
  <v type="int" >       53 </v>
  <v type="int" >       99 </v>
  <v type="int" >       96 </v>
  <v type="int" >       98 </v>
  <v type="int" >       25 </v>
  <v type="int" >       49 </v>
  <v type="int" >       50 </v>
  <v type="int" >       35 </v>
  <v type="int" >       36 </v>
  <v type="int" >       17 </v>
  <v type="int" >       15 </v>
  <v type="int" >       16 </v>
  <v type="int" >       12 </v>
  <v type="int" >       65 </v>
  <v type="int" >       68 </v>
  <v type="int" >       60 </v>
  <v type="int" >       63 </v>
  <v type="int" >       42 </v>
  <v type="int" >       45 </v>
  <v type="int" >       80 </v>
  <v type="int" >       81 </v>
  <v type="int" >       27 </v>
  <v type="int" >       26 </v>
  <v type="int" >       71 </v>
  <v type="int" >       90 </v>
  <v type="int" >       51 </v>
  <v type="int" >       18 </v>
 </varray>
 <kpoints>
  <generation param="Gamma">
   <v type="int" name="divisions">       3        3        3 </v>
   <v name="usershift">      0.00000000       0.00000000       0.00000000 </v>
   <v name="genvec1">      0.33333333       0.00000000       0.00000000 </v>
   <v name="genvec2">      0.00000000       0.33333333       0.00000000 </v>
   <v name="genvec3">      0.00000000       0.00000000       0.33333333 </v>
   <v name="shift">      0.00000000       0.00000000       0.00000000 </v>
  </generation>
  <varray name="kpointlist" >
   <v>       0.00000000       0.00000000       0.00000000 </v>
   <v>       0.33333333      -0.00000000      -0.00000000 </v>
   <v>       0.00000000       0.33333333       0.00000000 </v>
   <v>       0.33333333       0.33333333       0.00000000 </v>
   <v>      -0.33333333       0.33333333       0.00000000 </v>
   <v>      -0.00000000      -0.00000000       0.33333333 </v>
   <v>       0.33333333      -0.00000000       0.33333333 </v>
   <v>      -0.33333333      -0.00000000       0.33333333 </v>
   <v>      -0.00000000       0.33333333       0.33333333 </v>
   <v>       0.33333333       0.33333333       0.33333333 </v>
   <v>      -0.33333333       0.33333333       0.33333333 </v>
   <v>      -0.00000000      -0.33333333       0.33333333 </v>
   <v>       0.33333333      -0.33333333       0.33333333 </v>
   <v>      -0.33333333      -0.33333333       0.33333333 </v>
  </varray>
  <varray name="weights" >
   <v>       0.03703704 </v>
   <v>       0.07407407 </v>
   <v>       0.07407407 </v>
   <v>       0.07407407 </v>
   <v>       0.07407407 </v>
   <v>       0.07407407 </v>
   <v>       0.07407407 </v>
   <v>       0.07407407 </v>
   <v>       0.07407407 </v>
   <v>       0.07407407 </v>
   <v>       0.07407407 </v>
   <v>       0.07407407 </v>
   <v>       0.07407407 </v>
   <v>       0.07407407 </v>
  </varray>
 </kpoints>
 <parameters>
  <separator name="general" >
   <i type="string" name="SYSTEM">unknown system</i>
   <i type="logical" name="LCOMPAT"> F  </i>
  </separator>
  <separator name="electronic" >
   <i type="string" name="PREC">accura</i>
   <i name="ENMAX">    650.00000000</i>
   <i name="ENAUG">    628.94500000</i>
   <i name="EDIFF">      0.00000100</i>
   <i type="int" name="IALGO">    38</i>
   <i type="int" name="IWAVPR">    10</i>
   <i type="int" name="NBANDS">   606</i>
   <i name="NELECT">    828.00000000</i>
   <i type="int" name="TURBO">     0</i>
   <i type="int" name="IRESTART">     0</i>
   <i type="int" name="NREBOOT">     0</i>
   <i type="int" name="NMIN">     0</i>
   <i name="EREF">      0.00000000</i>
   <separator name="electronic smearing" >
    <i type="int" name="ISMEAR">     0</i>
    <i name="SIGMA">      0.05000000</i>
    <i name="KSPACING">      0.50000000</i>
    <i type="logical" name="KGAMMA"> T  </i>
   </separator>
   <separator name="electronic projectors" >
    <i type="logical" name="LREAL"> F  </i>
    <v name="ROPT">      0.00000000      0.00000000      0.00000000      0.00000000</v>
    <i type="int" name="LMAXPAW">  -100</i>
    <i type="int" name="LMAXMIX">     4</i>
    <i type="logical" name="NLSPLINE"> F  </i>
   </separator>
   <separator name="electronic startup" >
    <i type="int" name="ISTART">     0</i>
    <i type="int" name="ICHARG">     1</i>
    <i type="int" name="INIWAV">     1</i>
   </separator>
   <separator name="electronic spin" >
    <i type="int" name="ISPIN">     2</i>
    <i type="logical" name="LNONCOLLINEAR"> F  </i>
    <v name="MAGMOM">      0.60000000      0.60000000      0.60000000      0.60000000      0.60000000      0.60000000      0.60000000      0.60000000      0.60000000      0.60000000      0.60000000      0.60000000      0.60000000      0.60000000      0.60000000      0.60000000      0.60000000      0.60000000      0.60000000      0.60000000
      0.60000000      0.60000000      0.60000000      0.60000000      0.60000000      0.60000000      0.60000000      0.60000000      0.60000000      0.60000000      0.60000000      0.60000000      0.60000000      0.60000000      0.60000000      0.60000000      0.60000000      0.60000000      0.60000000      0.60000000
      0.60000000      0.60000000      0.60000000      0.60000000      0.60000000      0.60000000      0.60000000      0.60000000      0.60000000      0.60000000      0.60000000      0.60000000      0.60000000      0.60000000      0.60000000      0.60000000      0.60000000      0.60000000      0.60000000      0.60000000
      0.60000000      0.60000000      0.60000000      5.00000000      5.00000000      5.00000000      5.00000000      5.00000000      5.00000000      5.00000000      5.00000000      5.00000000      5.00000000      5.00000000      5.00000000      5.00000000      5.00000000      5.00000000      5.00000000      5.00000000
      5.00000000      5.00000000      5.00000000      5.00000000      5.00000000      5.00000000      5.00000000      5.00000000      5.00000000      5.00000000      5.00000000      5.00000000      5.00000000      5.00000000      5.00000000      5.00000000      5.00000000      5.00000000      5.00000000</v>
    <i name="NUPDOWN">     -1.00000000</i>
    <i type="logical" name="LSORBIT"> F  </i>
    <v name="SAXIS">      0.00000000      0.00000000      1.00000000</v>
    <i type="logical" name="LSPIRAL"> F  </i>
    <v name="QSPIRAL">      0.00000000      0.00000000      0.00000000</v>
    <i type="logical" name="LZEROZ"> F  </i>
   </separator>
   <separator name="electronic exchange-correlation" >
    <i type="logical" name="LASPH"> T  </i>
    <i type="logical" name="LMETAGGA"> F  </i>
   </separator>
   <separator name="electronic convergence" >
    <i type="int" name="NELM">   200</i>
    <i type="int" name="NELMDL">     0</i>
    <i type="int" name="NELMIN">     8</i>
    <i name="ENINI">    650.00000000</i>
    <separator name="electronic convergence detail" >
     <i type="logical" name="LDIAG"> T  </i>
     <i type="logical" name="LSUBROT"> F  </i>
     <i name="WEIMIN">      0.00000000</i>
     <i name="EBREAK">      0.00000000</i>
     <i name="DEPER">      0.30000000</i>
     <i type="int" name="NRMM">     4</i>
     <i name="TIME">      0.40000000</i>
    </separator>
   </separator>
   <separator name="electronic mixer" >
    <i name="AMIX">      0.40000000</i>
    <i name="BMIX">      1.00000000</i>
    <i name="AMIN">      0.10000000</i>
    <i name="AMIX_MAG">      1.60000000</i>
    <i name="BMIX_MAG">      1.00000000</i>
    <separator name="electronic mixer details" >
     <i type="int" name="IMIX">     4</i>
     <i type="logical" name="MIXFIRST"> F  </i>
     <i type="int" name="MAXMIX">   -45</i>
     <i name="WC">    100.00000000</i>
     <i type="int" name="INIMIX">     1</i>
     <i type="int" name="MIXPRE">     1</i>
     <i type="int" name="MREMOVE">     5</i>
    </separator>
   </separator>
   <separator name="electronic dipolcorrection" >
    <i type="logical" name="LDIPOL"> F  </i>
    <i type="logical" name="LMONO"> F  </i>
    <i type="int" name="IDIPOL">     0</i>
    <i name="EPSILON">      1.00000000</i>
    <v name="DIPOL">   -100.00000000   -100.00000000   -100.00000000</v>
    <i name="EFIELD">      0.00000000</i>
   </separator>
  </separator>
  <separator name="grids" >
   <i type="int" name="NGX">    98</i>
   <i type="int" name="NGY">    98</i>
   <i type="int" name="NGZ">    90</i>
   <i type="int" name="NGXF">   196</i>
   <i type="int" name="NGYF">   196</i>
   <i type="int" name="NGZF">   180</i>
   <i type="logical" name="ADDGRID"> T  </i>
  </separator>
  <separator name="ionic" >
   <i type="int" name="NSW">     0</i>
   <i type="int" name="IBRION">    -1</i>
   <i type="int" name="MDALGO">     0</i>
   <i type="int" name="ISIF">     2</i>
   <i name="PSTRESS">      0.00000000</i>
   <i name="EDIFFG">      0.00001000</i>
   <i type="int" name="NFREE">     0</i>
   <i name="POTIM">      0.50000000</i>
   <i name="SMASS">     -3.00000000</i>
   <i name="SCALEE">      1.00000000</i>
  </separator>
  <separator name="ionic md" >
   <i name="TEBEG">      0.00010000</i>
   <i name="TEEND">      0.00010000</i>
   <i type="int" name="NBLOCK">     1</i>
   <i type="int" name="KBLOCK">     1</i>
   <i type="int" name="NPACO">   256</i>
   <i name="APACO">     16.00000000</i>
  </separator>
  <separator name="symmetry" >
   <i type="int" name="ISYM">     0</i>
   <i name="SYMPREC">      0.00001000</i>
  </separator>
  <separator name="dos" >
   <i type="int" name="LORBIT">     0</i>
   <v name="RWIGS">     -1.00000000     -1.00000000     -1.00000000     -1.00000000</v>
   <i type="int" name="NEDOS">   301</i>
   <i name="EMIN">     10.00000000</i>
   <i name="EMAX">    -10.00000000</i>
   <i name="EFERMI">      0.00000000</i>
  </separator>
  <separator name="writing" >
   <i type="int" name="NWRITE">     1</i>
   <i type="logical" name="LWAVE"> F  </i>
   <i type="logical" name="LDOWNSAMPLE"> F  </i>
   <i type="logical" name="LCHARG"> T  </i>
   <i type="logical" name="LPARD"> F  </i>
   <i type="logical" name="LVTOT"> F  </i>
   <i type="logical" name="LVHAR"> F  </i>
   <i type="logical" name="LELF"> F  </i>
   <i type="logical" name="LOPTICS"> F  </i>
   <v name="STM">      0.00000000      0.00000000      0.00000000      0.00000000      0.00000000      0.00000000      0.00000000</v>
  </separator>
  <separator name="performance" >
   <i type="int" name="NPAR">     2</i>
   <i type="int" name="NSIM">     4</i>
   <i type="int" name="NBLK">    -1</i>
   <i type="logical" name="LPLANE"> T  </i>
   <i type="logical" name="LSCALAPACK"> T  </i>
   <i type="logical" name="LSCAAWARE"> F  </i>
   <i type="logical" name="LSCALU"> F  </i>
   <i type="logical" name="LASYNC"> F  </i>
   <i type="logical" name="LORBITALREAL"> F  </i>
  </separator>
  <separator name="miscellaneous" >
   <i type="int" name="IDIOT">     3</i>
   <i type="int" name="ISPECIAL">     0</i>
   <i type="logical" name="LMUSIC"> F  </i>
   <v name="POMASS">      7.01000000     16.00000000     32.06600000     55.84700000</v>
   <v name="DARWINR">      0.00000000      0.00000000      0.00000000      0.00000000</v>
   <v name="DARWINV">      1.00000000      1.00000000      1.00000000      1.00000000</v>
   <i type="logical" name="LCORR"> T  </i>
  </separator>
  <i type="logical" name="GGA_COMPAT"> T  </i>
  <i type="logical" name="LBERRY"> F  </i>
  <i type="int" name="ICORELEVEL">     0</i>
  <i type="logical" name="LDAU"> T  </i>
  <v type="int" name="LDAUTYPE">     2</v>
  <v type="int" name="LDAUL">    -1</v>
  <v name="LDAUU">      0.00000000</v>
  <v name="LDAUJ">      0.00000000</v>
  <i type="int" name="LDAUPRINT">     0</i>
  <i type="int" name="I_CONSTRAINED_M">     0</i>
  <separator name="electronic exchange-correlation" >
   <i type="string" name="GGA">PE</i>
   <i type="int" name="VOSKOWN">     0</i>
   <i type="logical" name="LHFCALC"> F  </i>
   <i type="string" name="PRECFOCK"></i>
   <i type="logical" name="LSYMGRAD"> F  </i>
   <i type="logical" name="LHFONE"> F  </i>
   <i type="logical" name="LRHFCALC"> F  </i>
   <i type="logical" name="LTHOMAS"> F  </i>
   <i type="logical" name="LMODELHF"> F  </i>
   <i name="ENCUT4O">     -1.00000000</i>
   <i type="int" name="EXXOEP">     0</i>
   <i type="int" name="FOURORBIT">     0</i>
   <i name="AEXX">      0.00000000</i>
   <i name="HFALPHA">      0.00000000</i>
   <i name="MCALPHA">      0.00000000</i>
   <i name="ALDAX">      1.00000000</i>
   <i name="AGGAX">      1.00000000</i>
   <i name="ALDAC">      1.00000000</i>
   <i name="AGGAC">      1.00000000</i>
   <i type="int" name="NKREDX">     1</i>
   <i type="int" name="NKREDY">     1</i>
   <i type="int" name="NKREDZ">     1</i>
   <i type="logical" name="SHIFTRED"> F  </i>
   <i type="logical" name="ODDONLY"> F  </i>
   <i type="logical" name="EVENONLY"> F  </i>
   <i type="int" name="LMAXFOCK">     0</i>
   <i type="int" name="NMAXFOCKAE">     0</i>
   <i type="logical" name="LFOCKAEDFT"> F  </i>
   <i name="HFSCREEN">      0.00000000</i>
   <i name="HFSCREENC">      0.00000000</i>
   <i type="int" name="NBANDSGWLOW">     0</i>
  </separator>
  <separator name="vdW DFT" >
   <i type="logical" name="LUSE_VDW"> F  </i>
   <i name="Zab_VDW">     -0.84910000</i>
   <i name="PARAM1">      0.12340000</i>
   <i name="PARAM2">      1.00000000</i>
   <i name="PARAM3">      0.00000000</i>
  </separator>
  <separator name="model GW" >
   <i type="int" name="MODEL_GW">     0</i>
   <i name="MODEL_EPS0">      8.58245767</i>
   <i name="MODEL_ALPHA">      1.00000000</i>
  </separator>
  <separator name="linear response parameters" >
   <i type="logical" name="LEPSILON"> F  </i>
   <i type="logical" name="LRPA"> F  </i>
   <i type="logical" name="LNABLA"> F  </i>
   <i type="logical" name="LVEL"> F  </i>
   <i type="int" name="KINTER">     0</i>
   <i name="CSHIFT">      0.10000000</i>
   <i name="OMEGAMAX">     -1.00000000</i>
   <i name="DEG_THRESHOLD">      0.00200000</i>
   <i name="RTIME">     -0.10000000</i>
   <i name="WPLASMAI">      0.00000000</i>
   <v name="DFIELD">      0.00000000      0.00000000      0.00000000</v>
   <v name="WPLASMA">      0.00000000      0.00000000      0.00000000      0.00000000      0.00000000      0.00000000      0.00000000      0.00000000      0.00000000</v>
  </separator>
  <separator name="orbital magnetization" >
   <i type="logical" name="NUCIND"> F  </i>
   <v name="MAGPOS">      0.00000000      0.00000000      0.00000000</v>
   <i type="logical" name="LNICSALL"> T  </i>
   <i type="logical" name="ORBITALMAG"> F  </i>
   <i type="logical" name="LMAGBLOCH"> F  </i>
   <i type="logical" name="LCHIMAG"> F  </i>
   <i type="logical" name="LGAUGE"> T  </i>
   <i type="int" name="MAGATOM">     0</i>
   <v name="MAGDIPOL">      0.00000000      0.00000000      0.00000000</v>
   <v name="AVECCONST">      0.00000000      0.00000000      0.00000000</v>
  </separator>
  <separator name="response functions" >
   <i type="logical" name="LADDER"> F  </i>
   <i type="logical" name="LRPAFORCE"> F  </i>
   <i type="logical" name="LFXC"> F  </i>
   <i type="logical" name="LHARTREE"> T  </i>
   <i type="int" name="IBSE">     0</i>
   <v type="int" name="KPOINT">    -1     0     0     0</v>
   <i type="logical" name="LTCTE"> F  </i>
   <i type="logical" name="LTETE"> F  </i>
   <i type="logical" name="LTRIPLET"> F  </i>
   <i type="logical" name="LFXCEPS"> F  </i>
   <i type="logical" name="LFXHEG"> F  </i>
   <i type="int" name="NATURALO">     2</i>
   <i type="logical" name="L2ORDER"> F  </i>
   <i type="logical" name="LMP2LT"> F  </i>
   <i type="logical" name="LUSEW"> F  </i>
   <i name="ENCUTGW">     -2.00000000</i>
   <i name="ENCUTGWSOFT">     -2.00000000</i>
   <i name="ENCUTLF">     -1.00000000</i>
   <i type="int" name="LMAXMP2">    -1</i>
   <i name="SCISSOR">      0.00000000</i>
   <i type="int" name="NOMEGA">     0</i>
   <i type="int" name="NOMEGAR">     0</i>
   <i type="int" name="NBANDSGW">    -1</i>
   <i type="int" name="NBANDSO">    -1</i>
   <i type="int" name="NBANDSV">    -1</i>
   <i type="int" name="NELM">   200</i>
   <i type="int" name="NELMHF">     1</i>
   <i type="int" name="DIM">     3</i>
   <i type="int" name="ANTIRES">     0</i>
   <i name="OMEGAMAX">    -30.00000000</i>
   <i name="OMEGAMIN">    -30.00000000</i>
   <i name="OMEGATL">   -200.00000000</i>
   <i type="int" name="OMEGAGRID">   140</i>
   <i name="CSHIFT">     -0.10000000</i>
   <i type="logical" name="SELFENERGY"> F  </i>
   <i type="logical" name="LSPECTRAL"> F  </i>
   <i type="logical" name="LSPECTRALGW"> F  </i>
   <i type="logical" name="LSINGLES"> F  </i>
   <i type="logical" name="LFERMIGW"> F  </i>
   <i type="logical" name="ODDONLYGW"> F  </i>
   <i type="logical" name="EVENONLYGW"> F  </i>
   <i type="int" name="NKREDLFX">     1</i>
   <i type="int" name="NKREDLFY">     1</i>
   <i type="int" name="NKREDLFZ">     1</i>
   <i type="int" name="MAXMEM">  2800</i>
   <i type="int" name="TELESCOPE">     0</i>
   <i type="int" name="TAUPAR">     1</i>
   <i type="int" name="OMEGAPAR">    -1</i>
   <i name="LAMBDA">      1.00000000</i>
  </separator>
  <separator name="External order field" >
   <i name="OFIELD_KAPPA">      0.00000000</i>
   <v name="OFIELD_K">      0.00000000      0.00000000      0.00000000</v>
   <i name="OFIELD_Q6_NEAR">      0.00000000</i>
   <i name="OFIELD_Q6_FAR">      0.00000000</i>
   <i name="OFIELD_A">      0.00000000</i>
  </separator>
 </parameters>
 <atominfo>
  <atoms>      99 </atoms>
  <types>       4 </types>
  <array name="atoms" >
   <dimension dim="1">ion</dimension>
   <field type="string">element</field>
   <field type="int">atomtype</field>
   <set>
    <rc><c>Li</c><c>   1</c></rc>
    <rc><c>Li</c><c>   1</c></rc>
    <rc><c>Li</c><c>   1</c></rc>
    <rc><c>Li</c><c>   1</c></rc>
    <rc><c>Li</c><c>   1</c></rc>
    <rc><c>Li</c><c>   1</c></rc>
    <rc><c>Li</c><c>   1</c></rc>
    <rc><c>Li</c><c>   1</c></rc>
    <rc><c>Li</c><c>   1</c></rc>
    <rc><c>Li</c><c>   1</c></rc>
    <rc><c>Li</c><c>   1</c></rc>
    <rc><c>Li</c><c>   1</c></rc>
    <rc><c>Li</c><c>   1</c></rc>
    <rc><c>Li</c><c>   1</c></rc>
    <rc><c>Li</c><c>   1</c></rc>
    <rc><c>Li</c><c>   1</c></rc>
    <rc><c>Li</c><c>   1</c></rc>
    <rc><c>Li</c><c>   1</c></rc>
    <rc><c>O </c><c>   2</c></rc>
    <rc><c>O </c><c>   2</c></rc>
    <rc><c>O </c><c>   2</c></rc>
    <rc><c>O </c><c>   2</c></rc>
    <rc><c>O </c><c>   2</c></rc>
    <rc><c>O </c><c>   2</c></rc>
    <rc><c>O </c><c>   2</c></rc>
    <rc><c>O </c><c>   2</c></rc>
    <rc><c>O </c><c>   2</c></rc>
    <rc><c>O </c><c>   2</c></rc>
    <rc><c>O </c><c>   2</c></rc>
    <rc><c>O </c><c>   2</c></rc>
    <rc><c>O </c><c>   2</c></rc>
    <rc><c>O </c><c>   2</c></rc>
    <rc><c>O </c><c>   2</c></rc>
    <rc><c>O </c><c>   2</c></rc>
    <rc><c>O </c><c>   2</c></rc>
    <rc><c>O </c><c>   2</c></rc>
    <rc><c>S </c><c>   3</c></rc>
    <rc><c>S </c><c>   3</c></rc>
    <rc><c>S </c><c>   3</c></rc>
    <rc><c>S </c><c>   3</c></rc>
    <rc><c>S </c><c>   3</c></rc>
    <rc><c>S </c><c>   3</c></rc>
    <rc><c>S </c><c>   3</c></rc>
    <rc><c>S </c><c>   3</c></rc>
    <rc><c>S </c><c>   3</c></rc>
    <rc><c>S </c><c>   3</c></rc>
    <rc><c>S </c><c>   3</c></rc>
    <rc><c>S </c><c>   3</c></rc>
    <rc><c>S </c><c>   3</c></rc>
    <rc><c>S </c><c>   3</c></rc>
    <rc><c>S </c><c>   3</c></rc>
    <rc><c>S </c><c>   3</c></rc>
    <rc><c>S </c><c>   3</c></rc>
    <rc><c>S </c><c>   3</c></rc>
    <rc><c>S </c><c>   3</c></rc>
    <rc><c>S </c><c>   3</c></rc>
    <rc><c>S </c><c>   3</c></rc>
    <rc><c>S </c><c>   3</c></rc>
    <rc><c>S </c><c>   3</c></rc>
    <rc><c>S </c><c>   3</c></rc>
    <rc><c>S </c><c>   3</c></rc>
    <rc><c>S </c><c>   3</c></rc>
    <rc><c>S </c><c>   3</c></rc>
    <rc><c>Fe</c><c>   4</c></rc>
    <rc><c>Fe</c><c>   4</c></rc>
    <rc><c>Fe</c><c>   4</c></rc>
    <rc><c>Fe</c><c>   4</c></rc>
    <rc><c>Fe</c><c>   4</c></rc>
    <rc><c>Fe</c><c>   4</c></rc>
    <rc><c>Fe</c><c>   4</c></rc>
    <rc><c>Fe</c><c>   4</c></rc>
    <rc><c>Fe</c><c>   4</c></rc>
    <rc><c>Fe</c><c>   4</c></rc>
    <rc><c>Fe</c><c>   4</c></rc>
    <rc><c>Fe</c><c>   4</c></rc>
    <rc><c>Fe</c><c>   4</c></rc>
    <rc><c>Fe</c><c>   4</c></rc>
    <rc><c>Fe</c><c>   4</c></rc>
    <rc><c>Fe</c><c>   4</c></rc>
    <rc><c>Fe</c><c>   4</c></rc>
    <rc><c>Fe</c><c>   4</c></rc>
    <rc><c>Fe</c><c>   4</c></rc>
    <rc><c>Fe</c><c>   4</c></rc>
    <rc><c>Fe</c><c>   4</c></rc>
    <rc><c>Fe</c><c>   4</c></rc>
    <rc><c>Fe</c><c>   4</c></rc>
    <rc><c>Fe</c><c>   4</c></rc>
    <rc><c>Fe</c><c>   4</c></rc>
    <rc><c>Fe</c><c>   4</c></rc>
    <rc><c>Fe</c><c>   4</c></rc>
    <rc><c>Fe</c><c>   4</c></rc>
    <rc><c>Fe</c><c>   4</c></rc>
    <rc><c>Fe</c><c>   4</c></rc>
    <rc><c>Fe</c><c>   4</c></rc>
    <rc><c>Fe</c><c>   4</c></rc>
    <rc><c>Fe</c><c>   4</c></rc>
    <rc><c>Fe</c><c>   4</c></rc>
    <rc><c>Fe</c><c>   4</c></rc>
    <rc><c>Fe</c><c>   4</c></rc>
   </set>
  </array>
  <array name="atomtypes" >
   <dimension dim="1">type</dimension>
   <field type="int">atomspertype</field>
   <field type="string">element</field>
   <field>mass</field>
   <field>valence</field>
   <field type="string">pseudopotential</field>
   <set>
    <rc><c>  18</c><c>Li</c><c>      7.01000000</c><c>      3.00000000</c><c>  PAW_PBE Li_sv 10Sep2004               </c></rc>
    <rc><c>  18</c><c>O </c><c>     16.00000000</c><c>      6.00000000</c><c>  PAW_PBE O 08Apr2002                   </c></rc>
    <rc><c>  27</c><c>S </c><c>     32.06600000</c><c>      6.00000000</c><c>  PAW_PBE S 06Sep2000                   </c></rc>
    <rc><c>  36</c><c>Fe</c><c>     55.84700000</c><c>     14.00000000</c><c>  PAW_PBE Fe_pv 02Aug2007               </c></rc>
   </set>
  </array>
 </atominfo>
 <structure name="initialpos" >
  <crystal>
   <varray name="basis" >
    <v>      11.77726974       0.00848871       0.06923316 </v>
    <v>      -0.03028248      11.77723386       0.06923316 </v>
    <v>      -2.02000231      -2.02666320      10.18574622 </v>
   </varray>
   <i name="volume">   1416.10551572 </i>
   <varray name="rec_basis" >
    <v>       0.08481023       0.00011906       0.01684296 </v>
    <v>      -0.00016014       0.08481016       0.01684296 </v>
    <v>      -0.00057537      -0.00057727       0.09794744 </v>
   </varray>
  </crystal>
  <varray name="positions" >
   <v>       0.20224939       0.24206952       0.83183419 </v>
   <v>       0.53558272       0.24206952       0.83183419 </v>
   <v>       0.86891606       0.24206952       0.83183419 </v>
   <v>       0.20224939       0.57540285       0.83183419 </v>
   <v>       0.53558272       0.57540285       0.83183419 </v>
   <v>       0.86891606       0.57540285       0.83183419 </v>
   <v>       0.20224939       0.90873619       0.83183419 </v>
   <v>       0.53558272       0.90873619       0.83183419 </v>
   <v>       0.86891606       0.90873619       0.83183419 </v>
   <v>       0.09126381       0.13108394       0.16816581 </v>
   <v>       0.42459715       0.13108394       0.16816581 </v>
   <v>       0.75793048       0.13108394       0.16816581 </v>
   <v>       0.09126381       0.46441728       0.16816581 </v>
   <v>       0.42459715       0.46441728       0.16816581 </v>
   <v>       0.75793048       0.46441728       0.16816581 </v>
   <v>       0.09126381       0.79775061       0.16816581 </v>
   <v>       0.42459715       0.79775061       0.16816581 </v>
   <v>       0.75793048       0.79775061       0.16816581 </v>
   <v>       0.26311007       0.13598816       0.19686089 </v>
   <v>       0.59644341       0.13598816       0.19686089 </v>
   <v>       0.92977674       0.13598816       0.19686089 </v>
   <v>       0.26311007       0.46932149       0.19686089 </v>
   <v>       0.59644341       0.46932149       0.19686089 </v>
   <v>       0.92977674       0.46932149       0.19686089 </v>
   <v>       0.26311007       0.80265483       0.19686089 </v>
   <v>       0.59644341       0.80265483       0.19686089 </v>
   <v>       0.92977674       0.80265483       0.19686089 </v>
   <v>       0.19734517       0.07022326       0.80313911 </v>
   <v>       0.53067851       0.07022326       0.80313911 </v>
   <v>       0.86401184       0.07022326       0.80313911 </v>
   <v>       0.19734517       0.40355659       0.80313911 </v>
   <v>       0.53067851       0.40355659       0.80313911 </v>
   <v>       0.86401184       0.40355659       0.80313911 </v>
   <v>       0.19734517       0.73688993       0.80313911 </v>
   <v>       0.53067851       0.73688993       0.80313911 </v>
   <v>       0.86401184       0.73688993       0.80313911 </v>
   <v>       0.00253935       0.20657296       0.62920335 </v>
   <v>       0.33587268       0.20657296       0.62920335 </v>
   <v>       0.66920601       0.20657296       0.62920335 </v>
   <v>       0.00253935       0.53990630       0.62920335 </v>
   <v>       0.33587268       0.53990630       0.62920335 </v>
   <v>       0.66920601       0.53990630       0.62920335 </v>
   <v>       0.00253935       0.87323963       0.62920335 </v>
   <v>       0.33587268       0.87323963       0.62920335 </v>
   <v>       0.66920601       0.87323963       0.62920335 </v>
   <v>       0.12676037       0.33079399       0.37079665 </v>
   <v>       0.46009370       0.33079399       0.37079665 </v>
   <v>       0.79342704       0.33079399       0.37079665 </v>
   <v>       0.12676037       0.66412732       0.37079665 </v>
   <v>       0.46009370       0.66412732       0.37079665 </v>
   <v>       0.79342704       0.66412732       0.37079665 </v>
   <v>       0.12676037       0.99746065       0.37079665 </v>
   <v>       0.46009370       0.99746065       0.37079665 </v>
   <v>       0.79342704       0.99746065       0.37079665 </v>
   <v>       0.06350899       0.26982435       0.00000000 </v>
   <v>       0.39684232       0.26982435       0.00000000 </v>
   <v>       0.73017565       0.26982435       0.00000000 </v>
   <v>       0.06350899       0.60315768       0.00000000 </v>
   <v>       0.39684232       0.60315768       0.00000000 </v>
   <v>       0.73017565       0.60315768       0.00000000 </v>
   <v>       0.06350899       0.93649101       0.00000000 </v>
   <v>       0.39684232       0.93649101       0.00000000 </v>
   <v>       0.73017565       0.93649101       0.00000000 </v>
   <v>       0.29027274       0.17214940       0.39352170 </v>
   <v>       0.62360607       0.17214940       0.39352170 </v>
   <v>       0.95693941       0.17214940       0.39352170 </v>
   <v>       0.29027274       0.50548273       0.39352170 </v>
   <v>       0.62360607       0.50548273       0.39352170 </v>
   <v>       0.95693941       0.50548273       0.39352170 </v>
   <v>       0.29027274       0.83881607       0.39352170 </v>
   <v>       0.62360607       0.83881607       0.39352170 </v>
   <v>       0.95693941       0.83881607       0.39352170 </v>
   <v>       0.16118393       0.04306059       0.60647830 </v>
   <v>       0.49451727       0.04306059       0.60647830 </v>
   <v>       0.82785060       0.04306059       0.60647830 </v>
   <v>       0.16118393       0.37639393       0.60647830 </v>
   <v>       0.49451727       0.37639393       0.60647830 </v>
   <v>       0.82785060       0.37639393       0.60647830 </v>
   <v>       0.16118393       0.70972726       0.60647830 </v>
   <v>       0.49451727       0.70972726       0.60647830 </v>
   <v>       0.82785060       0.70972726       0.60647830 </v>
   <v>       0.03761391       0.07731307       0.84448259 </v>
   <v>       0.37094724       0.07731307       0.84542777 </v>
   <v>       0.70428057       0.07731307       0.84542777 </v>
   <v>       0.03761391       0.41064640       0.84542777 </v>
   <v>       0.37094724       0.41064640       0.84542777 </v>
   <v>       0.70428057       0.41064640       0.84542777 </v>
   <v>       0.03761391       0.74397973       0.84542777 </v>
   <v>       0.37094724       0.74397973       0.84542777 </v>
   <v>       0.70428057       0.74397973       0.84542777 </v>
   <v>       0.25602027       0.29571943       0.15457223 </v>
   <v>       0.58935360       0.29571943       0.15457223 </v>
   <v>       0.92268693       0.29571943       0.15457223 </v>
   <v>       0.25602027       0.62905276       0.15457223 </v>
   <v>       0.58935360       0.62905276       0.15457223 </v>
   <v>       0.92268693       0.62905276       0.15457223 </v>
   <v>       0.25602027       0.96238609       0.15457223 </v>
   <v>       0.58935360       0.96238609       0.15457223 </v>
   <v>       0.92268693       0.96238609       0.15457223 </v>
  </varray>
 </structure>
 <calculation>
  <scstep>
   <time name="dav">  430.54  434.89</time>
   <time name="total">  434.28  438.64</time>
   <energy>
    <i name="alphaZ">   2606.24521607 </i>
    <i name="ewald"> -65005.71962928 </i>
    <i name="hartreedc"> -34083.84580579 </i>
    <i name="XCdc">   3632.83959705 </i>
    <i name="pawpsdc"> 104149.30743192 </i>
    <i name="pawaedc">-107360.85880398 </i>
    <i name="eentropy">     -0.01724525 </i>
    <i name="bandstr">    394.13794032 </i>
    <i name="atom"> 107373.91467324 </i>
    <i name="e_fr_energy">  11706.00337430 </i>
    <i name="e_wo_entrp">  11706.02061955 </i>
    <i name="e_0_energy">  11706.01199693 </i>
   </energy>
  </scstep>
  <scstep>
   <time name="dav">  421.65  425.49</time>
   <time name="total">  421.66  425.50</time>
   <energy>
    <i name="e_fr_energy">   1328.73711197 </i>
    <i name="e_wo_entrp">   1328.80495081 </i>
    <i name="e_0_energy">   1328.77103139 </i>
   </energy>
  </scstep>
  <scstep>
   <time name="dav">  444.89  449.12</time>
   <time name="total">  444.90  449.12</time>
   <energy>
    <i name="e_fr_energy">   -345.47622215 </i>
    <i name="e_wo_entrp">   -345.47622215 </i>
    <i name="e_0_energy">   -345.47622215 </i>
   </energy>
  </scstep>
  <scstep>
   <time name="dav">  478.74  483.71</time>
   <time name="total">  478.75  483.72</time>
   <energy>
    <i name="e_fr_energy">   -535.87934017 </i>
    <i name="e_wo_entrp">   -535.87934017 </i>
    <i name="e_0_energy">   -535.87934017 </i>
   </energy>
  </scstep>
  <scstep>
   <time name="dav">  624.23  630.83</time>
   <time name="total">  636.36  643.15</time>
   <energy>
    <i name="e_fr_energy">   -549.78523986 </i>
    <i name="e_wo_entrp">   -549.78523986 </i>
    <i name="e_0_energy">   -549.78523986 </i>
   </energy>
  </scstep>
  <scstep>
   <time name="dav">  561.91  567.65</time>
   <time name="total">  577.83  583.72</time>
   <energy>
    <i name="e_fr_energy">   -550.32207172 </i>
    <i name="e_wo_entrp">   -550.32207172 </i>
    <i name="e_0_energy">   -550.32207172 </i>
   </energy>
  </scstep>
  <scstep>
   <time name="dav">  586.95  592.99</time>
   <time name="total">  603.00  609.23</time>
   <energy>
    <i name="e_fr_energy">   -550.34116726 </i>
    <i name="e_wo_entrp">   -550.34116726 </i>
    <i name="e_0_energy">   -550.34116726 </i>
   </energy>
  </scstep>
  <scstep>
   <time name="dav">  567.31  573.00</time>
   <time name="total">  583.22  589.11</time>
   <energy>
    <i name="e_fr_energy">   -550.34073881 </i>
    <i name="e_wo_entrp">   -550.34073881 </i>
    <i name="e_0_energy">   -550.34073881 </i>
   </energy>
  </scstep>
  <scstep>
   <time name="dav">  616.77  622.55</time>
   <time name="total">  632.66  638.67</time>
   <energy>
    <i name="e_fr_energy">   -550.34008119 </i>
    <i name="e_wo_entrp">   -550.34008119 </i>
    <i name="e_0_energy">   -550.34008119 </i>
   </energy>
  </scstep>
  <scstep>
   <time name="dav">  623.19  629.11</time>
   <time name="total">  639.08  645.18</time>
   <energy>
    <i name="e_fr_energy">   -550.33899649 </i>
    <i name="e_wo_entrp">   -550.33899649 </i>
    <i name="e_0_energy">   -550.33899649 </i>
   </energy>
  </scstep>
  <scstep>
   <time name="dav">  494.14  499.31</time>
   <time name="total">  509.88  515.31</time>
   <energy>
    <i name="e_fr_energy">   -550.33908465 </i>
    <i name="e_wo_entrp">   -550.33908465 </i>
    <i name="e_0_energy">   -550.33908465 </i>
   </energy>
  </scstep>
  <scstep>
   <time name="dav">  548.24  553.45</time>
   <time name="total">  564.12  569.56</time>
   <energy>
    <i name="e_fr_energy">   -550.33907871 </i>
    <i name="e_wo_entrp">   -550.33907871 </i>
    <i name="e_0_energy">   -550.33907871 </i>
   </energy>
  </scstep>
  <scstep>
   <time name="dav">  482.14  486.95</time>
   <time name="total">  497.99  502.97</time>
   <energy>
    <i name="e_fr_energy">   -550.33905884 </i>
    <i name="e_wo_entrp">   -550.33905884 </i>
    <i name="e_0_energy">   -550.33905884 </i>
   </energy>
  </scstep>
  <scstep>
   <time name="dav">  442.26  446.45</time>
   <time name="total">  458.12  462.40</time>
   <energy>
    <i name="e_fr_energy">   -550.33906548 </i>
    <i name="e_wo_entrp">   -550.33906548 </i>
    <i name="e_0_energy">   -550.33906548 </i>
   </energy>
  </scstep>
  <scstep>
   <time name="dav">  425.62  430.11</time>
   <time name="total">  441.54  446.19</time>
   <energy>
    <i name="e_fr_energy">   -550.33906321 </i>
    <i name="e_wo_entrp">   -550.33906321 </i>
    <i name="e_0_energy">   -550.33906321 </i>
   </energy>
  </scstep>
  <scstep>
   <time name="dav">  315.60  319.22</time>
   <time name="total">  319.32  322.95</time>
   <energy>
    <i name="alphaZ">   2606.24521607 </i>
    <i name="ewald"> -65005.71962928 </i>
    <i name="hartreedc"> -34083.82011204 </i>
    <i name="XCdc">   3632.83903868 </i>
    <i name="pawpsdc"> 104148.58012700 </i>
    <i name="pawaedc">-107360.12544031 </i>
    <i name="eentropy">     -0.00000000 </i>
    <i name="bandstr"> -11862.25293632 </i>
    <i name="atom"> 107373.91467324 </i>
    <i name="e_fr_energy">   -550.33906297 </i>
    <i name="e_wo_entrp">   -550.33906297 </i>
    <i name="e_0_energy">   -550.33906297 </i>
   </energy>
  </scstep>
  <structure>
   <crystal>
    <varray name="basis" >
     <v>      11.77726974       0.00848871       0.06923316 </v>
     <v>      -0.03028248      11.77723386       0.06923316 </v>
     <v>      -2.02000231      -2.02666320      10.18574622 </v>
    </varray>
    <i name="volume">   1416.10551572 </i>
    <varray name="rec_basis" >
     <v>       0.08481023       0.00011906       0.01684296 </v>
     <v>      -0.00016014       0.08481016       0.01684296 </v>
     <v>      -0.00057537      -0.00057727       0.09794744 </v>
    </varray>
   </crystal>
   <varray name="positions" >
    <v>       0.20224939       0.24206952       0.83183419 </v>
    <v>       0.53558272       0.24206952       0.83183419 </v>
    <v>       0.86891606       0.24206952       0.83183419 </v>
    <v>       0.20224939       0.57540285       0.83183419 </v>
    <v>       0.53558272       0.57540285       0.83183419 </v>
    <v>       0.86891606       0.57540285       0.83183419 </v>
    <v>       0.20224939       0.90873619       0.83183419 </v>
    <v>       0.53558272       0.90873619       0.83183419 </v>
    <v>       0.86891606       0.90873619       0.83183419 </v>
    <v>       0.09126381       0.13108394       0.16816581 </v>
    <v>       0.42459715       0.13108394       0.16816581 </v>
    <v>       0.75793048       0.13108394       0.16816581 </v>
    <v>       0.09126381       0.46441728       0.16816581 </v>
    <v>       0.42459715       0.46441728       0.16816581 </v>
    <v>       0.75793048       0.46441728       0.16816581 </v>
    <v>       0.09126381       0.79775061       0.16816581 </v>
    <v>       0.42459715       0.79775061       0.16816581 </v>
    <v>       0.75793048       0.79775061       0.16816581 </v>
    <v>       0.26311007       0.13598816       0.19686089 </v>
    <v>       0.59644341       0.13598816       0.19686089 </v>
    <v>       0.92977674       0.13598816       0.19686089 </v>
    <v>       0.26311007       0.46932149       0.19686089 </v>
    <v>       0.59644341       0.46932149       0.19686089 </v>
    <v>       0.92977674       0.46932149       0.19686089 </v>
    <v>       0.26311007       0.80265483       0.19686089 </v>
    <v>       0.59644341       0.80265483       0.19686089 </v>
    <v>       0.92977674       0.80265483       0.19686089 </v>
    <v>       0.19734517       0.07022326       0.80313911 </v>
    <v>       0.53067851       0.07022326       0.80313911 </v>
    <v>       0.86401184       0.07022326       0.80313911 </v>
    <v>       0.19734517       0.40355659       0.80313911 </v>
    <v>       0.53067851       0.40355659       0.80313911 </v>
    <v>       0.86401184       0.40355659       0.80313911 </v>
    <v>       0.19734517       0.73688993       0.80313911 </v>
    <v>       0.53067851       0.73688993       0.80313911 </v>
    <v>       0.86401184       0.73688993       0.80313911 </v>
    <v>       0.00253935       0.20657296       0.62920335 </v>
    <v>       0.33587268       0.20657296       0.62920335 </v>
    <v>       0.66920601       0.20657296       0.62920335 </v>
    <v>       0.00253935       0.53990630       0.62920335 </v>
    <v>       0.33587268       0.53990630       0.62920335 </v>
    <v>       0.66920601       0.53990630       0.62920335 </v>
    <v>       0.00253935       0.87323963       0.62920335 </v>
    <v>       0.33587268       0.87323963       0.62920335 </v>
    <v>       0.66920601       0.87323963       0.62920335 </v>
    <v>       0.12676037       0.33079399       0.37079665 </v>
    <v>       0.46009370       0.33079399       0.37079665 </v>
    <v>       0.79342704       0.33079399       0.37079665 </v>
    <v>       0.12676037       0.66412732       0.37079665 </v>
    <v>       0.46009370       0.66412732       0.37079665 </v>
    <v>       0.79342704       0.66412732       0.37079665 </v>
    <v>       0.12676037       0.99746065       0.37079665 </v>
    <v>       0.46009370       0.99746065       0.37079665 </v>
    <v>       0.79342704       0.99746065       0.37079665 </v>
    <v>       0.06350899       0.26982435       0.00000000 </v>
    <v>       0.39684232       0.26982435       0.00000000 </v>
    <v>       0.73017565       0.26982435       0.00000000 </v>
    <v>       0.06350899       0.60315768       0.00000000 </v>
    <v>       0.39684232       0.60315768       0.00000000 </v>
    <v>       0.73017565       0.60315768       0.00000000 </v>
    <v>       0.06350899       0.93649101       0.00000000 </v>
    <v>       0.39684232       0.93649101       0.00000000 </v>
    <v>       0.73017565       0.93649101       0.00000000 </v>
    <v>       0.29027274       0.17214940       0.39352170 </v>
    <v>       0.62360607       0.17214940       0.39352170 </v>
    <v>       0.95693941       0.17214940       0.39352170 </v>
    <v>       0.29027274       0.50548273       0.39352170 </v>
    <v>       0.62360607       0.50548273       0.39352170 </v>
    <v>       0.95693941       0.50548273       0.39352170 </v>
    <v>       0.29027274       0.83881607       0.39352170 </v>
    <v>       0.62360607       0.83881607       0.39352170 </v>
    <v>       0.95693941       0.83881607       0.39352170 </v>
    <v>       0.16118393       0.04306059       0.60647830 </v>
    <v>       0.49451727       0.04306059       0.60647830 </v>
    <v>       0.82785060       0.04306059       0.60647830 </v>
    <v>       0.16118393       0.37639393       0.60647830 </v>
    <v>       0.49451727       0.37639393       0.60647830 </v>
    <v>       0.82785060       0.37639393       0.60647830 </v>
    <v>       0.16118393       0.70972726       0.60647830 </v>
    <v>       0.49451727       0.70972726       0.60647830 </v>
    <v>       0.82785060       0.70972726       0.60647830 </v>
    <v>       0.03761391       0.07731307       0.84448259 </v>
    <v>       0.37094724       0.07731307       0.84542777 </v>
    <v>       0.70428057       0.07731307       0.84542777 </v>
    <v>       0.03761391       0.41064640       0.84542777 </v>
    <v>       0.37094724       0.41064640       0.84542777 </v>
    <v>       0.70428057       0.41064640       0.84542777 </v>
    <v>       0.03761391       0.74397973       0.84542777 </v>
    <v>       0.37094724       0.74397973       0.84542777 </v>
    <v>       0.70428057       0.74397973       0.84542777 </v>
    <v>       0.25602027       0.29571943       0.15457223 </v>
    <v>       0.58935360       0.29571943       0.15457223 </v>
    <v>       0.92268693       0.29571943       0.15457223 </v>
    <v>       0.25602027       0.62905276       0.15457223 </v>
    <v>       0.58935360       0.62905276       0.15457223 </v>
    <v>       0.92268693       0.62905276       0.15457223 </v>
    <v>       0.25602027       0.96238609       0.15457223 </v>
    <v>       0.58935360       0.96238609       0.15457223 </v>
    <v>       0.92268693       0.96238609       0.15457223 </v>
   </varray>
  </structure>
  <varray name="forces" >
   <v>       0.00156171       0.00403790       0.00318587 </v>
   <v>       0.00020678       0.00063663       0.00045793 </v>
   <v>      -0.00020975       0.00029483       0.00316957 </v>
   <v>      -0.00018651      -0.00048341       0.00027771 </v>
   <v>       0.00006854      -0.00055632       0.00007893 </v>
   <v>       0.00015035      -0.00048901       0.00026360 </v>
   <v>      -0.00135962      -0.00130332       0.00349675 </v>
   <v>       0.00020082       0.00024002       0.00051876 </v>
   <v>       0.00276459       0.00250063       0.00355077 </v>
   <v>      -0.00038931      -0.00034837      -0.00387537 </v>
   <v>       0.00022090       0.00002818       0.00015611 </v>
   <v>      -0.00012039       0.00002053      -0.00039549 </v>
   <v>      -0.00029762      -0.00079169      -0.00164815 </v>
   <v>       0.00034247      -0.00000764       0.00012391 </v>
   <v>      -0.00026176      -0.00006662      -0.00032520 </v>
   <v>      -0.00027759       0.00133805      -0.00212888 </v>
   <v>       0.00028436      -0.00003679       0.00010530 </v>
   <v>      -0.00023770       0.00003802      -0.00033043 </v>
   <v>       0.00090697       0.00048763       0.00215596 </v>
   <v>      -0.00007492       0.00010328       0.00030466 </v>
   <v>      -0.00158733       0.00046585       0.00296417 </v>
   <v>       0.00043260       0.00066873       0.00131880 </v>
   <v>       0.00001674      -0.00009397       0.00027433 </v>
   <v>      -0.00108948       0.00062163       0.00120425 </v>
   <v>       0.00079114      -0.00124224       0.00179100 </v>
   <v>      -0.00006963      -0.00004901       0.00025431 </v>
   <v>      -0.00139260      -0.00120464       0.00197035 </v>
   <v>       0.01953280       0.00167911      -0.00802423 </v>
   <v>      -0.00089692       0.00047836      -0.00025510 </v>
   <v>      -0.00062521       0.00175015      -0.00716796 </v>
   <v>       0.00042769      -0.00027110      -0.00159703 </v>
   <v>      -0.00010785       0.00007825      -0.00035362 </v>
   <v>      -0.00018595       0.00000101      -0.00167939 </v>
   <v>       0.00094463       0.00021062      -0.00179238 </v>
   <v>      -0.00010581       0.00023925      -0.00043636 </v>
   <v>      -0.00071343      -0.00003595      -0.00188901 </v>
   <v>       0.00067325      -0.00227172       0.00300604 </v>
   <v>      -0.00083882      -0.00048718       0.00059570 </v>
   <v>       0.00023510       0.00022846      -0.00020462 </v>
   <v>      -0.00001493      -0.00011542      -0.00044916 </v>
   <v>      -0.00004619       0.00001769      -0.00006405 </v>
   <v>       0.00012108       0.00001684      -0.00016259 </v>
   <v>       0.00067160       0.00264806       0.00098264 </v>
   <v>      -0.00074327       0.00075553       0.00050461 </v>
   <v>       0.00013494       0.00008378      -0.00022006 </v>
   <v>      -0.00063497      -0.00043522       0.00164538 </v>
   <v>       0.00018746       0.00007037       0.00043709 </v>
   <v>       0.00048440      -0.00048496       0.00125238 </v>
   <v>      -0.00038357       0.00036558       0.00109995 </v>
   <v>       0.00015948       0.00005010       0.00041942 </v>
   <v>       0.00028565       0.00039357       0.00091196 </v>
   <v>      -0.00060726       0.00015951       0.00257994 </v>
   <v>       0.00021642       0.00001609       0.00058051 </v>
   <v>       0.00036818       0.00017195       0.00128079 </v>
   <v>       0.00087816      -0.00515529      -0.00629089 </v>
   <v>       0.00022611      -0.00041466      -0.00087107 </v>
   <v>      -0.00064443       0.00004066      -0.00021319 </v>
   <v>       0.00001678      -0.00030082      -0.00001809 </v>
   <v>       0.00020884      -0.00009389      -0.00012568 </v>
   <v>      -0.00019441      -0.00008843      -0.00004596 </v>
   <v>       0.00083296       0.01034265      -0.00843250 </v>
   <v>       0.00051174       0.00050615      -0.00090002 </v>
   <v>      -0.00092197       0.00003691      -0.00023095 </v>
   <v>       0.00022947      -0.00018527      -0.00155546 </v>
   <v>      -0.00019120      -0.00016203      -0.00022967 </v>
   <v>       0.00009815      -0.00078793      -0.00476326 </v>
   <v>       0.00028177      -0.00008088      -0.00059403 </v>
   <v>      -0.00023499      -0.00007438       0.00000416 </v>
   <v>       0.00013527      -0.00009629      -0.00075656 </v>
   <v>       0.00023889       0.00010756      -0.00120636 </v>
   <v>      -0.00019125       0.00006021      -0.00010934 </v>
   <v>       0.00011807       0.00058331      -0.00302997 </v>
   <v>       0.00731022      -0.00053912      -0.01046317 </v>
   <v>       0.00028083      -0.00023221      -0.00022031 </v>
   <v>      -0.00622739      -0.00072666      -0.00305545 </v>
   <v>       0.00134697       0.00133263       0.00025644 </v>
   <v>       0.00022770       0.00008719       0.00001274 </v>
   <v>      -0.00164117       0.00119511       0.00060715 </v>
   <v>       0.00100929      -0.00132319       0.00054092 </v>
   <v>       0.00023780      -0.00053245       0.00011763 </v>
   <v>      -0.00137029      -0.00124955       0.00083219 </v>
   <v>      -0.02842272      -0.01205305       0.03464653 </v>
   <v>       0.00446703      -0.00015713       0.00111982 </v>
   <v>       0.00119689      -0.00015057       0.00048752 </v>
   <v>      -0.00005733       0.00033729       0.00398467 </v>
   <v>       0.00012138       0.00007263       0.00028637 </v>
   <v>       0.00033892      -0.00015161       0.00041223 </v>
   <v>      -0.00005523       0.00105793       0.00409699 </v>
   <v>      -0.00013321      -0.00008886       0.00027887 </v>
   <v>       0.00058327       0.00014213       0.00039235 </v>
   <v>      -0.00214928      -0.00070144      -0.00238991 </v>
   <v>       0.00013364      -0.00037960      -0.00054532 </v>
   <v>       0.00211618      -0.00081855      -0.00262660 </v>
   <v>      -0.00034364       0.00017750      -0.00048223 </v>
   <v>      -0.00000793       0.00000478      -0.00039968 </v>
   <v>       0.00055555       0.00002855      -0.00056173 </v>
   <v>      -0.00316725       0.00002478      -0.00348035 </v>
   <v>       0.00013659      -0.00002967      -0.00069310 </v>
   <v>       0.00318298       0.00031393      -0.00370613 </v>
  </varray>
  <varray name="stress" >
   <v>      -0.07724720      -0.00143670      -0.01832224 </v>
   <v>      -0.00096438      -0.17305026       0.00122371 </v>
   <v>      -0.00870753       0.01112677      -0.18335979 </v>
  </varray>
  <energy>
   <i name="e_fr_energy">   -550.33906297 </i>
   <i name="e_wo_entrp">   -550.33906297 </i>
   <i name="e_0_energy">     -0.00000000 </i>
  </energy>
  <time name="totalsc"> 8977.05 9066.32</time>
  <eigenvalues>
   <array>
    <dimension dim="1">band</dimension>
    <dimension dim="2">kpoint</dimension>
    <dimension dim="3">spin</dimension>
    <field>eigene</field>
    <field>occ</field>
    <set>
     <set comment="spin 1">
      <set comment="kpoint 1">
       <r>  -51.0523    1.0000 </r>
       <r>  -51.0508    1.0000 </r>
       <r>  -51.0505    1.0000 </r>
       <r>  -51.0505    1.0000 </r>
       <r>  -51.0504    1.0000 </r>
       <r>  -51.0504    1.0000 </r>
       <r>  -51.0502    1.0000 </r>
       <r>  -51.0501    1.0000 </r>
       <r>  -51.0500    1.0000 </r>
       <r>  -51.0499    1.0000 </r>
       <r>  -51.0496    1.0000 </r>
       <r>  -51.0495    1.0000 </r>
       <r>  -51.0492    1.0000 </r>
       <r>  -51.0483    1.0000 </r>
       <r>  -51.0480    1.0000 </r>
       <r>  -51.0479    1.0000 </r>
       <r>  -51.0475    1.0000 </r>
       <r>  -51.0468    1.0000 </r>
       <r>  -51.0388    1.0000 </r>
       <r>  -51.0373    1.0000 </r>
       <r>  -51.0370    1.0000 </r>
       <r>  -51.0368    1.0000 </r>
       <r>  -51.0366    1.0000 </r>
       <r>  -51.0362    1.0000 </r>
       <r>  -51.0362    1.0000 </r>
       <r>  -51.0362    1.0000 </r>
       <r>  -51.0361    1.0000 </r>
       <r>  -51.0361    1.0000 </r>
       <r>  -51.0360    1.0000 </r>
       <r>  -51.0354    1.0000 </r>
       <r>  -51.0352    1.0000 </r>
       <r>  -51.0351    1.0000 </r>
       <r>  -51.0349    1.0000 </r>
       <r>  -51.0346    1.0000 </r>
       <r>  -51.0344    1.0000 </r>
       <r>  -51.0325    1.0000 </r>
       <r>  -49.6914    1.0000 </r>
       <r>  -49.6897    1.0000 </r>
       <r>  -49.6897    1.0000 </r>
       <r>  -49.6896    1.0000 </r>
       <r>  -49.6895    1.0000 </r>
       <r>  -49.6894    1.0000 </r>
       <r>  -49.6892    1.0000 </r>
       <r>  -49.6891    1.0000 </r>
       <r>  -49.6891    1.0000 </r>
       <r>  -49.6888    1.0000 </r>
       <r>  -49.6885    1.0000 </r>
       <r>  -49.6882    1.0000 </r>
       <r>  -49.6880    1.0000 </r>
       <r>  -49.6876    1.0000 </r>
       <r>  -49.6874    1.0000 </r>
       <r>  -49.6873    1.0000 </r>
       <r>  -49.6869    1.0000 </r>
       <r>  -49.6821    1.0000 </r>
       <r>  -49.5945    1.0000 </r>
       <r>  -49.5926    1.0000 </r>
       <r>  -49.5921    1.0000 </r>
       <r>  -49.5920    1.0000 </r>
       <r>  -49.5915    1.0000 </r>
       <r>  -49.5914    1.0000 </r>
       <r>  -49.5914    1.0000 </r>
       <r>  -49.5913    1.0000 </r>
       <r>  -49.5906    1.0000 </r>
       <r>  -49.5900    1.0000 </r>
       <r>  -49.5894    1.0000 </r>
       <r>  -49.5891    1.0000 </r>
       <r>  -49.5889    1.0000 </r>
       <r>  -49.5888    1.0000 </r>
       <r>  -49.5887    1.0000 </r>
       <r>  -49.5886    1.0000 </r>
       <r>  -49.5885    1.0000 </r>
       <r>  -49.5885    1.0000 </r>
       <r>  -49.5627    1.0000 </r>
       <r>  -49.5621    1.0000 </r>
       <r>  -49.5619    1.0000 </r>
       <r>  -49.5618    1.0000 </r>
       <r>  -49.5616    1.0000 </r>
       <r>  -49.5614    1.0000 </r>
       <r>  -49.5611    1.0000 </r>
       <r>  -49.5604    1.0000 </r>
       <r>  -49.5602    1.0000 </r>
       <r>  -49.5600    1.0000 </r>
       <r>  -49.5599    1.0000 </r>
       <r>  -49.5597    1.0000 </r>
       <r>  -49.5597    1.0000 </r>
       <r>  -49.5594    1.0000 </r>
       <r>  -49.5593    1.0000 </r>
       <r>  -49.5587    1.0000 </r>
       <r>  -49.5583    1.0000 </r>
       <r>  -49.5582    1.0000 </r>
       <r>  -49.5495    1.0000 </r>
       <r>  -49.5486    1.0000 </r>
       <r>  -49.5483    1.0000 </r>
       <r>  -49.5481    1.0000 </r>
       <r>  -49.5476    1.0000 </r>
       <r>  -49.5475    1.0000 </r>
       <r>  -49.5475    1.0000 </r>
       <r>  -49.5472    1.0000 </r>
       <r>  -49.5471    1.0000 </r>
       <r>  -49.5470    1.0000 </r>
       <r>  -49.5469    1.0000 </r>
       <r>  -49.5468    1.0000 </r>
       <r>  -49.5463    1.0000 </r>
       <r>  -49.5462    1.0000 </r>
       <r>  -49.5461    1.0000 </r>
       <r>  -49.5455    1.0000 </r>
       <r>  -49.5454    1.0000 </r>
       <r>  -49.5452    1.0000 </r>
       <r>  -39.8648    1.0000 </r>
       <r>  -39.8634    1.0000 </r>
       <r>  -39.8632    1.0000 </r>
       <r>  -39.8630    1.0000 </r>
       <r>  -39.8627    1.0000 </r>
       <r>  -39.8626    1.0000 </r>
       <r>  -39.8625    1.0000 </r>
       <r>  -39.8625    1.0000 </r>
       <r>  -39.8624    1.0000 </r>
       <r>  -39.8623    1.0000 </r>
       <r>  -39.8623    1.0000 </r>
       <r>  -39.8621    1.0000 </r>
       <r>  -39.8619    1.0000 </r>
       <r>  -39.8618    1.0000 </r>
       <r>  -39.8613    1.0000 </r>
       <r>  -39.8612    1.0000 </r>
       <r>  -39.8599    1.0000 </r>
       <r>  -39.8593    1.0000 </r>
       <r>  -13.2384    1.0000 </r>
       <r>  -13.2349    1.0000 </r>
       <r>  -13.2347    1.0000 </r>
       <r>  -13.2340    1.0000 </r>
       <r>  -13.2262    1.0000 </r>
       <r>  -13.1992    1.0000 </r>
       <r>  -13.0576    1.0000 </r>
       <r>  -13.0553    1.0000 </r>
       <r>  -13.0546    1.0000 </r>
       <r>  -13.0540    1.0000 </r>
       <r>  -13.0434    1.0000 </r>
       <r>  -13.0420    1.0000 </r>
       <r>  -13.0413    1.0000 </r>
       <r>  -13.0410    1.0000 </r>
       <r>  -13.0206    1.0000 </r>
       <r>  -13.0187    1.0000 </r>
       <r>  -13.0182    1.0000 </r>
       <r>  -13.0179    1.0000 </r>
       <r>   -7.6152    1.0000 </r>
       <r>   -7.4101    1.0000 </r>
       <r>   -7.3752    1.0000 </r>
       <r>   -7.3748    1.0000 </r>
       <r>   -7.3732    1.0000 </r>
       <r>   -7.3713    1.0000 </r>
       <r>   -7.1804    1.0000 </r>
       <r>   -7.1795    1.0000 </r>
       <r>   -7.1705    1.0000 </r>
       <r>   -7.1684    1.0000 </r>
       <r>   -7.1520    1.0000 </r>
       <r>   -7.1519    1.0000 </r>
       <r>   -7.1509    1.0000 </r>
       <r>   -7.1506    1.0000 </r>
       <r>   -6.9857    1.0000 </r>
       <r>   -6.9663    1.0000 </r>
       <r>   -6.9657    1.0000 </r>
       <r>   -6.9309    1.0000 </r>
       <r>   -6.9307    1.0000 </r>
       <r>   -6.8732    1.0000 </r>
       <r>   -6.8725    1.0000 </r>
       <r>   -6.8718    1.0000 </r>
       <r>   -6.8717    1.0000 </r>
       <r>   -6.8086    1.0000 </r>
       <r>   -6.8080    1.0000 </r>
       <r>   -6.7814    1.0000 </r>
       <r>   -6.7811    1.0000 </r>
       <r>   -1.8399    1.0000 </r>
       <r>   -1.8373    1.0000 </r>
       <r>   -1.8364    1.0000 </r>
       <r>   -1.8361    1.0000 </r>
       <r>   -1.8173    1.0000 </r>
       <r>   -1.8162    1.0000 </r>
       <r>   -1.8046    1.0000 </r>
       <r>   -1.8035    1.0000 </r>
       <r>   -1.7676    1.0000 </r>
       <r>   -1.7662    1.0000 </r>
       <r>   -1.7546    1.0000 </r>
       <r>   -1.7535    1.0000 </r>
       <r>   -1.2807    1.0000 </r>
       <r>   -1.1978    1.0000 </r>
       <r>   -1.1975    1.0000 </r>
       <r>   -1.1974    1.0000 </r>
       <r>   -1.1969    1.0000 </r>
       <r>   -1.0056    1.0000 </r>
       <r>   -1.0052    1.0000 </r>
       <r>   -0.9748    1.0000 </r>
       <r>   -0.9743    1.0000 </r>
       <r>   -0.9589    1.0000 </r>
       <r>   -0.9586    1.0000 </r>
       <r>   -0.9467    1.0000 </r>
       <r>   -0.9383    1.0000 </r>
       <r>   -0.9310    1.0000 </r>
       <r>   -0.9285    1.0000 </r>
       <r>   -0.9280    1.0000 </r>
       <r>   -0.8845    1.0000 </r>
       <r>   -0.8844    1.0000 </r>
       <r>   -0.8843    1.0000 </r>
       <r>   -0.8839    1.0000 </r>
       <r>   -0.8718    1.0000 </r>
       <r>   -0.8714    1.0000 </r>
       <r>   -0.8683    1.0000 </r>
       <r>   -0.8679    1.0000 </r>
       <r>   -0.8674    1.0000 </r>
       <r>   -0.8669    1.0000 </r>
       <r>   -0.8598    1.0000 </r>
       <r>   -0.8595    1.0000 </r>
       <r>   -0.7018    1.0000 </r>
       <r>   -0.7004    1.0000 </r>
       <r>   -0.6998    1.0000 </r>
       <r>   -0.6995    1.0000 </r>
       <r>   -0.6719    1.0000 </r>
       <r>   -0.6718    1.0000 </r>
       <r>   -0.6239    1.0000 </r>
       <r>   -0.6235    1.0000 </r>
       <r>   -0.6231    1.0000 </r>
       <r>   -0.6228    1.0000 </r>
       <r>   -0.6226    1.0000 </r>
       <r>   -0.6225    1.0000 </r>
       <r>   -0.3525    1.0000 </r>
       <r>   -0.3521    1.0000 </r>
       <r>   -0.3516    1.0000 </r>
       <r>   -0.3513    1.0000 </r>
       <r>   -0.3220    1.0000 </r>
       <r>   -0.3215    1.0000 </r>
       <r>   -0.2919    1.0000 </r>
       <r>   -0.2918    1.0000 </r>
       <r>   -0.2646    1.0000 </r>
       <r>   -0.2644    1.0000 </r>
       <r>   -0.2641    1.0000 </r>
       <r>   -0.2640    1.0000 </r>
       <r>   -0.2611    1.0000 </r>
       <r>   -0.2610    1.0000 </r>
       <r>   -0.2577    1.0000 </r>
       <r>   -0.2494    1.0000 </r>
       <r>   -0.2493    1.0000 </r>
       <r>   -0.2431    1.0000 </r>
       <r>   -0.2196    1.0000 </r>
       <r>   -0.1410    1.0000 </r>
       <r>   -0.1407    1.0000 </r>
       <r>   -0.1403    1.0000 </r>
       <r>   -0.1401    1.0000 </r>
       <r>   -0.1397    1.0000 </r>
       <r>   -0.1392    1.0000 </r>
       <r>   -0.1229    1.0000 </r>
       <r>   -0.1226    1.0000 </r>
       <r>   -0.1220    1.0000 </r>
       <r>   -0.1213    1.0000 </r>
       <r>   -0.1202    1.0000 </r>
       <r>   -0.1200    1.0000 </r>
       <r>   -0.0778    1.0000 </r>
       <r>   -0.0777    1.0000 </r>
       <r>   -0.0599    1.0000 </r>
       <r>   -0.0120    1.0000 </r>
       <r>   -0.0117    1.0000 </r>
       <r>    0.0162    1.0000 </r>
       <r>    0.0164    1.0000 </r>
       <r>    0.0259    1.0000 </r>
       <r>    0.0262    1.0000 </r>
       <r>    0.0424    1.0000 </r>
       <r>    0.0427    1.0000 </r>
       <r>    0.0429    1.0000 </r>
       <r>    0.0431    1.0000 </r>
       <r>    0.0604    1.0000 </r>
       <r>    0.0609    1.0000 </r>
       <r>    0.1493    1.0000 </r>
       <r>    0.1496    1.0000 </r>
       <r>    0.1500    1.0000 </r>
       <r>    0.1503    1.0000 </r>
       <r>    0.1590    1.0000 </r>
       <r>    0.1649    1.0000 </r>
       <r>    0.1665    1.0000 </r>
       <r>    0.1819    1.0000 </r>
       <r>    0.1828    1.0000 </r>
       <r>    0.1929    1.0000 </r>
       <r>    0.1961    1.0000 </r>
       <r>    0.1966    1.0000 </r>
       <r>    0.2077    1.0000 </r>
       <r>    0.2080    1.0000 </r>
       <r>    0.2580    1.0000 </r>
       <r>    0.2581    1.0000 </r>
       <r>    0.2585    1.0000 </r>
       <r>    0.2601    1.0000 </r>
       <r>    0.2785    1.0000 </r>
       <r>    0.2789    1.0000 </r>
       <r>    0.3395    1.0000 </r>
       <r>    0.3397    1.0000 </r>
       <r>    0.3597    1.0000 </r>
       <r>    0.3600    1.0000 </r>
       <r>    0.3605    1.0000 </r>
       <r>    0.3615    1.0000 </r>
       <r>    0.3800    1.0000 </r>
       <r>    0.3831    1.0000 </r>
       <r>    0.4897    1.0000 </r>
       <r>    0.4902    1.0000 </r>
       <r>    0.4905    1.0000 </r>
       <r>    0.4907    1.0000 </r>
       <r>    0.5163    1.0000 </r>
       <r>    0.5167    1.0000 </r>
       <r>    0.5167    1.0000 </r>
       <r>    0.5168    1.0000 </r>
       <r>    0.5591    1.0000 </r>
       <r>    0.5592    1.0000 </r>
       <r>    0.6092    1.0000 </r>
       <r>    0.6095    1.0000 </r>
       <r>    0.6140    1.0000 </r>
       <r>    0.6305    1.0000 </r>
       <r>    0.6307    1.0000 </r>
       <r>    0.6308    1.0000 </r>
       <r>    0.6310    1.0000 </r>
       <r>    0.7520    1.0000 </r>
       <r>    0.7521    1.0000 </r>
       <r>    0.7608    1.0000 </r>
       <r>    0.7611    1.0000 </r>
       <r>    0.7620    1.0000 </r>
       <r>    0.7623    1.0000 </r>
       <r>    0.7902    1.0000 </r>
       <r>    0.7903    1.0000 </r>
       <r>    0.7924    1.0000 </r>
       <r>    0.8465    1.0000 </r>
       <r>    0.8469    1.0000 </r>
       <r>    0.8550    1.0000 </r>
       <r>    0.8552    1.0000 </r>
       <r>    0.9685    1.0000 </r>
       <r>    0.9687    1.0000 </r>
       <r>    0.9690    1.0000 </r>
       <r>    0.9698    1.0000 </r>
       <r>    0.9798    1.0000 </r>
       <r>    1.2398    1.0000 </r>
       <r>    1.2403    1.0000 </r>
       <r>    1.2405    1.0000 </r>
       <r>    1.2405    1.0000 </r>
       <r>    1.2633    1.0000 </r>
       <r>    1.2930    1.0000 </r>
       <r>    1.2932    1.0000 </r>
       <r>    1.3305    1.0000 </r>
       <r>    1.3308    1.0000 </r>
       <r>    1.3584    1.0000 </r>
       <r>    1.3586    1.0000 </r>
       <r>    1.3591    1.0000 </r>
       <r>    1.3596    1.0000 </r>
       <r>    1.4364    1.0000 </r>
       <r>    1.4365    1.0000 </r>
       <r>    1.4639    1.0000 </r>
       <r>    1.4753    1.0000 </r>
       <r>    1.4871    1.0000 </r>
       <r>    1.4872    1.0000 </r>
       <r>    1.5473    1.0000 </r>
       <r>    1.6780    1.0000 </r>
       <r>    1.6805    1.0000 </r>
       <r>    1.6809    1.0000 </r>
       <r>    1.7235    1.0000 </r>
       <r>    1.7236    1.0000 </r>
       <r>    1.7238    1.0000 </r>
       <r>    1.7246    1.0000 </r>
       <r>    1.7658    1.0000 </r>
       <r>    1.7663    1.0000 </r>
       <r>    1.8139    1.0000 </r>
       <r>    1.8145    1.0000 </r>
       <r>    1.8148    1.0000 </r>
       <r>    1.8152    1.0000 </r>
       <r>    1.8260    1.0000 </r>
       <r>    1.8262    1.0000 </r>
       <r>    1.8273    1.0000 </r>
       <r>    1.8277    1.0000 </r>
       <r>    1.8394    1.0000 </r>
       <r>    1.8750    1.0000 </r>
       <r>    1.8860    1.0000 </r>
       <r>    1.9031    1.0000 </r>
       <r>    1.9041    1.0000 </r>
       <r>    1.9177    1.0000 </r>
       <r>    1.9184    1.0000 </r>
       <r>    1.9634    1.0000 </r>
       <r>    1.9637    1.0000 </r>
       <r>    1.9900    1.0000 </r>
       <r>    1.9901    1.0000 </r>
       <r>    1.9981    1.0000 </r>
       <r>    1.9986    1.0000 </r>
       <r>    1.9992    1.0000 </r>
       <r>    1.9995    1.0000 </r>
       <r>    2.0711    1.0000 </r>
       <r>    2.0720    1.0000 </r>
       <r>    2.0768    1.0000 </r>
       <r>    2.0817    1.0000 </r>
       <r>    2.0817    1.0000 </r>
       <r>    2.0824    1.0000 </r>
       <r>    2.0939    1.0000 </r>
       <r>    2.0945    1.0000 </r>
       <r>    2.1156    1.0000 </r>
       <r>    2.1158    1.0000 </r>
       <r>    2.1159    1.0000 </r>
       <r>    2.1164    1.0000 </r>
       <r>    2.1953    1.0000 </r>
       <r>    2.1956    1.0000 </r>
       <r>    2.2888    1.0000 </r>
       <r>    2.2891    1.0000 </r>
       <r>    2.4160    1.0000 </r>
       <r>    2.4166    1.0000 </r>
       <r>    2.4402    1.0000 </r>
       <r>    2.4412    1.0000 </r>
       <r>    2.4412    1.0000 </r>
       <r>    2.4417    1.0000 </r>
       <r>    2.4996    1.0000 </r>
       <r>    2.5159    1.0000 </r>
       <r>    2.5162    1.0000 </r>
       <r>    2.5165    1.0000 </r>
       <r>    2.5172    1.0000 </r>
       <r>    2.5593    1.0000 </r>
       <r>    2.5598    1.0000 </r>
       <r>    2.5648    1.0000 </r>
       <r>    2.7180    1.0000 </r>
       <r>    2.7186    1.0000 </r>
       <r>    2.7192    1.0000 </r>
       <r>    2.7199    1.0000 </r>
       <r>    2.7329    1.0000 </r>
       <r>    2.7337    1.0000 </r>
       <r>    2.8001    1.0000 </r>
       <r>    2.8006    1.0000 </r>
       <r>    3.0024    1.0000 </r>
       <r>    3.0026    1.0000 </r>
       <r>    3.0065    1.0000 </r>
       <r>    3.0067    1.0000 </r>
       <r>    3.1694    1.0000 </r>
       <r>    3.2188    1.0000 </r>
       <r>    3.2188    1.0000 </r>
       <r>    3.2218    1.0000 </r>
       <r>    3.2223    1.0000 </r>
       <r>    3.3589    1.0000 </r>
       <r>    3.3597    1.0000 </r>
       <r>    3.3601    1.0000 </r>
       <r>    3.3608    1.0000 </r>
       <r>    3.3922    1.0000 </r>
       <r>    3.4010    1.0000 </r>
       <r>    3.5015    1.0000 </r>
       <r>    3.5027    1.0000 </r>
       <r>    3.5876    1.0000 </r>
       <r>    3.5884    1.0000 </r>
       <r>    3.8161    1.0000 </r>
       <r>    3.8161    1.0000 </r>
       <r>    3.8300    1.0000 </r>
       <r>    3.8307    1.0000 </r>
       <r>    4.0026    1.0000 </r>
       <r>    4.0031    1.0000 </r>
       <r>    4.0033    1.0000 </r>
       <r>    4.0040    1.0000 </r>
       <r>    4.0316    1.0000 </r>
       <r>    4.0320    1.0000 </r>
       <r>    4.0321    1.0000 </r>
       <r>    4.0328    1.0000 </r>
       <r>    4.1059    1.0000 </r>
       <r>    4.1161    1.0000 </r>
       <r>    4.1214    1.0000 </r>
       <r>    4.1598    1.0000 </r>
       <r>    4.1608    1.0000 </r>
       <r>    4.2587    1.0000 </r>
       <r>    4.2598    1.0000 </r>
       <r>    4.2767    1.0000 </r>
       <r>    4.2780    1.0000 </r>
       <r>    4.3299    1.0000 </r>
       <r>    4.3305    1.0000 </r>
       <r>    4.3574    1.0000 </r>
       <r>    4.3582    1.0000 </r>
       <r>    4.3583    1.0000 </r>
       <r>    4.3587    1.0000 </r>
       <r>    4.4114    1.0000 </r>
       <r>    4.4123    1.0000 </r>
       <r>    4.4343    1.0000 </r>
       <r>    4.4349    1.0000 </r>
       <r>    4.5225    1.0000 </r>
       <r>    4.5232    1.0000 </r>
       <r>    4.5233    1.0000 </r>
       <r>    4.5236    1.0000 </r>
       <r>    4.5508    1.0000 </r>
       <r>    4.5512    1.0000 </r>
       <r>    4.8111    1.0000 </r>
       <r>    4.8113    1.0000 </r>
       <r>    4.8115    1.0000 </r>
       <r>    4.8118    1.0000 </r>
       <r>    4.8742    1.0000 </r>
       <r>    4.8747    1.0000 </r>
       <r>    4.8748    1.0000 </r>
       <r>    4.8752    1.0000 </r>
       <r>    7.3645    0.0000 </r>
       <r>    8.4296    0.0000 </r>
       <r>    8.6646    0.0000 </r>
       <r>    8.6652    0.0000 </r>
       <r>    8.8410    0.0000 </r>
       <r>    8.8415    0.0000 </r>
       <r>    8.8416    0.0000 </r>
       <r>    8.8420    0.0000 </r>
       <r>    8.9857    0.0000 </r>
       <r>    8.9862    0.0000 </r>
       <r>    9.3103    0.0000 </r>
       <r>    9.3104    0.0000 </r>
       <r>    9.3105    0.0000 </r>
       <r>    9.3111    0.0000 </r>
       <r>    9.3207    0.0000 </r>
       <r>    9.3211    0.0000 </r>
       <r>    9.4439    0.0000 </r>
       <r>    9.4442    0.0000 </r>
       <r>    9.5152    0.0000 </r>
       <r>    9.5152    0.0000 </r>
       <r>    9.5154    0.0000 </r>
       <r>    9.5158    0.0000 </r>
       <r>    9.8747    0.0000 </r>
       <r>    9.8799    0.0000 </r>
       <r>    9.9190    0.0000 </r>
       <r>    9.9197    0.0000 </r>
       <r>    9.9206    0.0000 </r>
       <r>    9.9227    0.0000 </r>
       <r>    9.9666    0.0000 </r>
       <r>    9.9674    0.0000 </r>
       <r>   10.0690    0.0000 </r>
       <r>   10.0693    0.0000 </r>
       <r>   10.4882    0.0000 </r>
       <r>   10.5028    0.0000 </r>
       <r>   10.5033    0.0000 </r>
       <r>   10.5201    0.0000 </r>
       <r>   10.5204    0.0000 </r>
       <r>   10.8008    0.0000 </r>
       <r>   10.8013    0.0000 </r>
       <r>   10.8016    0.0000 </r>
       <r>   10.8031    0.0000 </r>
       <r>   10.8754    0.0000 </r>
       <r>   10.8757    0.0000 </r>
       <r>   11.0178    0.0000 </r>
       <r>   11.0183    0.0000 </r>
       <r>   11.0515    0.0000 </r>
       <r>   11.2661    0.0000 </r>
       <r>   11.2666    0.0000 </r>
       <r>   11.3727    0.0000 </r>
       <r>   11.3732    0.0000 </r>
       <r>   11.3735    0.0000 </r>
       <r>   11.3738    0.0000 </r>
       <r>   11.3885    0.0000 </r>
       <r>   11.3900    0.0000 </r>
       <r>   11.3938    0.0000 </r>
       <r>   11.3942    0.0000 </r>
       <r>   11.3943    0.0000 </r>
       <r>   11.3947    0.0000 </r>
       <r>   11.4479    0.0000 </r>
       <r>   11.6178    0.0000 </r>
       <r>   11.6186    0.0000 </r>
       <r>   11.8006    0.0000 </r>
       <r>   11.8007    0.0000 </r>
[...]
       <r>   -45.9046    69.1727    52.6594 </r>
       <r>   -45.6636   229.6673   108.0000 </r>
       <r>   -45.4227     0.0000   108.0000 </r>
       <r>   -45.1817     0.0000   108.0000 </r>
       <r>   -44.9407     0.0000   108.0000 </r>
       <r>   -44.6998     0.0000   108.0000 </r>
       <r>   -44.4588     0.0000   108.0000 </r>
       <r>   -44.2179     0.0000   108.0000 </r>
       <r>   -43.9769     0.0000   108.0000 </r>
       <r>   -43.7359     0.0000   108.0000 </r>
       <r>   -43.4950     0.0000   108.0000 </r>
       <r>   -43.2540     0.0000   108.0000 </r>
       <r>   -43.0131     0.0000   108.0000 </r>
       <r>   -42.7721     0.0000   108.0000 </r>
       <r>   -42.5311     0.0000   108.0000 </r>
       <r>   -42.2902     0.0000   108.0000 </r>
       <r>   -42.0492     0.0000   108.0000 </r>
       <r>   -41.8083     0.0000   108.0000 </r>
       <r>   -41.5673     0.0000   108.0000 </r>
       <r>   -41.3263     0.0000   108.0000 </r>
       <r>   -41.0854     0.0000   108.0000 </r>
       <r>   -40.8444     0.0000   108.0000 </r>
       <r>   -40.6035     0.0000   108.0000 </r>
       <r>   -40.3625     0.0000   108.0000 </r>
       <r>   -40.1216     0.0000   108.0000 </r>
       <r>   -39.8806    21.0023   113.0607 </r>
       <r>   -39.6396    53.6990   126.0000 </r>
       <r>   -39.3987     0.0000   126.0000 </r>
       <r>   -39.1577     0.0000   126.0000 </r>
       <r>   -38.9168     0.0000   126.0000 </r>
       <r>   -38.6758     0.0000   126.0000 </r>
       <r>   -38.4348     0.0000   126.0000 </r>
       <r>   -38.1939     0.0000   126.0000 </r>
       <r>   -37.9529     0.0000   126.0000 </r>
       <r>   -37.7120     0.0000   126.0000 </r>
       <r>   -37.4710     0.0000   126.0000 </r>
       <r>   -37.2300     0.0000   126.0000 </r>
       <r>   -36.9891     0.0000   126.0000 </r>
       <r>   -36.7481     0.0000   126.0000 </r>
       <r>   -36.5072     0.0000   126.0000 </r>
       <r>   -36.2662     0.0000   126.0000 </r>
       <r>   -36.0252     0.0000   126.0000 </r>
       <r>   -35.7843     0.0000   126.0000 </r>
       <r>   -35.5433     0.0000   126.0000 </r>
       <r>   -35.3024     0.0000   126.0000 </r>
       <r>   -35.0614     0.0000   126.0000 </r>
       <r>   -34.8204     0.0000   126.0000 </r>
       <r>   -34.5795     0.0000   126.0000 </r>
       <r>   -34.3385     0.0000   126.0000 </r>
       <r>   -34.0976     0.0000   126.0000 </r>
       <r>   -33.8566     0.0000   126.0000 </r>
       <r>   -33.6156     0.0000   126.0000 </r>
       <r>   -33.3747     0.0000   126.0000 </r>
       <r>   -33.1337     0.0000   126.0000 </r>
       <r>   -32.8928     0.0000   126.0000 </r>
       <r>   -32.6518     0.0000   126.0000 </r>
       <r>   -32.4108     0.0000   126.0000 </r>
       <r>   -32.1699     0.0000   126.0000 </r>
       <r>   -31.9289     0.0000   126.0000 </r>
       <r>   -31.6880     0.0000   126.0000 </r>
       <r>   -31.4470     0.0000   126.0000 </r>
       <r>   -31.2060     0.0000   126.0000 </r>
       <r>   -30.9651     0.0000   126.0000 </r>
       <r>   -30.7241     0.0000   126.0000 </r>
       <r>   -30.4832     0.0000   126.0000 </r>
       <r>   -30.2422     0.0000   126.0000 </r>
       <r>   -30.0012     0.0000   126.0000 </r>
       <r>   -29.7603     0.0000   126.0000 </r>
       <r>   -29.5193     0.0000   126.0000 </r>
       <r>   -29.2784     0.0000   126.0000 </r>
       <r>   -29.0374     0.0000   126.0000 </r>
       <r>   -28.7965     0.0000   126.0000 </r>
       <r>   -28.5555     0.0000   126.0000 </r>
       <r>   -28.3145     0.0000   126.0000 </r>
       <r>   -28.0736     0.0000   126.0000 </r>
       <r>   -27.8326     0.0000   126.0000 </r>
       <r>   -27.5917     0.0000   126.0000 </r>
       <r>   -27.3507     0.0000   126.0000 </r>
       <r>   -27.1097     0.0000   126.0000 </r>
       <r>   -26.8688     0.0000   126.0000 </r>
       <r>   -26.6278     0.0000   126.0000 </r>
       <r>   -26.3869     0.0000   126.0000 </r>
       <r>   -26.1459     0.0000   126.0000 </r>
       <r>   -25.9049     0.0000   126.0000 </r>
       <r>   -25.6640     0.0000   126.0000 </r>
       <r>   -25.4230     0.0000   126.0000 </r>
       <r>   -25.1821     0.0000   126.0000 </r>
       <r>   -24.9411     0.0000   126.0000 </r>
       <r>   -24.7001     0.0000   126.0000 </r>
       <r>   -24.4592     0.0000   126.0000 </r>
       <r>   -24.2182     0.0000   126.0000 </r>
       <r>   -23.9773     0.0000   126.0000 </r>
       <r>   -23.7363     0.0000   126.0000 </r>
       <r>   -23.4953     0.0000   126.0000 </r>
       <r>   -23.2544     0.0000   126.0000 </r>
       <r>   -23.0134     0.0000   126.0000 </r>
       <r>   -22.7725     0.0000   126.0000 </r>
       <r>   -22.5315     0.0000   126.0000 </r>
       <r>   -22.2905     0.0000   126.0000 </r>
       <r>   -22.0496     0.0000   126.0000 </r>
       <r>   -21.8086     0.0000   126.0000 </r>
       <r>   -21.5677     0.0000   126.0000 </r>
       <r>   -21.3267     0.0000   126.0000 </r>
       <r>   -21.0857     0.0000   126.0000 </r>
       <r>   -20.8448     0.0000   126.0000 </r>
       <r>   -20.6038     0.0000   126.0000 </r>
       <r>   -20.3629     0.0000   126.0000 </r>
       <r>   -20.1219     0.0000   126.0000 </r>
       <r>   -19.8809     0.0000   126.0000 </r>
       <r>   -19.6400     0.0000   126.0000 </r>
       <r>   -19.3990     0.0000   126.0000 </r>
       <r>   -19.1581     0.0000   126.0000 </r>
       <r>   -18.9171     0.0000   126.0000 </r>
       <r>   -18.6761     0.0000   126.0000 </r>
       <r>   -18.4352     0.0000   126.0000 </r>
       <r>   -18.1942     0.0000   126.0000 </r>
       <r>   -17.9533     0.0000   126.0000 </r>
       <r>   -17.7123     0.0000   126.0000 </r>
       <r>   -17.4714     0.0000   126.0000 </r>
       <r>   -17.2304     0.0000   126.0000 </r>
       <r>   -16.9894     0.0000   126.0000 </r>
       <r>   -16.7485     0.0000   126.0000 </r>
       <r>   -16.5075     0.0000   126.0000 </r>
       <r>   -16.2666     0.0000   126.0000 </r>
       <r>   -16.0256     0.0000   126.0000 </r>
       <r>   -15.7846     0.0000   126.0000 </r>
       <r>   -15.5437     0.0000   126.0000 </r>
       <r>   -15.3027     0.0000   126.0000 </r>
       <r>   -15.0618     0.0000   126.0000 </r>
       <r>   -14.8208     0.0000   126.0000 </r>
       <r>   -14.5798     0.0000   126.0000 </r>
       <r>   -14.3389     0.0000   126.0000 </r>
       <r>   -14.0979     0.0000   126.0000 </r>
       <r>   -13.8570     0.0000   126.0000 </r>
       <r>   -13.6160     0.0000   126.0000 </r>
       <r>   -13.3750     0.0000   126.0000 </r>
       <r>   -13.1341     0.0000   126.0000 </r>
       <r>   -12.8931     0.2864   126.0690 </r>
       <r>   -12.6522    59.2946   140.3566 </r>
       <r>   -12.4112    15.1203   144.0000 </r>
       <r>   -12.1702     0.0000   144.0000 </r>
       <r>   -11.9293     0.0000   144.0000 </r>
       <r>   -11.6883     0.0000   144.0000 </r>
       <r>   -11.4474     0.0000   144.0000 </r>
       <r>   -11.2064     0.0000   144.0000 </r>
       <r>   -10.9654     0.0000   144.0000 </r>
       <r>   -10.7245     0.0000   144.0000 </r>
       <r>   -10.4835     0.0000   144.0000 </r>
       <r>   -10.2426     0.0000   144.0000 </r>
       <r>   -10.0016     0.0000   144.0000 </r>
       <r>    -9.7606     0.0000   144.0000 </r>
       <r>    -9.5197     0.0000   144.0000 </r>
       <r>    -9.2787     0.0000   144.0000 </r>
       <r>    -9.0378     0.0000   144.0000 </r>
       <r>    -8.7968     0.0000   144.0000 </r>
       <r>    -8.5558     0.0000   144.0000 </r>
       <r>    -8.3149     0.0000   144.0000 </r>
       <r>    -8.0739     0.0000   144.0000 </r>
       <r>    -7.8330     0.0000   144.0000 </r>
       <r>    -7.5920     0.0000   144.0000 </r>
       <r>    -7.3510     0.5258   144.1267 </r>
       <r>    -7.1101    19.1468   148.7403 </r>
       <r>    -6.8691    30.9930   156.2083 </r>
       <r>    -6.6282    25.6023   162.3775 </r>
       <r>    -6.3872    35.6925   170.9779 </r>
       <r>    -6.1462     0.0917   171.0000 </r>
       <r>    -5.9053     0.0000   171.0000 </r>
       <r>    -5.6643     0.0000   171.0000 </r>
       <r>    -5.4234     0.0000   171.0000 </r>
       <r>    -5.1824     0.0000   171.0000 </r>
       <r>    -4.9415     0.0000   171.0000 </r>
       <r>    -4.7005     0.0000   171.0000 </r>
       <r>    -4.4595     0.0000   171.0000 </r>
       <r>    -4.2186     0.0000   171.0000 </r>
       <r>    -3.9776     0.0000   171.0000 </r>
       <r>    -3.7367     0.0000   171.0000 </r>
       <r>    -3.4957     0.0000   171.0000 </r>
       <r>    -3.2547     0.0000   171.0000 </r>
       <r>    -3.0138     0.0000   171.0000 </r>
       <r>    -2.7728     0.0000   171.0000 </r>
       <r>    -2.5319     0.0000   171.0000 </r>
       <r>    -2.2909     0.0000   171.0000 </r>
       <r>    -2.0499     0.0000   171.0000 </r>
       <r>    -1.8090     0.0000   171.0000 </r>
       <r>    -1.5680     0.0000   171.0000 </r>
       <r>    -1.3271     0.0000   171.0000 </r>
       <r>    -1.0861     0.0000   171.0000 </r>
       <r>    -0.8451     0.0000   171.0000 </r>
       <r>    -0.6042     0.0002   171.0001 </r>
       <r>    -0.3632     9.2039   173.2178 </r>
       <r>    -0.1223    21.4747   178.3924 </r>
       <r>     0.1187    13.0230   181.5304 </r>
       <r>     0.3597    23.6558   187.2305 </r>
       <r>     0.6006    31.0126   194.7033 </r>
       <r>     0.8416    47.8270   206.2276 </r>
       <r>     1.0825    40.7352   216.0432 </r>
       <r>     1.3235    33.5862   224.1361 </r>
       <r>     1.5645    24.2198   229.9721 </r>
       <r>     1.8054    32.9208   237.9047 </r>
       <r>     2.0464    40.9263   247.7663 </r>
       <r>     2.2873    28.1380   254.5464 </r>
       <r>     2.5283    29.3691   261.6231 </r>
       <r>     2.7693    39.0175   271.0248 </r>
       <r>     3.0102    45.7355   282.0452 </r>
       <r>     3.2512    48.6199   293.7606 </r>
       <r>     3.4921    41.6741   303.8024 </r>
       <r>     3.7331     7.2754   305.5555 </r>
       <r>     3.9741    21.8757   310.8266 </r>
       <r>     4.2150    73.3260   328.4952 </r>
       <r>     4.4560    44.8516   339.3027 </r>
       <r>     4.6969    11.1942   342.0000 </r>
       <r>     4.9379     0.0000   342.0000 </r>
       <r>     5.1789     0.0000   342.0000 </r>
       <r>     5.4198     0.0000   342.0000 </r>
       <r>     5.6608     0.0000   342.0000 </r>
       <r>     5.9017     0.0000   342.0000 </r>
       <r>     6.1427     0.0000   342.0000 </r>
       <r>     6.3836     1.2985   342.3129 </r>
       <r>     6.6246     5.0784   343.5366 </r>
       <r>     6.8656    10.0153   345.9498 </r>
       <r>     7.1065    20.2936   350.8398 </r>
       <r>     7.3475    60.2666   365.3616 </r>
       <r>     7.5884    60.8530   380.0247 </r>
       <r>     7.8294    62.9230   395.1866 </r>
       <r>     8.0704    74.9025   413.2351 </r>
       <r>     8.3113    79.6097   432.4178 </r>
       <r>     8.5523    69.5382   449.1737 </r>
       <r>     8.7932    66.3247   465.1553 </r>
       <r>     9.0342    46.6505   476.3962 </r>
       <r>     9.2752    32.9443   484.3344 </r>
       <r>     9.5161     8.9064   486.4805 </r>
       <r>     9.7571     5.6429   487.8402 </r>
       <r>     9.9980    11.4915   490.6092 </r>
       <r>    10.2390    16.4808   494.5804 </r>
       <r>    10.4800    23.8706   500.3322 </r>
       <r>    10.7209    21.9130   505.6124 </r>
       <r>    10.9619    22.1530   510.9503 </r>
       <r>    11.2028    31.7153   518.5924 </r>
       <r>    11.4438    20.0719   523.4290 </r>
       <r>    11.6848    18.4206   527.8676 </r>
       <r>    11.9257    11.7236   530.6925 </r>
       <r>    12.1667    24.6395   536.6296 </r>
       <r>    12.4076    44.8752   547.4427 </r>
       <r>    12.6486    35.3399   555.9582 </r>
       <r>    12.8896    32.8262   563.8680 </r>
       <r>    13.1305    20.5222   568.8131 </r>
       <r>    13.3715    23.8748   574.5659 </r>
       <r>    13.6124    33.1132   582.5449 </r>
       <r>    13.8534    26.3912   588.9041 </r>
       <r>    14.0944    26.3637   595.2567 </r>
       <r>    14.3353    22.7462   600.7376 </r>
       <r>    14.5763    19.4288   605.4192 </r>
       <r>    14.8172     2.4105   606.0000 </r>
       <r>    15.0582     0.0000   606.0000 </r>
       <r>    15.2992     0.0000   606.0000 </r>
       <r>    15.5401     0.0000   606.0000 </r>
       <r>    15.7811     0.0000   606.0000 </r>
       <r>    16.0220     0.0000   606.0000 </r>
       <r>    16.2630     0.0000   606.0000 </r>
       <r>    16.5040     0.0000   606.0000 </r>
       <r>    16.7449     0.0000   606.0000 </r>
       <r>    16.9859     0.0000   606.0000 </r>
       <r>    17.2268     0.0000   606.0000 </r>
       <r>    17.4678     0.0000   606.0000 </r>
       <r>    17.7087     0.0000   606.0000 </r>
       <r>    17.9497     0.0000   606.0000 </r>
      </set>
     </set>
    </array>
   </total>
  </dos>
 </calculation>
 <structure name="finalpos" >
  <crystal>
   <varray name="basis" >
    <v>      11.77726974       0.00848871       0.06923316 </v>
    <v>      -0.03028248      11.77723386       0.06923316 </v>
    <v>      -2.02000231      -2.02666320      10.18574622 </v>
   </varray>
   <i name="volume">   1416.10551572 </i>
   <varray name="rec_basis" >
    <v>       0.08481023       0.00011906       0.01684296 </v>
    <v>      -0.00016014       0.08481016       0.01684296 </v>
    <v>      -0.00057537      -0.00057727       0.09794744 </v>
   </varray>
  </crystal>
  <varray name="positions" >
   <v>       0.20224939       0.24206952       0.83183419 </v>
   <v>       0.53558272       0.24206952       0.83183419 </v>
   <v>       0.86891606       0.24206952       0.83183419 </v>
   <v>       0.20224939       0.57540285       0.83183419 </v>
   <v>       0.53558272       0.57540285       0.83183419 </v>
   <v>       0.86891606       0.57540285       0.83183419 </v>
   <v>       0.20224939       0.90873619       0.83183419 </v>
   <v>       0.53558272       0.90873619       0.83183419 </v>
   <v>       0.86891606       0.90873619       0.83183419 </v>
   <v>       0.09126381       0.13108394       0.16816581 </v>
   <v>       0.42459715       0.13108394       0.16816581 </v>
   <v>       0.75793048       0.13108394       0.16816581 </v>
   <v>       0.09126381       0.46441728       0.16816581 </v>
   <v>       0.42459715       0.46441728       0.16816581 </v>
   <v>       0.75793048       0.46441728       0.16816581 </v>
   <v>       0.09126381       0.79775061       0.16816581 </v>
   <v>       0.42459715       0.79775061       0.16816581 </v>
   <v>       0.75793048       0.79775061       0.16816581 </v>
   <v>       0.26311007       0.13598816       0.19686089 </v>
   <v>       0.59644341       0.13598816       0.19686089 </v>
   <v>       0.92977674       0.13598816       0.19686089 </v>
   <v>       0.26311007       0.46932149       0.19686089 </v>
   <v>       0.59644341       0.46932149       0.19686089 </v>
   <v>       0.92977674       0.46932149       0.19686089 </v>
   <v>       0.26311007       0.80265483       0.19686089 </v>
   <v>       0.59644341       0.80265483       0.19686089 </v>
   <v>       0.92977674       0.80265483       0.19686089 </v>
   <v>       0.19734517       0.07022326       0.80313911 </v>
   <v>       0.53067851       0.07022326       0.80313911 </v>
   <v>       0.86401184       0.07022326       0.80313911 </v>
   <v>       0.19734517       0.40355659       0.80313911 </v>
   <v>       0.53067851       0.40355659       0.80313911 </v>
   <v>       0.86401184       0.40355659       0.80313911 </v>
   <v>       0.19734517       0.73688993       0.80313911 </v>
   <v>       0.53067851       0.73688993       0.80313911 </v>
   <v>       0.86401184       0.73688993       0.80313911 </v>
   <v>       0.00253935       0.20657296       0.62920335 </v>
   <v>       0.33587268       0.20657296       0.62920335 </v>
   <v>       0.66920601       0.20657296       0.62920335 </v>
   <v>       0.00253935       0.53990630       0.62920335 </v>
   <v>       0.33587268       0.53990630       0.62920335 </v>
   <v>       0.66920601       0.53990630       0.62920335 </v>
   <v>       0.00253935       0.87323963       0.62920335 </v>
   <v>       0.33587268       0.87323963       0.62920335 </v>
   <v>       0.66920601       0.87323963       0.62920335 </v>
   <v>       0.12676037       0.33079399       0.37079665 </v>
   <v>       0.46009370       0.33079399       0.37079665 </v>
   <v>       0.79342704       0.33079399       0.37079665 </v>
   <v>       0.12676037       0.66412732       0.37079665 </v>
   <v>       0.46009370       0.66412732       0.37079665 </v>
   <v>       0.79342704       0.66412732       0.37079665 </v>
   <v>       0.12676037       0.99746065       0.37079665 </v>
   <v>       0.46009370       0.99746065       0.37079665 </v>
   <v>       0.79342704       0.99746065       0.37079665 </v>
   <v>       0.06350899       0.26982435       0.00000000 </v>
   <v>       0.39684232       0.26982435       0.00000000 </v>
   <v>       0.73017565       0.26982435       0.00000000 </v>
   <v>       0.06350899       0.60315768       0.00000000 </v>
   <v>       0.39684232       0.60315768       0.00000000 </v>
   <v>       0.73017565       0.60315768       0.00000000 </v>
   <v>       0.06350899       0.93649101       0.00000000 </v>
   <v>       0.39684232       0.93649101       0.00000000 </v>
   <v>       0.73017565       0.93649101       0.00000000 </v>
   <v>       0.29027274       0.17214940       0.39352170 </v>
   <v>       0.62360607       0.17214940       0.39352170 </v>
   <v>       0.95693941       0.17214940       0.39352170 </v>
   <v>       0.29027274       0.50548273       0.39352170 </v>
   <v>       0.62360607       0.50548273       0.39352170 </v>
   <v>       0.95693941       0.50548273       0.39352170 </v>
   <v>       0.29027274       0.83881607       0.39352170 </v>
   <v>       0.62360607       0.83881607       0.39352170 </v>
   <v>       0.95693941       0.83881607       0.39352170 </v>
   <v>       0.16118393       0.04306059       0.60647830 </v>
   <v>       0.49451727       0.04306059       0.60647830 </v>
   <v>       0.82785060       0.04306059       0.60647830 </v>
   <v>       0.16118393       0.37639393       0.60647830 </v>
   <v>       0.49451727       0.37639393       0.60647830 </v>
   <v>       0.82785060       0.37639393       0.60647830 </v>
   <v>       0.16118393       0.70972726       0.60647830 </v>
   <v>       0.49451727       0.70972726       0.60647830 </v>
   <v>       0.82785060       0.70972726       0.60647830 </v>
   <v>       0.03761391       0.07731307       0.84448259 </v>
   <v>       0.37094724       0.07731307       0.84542777 </v>
   <v>       0.70428057       0.07731307       0.84542777 </v>
   <v>       0.03761391       0.41064640       0.84542777 </v>
   <v>       0.37094724       0.41064640       0.84542777 </v>
   <v>       0.70428057       0.41064640       0.84542777 </v>
   <v>       0.03761391       0.74397973       0.84542777 </v>
   <v>       0.37094724       0.74397973       0.84542777 </v>
   <v>       0.70428057       0.74397973       0.84542777 </v>
   <v>       0.25602027       0.29571943       0.15457223 </v>
   <v>       0.58935360       0.29571943       0.15457223 </v>
   <v>       0.92268693       0.29571943       0.15457223 </v>
   <v>       0.25602027       0.62905276       0.15457223 </v>
   <v>       0.58935360       0.62905276       0.15457223 </v>
   <v>       0.92268693       0.62905276       0.15457223 </v>
   <v>       0.25602027       0.96238609       0.15457223 </v>
   <v>       0.58935360       0.96238609       0.15457223 </v>
   <v>       0.92268693       0.96238609       0.15457223 </v>
  </varray>
 </structure>
</modeling>
