   7   7   1   0
  0.1321686E+02  0.5418086E-09  0.3831921E-09  0.6855158E-09  0.5000000E-15
  1.000000000000000E-004
  CAR 
 unknown system                          
     21.26891375    -59.53094719 2000      5.06075317      1.00000000
    -59.531  0.0000E+00  0.0000E+00  0.0000E+00  0.0000E+00
    -59.491  0.0000E+00  0.0000E+00  0.0000E+00  0.0000E+00
    -59.450  0.0000E+00  0.0000E+00  0.0000E+00  0.0000E+00
    -59.410  0.0000E+00  0.0000E+00  0.0000E+00  0.0000E+00
    -59.369  0.0000E+00  0.0000E+00  0.0000E+00  0.0000E+00
    -59.329  0.0000E+00  0.0000E+00  0.0000E+00  0.0000E+00
    -59.288  0.0000E+00  0.0000E+00  0.0000E+00  0.0000E+00
    -59.248  0.0000E+00  0.0000E+00  0.0000E+00  0.0000E+00
    -59.208  0.0000E+00  0.0000E+00  0.0000E+00  0.0000E+00
    -59.167  0.0000E+00  0.0000E+00  0.0000E+00  0.0000E+00
    -59.127  0.0000E+00  0.0000E+00  0.0000E+00  0.0000E+00
    -59.086  0.0000E+00  0.0000E+00  0.0000E+00  0.0000E+00
    -59.046  0.0000E+00  0.0000E+00  0.0000E+00  0.0000E+00
    -59.005  0.0000E+00  0.0000E+00  0.0000E+00  0.0000E+00
    -58.965  0.0000E+00  0.0000E+00  0.0000E+00  0.0000E+00
    -58.925  0.0000E+00  0.0000E+00  0.0000E+00  0.0000E+00
    -58.884  0.0000E+00  0.0000E+00  0.0000E+00  0.0000E+00
    -58.844  0.0000E+00  0.0000E+00  0.0000E+00  0.0000E+00
    -58.803  0.0000E+00  0.0000E+00  0.0000E+00  0.0000E+00
    -58.763  0.0000E+00  0.0000E+00  0.0000E+00  0.0000E+00
    -58.723  0.0000E+00  0.0000E+00  0.0000E+00  0.0000E+00
    -58.682  0.0000E+00  0.0000E+00  0.0000E+00  0.0000E+00
    -58.642  0.0000E+00  0.0000E+00  0.0000E+00  0.0000E+00
    -58.601  0.0000E+00  0.0000E+00  0.0000E+00  0.0000E+00
    -58.561  0.0000E+00  0.0000E+00  0.0000E+00  0.0000E+00
    -58.520  0.0000E+00  0.0000E+00  0.0000E+00  0.0000E+00
    -58.480  0.0000E+00  0.0000E+00  0.0000E+00  0.0000E+00
    -58.440  0.0000E+00  0.0000E+00  0.0000E+00  0.0000E+00
    -58.399  0.0000E+00  0.0000E+00  0.0000E+00  0.0000E+00
    -58.359  0.0000E+00  0.0000E+00  0.0000E+00  0.0000E+00
    -58.318  0.0000E+00  0.0000E+00  0.0000E+00  0.0000E+00
    -58.278  0.0000E+00  0.0000E+00  0.0000E+00  0.0000E+00
    -58.238  0.0000E+00  0.0000E+00  0.0000E+00  0.0000E+00
    -58.197  0.0000E+00  0.0000E+00  0.0000E+00  0.0000E+00
    -58.157  0.0000E+00  0.0000E+00  0.0000E+00  0.0000E+00
    -58.116  0.0000E+00  0.0000E+00  0.0000E+00  0.0000E+00
    -58.076  0.0000E+00  0.0000E+00  0.0000E+00  0.0000E+00
    -58.035  0.0000E+00  0.0000E+00  0.0000E+00  0.0000E+00
    -57.995  0.0000E+00  0.0000E+00  0.0000E+00  0.0000E+00
    -57.955  0.0000E+00  0.0000E+00  0.0000E+00  0.0000E+00
    -57.914  0.0000E+00  0.0000E+00  0.0000E+00  0.0000E+00
    -57.874  0.0000E+00  0.0000E+00  0.0000E+00  0.0000E+00
    -57.833  0.0000E+00  0.0000E+00  0.0000E+00  0.0000E+00
    -57.793  0.0000E+00  0.0000E+00  0.0000E+00  0.0000E+00
    -57.752  0.0000E+00  0.0000E+00  0.0000E+00  0.0000E+00
    -57.712  0.0000E+00  0.0000E+00  0.0000E+00  0.0000E+00
    -57.672  0.0000E+00  0.0000E+00  0.0000E+00  0.0000E+00
    -57.631  0.0000E+00  0.0000E+00  0.0000E+00  0.0000E+00
    -57.591  0.0000E+00  0.0000E+00  0.0000E+00  0.0000E+00
    -57.550  0.0000E+00  0.0000E+00  0.0000E+00  0.0000E+00
    -57.510  0.0000E+00  0.0000E+00  0.0000E+00  0.0000E+00
    -57.470  0.0000E+00  0.0000E+00  0.0000E+00  0.0000E+00
    -57.429  0.0000E+00  0.0000E+00  0.0000E+00  0.0000E+00
    -57.389  0.0000E+00  0.0000E+00  0.0000E+00  0.0000E+00
    -57.348  0.0000E+00  0.0000E+00  0.0000E+00  0.0000E+00
    -57.308  0.0000E+00  0.0000E+00  0.0000E+00  0.0000E+00
    -57.267  0.0000E+00  0.0000E+00  0.0000E+00  0.0000E+00
    -57.227  0.0000E+00  0.0000E+00  0.0000E+00  0.0000E+00
    -57.187  0.0000E+00  0.0000E+00  0.0000E+00  0.0000E+00
    -57.146  0.0000E+00  0.0000E+00  0.0000E+00  0.0000E+00
    -57.106  0.0000E+00  0.0000E+00  0.0000E+00  0.0000E+00
    -57.065  0.0000E+00  0.0000E+00  0.0000E+00  0.0000E+00
    -57.025  0.0000E+00  0.0000E+00  0.0000E+00  0.0000E+00
    -56.984  0.0000E+00  0.0000E+00  0.0000E+00  0.0000E+00
    -56.944  0.0000E+00  0.0000E+00  0.0000E+00  0.0000E+00
    -56.904  0.0000E+00  0.0000E+00  0.0000E+00  0.0000E+00
    -56.863  0.0000E+00  0.0000E+00  0.0000E+00  0.0000E+00
    -56.823  0.0000E+00  0.0000E+00  0.0000E+00  0.0000E+00
    -56.782  0.0000E+00  0.0000E+00  0.0000E+00  0.0000E+00
    -56.742  0.0000E+00  0.0000E+00  0.0000E+00  0.0000E+00
    -56.702  0.0000E+00  0.0000E+00  0.0000E+00  0.0000E+00
    -56.661  0.0000E+00  0.0000E+00  0.0000E+00  0.0000E+00
    -56.621  0.0000E+00  0.0000E+00  0.0000E+00  0.0000E+00
    -56.580  0.0000E+00  0.0000E+00  0.0000E+00  0.0000E+00
    -56.540  0.0000E+00  0.0000E+00  0.0000E+00  0.0000E+00
    -56.499  0.0000E+00  0.0000E+00  0.0000E+00  0.0000E+00
    -56.459  0.0000E+00  0.0000E+00  0.0000E+00  0.0000E+00
    -56.419  0.0000E+00  0.0000E+00  0.0000E+00  0.0000E+00
    -56.378  0.0000E+00  0.0000E+00  0.0000E+00  0.0000E+00
    -56.338  0.0000E+00  0.0000E+00  0.0000E+00  0.0000E+00
    -56.297  0.0000E+00  0.0000E+00  0.0000E+00  0.0000E+00
    -56.257  0.0000E+00  0.0000E+00  0.0000E+00  0.0000E+00
    -56.216  0.0000E+00  0.0000E+00  0.0000E+00  0.0000E+00
    -56.176  0.0000E+00  0.0000E+00  0.0000E+00  0.0000E+00
    -56.136  0.7595E-13  0.0000E+00  0.3070E-14  0.0000E+00
    -56.095  0.3791E-09  0.0000E+00  0.1533E-10  0.0000E+00
    -56.055  0.5247E-06  0.0000E+00  0.2122E-07  0.0000E+00
    -56.014  0.2035E-03  0.0000E+00  0.8248E-05  0.0000E+00
    -55.974  0.2242E-01  0.0000E+00  0.9146E-03  0.0000E+00
    -55.934  0.7151E+00  0.0000E+00  0.2982E-01  0.0000E+00
    -55.893  0.6766E+01  0.0000E+00  0.3033E+00  0.0000E+00
    -55.853  0.1948E+02  0.0000E+00  0.1091E+01  0.0000E+00
    -55.812  0.1733E+02  0.0000E+00  0.1791E+01  0.0000E+00
    -55.772  0.4761E+01  0.0000E+00  0.1984E+01  0.0000E+00
    -55.731  0.3960E+00  0.0000E+00  0.2000E+01  0.0000E+00
    -55.691  0.9721E-02  0.0000E+00  0.2000E+01  0.0000E+00
    -55.651  0.6879E-04  0.0000E+00  0.2000E+01  0.0000E+00
    -55.610  0.1378E-06  0.0000E+00  0.2000E+01  0.0000E+00
    -55.570  0.7720E-10  0.0000E+00  0.2000E+01  0.0000E+00
    -55.529  0.1114E-13  0.0000E+00  0.2000E+01  0.0000E+00
    -55.489  0.0000E+00  0.0000E+00  0.2000E+01  0.0000E+00
    -55.449  0.0000E+00  0.0000E+00  0.2000E+01  0.0000E+00
    -55.408  0.0000E+00  0.0000E+00  0.2000E+01  0.0000E+00
    -55.368  0.0000E+00  0.0000E+00  0.2000E+01  0.0000E+00
    -55.327  0.0000E+00  0.0000E+00  0.2000E+01  0.0000E+00
    -55.287  0.0000E+00  0.0000E+00  0.2000E+01  0.0000E+00
    -55.246  0.0000E+00  0.0000E+00  0.2000E+01  0.0000E+00
    -55.206  0.0000E+00  0.0000E+00  0.2000E+01  0.0000E+00
    -55.166  0.0000E+00  0.0000E+00  0.2000E+01  0.0000E+00
    -55.125  0.0000E+00  0.0000E+00  0.2000E+01  0.0000E+00
    -55.085  0.0000E+00  0.0000E+00  0.2000E+01  0.0000E+00
    -55.044  0.0000E+00  0.0000E+00  0.2000E+01  0.0000E+00
    -55.004  0.0000E+00  0.0000E+00  0.2000E+01  0.0000E+00
    -54.963  0.0000E+00  0.0000E+00  0.2000E+01  0.0000E+00
    -54.923  0.0000E+00  0.0000E+00  0.2000E+01  0.0000E+00
    -54.883  0.0000E+00  0.0000E+00  0.2000E+01  0.0000E+00
    -54.842  0.0000E+00  0.0000E+00  0.2000E+01  0.0000E+00
    -54.802  0.0000E+00  0.0000E+00  0.2000E+01  0.0000E+00
    -54.761  0.0000E+00  0.0000E+00  0.2000E+01  0.0000E+00
    -54.721  0.0000E+00  0.0000E+00  0.2000E+01  0.0000E+00
    -54.681  0.0000E+00  0.0000E+00  0.2000E+01  0.0000E+00
    -54.640  0.0000E+00  0.0000E+00  0.2000E+01  0.0000E+00
    -54.600  0.9470E-14  0.0000E+00  0.2000E+01  0.0000E+00
    -54.559  0.6903E-10  0.0000E+00  0.2000E+01  0.0000E+00
    -54.519  0.1392E-06  0.0000E+00  0.2000E+01  0.0000E+00
    -54.478  0.7855E-04  0.0000E+00  0.2000E+01  0.0000E+00
    -54.438  0.1255E-01  0.0000E+00  0.2001E+01  0.0000E+00
    -54.398  0.5771E+00  0.0000E+00  0.2024E+01  0.0000E+00
    -54.357  0.7824E+01  0.0000E+00  0.2340E+01  0.0000E+00
    -54.317  0.3208E+02  0.0000E+00  0.3637E+01  0.0000E+00
    -54.276  0.4059E+02  0.0000E+00  0.5277E+01  0.0000E+00
    -54.236  0.1591E+02  0.0000E+00  0.5920E+01  0.0000E+00
    -54.195  0.1903E+01  0.0000E+00  0.5997E+01  0.0000E+00
    -54.155  0.6780E-01  0.0000E+00  0.6000E+01  0.0000E+00
    -54.115  0.7018E-03  0.0000E+00  0.6000E+01  0.0000E+00
    -54.074  0.2069E-05  0.0000E+00  0.6000E+01  0.0000E+00
    -54.034  0.1714E-08  0.0000E+00  0.6000E+01  0.0000E+00
    -53.993  0.3951E-12  0.0000E+00  0.6000E+01  0.0000E+00
    -53.953  0.0000E+00  0.0000E+00  0.6000E+01  0.0000E+00
    -53.913  0.0000E+00  0.0000E+00  0.6000E+01  0.0000E+00
    -53.872  0.0000E+00  0.0000E+00  0.6000E+01  0.0000E+00
    -53.832  0.0000E+00  0.0000E+00  0.6000E+01  0.0000E+00
    -53.791  0.0000E+00  0.0000E+00  0.6000E+01  0.0000E+00
    -53.751  0.0000E+00  0.0000E+00  0.6000E+01  0.0000E+00
    -53.710  0.0000E+00  0.0000E+00  0.6000E+01  0.0000E+00
    -53.670  0.0000E+00  0.0000E+00  0.6000E+01  0.0000E+00
    -53.630  0.0000E+00  0.0000E+00  0.6000E+01  0.0000E+00
    -53.589  0.0000E+00  0.0000E+00  0.6000E+01  0.0000E+00
    -53.549  0.0000E+00  0.0000E+00  0.6000E+01  0.0000E+00
    -53.508  0.0000E+00  0.0000E+00  0.6000E+01  0.0000E+00
    -53.468  0.0000E+00  0.0000E+00  0.6000E+01  0.0000E+00
    -53.428  0.0000E+00  0.0000E+00  0.6000E+01  0.0000E+00
    -53.387  0.0000E+00  0.0000E+00  0.6000E+01  0.0000E+00
    -53.347  0.0000E+00  0.0000E+00  0.6000E+01  0.0000E+00
    -53.306  0.0000E+00  0.0000E+00  0.6000E+01  0.0000E+00
    -53.266  0.0000E+00  0.0000E+00  0.6000E+01  0.0000E+00
    -53.225  0.0000E+00  0.0000E+00  0.6000E+01  0.0000E+00
    -53.185  0.0000E+00  0.0000E+00  0.6000E+01  0.0000E+00
    -53.145  0.0000E+00  0.0000E+00  0.6000E+01  0.0000E+00
    -53.104  0.0000E+00  0.0000E+00  0.6000E+01  0.0000E+00
    -53.064  0.0000E+00  0.0000E+00  0.6000E+01  0.0000E+00
    -53.023  0.0000E+00  0.0000E+00  0.6000E+01  0.0000E+00
    -52.983  0.0000E+00  0.0000E+00  0.6000E+01  0.0000E+00
    -52.942  0.0000E+00  0.0000E+00  0.6000E+01  0.0000E+00
    -52.902  0.0000E+00  0.0000E+00  0.6000E+01  0.0000E+00
    -52.862  0.0000E+00  0.0000E+00  0.6000E+01  0.0000E+00
    -52.821  0.0000E+00  0.0000E+00  0.6000E+01  0.0000E+00
    -52.781  0.0000E+00  0.0000E+00  0.6000E+01  0.0000E+00
    -52.740  0.0000E+00  0.0000E+00  0.6000E+01  0.0000E+00
    -52.700  0.0000E+00  0.0000E+00  0.6000E+01  0.0000E+00
    -52.660  0.0000E+00  0.0000E+00  0.6000E+01  0.0000E+00
    -52.619  0.0000E+00  0.0000E+00  0.6000E+01  0.0000E+00
    -52.579  0.0000E+00  0.0000E+00  0.6000E+01  0.0000E+00
    -52.538  0.0000E+00  0.0000E+00  0.6000E+01  0.0000E+00
    -52.498  0.0000E+00  0.0000E+00  0.6000E+01  0.0000E+00
    -52.457  0.0000E+00  0.0000E+00  0.6000E+01  0.0000E+00
    -52.417  0.0000E+00  0.0000E+00  0.6000E+01  0.0000E+00
    -52.377  0.0000E+00  0.0000E+00  0.6000E+01  0.0000E+00
    -52.336  0.0000E+00  0.0000E+00  0.6000E+01  0.0000E+00
    -52.296  0.0000E+00  0.0000E+00  0.6000E+01  0.0000E+00
    -52.255  0.0000E+00  0.0000E+00  0.6000E+01  0.0000E+00
    -52.215  0.0000E+00  0.0000E+00  0.6000E+01  0.0000E+00
    -52.174  0.0000E+00  0.0000E+00  0.6000E+01  0.0000E+00
    -52.134  0.0000E+00  0.0000E+00  0.6000E+01  0.0000E+00
    -52.094  0.0000E+00  0.0000E+00  0.6000E+01  0.0000E+00
    -52.053  0.0000E+00  0.0000E+00  0.6000E+01  0.0000E+00
    -52.013  0.0000E+00  0.0000E+00  0.6000E+01  0.0000E+00
    -51.972  0.0000E+00  0.0000E+00  0.6000E+01  0.0000E+00
    -51.932  0.0000E+00  0.0000E+00  0.6000E+01  0.0000E+00
    -51.892  0.0000E+00  0.0000E+00  0.6000E+01  0.0000E+00
    -51.851  0.0000E+00  0.0000E+00  0.6000E+01  0.0000E+00
    -51.811  0.0000E+00  0.0000E+00  0.6000E+01  0.0000E+00
    -51.770  0.0000E+00  0.0000E+00  0.6000E+01  0.0000E+00
    -51.730  0.0000E+00  0.0000E+00  0.6000E+01  0.0000E+00
    -51.689  0.0000E+00  0.0000E+00  0.6000E+01  0.0000E+00
    -51.649  0.0000E+00  0.0000E+00  0.6000E+01  0.0000E+00
    -51.609  0.0000E+00  0.0000E+00  0.6000E+01  0.0000E+00
    -51.568  0.0000E+00  0.0000E+00  0.6000E+01  0.0000E+00
    -51.528  0.0000E+00  0.0000E+00  0.6000E+01  0.0000E+00
    -51.487  0.0000E+00  0.0000E+00  0.6000E+01  0.0000E+00
    -51.447  0.0000E+00  0.0000E+00  0.6000E+01  0.0000E+00
    -51.406  0.0000E+00  0.0000E+00  0.6000E+01  0.0000E+00
    -51.366  0.0000E+00  0.0000E+00  0.6000E+01  0.0000E+00
    -51.326  0.0000E+00  0.0000E+00  0.6000E+01  0.0000E+00
    -51.285  0.0000E+00  0.0000E+00  0.6000E+01  0.0000E+00
    -51.245  0.0000E+00  0.0000E+00  0.6000E+01  0.0000E+00
    -51.204  0.0000E+00  0.0000E+00  0.6000E+01  0.0000E+00
    -51.164  0.0000E+00  0.0000E+00  0.6000E+01  0.0000E+00
    -51.124  0.0000E+00  0.0000E+00  0.6000E+01  0.0000E+00
    -51.083  0.0000E+00  0.0000E+00  0.6000E+01  0.0000E+00
    -51.043  0.0000E+00  0.0000E+00  0.6000E+01  0.0000E+00
    -51.002  0.0000E+00  0.0000E+00  0.6000E+01  0.0000E+00
    -50.962  0.0000E+00  0.0000E+00  0.6000E+01  0.0000E+00
    -50.921  0.0000E+00  0.0000E+00  0.6000E+01  0.0000E+00
    -50.881  0.0000E+00  0.0000E+00  0.6000E+01  0.0000E+00
    -50.841  0.0000E+00  0.0000E+00  0.6000E+01  0.0000E+00
    -50.800  0.0000E+00  0.0000E+00  0.6000E+01  0.0000E+00
    -50.760  0.0000E+00  0.0000E+00  0.6000E+01  0.0000E+00
    -50.719  0.0000E+00  0.0000E+00  0.6000E+01  0.0000E+00
    -50.679  0.0000E+00  0.0000E+00  0.6000E+01  0.0000E+00
    -50.639  0.0000E+00  0.0000E+00  0.6000E+01  0.0000E+00
    -50.598  0.0000E+00  0.0000E+00  0.6000E+01  0.0000E+00
    -50.558  0.0000E+00  0.0000E+00  0.6000E+01  0.0000E+00
    -50.517  0.0000E+00  0.0000E+00  0.6000E+01  0.0000E+00
    -50.477  0.0000E+00  0.0000E+00  0.6000E+01  0.0000E+00
    -50.436  0.0000E+00  0.0000E+00  0.6000E+01  0.0000E+00
    -50.396  0.0000E+00  0.0000E+00  0.6000E+01  0.0000E+00
    -50.356  0.0000E+00  0.0000E+00  0.6000E+01  0.0000E+00
    -50.315  0.0000E+00  0.0000E+00  0.6000E+01  0.0000E+00
    -50.275  0.0000E+00  0.0000E+00  0.6000E+01  0.0000E+00
    -50.234  0.0000E+00  0.0000E+00  0.6000E+01  0.0000E+00
    -50.194  0.0000E+00  0.0000E+00  0.6000E+01  0.0000E+00
    -50.153  0.0000E+00  0.0000E+00  0.6000E+01  0.0000E+00
    -50.113  0.0000E+00  0.0000E+00  0.6000E+01  0.0000E+00
    -50.073  0.0000E+00  0.0000E+00  0.6000E+01  0.0000E+00
    -50.032  0.0000E+00  0.0000E+00  0.6000E+01  0.0000E+00
    -49.992  0.0000E+00  0.0000E+00  0.6000E+01  0.0000E+00
    -49.951  0.0000E+00  0.0000E+00  0.6000E+01  0.0000E+00
    -49.911  0.0000E+00  0.0000E+00  0.6000E+01  0.0000E+00
    -49.871  0.0000E+00  0.0000E+00  0.6000E+01  0.0000E+00
    -49.830  0.0000E+00  0.0000E+00  0.6000E+01  0.0000E+00
    -49.790  0.0000E+00  0.0000E+00  0.6000E+01  0.0000E+00
    -49.749  0.0000E+00  0.0000E+00  0.6000E+01  0.0000E+00
    -49.709  0.0000E+00  0.0000E+00  0.6000E+01  0.0000E+00
    -49.668  0.0000E+00  0.0000E+00  0.6000E+01  0.0000E+00
    -49.628  0.0000E+00  0.0000E+00  0.6000E+01  0.0000E+00
    -49.588  0.0000E+00  0.0000E+00  0.6000E+01  0.0000E+00
    -49.547  0.0000E+00  0.0000E+00  0.6000E+01  0.0000E+00
    -49.507  0.0000E+00  0.0000E+00  0.6000E+01  0.0000E+00
    -49.466  0.0000E+00  0.1996E-11  0.6000E+01  0.8066E-13
    -49.426  0.0000E+00  0.6203E-08  0.6000E+01  0.2508E-09
    -49.385  0.0000E+00  0.5388E-05  0.6000E+01  0.2180E-06
    -49.345  0.0000E+00  0.1329E-02  0.6000E+01  0.5392E-04
    -49.305  0.0000E+00  0.9579E-01  0.6000E+01  0.3926E-02
    -49.264  0.0000E+00  0.2137E+01  0.6000E+01  0.9031E-01
    -49.224  0.0000E+00  0.1627E+02  0.6000E+01  0.7480E+00
    -49.183  0.0000E+00  0.4738E+02  0.6000E+01  0.2663E+01
    -49.143  0.0000E+00  0.5503E+02  0.6000E+01  0.4887E+01
    -49.103  0.0000E+00  0.2387E+02  0.6000E+01  0.5852E+01
    -49.062  0.0000E+00  0.3496E+01  0.6000E+01  0.5993E+01
    -49.022  0.0000E+00  0.1598E+00  0.6000E+01  0.6000E+01
    -48.981  0.0000E+00  0.2167E-02  0.6000E+01  0.6000E+01
    -48.941  0.0000E+00  0.8458E-05  0.6000E+01  0.6000E+01
    -48.900  0.0000E+00  0.9322E-08  0.6000E+01  0.6000E+01
    -48.860  0.0000E+00  0.2869E-11  0.6000E+01  0.6000E+01
    -48.820  0.0000E+00  0.0000E+00  0.6000E+01  0.6000E+01
    -48.779  0.0000E+00  0.0000E+00  0.6000E+01  0.6000E+01
    -48.739  0.0000E+00  0.0000E+00  0.6000E+01  0.6000E+01
    -48.698  0.0000E+00  0.0000E+00  0.6000E+01  0.6000E+01
    -48.658  0.0000E+00  0.0000E+00  0.6000E+01  0.6000E+01
    -48.618  0.0000E+00  0.0000E+00  0.6000E+01  0.6000E+01
    -48.577  0.0000E+00  0.0000E+00  0.6000E+01  0.6000E+01
    -48.537  0.0000E+00  0.0000E+00  0.6000E+01  0.6000E+01
    -48.496  0.0000E+00  0.0000E+00  0.6000E+01  0.6000E+01
    -48.456  0.0000E+00  0.0000E+00  0.6000E+01  0.6000E+01
    -48.415  0.0000E+00  0.0000E+00  0.6000E+01  0.6000E+01
    -48.375  0.0000E+00  0.0000E+00  0.6000E+01  0.6000E+01
    -48.335  0.0000E+00  0.0000E+00  0.6000E+01  0.6000E+01
    -48.294  0.0000E+00  0.0000E+00  0.6000E+01  0.6000E+01
    -48.254  0.0000E+00  0.0000E+00  0.6000E+01  0.6000E+01
    -48.213  0.0000E+00  0.0000E+00  0.6000E+01  0.6000E+01
    -48.173  0.0000E+00  0.0000E+00  0.6000E+01  0.6000E+01
    -48.132  0.0000E+00  0.0000E+00  0.6000E+01  0.6000E+01
    -48.092  0.0000E+00  0.0000E+00  0.6000E+01  0.6000E+01
    -48.052  0.0000E+00  0.0000E+00  0.6000E+01  0.6000E+01
    -48.011  0.0000E+00  0.0000E+00  0.6000E+01  0.6000E+01
    -47.971  0.0000E+00  0.0000E+00  0.6000E+01  0.6000E+01
    -47.930  0.0000E+00  0.0000E+00  0.6000E+01  0.6000E+01
    -47.890  0.0000E+00  0.0000E+00  0.6000E+01  0.6000E+01
    -47.850  0.0000E+00  0.0000E+00  0.6000E+01  0.6000E+01
    -47.809  0.0000E+00  0.0000E+00  0.6000E+01  0.6000E+01
    -47.769  0.0000E+00  0.0000E+00  0.6000E+01  0.6000E+01
    -47.728  0.0000E+00  0.0000E+00  0.6000E+01  0.6000E+01
    -47.688  0.0000E+00  0.0000E+00  0.6000E+01  0.6000E+01
    -47.647  0.0000E+00  0.0000E+00  0.6000E+01  0.6000E+01
    -47.607  0.0000E+00  0.0000E+00  0.6000E+01  0.6000E+01
    -47.567  0.0000E+00  0.0000E+00  0.6000E+01  0.6000E+01
    -47.526  0.0000E+00  0.0000E+00  0.6000E+01  0.6000E+01
    -47.486  0.0000E+00  0.0000E+00  0.6000E+01  0.6000E+01
    -47.445  0.0000E+00  0.0000E+00  0.6000E+01  0.6000E+01
    -47.405  0.0000E+00  0.0000E+00  0.6000E+01  0.6000E+01
    -47.364  0.0000E+00  0.0000E+00  0.6000E+01  0.6000E+01
    -47.324  0.0000E+00  0.0000E+00  0.6000E+01  0.6000E+01
    -47.284  0.0000E+00  0.0000E+00  0.6000E+01  0.6000E+01
    -47.243  0.0000E+00  0.0000E+00  0.6000E+01  0.6000E+01
    -47.203  0.0000E+00  0.0000E+00  0.6000E+01  0.6000E+01
    -47.162  0.0000E+00  0.0000E+00  0.6000E+01  0.6000E+01
    -47.122  0.0000E+00  0.0000E+00  0.6000E+01  0.6000E+01
    -47.082  0.0000E+00  0.0000E+00  0.6000E+01  0.6000E+01
    -47.041  0.0000E+00  0.0000E+00  0.6000E+01  0.6000E+01
    -47.001  0.0000E+00  0.0000E+00  0.6000E+01  0.6000E+01
    -46.960  0.0000E+00  0.0000E+00  0.6000E+01  0.6000E+01
    -46.920  0.0000E+00  0.0000E+00  0.6000E+01  0.6000E+01
    -46.879  0.0000E+00  0.0000E+00  0.6000E+01  0.6000E+01
    -46.839  0.0000E+00  0.0000E+00  0.6000E+01  0.6000E+01
    -46.799  0.0000E+00  0.0000E+00  0.6000E+01  0.6000E+01
    -46.758  0.0000E+00  0.0000E+00  0.6000E+01  0.6000E+01
    -46.718  0.0000E+00  0.0000E+00  0.6000E+01  0.6000E+01
    -46.677  0.0000E+00  0.0000E+00  0.6000E+01  0.6000E+01
    -46.637  0.0000E+00  0.0000E+00  0.6000E+01  0.6000E+01
    -46.597  0.0000E+00  0.0000E+00  0.6000E+01  0.6000E+01
    -46.556  0.0000E+00  0.0000E+00  0.6000E+01  0.6000E+01
    -46.516  0.0000E+00  0.0000E+00  0.6000E+01  0.6000E+01
    -46.475  0.0000E+00  0.0000E+00  0.6000E+01  0.6000E+01
    -46.435  0.0000E+00  0.0000E+00  0.6000E+01  0.6000E+01
    -46.394  0.0000E+00  0.0000E+00  0.6000E+01  0.6000E+01
    -46.354  0.0000E+00  0.0000E+00  0.6000E+01  0.6000E+01
    -46.314  0.0000E+00  0.0000E+00  0.6000E+01  0.6000E+01
    -46.273  0.0000E+00  0.0000E+00  0.6000E+01  0.6000E+01
    -46.233  0.0000E+00  0.0000E+00  0.6000E+01  0.6000E+01
    -46.192  0.0000E+00  0.0000E+00  0.6000E+01  0.6000E+01
    -46.152  0.0000E+00  0.0000E+00  0.6000E+01  0.6000E+01
    -46.111  0.0000E+00  0.0000E+00  0.6000E+01  0.6000E+01
    -46.071  0.0000E+00  0.0000E+00  0.6000E+01  0.6000E+01
    -46.031  0.0000E+00  0.0000E+00  0.6000E+01  0.6000E+01
    -45.990  0.0000E+00  0.0000E+00  0.6000E+01  0.6000E+01
    -45.950  0.0000E+00  0.0000E+00  0.6000E+01  0.6000E+01
    -45.909  0.0000E+00  0.0000E+00  0.6000E+01  0.6000E+01
    -45.869  0.0000E+00  0.0000E+00  0.6000E+01  0.6000E+01
    -45.829  0.0000E+00  0.0000E+00  0.6000E+01  0.6000E+01
    -45.788  0.0000E+00  0.0000E+00  0.6000E+01  0.6000E+01
    -45.748  0.0000E+00  0.0000E+00  0.6000E+01  0.6000E+01
    -45.707  0.0000E+00  0.0000E+00  0.6000E+01  0.6000E+01
    -45.667  0.0000E+00  0.0000E+00  0.6000E+01  0.6000E+01
    -45.626  0.0000E+00  0.0000E+00  0.6000E+01  0.6000E+01
    -45.586  0.0000E+00  0.0000E+00  0.6000E+01  0.6000E+01
    -45.546  0.0000E+00  0.0000E+00  0.6000E+01  0.6000E+01
    -45.505  0.0000E+00  0.0000E+00  0.6000E+01  0.6000E+01
    -45.465  0.0000E+00  0.0000E+00  0.6000E+01  0.6000E+01
    -45.424  0.0000E+00  0.0000E+00  0.6000E+01  0.6000E+01
    -45.384  0.0000E+00  0.0000E+00  0.6000E+01  0.6000E+01
    -45.343  0.0000E+00  0.0000E+00  0.6000E+01  0.6000E+01
    -45.303  0.0000E+00  0.0000E+00  0.6000E+01  0.6000E+01
    -45.263  0.0000E+00  0.0000E+00  0.6000E+01  0.6000E+01
    -45.222  0.0000E+00  0.0000E+00  0.6000E+01  0.6000E+01
    -45.182  0.0000E+00  0.0000E+00  0.6000E+01  0.6000E+01
    -45.141  0.0000E+00  0.0000E+00  0.6000E+01  0.6000E+01
    -45.101  0.0000E+00  0.0000E+00  0.6000E+01  0.6000E+01
    -45.061  0.0000E+00  0.0000E+00  0.6000E+01  0.6000E+01
    -45.020  0.0000E+00  0.0000E+00  0.6000E+01  0.6000E+01
    -44.980  0.0000E+00  0.0000E+00  0.6000E+01  0.6000E+01
    -44.939  0.0000E+00  0.0000E+00  0.6000E+01  0.6000E+01
    -44.899  0.0000E+00  0.0000E+00  0.6000E+01  0.6000E+01
    -44.858  0.0000E+00  0.0000E+00  0.6000E+01  0.6000E+01
    -44.818  0.0000E+00  0.0000E+00  0.6000E+01  0.6000E+01
    -44.778  0.0000E+00  0.0000E+00  0.6000E+01  0.6000E+01
    -44.737  0.0000E+00  0.0000E+00  0.6000E+01  0.6000E+01
    -44.697  0.0000E+00  0.0000E+00  0.6000E+01  0.6000E+01
    -44.656  0.0000E+00  0.0000E+00  0.6000E+01  0.6000E+01
    -44.616  0.0000E+00  0.0000E+00  0.6000E+01  0.6000E+01
    -44.575  0.0000E+00  0.0000E+00  0.6000E+01  0.6000E+01
    -44.535  0.0000E+00  0.0000E+00  0.6000E+01  0.6000E+01
    -44.495  0.0000E+00  0.0000E+00  0.6000E+01  0.6000E+01
    -44.454  0.0000E+00  0.0000E+00  0.6000E+01  0.6000E+01
    -44.414  0.0000E+00  0.0000E+00  0.6000E+01  0.6000E+01
    -44.373  0.0000E+00  0.0000E+00  0.6000E+01  0.6000E+01
    -44.333  0.0000E+00  0.0000E+00  0.6000E+01  0.6000E+01
    -44.293  0.0000E+00  0.0000E+00  0.6000E+01  0.6000E+01
    -44.252  0.0000E+00  0.0000E+00  0.6000E+01  0.6000E+01
    -44.212  0.0000E+00  0.0000E+00  0.6000E+01  0.6000E+01
    -44.171  0.0000E+00  0.0000E+00  0.6000E+01  0.6000E+01
    -44.131  0.0000E+00  0.0000E+00  0.6000E+01  0.6000E+01
    -44.090  0.0000E+00  0.0000E+00  0.6000E+01  0.6000E+01
    -44.050  0.0000E+00  0.0000E+00  0.6000E+01  0.6000E+01
    -44.010  0.0000E+00  0.0000E+00  0.6000E+01  0.6000E+01
    -43.969  0.0000E+00  0.0000E+00  0.6000E+01  0.6000E+01
    -43.929  0.0000E+00  0.0000E+00  0.6000E+01  0.6000E+01
    -43.888  0.0000E+00  0.0000E+00  0.6000E+01  0.6000E+01
    -43.848  0.0000E+00  0.0000E+00  0.6000E+01  0.6000E+01
    -43.808  0.0000E+00  0.0000E+00  0.6000E+01  0.6000E+01
    -43.767  0.0000E+00  0.0000E+00  0.6000E+01  0.6000E+01
    -43.727  0.0000E+00  0.0000E+00  0.6000E+01  0.6000E+01
    -43.686  0.0000E+00  0.0000E+00  0.6000E+01  0.6000E+01
    -43.646  0.0000E+00  0.0000E+00  0.6000E+01  0.6000E+01
    -43.605  0.0000E+00  0.0000E+00  0.6000E+01  0.6000E+01
    -43.565  0.0000E+00  0.0000E+00  0.6000E+01  0.6000E+01
    -43.525  0.0000E+00  0.0000E+00  0.6000E+01  0.6000E+01
    -43.484  0.0000E+00  0.0000E+00  0.6000E+01  0.6000E+01
    -43.444  0.0000E+00  0.0000E+00  0.6000E+01  0.6000E+01
    -43.403  0.0000E+00  0.0000E+00  0.6000E+01  0.6000E+01
    -43.363  0.0000E+00  0.2861E-16  0.6000E+01  0.6000E+01
    -43.322  0.6027E-12  0.7817E-12  0.6000E+01  0.6000E+01
    -43.282  0.1738E-08  0.2175E-08  0.6000E+01  0.6000E+01
    -43.242  0.1450E-05  0.1752E-05  0.6000E+01  0.6000E+01
    -43.201  0.3591E-03  0.4195E-03  0.6000E+01  0.6000E+01
    -43.161  0.2740E-01  0.3096E-01  0.6001E+01  0.6001E+01
    -43.120  0.6750E+00  0.7383E+00  0.6028E+01  0.6031E+01
    -43.080  0.5653E+01  0.5984E+01  0.6257E+01  0.6273E+01
    -43.040  0.1682E+02  0.1719E+02  0.6937E+01  0.6968E+01
    -42.999  0.1817E+02  0.1789E+02  0.7671E+01  0.7691E+01
    -42.959  0.7110E+01  0.6718E+01  0.7959E+01  0.7963E+01
    -42.918  0.9794E+00  0.8846E+00  0.7998E+01  0.7998E+01
    -42.878  0.4549E-01  0.3914E-01  0.8000E+01  0.8000E+01
    -42.837  0.6792E-03  0.5550E-03  0.8000E+01  0.8000E+01
    -42.797  0.3120E-05  0.2416E-05  0.8000E+01  0.8000E+01
    -42.757  0.4261E-08  0.3123E-08  0.8000E+01  0.8000E+01
    -42.716  0.1687E-11  0.1169E-11  0.8000E+01  0.8000E+01
    -42.676  0.0000E+00  0.0000E+00  0.8000E+01  0.8000E+01
    -42.635  0.0000E+00  0.0000E+00  0.8000E+01  0.8000E+01
    -42.595  0.0000E+00  0.0000E+00  0.8000E+01  0.8000E+01
    -42.554  0.0000E+00  0.0000E+00  0.8000E+01  0.8000E+01
    -42.514  0.0000E+00  0.0000E+00  0.8000E+01  0.8000E+01
    -42.474  0.0000E+00  0.0000E+00  0.8000E+01  0.8000E+01
    -42.433  0.0000E+00  0.0000E+00  0.8000E+01  0.8000E+01
    -42.393  0.0000E+00  0.0000E+00  0.8000E+01  0.8000E+01
    -42.352  0.0000E+00  0.0000E+00  0.8000E+01  0.8000E+01
    -42.312  0.0000E+00  0.0000E+00  0.8000E+01  0.8000E+01
    -42.272  0.0000E+00  0.0000E+00  0.8000E+01  0.8000E+01
    -42.231  0.0000E+00  0.0000E+00  0.8000E+01  0.8000E+01
    -42.191  0.0000E+00  0.0000E+00  0.8000E+01  0.8000E+01
    -42.150  0.0000E+00  0.0000E+00  0.8000E+01  0.8000E+01
    -42.110  0.0000E+00  0.0000E+00  0.8000E+01  0.8000E+01
    -42.069  0.0000E+00  0.0000E+00  0.8000E+01  0.8000E+01
    -42.029  0.0000E+00  0.0000E+00  0.8000E+01  0.8000E+01
    -41.989  0.0000E+00  0.0000E+00  0.8000E+01  0.8000E+01
    -41.948  0.0000E+00  0.0000E+00  0.8000E+01  0.8000E+01
    -41.908  0.0000E+00  0.0000E+00  0.8000E+01  0.8000E+01
    -41.867  0.0000E+00  0.0000E+00  0.8000E+01  0.8000E+01
    -41.827  0.0000E+00  0.0000E+00  0.8000E+01  0.8000E+01
    -41.787  0.0000E+00  0.0000E+00  0.8000E+01  0.8000E+01
    -41.746  0.0000E+00  0.0000E+00  0.8000E+01  0.8000E+01
    -41.706  0.0000E+00  0.0000E+00  0.8000E+01  0.8000E+01
    -41.665  0.0000E+00  0.0000E+00  0.8000E+01  0.8000E+01
    -41.625  0.0000E+00  0.0000E+00  0.8000E+01  0.8000E+01
    -41.584  0.0000E+00  0.0000E+00  0.8000E+01  0.8000E+01
    -41.544  0.0000E+00  0.0000E+00  0.8000E+01  0.8000E+01
    -41.504  0.0000E+00  0.0000E+00  0.8000E+01  0.8000E+01
    -41.463  0.0000E+00  0.0000E+00  0.8000E+01  0.8000E+01
    -41.423  0.0000E+00  0.0000E+00  0.8000E+01  0.8000E+01
    -41.382  0.0000E+00  0.0000E+00  0.8000E+01  0.8000E+01
    -41.342  0.0000E+00  0.0000E+00  0.8000E+01  0.8000E+01
    -41.301  0.0000E+00  0.0000E+00  0.8000E+01  0.8000E+01
    -41.261  0.0000E+00  0.0000E+00  0.8000E+01  0.8000E+01
    -41.221  0.0000E+00  0.0000E+00  0.8000E+01  0.8000E+01
    -41.180  0.0000E+00  0.0000E+00  0.8000E+01  0.8000E+01
    -41.140  0.0000E+00  0.0000E+00  0.8000E+01  0.8000E+01
    -41.099  0.0000E+00  0.0000E+00  0.8000E+01  0.8000E+01
    -41.059  0.0000E+00  0.0000E+00  0.8000E+01  0.8000E+01
    -41.019  0.0000E+00  0.0000E+00  0.8000E+01  0.8000E+01
    -40.978  0.0000E+00  0.0000E+00  0.8000E+01  0.8000E+01
    -40.938  0.0000E+00  0.0000E+00  0.8000E+01  0.8000E+01
    -40.897  0.0000E+00  0.0000E+00  0.8000E+01  0.8000E+01
    -40.857  0.0000E+00  0.0000E+00  0.8000E+01  0.8000E+01
    -40.816  0.0000E+00  0.0000E+00  0.8000E+01  0.8000E+01
    -40.776  0.0000E+00  0.0000E+00  0.8000E+01  0.8000E+01
    -40.736  0.0000E+00  0.0000E+00  0.8000E+01  0.8000E+01
    -40.695  0.0000E+00  0.0000E+00  0.8000E+01  0.8000E+01
    -40.655  0.0000E+00  0.0000E+00  0.8000E+01  0.8000E+01
    -40.614  0.0000E+00  0.0000E+00  0.8000E+01  0.8000E+01
    -40.574  0.0000E+00  0.0000E+00  0.8000E+01  0.8000E+01
    -40.533  0.0000E+00  0.0000E+00  0.8000E+01  0.8000E+01
    -40.493  0.0000E+00  0.0000E+00  0.8000E+01  0.8000E+01
    -40.453  0.0000E+00  0.0000E+00  0.8000E+01  0.8000E+01
    -40.412  0.0000E+00  0.0000E+00  0.8000E+01  0.8000E+01
    -40.372  0.0000E+00  0.0000E+00  0.8000E+01  0.8000E+01
    -40.331  0.0000E+00  0.0000E+00  0.8000E+01  0.8000E+01
    -40.291  0.0000E+00  0.0000E+00  0.8000E+01  0.8000E+01
    -40.251  0.0000E+00  0.0000E+00  0.8000E+01  0.8000E+01
    -40.210  0.0000E+00  0.0000E+00  0.8000E+01  0.8000E+01
    -40.170  0.0000E+00  0.0000E+00  0.8000E+01  0.8000E+01
    -40.129  0.0000E+00  0.0000E+00  0.8000E+01  0.8000E+01
    -40.089  0.0000E+00  0.0000E+00  0.8000E+01  0.8000E+01
    -40.048  0.0000E+00  0.0000E+00  0.8000E+01  0.8000E+01
    -40.008  0.0000E+00  0.0000E+00  0.8000E+01  0.8000E+01
    -39.968  0.0000E+00  0.0000E+00  0.8000E+01  0.8000E+01
    -39.927  0.0000E+00  0.0000E+00  0.8000E+01  0.8000E+01
    -39.887  0.0000E+00  0.0000E+00  0.8000E+01  0.8000E+01
    -39.846  0.0000E+00  0.0000E+00  0.8000E+01  0.8000E+01
    -39.806  0.0000E+00  0.0000E+00  0.8000E+01  0.8000E+01
    -39.765  0.0000E+00  0.0000E+00  0.8000E+01  0.8000E+01
    -39.725  0.0000E+00  0.0000E+00  0.8000E+01  0.8000E+01
    -39.685  0.0000E+00  0.0000E+00  0.8000E+01  0.8000E+01
    -39.644  0.0000E+00  0.0000E+00  0.8000E+01  0.8000E+01
    -39.604  0.0000E+00  0.0000E+00  0.8000E+01  0.8000E+01
    -39.563  0.0000E+00  0.0000E+00  0.8000E+01  0.8000E+01
    -39.523  0.0000E+00  0.0000E+00  0.8000E+01  0.8000E+01