    7    7    1    2
  0.1321686E+02  0.5418086E-09  0.3831921E-09  0.6855158E-09  0.5000000E-15
  1.000000000000000E-004
  CAR 
 unknown system                          
     52     90     40
 
  0.0000000E+00  0.0000000E+00  0.0000000E+00  0.5208333E-02
    1      -55.858226    -49.204818   1.000000   1.000000
    2      -55.855487    -49.199546   1.000000   1.000000
    3      -54.309515    -49.168590   1.000000   1.000000
    4      -54.309407    -49.167919   1.000000   1.000000
    5      -54.306878    -49.164646   1.000000   1.000000
    6      -54.306760    -49.163998   1.000000   1.000000
    7      -43.066608    -43.067769   1.000000   1.000000
    8      -43.008205    -43.010009   1.000000   1.000000
    9      -15.306213    -14.901187   1.000000   1.000000
   10       -9.534776     -9.237461   1.000000   1.000000
   11       -8.692398     -8.346862   1.000000   1.000000
   12       -2.514389     -0.922530   1.000000   1.000000
   13       -1.222172      0.128510   1.000000   1.000000
   14       -1.222126      0.129472   1.000000   1.000000
   15       -1.000880      0.193521   1.000000   1.000000
   16       -0.429962      2.528047   1.000000   1.000000
   17       -0.428956      2.550235   1.000000   1.000000
   18        0.106982      2.915664   1.000000   1.000000
   19        0.277067      3.393322   1.000000   1.000000
   20        0.823825      3.557715   1.000000   1.000000
   21        0.829118      3.895429   1.000000   1.000000
   22        1.141577      3.910306   1.000000   1.000000
   23        1.254733      7.067409   1.000000   0.000000
   24        1.254827      7.664188   1.000000   0.000000
   25        2.009940      7.668708   1.000000   0.000000
   26        2.338825      8.116604   1.000000   0.000000
   27        2.339227      8.161930   1.000000   0.000000
   28        3.338942      8.681791   1.000000   0.000000
   29        3.580710      9.072005   1.000000   0.000000
   30        3.581423      9.074838   1.000000   0.000000
   31        8.782550      9.904133   0.000000   0.000000
   32        9.934558     11.711543   0.000000   0.000000
   33       11.550338     12.181490   0.000000   0.000000
   34       13.073645     13.589132   0.000000   0.000000
   35       13.150930     13.888752   0.000000   0.000000
   36       14.961166     15.134872   0.000000   0.000000
   37       14.968197     15.141134   0.000000   0.000000
   38       15.348588     16.362553   0.000000   0.000000
   39       15.383563     16.475046   0.000000   0.000000
   40       15.891342     16.622934   0.000000   0.000000
 
  0.1666667E+00  0.1180973E-16  0.5199772E-15  0.1041667E-01
    1      -55.858027    -49.204458   1.000000   1.000000
    2      -55.855619    -49.199894   1.000000   1.000000
    3      -54.309698    -49.168280   1.000000   1.000000
    4      -54.309319    -49.167492   1.000000   1.000000
    5      -54.307194    -49.164891   1.000000   1.000000
    6      -54.306821    -49.164091   1.000000   1.000000
    7      -43.062442    -43.063652   1.000000   1.000000
    8      -43.011893    -43.013659   1.000000   1.000000
    9      -15.318441    -14.913205   1.000000   1.000000
   10       -9.412044     -9.118185   1.000000   1.000000
   11       -8.625357     -8.285969   1.000000   1.000000
   12       -2.481283     -1.006060   1.000000   1.000000
   13       -1.512049     -0.415546   1.000000   1.000000
   14       -1.201950      0.211753   1.000000   1.000000
   15       -0.824576      0.977651   1.000000   1.000000
   16       -0.535320      1.643898   1.000000   1.000000
   17       -0.454823      2.540967   1.000000   1.000000
   18       -0.040422      2.587093   1.000000   1.000000
   19        0.061599      3.228087   1.000000   1.000000
   20        0.378959      3.548650   1.000000   1.000000
   21        0.806131      3.576472   1.000000   1.000000
   22        1.150867      3.845486   1.000000   1.000000
   23        1.240436      7.728491   1.000000   0.000000
   24        1.257913      7.743888   1.000000   0.000000
   25        1.401362      7.783866   1.000000   0.000000
   26        2.610621      8.630812   1.000000   0.000000
   27        2.886779      8.675283   1.000000   0.000000
   28        3.396975      8.970279   1.000000   0.000000
   29        3.797184      9.007620   1.000000   0.000000
   30        3.837714      9.058064   1.000000   0.000000
   31        9.606749     10.469544   0.000000   0.000000
   32       10.047734     11.444396   0.000000   0.000000
   33       11.999569     12.562243   0.000000   0.000000
   34       12.920423     13.525070   0.000000   0.000000
   35       13.216341     13.674403   0.000000   0.000000
   36       13.568215     14.323526   0.000000   0.000000
   37       14.178798     14.598228   0.000000   0.000000
   38       14.743187     15.246290   0.000000   0.000000
   39       14.878164     15.802320   0.000000   0.000000
   40       15.449254     16.498004   0.000000   0.000000
 
  0.3333333E+00  0.4876324E-17  0.4564912E-14  0.1041667E-01
    1      -55.857526    -49.203503   1.000000   1.000000
    2      -55.856037    -49.200852   1.000000   1.000000
    3      -54.310107    -49.167770   1.000000   1.000000
    4      -54.309127    -49.166294   1.000000   1.000000
    5      -54.307936    -49.165793   1.000000   1.000000
    6      -54.306952    -49.164265   1.000000   1.000000
    7      -43.051379    -43.052718   1.000000   1.000000
    8      -43.022150    -43.023809   1.000000   1.000000
    9      -15.343397    -14.937798   1.000000   1.000000
   10       -9.088901     -8.799850   1.000000   1.000000
   11       -8.546566     -8.228083   1.000000   1.000000
   12       -2.458457     -1.318992   1.000000   1.000000
   13       -1.659749     -0.571372   1.000000   1.000000
   14       -1.147380      0.406342   1.000000   1.000000
   15       -1.111242      0.763495   1.000000   1.000000
   16       -0.908133      1.230934   1.000000   1.000000
   17       -0.611291      1.859700   1.000000   1.000000
   18       -0.432331      2.543469   1.000000   1.000000
   19       -0.330310      2.799028   1.000000   1.000000
   20       -0.078920      2.974128   1.000000   1.000000
   21        0.695432      3.954945   1.000000   1.000000
   22        1.206087      4.060311   1.000000   1.000000
   23        1.267731      7.955597   1.000000   0.000000
   24        1.418217      7.998587   1.000000   0.000000
   25        1.670325      8.556980   1.000000   0.000000
   26        1.977191      8.750701   1.000000   0.000000
   27        3.655681      8.838172   1.000000   0.000000
   28        3.869131      9.436732   1.000000   0.000000
   29        4.345111      9.725733   1.000000   0.000000
   30        4.408655      9.818595   1.000000   0.000000
   31        9.793202     10.560923   0.000000   0.000000
   32       10.478980     11.117104   0.000000   0.000000
   33       11.765436     12.521955   0.000000   0.000000
   34       12.577194     13.103954   0.000000   0.000000
   35       12.597537     13.321993   0.000000   0.000000
   36       12.985118     13.699185   0.000000   0.000000
   37       13.264116     14.269773   0.000000   0.000000
   38       14.026739     14.564667   0.000000   0.000000
   39       14.473423     14.958039   0.000000   0.000000
   40       15.731077     16.275990   0.000000   0.000000
 
  0.5000000E+00  0.6324580E-16 -0.1984915E-14  0.1041667E-01
    1      -55.857117    -49.202464   1.000000   1.000000
    2      -55.856421    -49.201897   1.000000   1.000000
    3      -54.310305    -49.167287   1.000000   1.000000
    4      -54.309028    -49.166613   1.000000   1.000000
    5      -54.308305    -49.165210   1.000000   1.000000
    6      -54.307033    -49.164736   1.000000   1.000000
    7      -43.037451    -43.038948   1.000000   1.000000
    8      -43.035679    -43.037193   1.000000   1.000000
    9      -15.356023    -14.950270   1.000000   1.000000
   10       -8.803143     -8.508359   1.000000   1.000000
   11       -8.619973     -8.324366   1.000000   1.000000
   12       -2.493643     -1.535397   1.000000   1.000000
   13       -1.616235     -0.250249   1.000000   1.000000
   14       -1.460875     -0.049837   1.000000   1.000000
   15       -1.103746      0.527571   1.000000   1.000000
   16       -0.987434      0.955047   1.000000   1.000000
   17       -0.784468      2.172044   1.000000   1.000000
   18       -0.720238      2.515922   1.000000   1.000000
   19       -0.470818      2.603032   1.000000   1.000000
   20       -0.086329      2.718563   1.000000   1.000000
   21        0.644216      4.152981   1.000000   1.000000
   22        1.206605      4.170079   1.000000   1.000000
   23        1.285141      8.115002   1.000000   0.000000
   24        1.504153      8.150404   1.000000   0.000000
   25        1.732186      8.572821   1.000000   0.000000
   26        1.936180      8.733423   1.000000   0.000000
   27        3.824438      9.078921   1.000000   0.000000
   28        4.373329      9.704335   1.000000   0.000000
   29        4.610566      9.906996   1.000000   0.000000
   30        4.632372     10.412328   1.000000   0.000000
   31        9.515846     10.546270   0.000000   0.000000
   32       10.364958     10.828766   0.000000   0.000000
   33       11.487764     12.284228   0.000000   0.000000
   34       11.773796     12.359493   0.000000   0.000000
   35       12.358490     12.867647   0.000000   0.000000
   36       12.611143     13.306659   0.000000   0.000000
   37       13.377873     14.410638   0.000000   0.000000
   38       14.143141     14.551162   0.000000   0.000000
   39       14.473650     14.856855   0.000000   0.000000
   40       16.236856     16.980823   0.000000   0.000000
 
  0.1719790E-23  0.1250000E+00  0.3426281E-15  0.1041667E-01
    1      -55.858048    -49.204429   1.000000   1.000000
    2      -55.855609    -49.199913   1.000000   1.000000
    3      -54.309668    -49.168733   1.000000   1.000000
    4      -54.309395    -49.167002   1.000000   1.000000
    5      -54.307258    -49.164748   1.000000   1.000000
    6      -54.306810    -49.164381   1.000000   1.000000
    7      -43.062047    -43.063262   1.000000   1.000000
    8      -43.012216    -43.013979   1.000000   1.000000
    9      -15.321728    -14.916507   1.000000   1.000000
   10       -9.396638     -9.102475   1.000000   1.000000
   11       -8.608424     -8.269005   1.000000   1.000000
   12       -2.494348     -1.013387   1.000000   1.000000
   13       -1.515855     -0.384205   1.000000   1.000000
   14       -1.240942      0.111461   1.000000   1.000000
   15       -0.834381      1.053220   1.000000   1.000000
   16       -0.552491      1.718087   1.000000   1.000000
   17       -0.475102      2.191383   1.000000   1.000000
   18       -0.055205      2.707754   1.000000   1.000000
   19        0.005645      3.070509   1.000000   1.000000
   20        0.673996      3.417405   1.000000   1.000000
   21        0.879474      3.600762   1.000000   1.000000
   22        1.099720      4.240209   1.000000   1.000000
   23        1.211920      7.505879   1.000000   0.000000
   24        1.318116      7.555038   1.000000   0.000000
   25        1.374879      7.943026   1.000000   0.000000
   26        2.263120      8.504205   1.000000   0.000000
   27        2.892234      8.706578   1.000000   0.000000
   28        3.460101      8.939872   1.000000   0.000000
   29        3.499381      9.077282   1.000000   0.000000
   30        4.096533      9.293289   1.000000   0.000000
   31        9.690125     10.536303   0.000000   0.000000
   32       10.436635     11.864824   0.000000   0.000000
   33       12.010003     12.507035   0.000000   0.000000
   34       12.719851     13.322355   0.000000   0.000000
   35       13.372497     13.736816   0.000000   0.000000
   36       13.437642     14.201388   0.000000   0.000000
   37       13.577677     14.325448   0.000000   0.000000
   38       14.373503     15.309107   0.000000   0.000000
   39       15.141143     15.445589   0.000000   0.000000
   40       15.272421     16.201451   0.000000   0.000000
 
  0.1666667E+00  0.1250000E+00  0.8675399E-15  0.1041667E-01
    1      -55.858090    -49.204589   1.000000   1.000000
    2      -55.855574    -49.199766   1.000000   1.000000
    3      -54.309595    -49.168211   1.000000   1.000000
    4      -54.309387    -49.167849   1.000000   1.000000
    5      -54.306981    -49.164807   1.000000   1.000000
    6      -54.306896    -49.164034   1.000000   1.000000
    7      -43.063974    -43.065166   1.000000   1.000000
    8      -43.010502    -43.012282   1.000000   1.000000
    9      -15.313999    -14.908831   1.000000   1.000000
   10       -9.457884     -9.162705   1.000000   1.000000
   11       -8.649827     -8.307540   1.000000   1.000000
   12       -2.484235     -0.957577   1.000000   1.000000
   13       -1.428708     -0.298537   1.000000   1.000000
   14       -1.215604      0.160584   1.000000   1.000000
   15       -0.840369      0.810561   1.000000   1.000000
   16       -0.486533      1.885398   1.000000   1.000000
   17       -0.440349      2.471369   1.000000   1.000000
   18        0.010604      2.902833   1.000000   1.000000
   19        0.111066      3.294627   1.000000   1.000000
   20        0.619986      3.435828   1.000000   1.000000
   21        0.823672      3.528028   1.000000   1.000000
   22        1.127238      3.979308   1.000000   1.000000
   23        1.238249      7.516296   1.000000   0.000000
   24        1.257516      7.665049   1.000000   0.000000
   25        1.405669      7.798578   1.000000   0.000000
   26        2.539100      8.465399   1.000000   0.000000
   27        2.748735      8.484573   1.000000   0.000000
   28        3.454325      8.906362   1.000000   0.000000
   29        3.679154      9.024448   1.000000   0.000000
   30        3.714844      9.056121   1.000000   0.000000
   31        9.377516     10.324829   0.000000   0.000000
   32       10.004346     11.495855   0.000000   0.000000
   33       11.829337     12.394185   0.000000   0.000000
   34       13.038996     13.581429   0.000000   0.000000
   35       13.239111     13.816486   0.000000   0.000000
   36       13.755137     14.419362   0.000000   0.000000
   37       14.380587     14.860349   0.000000   0.000000
   38       14.723098     15.312628   0.000000   0.000000
   39       15.256063     16.000647   0.000000   0.000000
   40       15.781618     16.913700   0.000000   0.000000
 
  0.3333333E+00  0.1250000E+00 -0.2124558E-14  0.1041667E-01
    1      -55.857779    -49.204075   1.000000   1.000000
    2      -55.855802    -49.200236   1.000000   1.000000
    3      -54.309929    -49.168164   1.000000   1.000000
    4      -54.309229    -49.167159   1.000000   1.000000
    5      -54.307526    -49.165349   1.000000   1.000000
    6      -54.306910    -49.164085   1.000000   1.000000
    7      -43.058329    -43.059588   1.000000   1.000000
    8      -43.015560    -43.017288   1.000000   1.000000
    9      -15.332089    -14.926729   1.000000   1.000000
   10       -9.279201     -8.985254   1.000000   1.000000
   11       -8.583029     -8.246713   1.000000   1.000000
   12       -2.422703     -0.996607   1.000000   1.000000
   13       -1.486299     -0.350044   1.000000   1.000000
   14       -1.221530      0.134832   1.000000   1.000000
   15       -0.809459      1.260149   1.000000   1.000000
   16       -0.720069      1.447060   1.000000   1.000000
   17       -0.483411      1.869137   1.000000   1.000000
   18       -0.277239      2.226586   1.000000   1.000000
   19        0.004583      2.940318   1.000000   1.000000
   20        0.299638      3.105574   1.000000   1.000000
   21        0.871251      3.806164   1.000000   1.000000
   22        1.006832      4.235222   1.000000   1.000000
   23        1.254242      7.579053   1.000000   0.000000
   24        1.294703      7.846781   1.000000   0.000000
   25        1.441442      8.103571   1.000000   0.000000
   26        2.220760      8.621930   1.000000   0.000000
   27        2.585958      8.789177   1.000000   0.000000
   28        3.478286      9.011771   1.000000   0.000000
   29        3.901611      9.175017   1.000000   0.000000
   30        4.408041      9.733544   1.000000   0.000000
   31       10.268663     11.055772   0.000000   0.000000
   32       10.420192     11.433353   0.000000   0.000000
   33       12.016025     12.683615   0.000000   0.000000
   34       12.514659     13.046242   0.000000   0.000000
   35       12.957913     13.587793   0.000000   0.000000
   36       13.059050     13.741042   0.000000   0.000000
   37       13.527467     14.340942   0.000000   0.000000
   38       13.751777     14.540917   0.000000   0.000000
   39       15.012735     15.933527   0.000000   0.000000
   40       15.621943     16.028810   0.000000   0.000000
 
  0.5000000E+00  0.1250000E+00 -0.1480573E-14  0.2083333E-01
    1      -55.857273    -49.203068   1.000000   1.000000
    2      -55.856229    -49.201184   1.000000   1.000000
    3      -54.310324    -49.167867   1.000000   1.000000
    4      -54.309047    -49.166527   1.000000   1.000000
    5      -54.308221    -49.165981   1.000000   1.000000
    6      -54.306986    -49.164231   1.000000   1.000000
    7      -43.046863    -43.048256   1.000000   1.000000
    8      -43.026221    -43.027838   1.000000   1.000000
    9      -15.358153    -14.952599   1.000000   1.000000
   10       -8.932535     -8.635517   1.000000   1.000000
   11       -8.557926     -8.240730   1.000000   1.000000
   12       -2.407090     -1.266652   1.000000   1.000000
   13       -1.524347     -0.293355   1.000000   1.000000
   14       -1.254908      0.171319   1.000000   1.000000
   15       -1.094769      0.686539   1.000000   1.000000
   16       -0.871535      0.954721   1.000000   1.000000
   17       -0.691448      1.950935   1.000000   1.000000
   18       -0.610965      2.311150   1.000000   1.000000
   19       -0.322118      2.447293   1.000000   1.000000
   20       -0.022488      2.892185   1.000000   1.000000
   21        0.706190      4.068262   1.000000   1.000000
   22        1.136015      4.190677   1.000000   1.000000
   23        1.318281      7.744637   1.000000   0.000000
   24        1.460049      8.093672   1.000000   0.000000
   25        1.670135      8.515203   1.000000   0.000000
   26        1.786450      8.733266   1.000000   0.000000
   27        3.415186      8.809444   1.000000   0.000000
   28        3.783444      9.224445   1.000000   0.000000
   29        3.972269      9.677281   1.000000   0.000000
   30        4.553503     10.066773   1.000000   0.000000
   31       10.339771     10.977734   0.000000   0.000000
   32       10.916677     11.689927   0.000000   0.000000
   33       11.029471     11.876815   0.000000   0.000000
   34       11.652801     12.659378   0.000000   0.000000
   35       12.397751     13.194025   0.000000   0.000000
   36       12.688749     13.309217   0.000000   0.000000
   37       14.094415     14.741206   0.000000   0.000000
   38       14.397490     14.899922   0.000000   0.000000
   39       14.769859     15.256804   0.000000   0.000000
   40       15.804711     16.392339   0.000000   0.000000
 
 -0.3333333E+00  0.1250000E+00  0.2841531E-14  0.1041667E-01
    1      -55.857137    -49.202522   1.000000   1.000000
    2      -55.856340    -49.201700   1.000000   1.000000
    3      -54.310419    -49.167865   1.000000   1.000000
    4      -54.309012    -49.166815   1.000000   1.000000
    5      -54.308418    -49.165210   1.000000   1.000000
    6      -54.306995    -49.164694   1.000000   1.000000
    7      -43.040066    -43.041534   1.000000   1.000000
    8      -43.032807    -43.034356   1.000000   1.000000
    9      -15.365922    -14.960334   1.000000   1.000000
   10       -8.812972     -8.513722   1.000000   1.000000
   11       -8.557344     -8.248440   1.000000   1.000000
   12       -2.431125     -1.407165   1.000000   1.000000
   13       -1.626516     -0.451491   1.000000   1.000000
   14       -1.370771      0.149182   1.000000   1.000000
   15       -1.126554      0.713175   1.000000   1.000000
   16       -1.046042      0.870243   1.000000   1.000000
   17       -0.693604      2.080968   1.000000   1.000000
   18       -0.566921      2.188838   1.000000   1.000000
   19       -0.406879      2.526530   1.000000   1.000000
   20       -0.048314      2.824287   1.000000   1.000000
   21        0.628708      4.148074   1.000000   1.000000
   22        1.233662      4.170736   1.000000   1.000000
   23        1.354656      7.771310   1.000000   0.000000
   24        1.497828      8.082801   1.000000   0.000000
   25        1.718407      8.548654   1.000000   0.000000
   26        1.914226      8.756505   1.000000   0.000000
   27        3.566043      8.860964   1.000000   0.000000
   28        3.810275      9.471432   1.000000   0.000000
   29        4.029640      9.716073   1.000000   0.000000
   30        4.514499     10.017214   1.000000   0.000000
   31       10.343459     11.131819   0.000000   0.000000
   32       10.827131     11.549388   0.000000   0.000000
   33       10.938082     11.671238   0.000000   0.000000
   34       11.370999     12.358379   0.000000   0.000000
   35       12.158419     12.981594   0.000000   0.000000
   36       12.674742     13.368983   0.000000   0.000000
   37       14.097302     14.493663   0.000000   0.000000
   38       14.664894     15.233973   0.000000   0.000000
   39       14.776762     15.428501   0.000000   0.000000
   40       15.994413     16.682604   0.000000   0.000000
 
 -0.1666667E+00  0.1250000E+00 -0.1862922E-15  0.1041667E-01
    1      -55.857643    -49.203626   1.000000   1.000000
    2      -55.855910    -49.200638   1.000000   1.000000
    3      -54.310109    -49.168568   1.000000   1.000000
    4      -54.309182    -49.165940   1.000000   1.000000
    5      -54.307942    -49.165538   1.000000   1.000000
    6      -54.306900    -49.164648   1.000000   1.000000
    7      -43.053169    -43.054488   1.000000   1.000000
    8      -43.020301    -43.021982   1.000000   1.000000
    9      -15.347614    -14.942166   1.000000   1.000000
   10       -9.132023     -8.839752   1.000000   1.000000
   11       -8.508304     -8.179795   1.000000   1.000000
   12       -2.448670     -1.200181   1.000000   1.000000
   13       -1.677153     -0.566021   1.000000   1.000000
   14       -1.213235      0.236163   1.000000   1.000000
   15       -0.947845      1.028009   1.000000   1.000000
   16       -0.942023      1.353699   1.000000   1.000000
   17       -0.568620      1.768120   1.000000   1.000000
   18       -0.289505      2.161872   1.000000   1.000000
   19       -0.091038      2.896476   1.000000   1.000000
   20        0.005789      3.046507   1.000000   1.000000
   21        0.756463      3.962618   1.000000   1.000000
   22        1.185676      4.215111   1.000000   1.000000
   23        1.316459      7.496004   1.000000   0.000000
   24        1.368357      8.057477   1.000000   0.000000
   25        1.545403      8.242791   1.000000   0.000000
   26        2.347051      8.644018   1.000000   0.000000
   27        2.876404      8.875607   1.000000   0.000000
   28        3.288877      9.026712   1.000000   0.000000
   29        3.920671      9.428301   1.000000   0.000000
   30        4.685032     10.076914   1.000000   0.000000
   31       10.505158     11.143885   0.000000   0.000000
   32       10.749715     11.529958   0.000000   0.000000
   33       11.682412     12.528835   0.000000   0.000000
   34       11.960544     12.965763   0.000000   0.000000
   35       12.504484     13.204259   0.000000   0.000000
   36       13.211130     13.844186   0.000000   0.000000
   37       13.595387     14.361372   0.000000   0.000000
   38       13.978832     14.556350   0.000000   0.000000
   39       14.857408     15.298259   0.000000   0.000000
   40       15.270212     15.778224   0.000000   0.000000
 
  0.3439579E-23  0.2500000E+00  0.6852562E-15  0.1041667E-01
    1      -55.857551    -49.203383   1.000000   1.000000
    2      -55.855928    -49.200727   1.000000   1.000000
    3      -54.310283    -49.169077   1.000000   1.000000
    4      -54.309147    -49.165903   1.000000   1.000000
    5      -54.308181    -49.165495   1.000000   1.000000
    6      -54.306893    -49.164939   1.000000   1.000000
    7      -43.051127    -43.052471   1.000000   1.000000
    8      -43.021889    -43.023555   1.000000   1.000000
    9      -15.362687    -14.957359   1.000000   1.000000
   10       -9.056137     -8.757612   1.000000   1.000000
   11       -8.457707     -8.121395   1.000000   1.000000
   12       -2.410463     -1.074259   1.000000   1.000000
   13       -1.596767     -0.355148   1.000000   1.000000
   14       -1.290283      0.045960   1.000000   1.000000
   15       -1.015063      0.900979   1.000000   1.000000
   16       -0.910392      0.961993   1.000000   1.000000
   17       -0.592353      1.765665   1.000000   1.000000
   18       -0.225474      2.012380   1.000000   1.000000
   19       -0.075230      2.858808   1.000000   1.000000
   20        0.397966      3.102092   1.000000   1.000000
   21        0.966927      4.035610   1.000000   1.000000
   22        1.055804      4.411485   1.000000   1.000000
   23        1.090753      7.149289   1.000000   0.000000
   24        1.400408      7.788813   1.000000   0.000000
   25        1.439458      8.348383   1.000000   0.000000
   26        2.013672      8.413057   1.000000   0.000000
   27        2.604405      8.679274   1.000000   0.000000
   28        3.218525      9.082467   1.000000   0.000000
   29        3.465008      9.346272   1.000000   0.000000
   30        4.764793     10.164363   1.000000   0.000000
   31       10.184065     11.269170   0.000000   0.000000
   32       11.089996     11.943145   0.000000   0.000000
   33       11.308826     11.970655   0.000000   0.000000
   34       12.089245     13.334034   0.000000   0.000000
   35       13.062794     13.566675   0.000000   0.000000
   36       13.278751     13.984130   0.000000   0.000000
   37       13.418211     14.422209   0.000000   0.000000
   38       14.153579     14.673262   0.000000   0.000000
   39       14.940013     15.532830   0.000000   0.000000
   40       15.594683     15.759068   0.000000   0.000000
 
  0.1666667E+00  0.2500000E+00  0.1201225E-14  0.1041667E-01
    1      -55.857803    -49.203971   1.000000   1.000000
    2      -55.855797    -49.200355   1.000000   1.000000
    3      -54.309880    -49.168459   1.000000   1.000000
    4      -54.309312    -49.166457   1.000000   1.000000
    5      -54.307618    -49.165251   1.000000   1.000000
    6      -54.306924    -49.164428   1.000000   1.000000
    7      -43.056859    -43.058135   1.000000   1.000000
    8      -43.016960    -43.018674   1.000000   1.000000
    9      -15.335635    -14.930230   1.000000   1.000000
   10       -9.243331     -8.951939   1.000000   1.000000
   11       -8.547830     -8.216535   1.000000   1.000000
   12       -2.466230     -1.147590   1.000000   1.000000
   13       -1.653246     -0.565531   1.000000   1.000000
   14       -1.203146      0.243410   1.000000   1.000000
   15       -0.873178      1.173074   1.000000   1.000000
   16       -0.790596      1.510142   1.000000   1.000000
   17       -0.525058      1.801073   1.000000   1.000000
   18       -0.221091      2.335757   1.000000   1.000000
   19       -0.071680      3.062178   1.000000   1.000000
   20        0.072179      3.128222   1.000000   1.000000
   21        0.770449      3.834452   1.000000   1.000000
   22        1.170644      4.117846   1.000000   1.000000
   23        1.283239      7.598433   1.000000   0.000000
   24        1.325733      7.989041   1.000000   0.000000
   25        1.514401      8.103240   1.000000   0.000000
   26        2.424331      8.780771   1.000000   0.000000
   27        2.973634      8.856462   1.000000   0.000000
   28        3.332358      9.009728   1.000000   0.000000
   29        3.950992      9.223671   1.000000   0.000000
   30        4.438586      9.718697   1.000000   0.000000
   31       10.270824     10.998018   0.000000   0.000000
   32       10.411388     11.401937   0.000000   0.000000
   33       12.157194     12.882767   0.000000   0.000000
   34       12.499915     13.120573   0.000000   0.000000
   35       12.669732     13.400547   0.000000   0.000000
   36       13.179210     13.750261   0.000000   0.000000
   37       13.635655     14.371843   0.000000   0.000000
   38       13.880461     14.711343   0.000000   0.000000
   39       14.863039     15.326575   0.000000   0.000000
   40       15.085190     15.706826   0.000000   0.000000
 
  0.3333333E+00  0.2500000E+00 -0.1790873E-14  0.1041667E-01
    1      -55.857729    -49.203959   1.000000   1.000000
    2      -55.855854    -49.200374   1.000000   1.000000
    3      -54.309920    -49.167974   1.000000   1.000000
    4      -54.309258    -49.167048   1.000000   1.000000
    5      -54.307569    -49.165455   1.000000   1.000000
    6      -54.306977    -49.164096   1.000000   1.000000
    7      -43.056832    -43.058109   1.000000   1.000000
    8      -43.016980    -43.018693   1.000000   1.000000
    9      -15.334367    -14.928941   1.000000   1.000000
   10       -9.237691     -8.945311   1.000000   1.000000
   11       -8.572351     -8.240530   1.000000   1.000000
   12       -2.430824     -1.082648   1.000000   1.000000
   13       -1.550136     -0.448717   1.000000   1.000000
   14       -1.189987      0.239907   1.000000   1.000000
   15       -0.833544      1.100663   1.000000   1.000000
   16       -0.787726      1.482880   1.000000   1.000000
   17       -0.514027      1.767987   1.000000   1.000000
   18       -0.306156      2.337433   1.000000   1.000000
   19       -0.038975      2.986916   1.000000   1.000000