 144 144   0   0
  0.1325381E+02  0.1546422E-08  0.1214491E-08  0.1054520E-08  0.5000000E-15
  1.000000000000000E-004
  CAR 
 unknown system                          
     17.00178141    -54.87118102  301      5.08284848      1.00000000
    -54.871  0.0000E+00  0.0000E+00  0.0000E+00  0.0000E+00
    -54.632  0.0000E+00  0.0000E+00  0.0000E+00  0.0000E+00
    -54.392  0.0000E+00  0.0000E+00  0.0000E+00  0.0000E+00
    -54.152  0.0000E+00  0.0000E+00  0.0000E+00  0.0000E+00
    -53.913  0.0000E+00  0.0000E+00  0.0000E+00  0.0000E+00
    -53.673  0.0000E+00  0.0000E+00  0.0000E+00  0.0000E+00
    -53.434  0.0000E+00  0.0000E+00  0.0000E+00  0.0000E+00
    -53.194  0.0000E+00  0.0000E+00  0.0000E+00  0.0000E+00
    -52.955  0.0000E+00  0.0000E+00  0.0000E+00  0.0000E+00
    -52.715  0.0000E+00  0.0000E+00  0.0000E+00  0.0000E+00
    -52.475  0.0000E+00  0.0000E+00  0.0000E+00  0.0000E+00
    -52.236  0.0000E+00  0.0000E+00  0.0000E+00  0.0000E+00
    -51.996  0.0000E+00  0.0000E+00  0.0000E+00  0.0000E+00
    -51.757  0.3264E-03  0.0000E+00  0.7819E-04  0.0000E+00
    -51.517  0.4982E+02  0.0000E+00  0.1193E+02  0.0000E+00
    -51.278  0.8613E+02  0.0000E+00  0.3257E+02  0.0000E+00
    -51.038  0.1432E+02  0.0000E+00  0.3600E+02  0.0000E+00
    -50.798  0.0000E+00  0.0000E+00  0.3600E+02  0.0000E+00
    -50.559  0.0000E+00  0.0000E+00  0.3600E+02  0.0000E+00
    -50.319  0.1150E-03  0.0000E+00  0.3600E+02  0.0000E+00
    -50.080  0.6674E+02  0.0000E+00  0.5199E+02  0.0000E+00
    -49.840  0.2083E+03  0.0000E+00  0.1019E+03  0.0000E+00
    -49.600  0.2549E+02  0.0000E+00  0.1080E+03  0.0000E+00
    -49.361  0.0000E+00  0.0000E+00  0.1080E+03  0.0000E+00
    -49.121  0.0000E+00  0.0000E+00  0.1080E+03  0.0000E+00
    -48.882  0.0000E+00  0.0000E+00  0.1080E+03  0.0000E+00
    -48.642  0.0000E+00  0.0000E+00  0.1080E+03  0.0000E+00
    -48.403  0.0000E+00  0.0000E+00  0.1080E+03  0.0000E+00
    -48.163  0.0000E+00  0.0000E+00  0.1080E+03  0.0000E+00
    -47.923  0.0000E+00  0.0000E+00  0.1080E+03  0.0000E+00
    -47.684  0.0000E+00  0.0000E+00  0.1080E+03  0.0000E+00
    -47.444  0.0000E+00  0.0000E+00  0.1080E+03  0.0000E+00
    -47.205  0.0000E+00  0.0000E+00  0.1080E+03  0.0000E+00
    -46.965  0.0000E+00  0.5913E-01  0.1080E+03  0.1417E-01
    -46.726  0.0000E+00  0.5088E+02  0.1080E+03  0.1220E+02
    -46.486  0.0000E+00  0.9528E+02  0.1080E+03  0.3503E+02
    -46.246  0.0000E+00  0.1450E+03  0.1080E+03  0.6978E+02
    -46.007  0.0000E+00  0.1595E+03  0.1080E+03  0.1080E+03
    -45.767  0.0000E+00  0.5179E-02  0.1080E+03  0.1080E+03
    -45.528  0.0000E+00  0.0000E+00  0.1080E+03  0.1080E+03
    -45.288  0.0000E+00  0.0000E+00  0.1080E+03  0.1080E+03
    -45.049  0.0000E+00  0.0000E+00  0.1080E+03  0.1080E+03
    -44.809  0.0000E+00  0.0000E+00  0.1080E+03  0.1080E+03
    -44.569  0.0000E+00  0.0000E+00  0.1080E+03  0.1080E+03
    -44.330  0.0000E+00  0.0000E+00  0.1080E+03  0.1080E+03
    -44.090  0.0000E+00  0.0000E+00  0.1080E+03  0.1080E+03
    -43.851  0.0000E+00  0.0000E+00  0.1080E+03  0.1080E+03
    -43.611  0.0000E+00  0.0000E+00  0.1080E+03  0.1080E+03
    -43.372  0.0000E+00  0.0000E+00  0.1080E+03  0.1080E+03
    -43.132  0.0000E+00  0.0000E+00  0.1080E+03  0.1080E+03
    -42.892  0.0000E+00  0.0000E+00  0.1080E+03  0.1080E+03
    -42.653  0.0000E+00  0.0000E+00  0.1080E+03  0.1080E+03
    -42.413  0.0000E+00  0.0000E+00  0.1080E+03  0.1080E+03
    -42.174  0.0000E+00  0.0000E+00  0.1080E+03  0.1080E+03
    -41.934  0.0000E+00  0.0000E+00  0.1080E+03  0.1080E+03
    -41.694  0.0000E+00  0.0000E+00  0.1080E+03  0.1080E+03
    -41.455  0.0000E+00  0.0000E+00  0.1080E+03  0.1080E+03
    -41.215  0.0000E+00  0.0000E+00  0.1080E+03  0.1080E+03
    -40.976  0.0000E+00  0.0000E+00  0.1080E+03  0.1080E+03
    -40.736  0.8723E-09  0.2818E-09  0.1080E+03  0.1080E+03
    -40.497  0.2791E+02  0.2463E+02  0.1147E+03  0.1139E+03
    -40.257  0.4664E+02  0.5018E+02  0.1259E+03  0.1259E+03
    -40.017  0.1003E+03  0.1003E+03  0.1499E+03  0.1500E+03
    -39.778  0.2555E+02  0.2524E+02  0.1560E+03  0.1560E+03
    -39.538  0.0000E+00  0.0000E+00  0.1560E+03  0.1560E+03
    -39.299  0.0000E+00  0.0000E+00  0.1560E+03  0.1560E+03
    -39.059  0.0000E+00  0.0000E+00  0.1560E+03  0.1560E+03
    -38.820  0.0000E+00  0.0000E+00  0.1560E+03  0.1560E+03
    -38.580  0.0000E+00  0.0000E+00  0.1560E+03  0.1560E+03
    -38.340  0.0000E+00  0.0000E+00  0.1560E+03  0.1560E+03
    -38.101  0.0000E+00  0.0000E+00  0.1560E+03  0.1560E+03
    -37.861  0.0000E+00  0.0000E+00  0.1560E+03  0.1560E+03
    -37.622  0.0000E+00  0.0000E+00  0.1560E+03  0.1560E+03
    -37.382  0.0000E+00  0.0000E+00  0.1560E+03  0.1560E+03
    -37.143  0.0000E+00  0.0000E+00  0.1560E+03  0.1560E+03
    -36.903  0.0000E+00  0.0000E+00  0.1560E+03  0.1560E+03
    -36.663  0.0000E+00  0.0000E+00  0.1560E+03  0.1560E+03
    -36.424  0.0000E+00  0.0000E+00  0.1560E+03  0.1560E+03
    -36.184  0.0000E+00  0.0000E+00  0.1560E+03  0.1560E+03
    -35.945  0.0000E+00  0.0000E+00  0.1560E+03  0.1560E+03
    -35.705  0.0000E+00  0.0000E+00  0.1560E+03  0.1560E+03
    -35.465  0.0000E+00  0.0000E+00  0.1560E+03  0.1560E+03
    -35.226  0.0000E+00  0.0000E+00  0.1560E+03  0.1560E+03
    -34.986  0.0000E+00  0.0000E+00  0.1560E+03  0.1560E+03
    -34.747  0.0000E+00  0.0000E+00  0.1560E+03  0.1560E+03
    -34.507  0.0000E+00  0.0000E+00  0.1560E+03  0.1560E+03
    -34.268  0.0000E+00  0.0000E+00  0.1560E+03  0.1560E+03
    -34.028  0.0000E+00  0.0000E+00  0.1560E+03  0.1560E+03
    -33.788  0.0000E+00  0.0000E+00  0.1560E+03  0.1560E+03
    -33.549  0.0000E+00  0.0000E+00  0.1560E+03  0.1560E+03
    -33.309  0.0000E+00  0.0000E+00  0.1560E+03  0.1560E+03
    -33.070  0.0000E+00  0.0000E+00  0.1560E+03  0.1560E+03
    -32.830  0.0000E+00  0.0000E+00  0.1560E+03  0.1560E+03
    -32.591  0.0000E+00  0.0000E+00  0.1560E+03  0.1560E+03
    -32.351  0.0000E+00  0.0000E+00  0.1560E+03  0.1560E+03
    -32.111  0.0000E+00  0.0000E+00  0.1560E+03  0.1560E+03
    -31.872  0.0000E+00  0.0000E+00  0.1560E+03  0.1560E+03
    -31.632  0.0000E+00  0.0000E+00  0.1560E+03  0.1560E+03
    -31.393  0.0000E+00  0.0000E+00  0.1560E+03  0.1560E+03
    -31.153  0.0000E+00  0.0000E+00  0.1560E+03  0.1560E+03
    -30.914  0.0000E+00  0.0000E+00  0.1560E+03  0.1560E+03
    -30.674  0.0000E+00  0.0000E+00  0.1560E+03  0.1560E+03
    -30.434  0.0000E+00  0.0000E+00  0.1560E+03  0.1560E+03
    -30.195  0.0000E+00  0.0000E+00  0.1560E+03  0.1560E+03
    -29.955  0.0000E+00  0.0000E+00  0.1560E+03  0.1560E+03
    -29.716  0.0000E+00  0.0000E+00  0.1560E+03  0.1560E+03
    -29.476  0.0000E+00  0.0000E+00  0.1560E+03  0.1560E+03
    -29.236  0.0000E+00  0.0000E+00  0.1560E+03  0.1560E+03
    -28.997  0.0000E+00  0.0000E+00  0.1560E+03  0.1560E+03
    -28.757  0.0000E+00  0.0000E+00  0.1560E+03  0.1560E+03
    -28.518  0.0000E+00  0.0000E+00  0.1560E+03  0.1560E+03
    -28.278  0.0000E+00  0.0000E+00  0.1560E+03  0.1560E+03
    -28.039  0.0000E+00  0.0000E+00  0.1560E+03  0.1560E+03
    -27.799  0.0000E+00  0.0000E+00  0.1560E+03  0.1560E+03
    -27.559  0.0000E+00  0.0000E+00  0.1560E+03  0.1560E+03
    -27.320  0.0000E+00  0.0000E+00  0.1560E+03  0.1560E+03
    -27.080  0.0000E+00  0.0000E+00  0.1560E+03  0.1560E+03
    -26.841  0.0000E+00  0.0000E+00  0.1560E+03  0.1560E+03
    -26.601  0.0000E+00  0.0000E+00  0.1560E+03  0.1560E+03
    -26.362  0.0000E+00  0.0000E+00  0.1560E+03  0.1560E+03
    -26.122  0.0000E+00  0.0000E+00  0.1560E+03  0.1560E+03
    -25.882  0.0000E+00  0.0000E+00  0.1560E+03  0.1560E+03
    -25.643  0.0000E+00  0.0000E+00  0.1560E+03  0.1560E+03
    -25.403  0.0000E+00  0.0000E+00  0.1560E+03  0.1560E+03
    -25.164  0.0000E+00  0.0000E+00  0.1560E+03  0.1560E+03
    -24.924  0.0000E+00  0.0000E+00  0.1560E+03  0.1560E+03
    -24.685  0.0000E+00  0.0000E+00  0.1560E+03  0.1560E+03
    -24.445  0.0000E+00  0.0000E+00  0.1560E+03  0.1560E+03
    -24.205  0.0000E+00  0.0000E+00  0.1560E+03  0.1560E+03
    -23.966  0.0000E+00  0.0000E+00  0.1560E+03  0.1560E+03
    -23.726  0.0000E+00  0.0000E+00  0.1560E+03  0.1560E+03
    -23.487  0.0000E+00  0.0000E+00  0.1560E+03  0.1560E+03
    -23.247  0.0000E+00  0.0000E+00  0.1560E+03  0.1560E+03
    -23.008  0.0000E+00  0.0000E+00  0.1560E+03  0.1560E+03
    -22.768  0.0000E+00  0.0000E+00  0.1560E+03  0.1560E+03
    -22.528  0.0000E+00  0.0000E+00  0.1560E+03  0.1560E+03
    -22.289  0.0000E+00  0.0000E+00  0.1560E+03  0.1560E+03
    -22.049  0.0000E+00  0.0000E+00  0.1560E+03  0.1560E+03
    -21.810  0.0000E+00  0.0000E+00  0.1560E+03  0.1560E+03
    -21.570  0.0000E+00  0.0000E+00  0.1560E+03  0.1560E+03
    -21.330  0.0000E+00  0.0000E+00  0.1560E+03  0.1560E+03
    -21.091  0.0000E+00  0.0000E+00  0.1560E+03  0.1560E+03
    -20.851  0.0000E+00  0.0000E+00  0.1560E+03  0.1560E+03
    -20.612  0.0000E+00  0.0000E+00  0.1560E+03  0.1560E+03
    -20.372  0.0000E+00  0.0000E+00  0.1560E+03  0.1560E+03
    -20.133  0.0000E+00  0.0000E+00  0.1560E+03  0.1560E+03
    -19.893  0.0000E+00  0.0000E+00  0.1560E+03  0.1560E+03
    -19.653  0.0000E+00  0.0000E+00  0.1560E+03  0.1560E+03
    -19.414  0.0000E+00  0.0000E+00  0.1560E+03  0.1560E+03
    -19.174  0.0000E+00  0.0000E+00  0.1560E+03  0.1560E+03
    -18.935  0.0000E+00  0.0000E+00  0.1560E+03  0.1560E+03
    -18.695  0.0000E+00  0.0000E+00  0.1560E+03  0.1560E+03
    -18.456  0.0000E+00  0.0000E+00  0.1560E+03  0.1560E+03
    -18.216  0.0000E+00  0.0000E+00  0.1560E+03  0.1560E+03
    -17.976  0.0000E+00  0.0000E+00  0.1560E+03  0.1560E+03
    -17.737  0.0000E+00  0.0000E+00  0.1560E+03  0.1560E+03
    -17.497  0.0000E+00  0.0000E+00  0.1560E+03  0.1560E+03
    -17.258  0.0000E+00  0.0000E+00  0.1560E+03  0.1560E+03
    -17.018  0.0000E+00  0.0000E+00  0.1560E+03  0.1560E+03
    -16.779  0.0000E+00  0.0000E+00  0.1560E+03  0.1560E+03
    -16.539  0.0000E+00  0.0000E+00  0.1560E+03  0.1560E+03
    -16.299  0.0000E+00  0.0000E+00  0.1560E+03  0.1560E+03
    -16.060  0.0000E+00  0.0000E+00  0.1560E+03  0.1560E+03
    -15.820  0.0000E+00  0.0000E+00  0.1560E+03  0.1560E+03
    -15.581  0.0000E+00  0.0000E+00  0.1560E+03  0.1560E+03
    -15.341  0.0000E+00  0.0000E+00  0.1560E+03  0.1560E+03
    -15.101  0.0000E+00  0.0000E+00  0.1560E+03  0.1560E+03
    -14.862  0.0000E+00  0.0000E+00  0.1560E+03  0.1560E+03
    -14.622  0.0000E+00  0.0000E+00  0.1560E+03  0.1560E+03
    -14.383  0.0000E+00  0.0000E+00  0.1560E+03  0.1560E+03
    -14.143  0.0000E+00  0.0000E+00  0.1560E+03  0.1560E+03
    -13.904  0.7865E-03  0.0000E+00  0.1560E+03  0.1560E+03
    -13.664  0.2160E+02  0.2228E-13  0.1612E+03  0.1560E+03
    -13.424  0.2824E+02  0.1460E+01  0.1679E+03  0.1563E+03
    -13.185  0.8255E+01  0.4419E+02  0.1699E+03  0.1669E+03
    -12.945  0.3155E+02  0.4995E+01  0.1775E+03  0.1681E+03
    -12.706  0.1053E+02  0.4142E+02  0.1800E+03  0.1781E+03
    -12.466  0.0000E+00  0.8116E+01  0.1800E+03  0.1800E+03
    -12.227  0.0000E+00  0.0000E+00  0.1800E+03  0.1800E+03
    -11.987  0.0000E+00  0.0000E+00  0.1800E+03  0.1800E+03
    -11.747  0.0000E+00  0.0000E+00  0.1800E+03  0.1800E+03
    -11.508  0.0000E+00  0.0000E+00  0.1800E+03  0.1800E+03
    -11.268  0.0000E+00  0.0000E+00  0.1800E+03  0.1800E+03
    -11.029  0.0000E+00  0.0000E+00  0.1800E+03  0.1800E+03
    -10.789  0.0000E+00  0.0000E+00  0.1800E+03  0.1800E+03
    -10.550  0.0000E+00  0.0000E+00  0.1800E+03  0.1800E+03
    -10.310  0.0000E+00  0.0000E+00  0.1800E+03  0.1800E+03
    -10.070  0.0000E+00  0.0000E+00  0.1800E+03  0.1800E+03
     -9.831  0.0000E+00  0.0000E+00  0.1800E+03  0.1800E+03
     -9.591  0.0000E+00  0.0000E+00  0.1800E+03  0.1800E+03
     -9.352  0.0000E+00  0.0000E+00  0.1800E+03  0.1800E+03
     -9.112  0.0000E+00  0.0000E+00  0.1800E+03  0.1800E+03
     -8.872  0.0000E+00  0.0000E+00  0.1800E+03  0.1800E+03
     -8.633  0.0000E+00  0.0000E+00  0.1800E+03  0.1800E+03
     -8.393  0.0000E+00  0.0000E+00  0.1800E+03  0.1800E+03
     -8.154  0.0000E+00  0.0000E+00  0.1800E+03  0.1800E+03
     -7.914  0.1508E-02  0.0000E+00  0.1800E+03  0.1800E+03
     -7.675  0.9070E+01  0.1200E-01  0.1822E+03  0.1800E+03
     -7.435  0.2276E+02  0.1164E+02  0.1876E+03  0.1828E+03
     -7.195  0.5486E+02  0.2794E+02  0.2008E+03  0.1895E+03
     -6.956  0.5915E+02  0.5936E+02  0.2149E+03  0.2037E+03
     -6.716  0.4431E+01  0.4762E+02  0.2160E+03  0.2151E+03
     -6.477  0.0000E+00  0.3695E+01  0.2160E+03  0.2160E+03
     -6.237  0.0000E+00  0.0000E+00  0.2160E+03  0.2160E+03
     -5.998  0.0000E+00  0.0000E+00  0.2160E+03  0.2160E+03
     -5.758  0.0000E+00  0.0000E+00  0.2160E+03  0.2160E+03
     -5.518  0.0000E+00  0.0000E+00  0.2160E+03  0.2160E+03
     -5.279  0.0000E+00  0.0000E+00  0.2160E+03  0.2160E+03
     -5.039  0.0000E+00  0.0000E+00  0.2160E+03  0.2160E+03
     -4.800  0.0000E+00  0.0000E+00  0.2160E+03  0.2160E+03
     -4.560  0.0000E+00  0.0000E+00  0.2160E+03  0.2160E+03
     -4.321  0.0000E+00  0.0000E+00  0.2160E+03  0.2160E+03
     -4.081  0.0000E+00  0.0000E+00  0.2160E+03  0.2160E+03
     -3.841  0.0000E+00  0.0000E+00  0.2160E+03  0.2160E+03
     -3.602  0.0000E+00  0.0000E+00  0.2160E+03  0.2160E+03
     -3.362  0.0000E+00  0.0000E+00  0.2160E+03  0.2160E+03
     -3.123  0.0000E+00  0.0000E+00  0.2160E+03  0.2160E+03
     -2.883  0.5226E-14  0.0000E+00  0.2160E+03  0.2160E+03
     -2.643  0.6460E+00  0.0000E+00  0.2162E+03  0.2160E+03
     -2.404  0.1049E+02  0.0000E+00  0.2187E+03  0.2160E+03
     -2.164  0.2004E+02  0.0000E+00  0.2235E+03  0.2160E+03
     -1.925  0.2272E+01  0.0000E+00  0.2240E+03  0.2160E+03
     -1.685  0.3405E+02  0.0000E+00  0.2322E+03  0.2160E+03
     -1.446  0.1903E+02  0.1287E-15  0.2367E+03  0.2160E+03
     -1.206  0.4443E+02  0.6504E-01  0.2474E+03  0.2160E+03
     -0.966  0.4904E+02  0.4368E+01  0.2591E+03  0.2171E+03
     -0.727  0.7456E+02  0.1385E+02  0.2770E+03  0.2204E+03
     -0.487  0.1026E+03  0.1517E+02  0.3016E+03  0.2240E+03
     -0.248  0.8555E+02  0.1913E+02  0.3221E+03  0.2286E+03
     -0.008  0.1104E+03  0.4138E+02  0.3485E+03  0.2385E+03
      0.231  0.7094E+02  0.3398E+02  0.3655E+03  0.2467E+03
      0.471  0.3877E+02  0.4172E+02  0.3748E+03  0.2566E+03
      0.711  0.4566E+02  0.3406E+02  0.3857E+03  0.2648E+03
      0.950  0.4867E+02  0.5221E+02  0.3974E+03  0.2773E+03
      1.190  0.5514E+02  0.6092E+02  0.4106E+03  0.2919E+03
      1.429  0.6375E+02  0.4437E+02  0.4259E+03  0.3025E+03
      1.669  0.1008E+03  0.4044E+02  0.4500E+03  0.3122E+03
      1.908  0.5388E+02  0.3828E+02  0.4629E+03  0.3214E+03
      2.148  0.3827E+02  0.3752E+02  0.4721E+03  0.3304E+03
      2.388  0.4660E+02  0.3814E+02  0.4833E+03  0.3395E+03
      2.627  0.4777E+02  0.4874E+02  0.4947E+03  0.3512E+03
      2.867  0.4371E+02  0.6322E+02  0.5052E+03  0.3663E+03
      3.106  0.4023E+02  0.5877E+02  0.5148E+03  0.3804E+03
      3.346  0.4681E+02  0.4863E+02  0.5260E+03  0.3921E+03
      3.585  0.5273E+02  0.2926E+02  0.5387E+03  0.3991E+03
      3.825  0.4579E+02  0.6052E+02  0.5496E+03  0.4136E+03
      4.065  0.3185E+02  0.7528E+02  0.5573E+03  0.4316E+03
      4.304  0.4266E+02  0.1565E+01  0.5675E+03  0.4320E+03
      4.544  0.2396E+02  0.0000E+00  0.5732E+03  0.4320E+03
      4.783  0.1053E+02  0.0000E+00  0.5757E+03  0.4320E+03
      5.023  0.1055E+01  0.0000E+00  0.5760E+03  0.4320E+03
      5.263  0.0000E+00  0.0000E+00  0.5760E+03  0.4320E+03
      5.502  0.0000E+00  0.0000E+00  0.5760E+03  0.4320E+03
      5.742  0.0000E+00  0.0000E+00  0.5760E+03  0.4320E+03
      5.981  0.0000E+00  0.1581E-11  0.5760E+03  0.4320E+03
      6.221  0.0000E+00  0.1243E+00  0.5760E+03  0.4320E+03
      6.460  0.0000E+00  0.7837E+01  0.5760E+03  0.4339E+03
      6.700  0.0000E+00  0.2978E+02  0.5760E+03  0.4410E+03
      6.940  0.2163E-12  0.4275E+02  0.5760E+03  0.4513E+03
      7.179  0.9145E-01  0.7241E+02  0.5760E+03  0.4686E+03
      7.419  0.1445E+00  0.8119E+02  0.5761E+03  0.4881E+03
      7.658  0.8365E+00  0.6534E+02  0.5763E+03  0.5037E+03
      7.898  0.3439E+01  0.8792E+02  0.5771E+03  0.5248E+03
      8.137  0.4279E+01  0.7175E+02  0.5781E+03  0.5420E+03
      8.377  0.6890E+01  0.5488E+02  0.5798E+03  0.5551E+03
      8.617  0.1606E+02  0.3711E+02  0.5836E+03  0.5640E+03
      8.856  0.2543E+02  0.3973E+02  0.5897E+03  0.5735E+03
      9.096  0.1928E+02  0.1974E+02  0.5943E+03  0.5783E+03
      9.335  0.2500E+02  0.1355E+02  0.6003E+03  0.5815E+03
      9.575  0.3101E+02  0.2056E+02  0.6077E+03  0.5864E+03
      9.814  0.2682E+02  0.2985E+02  0.6142E+03  0.5936E+03
     10.054  0.2984E+02  0.2652E+02  0.6213E+03  0.6000E+03
     10.294  0.2277E+02  0.3425E+02  0.6268E+03  0.6082E+03
     10.533  0.2043E+02  0.3596E+02  0.6317E+03  0.6168E+03
     10.773  0.2807E+02  0.2780E+02  0.6384E+03  0.6234E+03
     11.012  0.3907E+02  0.2280E+02  0.6477E+03  0.6289E+03
     11.252  0.3929E+02  0.2127E+02  0.6572E+03  0.6340E+03
     11.492  0.3743E+02  0.3218E+02  0.6661E+03  0.6417E+03
     11.731  0.4450E+02  0.3883E+02  0.6768E+03  0.6510E+03
     11.971  0.3880E+02  0.4232E+02  0.6861E+03  0.6611E+03
     12.210  0.3840E+02  0.5175E+02  0.6953E+03  0.6735E+03
     12.450  0.3977E+02  0.4713E+02  0.7048E+03  0.6848E+03
     12.689  0.3680E+02  0.3604E+02  0.7136E+03  0.6935E+03
     12.929  0.3460E+02  0.4115E+02  0.7219E+03  0.7033E+03
     13.169  0.2358E+02  0.4011E+02  0.7276E+03  0.7129E+03
     13.408  0.1824E+01  0.3407E+02  0.7280E+03  0.7211E+03
     13.648  0.0000E+00  0.2484E+02  0.7280E+03  0.7271E+03
     13.887  0.0000E+00  0.3955E+01  0.7280E+03  0.7280E+03
     14.127  0.0000E+00  0.3749E-05  0.7280E+03  0.7280E+03
     14.366  0.0000E+00  0.0000E+00  0.7280E+03  0.7280E+03
     14.606  0.0000E+00  0.0000E+00  0.7280E+03  0.7280E+03
     14.846  0.0000E+00  0.0000E+00  0.7280E+03  0.7280E+03
     15.085  0.0000E+00  0.0000E+00  0.7280E+03  0.7280E+03
     15.325  0.0000E+00  0.0000E+00  0.7280E+03  0.7280E+03
     15.564  0.0000E+00  0.0000E+00  0.7280E+03  0.7280E+03
     15.804  0.0000E+00  0.0000E+00  0.7280E+03  0.7280E+03
     16.043  0.0000E+00  0.0000E+00  0.7280E+03  0.7280E+03
     16.283  0.0000E+00  0.0000E+00  0.7280E+03  0.7280E+03
     16.523  0.0000E+00  0.0000E+00  0.7280E+03  0.7280E+03
     16.762  0.0000E+00  0.0000E+00  0.7280E+03  0.7280E+03
     17.002  0.0000E+00  0.0000E+00  0.7280E+03  0.7280E+03
