  224  224    1    2
  0.1357572E+02  0.1537960E-08  0.1537962E-08  0.1395899E-08  0.5000000E-15
  1.000000000000000E-004
  CAR 
 unknown system                          
   1664      8   1208
 
  0.0000000E+00  0.0000000E+00  0.0000000E+00  0.1250000E+00
    1      -51.142262    -46.391643   1.000000   1.000000
    2      -51.141970    -46.391181   1.000000   1.000000
    3      -51.141881    -46.391036   1.000000   1.000000
    4      -51.141763    -46.390996   1.000000   1.000000
    5      -51.141637    -46.390722   1.000000   1.000000
    6      -51.141472    -46.390658   1.000000   1.000000
    7      -51.141385    -46.390598   1.000000   1.000000
    8      -51.141349    -46.390459   1.000000   1.000000
    9      -51.141312    -46.390408   1.000000   1.000000
   10      -51.141296    -46.390389   1.000000   1.000000
   11      -51.141221    -46.390338   1.000000   1.000000
   12      -51.141149    -46.390285   1.000000   1.000000
   13      -51.141099    -46.390159   1.000000   1.000000
   14      -51.141038    -46.390134   1.000000   1.000000
   15      -51.140944    -46.390075   1.000000   1.000000
   16      -51.140906    -46.389993   1.000000   1.000000
   17      -51.140900    -46.389976   1.000000   1.000000
   18      -51.140889    -46.389898   1.000000   1.000000
   19      -51.140763    -46.389791   1.000000   1.000000
   20      -51.140740    -46.389730   1.000000   1.000000
   21      -51.140662    -46.389631   1.000000   1.000000
   22      -51.140619    -46.389619   1.000000   1.000000
   23      -51.140601    -46.389610   1.000000   1.000000
   24      -51.140579    -46.389578   1.000000   1.000000
   25      -51.140548    -46.389571   1.000000   1.000000
   26      -51.140537    -46.389555   1.000000   1.000000
   27      -51.140519    -46.389532   1.000000   1.000000
   28      -51.140514    -46.389480   1.000000   1.000000
   29      -51.140476    -46.389439   1.000000   1.000000
   30      -51.140443    -46.389386   1.000000   1.000000
   31      -51.140407    -46.389323   1.000000   1.000000
   32      -51.140359    -46.389266   1.000000   1.000000
   33      -51.140300    -46.389155   1.000000   1.000000
   34      -51.140260    -46.389093   1.000000   1.000000
   35      -51.140221    -46.389076   1.000000   1.000000
   36      -51.140159    -46.389032   1.000000   1.000000
   37      -51.140137    -46.388940   1.000000   1.000000
   38      -51.140111    -46.388927   1.000000   1.000000
   39      -51.140099    -46.388867   1.000000   1.000000
   40      -51.140088    -46.388858   1.000000   1.000000
   41      -51.140068    -46.388832   1.000000   1.000000
   42      -51.140065    -46.388815   1.000000   1.000000
   43      -51.140023    -46.388795   1.000000   1.000000
   44      -51.140001    -46.388764   1.000000   1.000000
   45      -51.139942    -46.388708   1.000000   1.000000
   46      -51.139888    -46.388688   1.000000   1.000000
   47      -51.139832    -46.388605   1.000000   1.000000
   48      -51.139798    -46.388519   1.000000   1.000000
   49      -51.139731    -46.388411   1.000000   1.000000
   50      -51.139693    -46.388402   1.000000   1.000000
   51      -51.139650    -46.388339   1.000000   1.000000
   52      -51.139612    -46.388321   1.000000   1.000000
   53      -51.139556    -46.388266   1.000000   1.000000
   54      -51.139539    -46.388217   1.000000   1.000000
   55      -51.139485    -46.388174   1.000000   1.000000
   56      -51.139430    -46.388107   1.000000   1.000000
   57      -51.139395    -46.388057   1.000000   1.000000
   58      -51.139308    -46.388001   1.000000   1.000000
   59      -51.139197    -46.387872   1.000000   1.000000
   60      -51.139071    -46.387764   1.000000   1.000000
   61      -51.138969    -46.387559   1.000000   1.000000
   62      -51.138896    -46.387516   1.000000   1.000000
   63      -51.138731    -46.387450   1.000000   1.000000
   64      -51.138454    -46.386966   1.000000   1.000000
   65      -49.648301    -45.929667   1.000000   1.000000
   66      -49.648212    -45.929605   1.000000   1.000000
   67      -49.648014    -45.929579   1.000000   1.000000
   68      -49.647993    -45.929524   1.000000   1.000000
   69      -49.647709    -45.929212   1.000000   1.000000
   70      -49.647678    -45.929150   1.000000   1.000000
   71      -49.647651    -45.928999   1.000000   1.000000
   72      -49.647622    -45.928965   1.000000   1.000000
   73      -49.647607    -45.928900   1.000000   1.000000
   74      -49.647529    -45.928851   1.000000   1.000000
   75      -49.647519    -45.928841   1.000000   1.000000
   76      -49.647426    -45.928810   1.000000   1.000000
   77      -49.647405    -45.928805   1.000000   1.000000
   78      -49.647365    -45.928771   1.000000   1.000000
   79      -49.647337    -45.928766   1.000000   1.000000
   80      -49.647242    -45.928731   1.000000   1.000000
   81      -49.647210    -45.928645   1.000000   1.000000
   82      -49.647178    -45.928583   1.000000   1.000000
   83      -49.647133    -45.928564   1.000000   1.000000
   84      -49.647106    -45.928548   1.000000   1.000000
   85      -49.647101    -45.928508   1.000000   1.000000
   86      -49.647051    -45.928490   1.000000   1.000000
   87      -49.647026    -45.928387   1.000000   1.000000
   88      -49.647017    -45.928364   1.000000   1.000000
   89      -49.646970    -45.928360   1.000000   1.000000
   90      -49.646954    -45.928332   1.000000   1.000000
   91      -49.646939    -45.928299   1.000000   1.000000
   92      -49.646885    -45.928275   1.000000   1.000000
   93      -49.646870    -45.928221   1.000000   1.000000
   94      -49.646785    -45.928215   1.000000   1.000000
   95      -49.646742    -45.928159   1.000000   1.000000
   96      -49.646728    -45.928128   1.000000   1.000000
   97      -49.646704    -45.928051   1.000000   1.000000
   98      -49.646651    -45.928036   1.000000   1.000000
   99      -49.646620    -45.928017   1.000000   1.000000
  100      -49.646568    -45.927986   1.000000   1.000000
  101      -49.646483    -45.927933   1.000000   1.000000
  102      -49.646461    -45.927895   1.000000   1.000000
  103      -49.646411    -45.927862   1.000000   1.000000
  104      -49.646384    -45.927841   1.000000   1.000000
  105      -49.646364    -45.927838   1.000000   1.000000
  106      -49.646334    -45.927798   1.000000   1.000000
  107      -49.646279    -45.927757   1.000000   1.000000
  108      -49.646228    -45.927750   1.000000   1.000000
  109      -49.646179    -45.927719   1.000000   1.000000
  110      -49.646175    -45.927701   1.000000   1.000000
  111      -49.646149    -45.927687   1.000000   1.000000
  112      -49.646113    -45.927646   1.000000   1.000000
  113      -49.646103    -45.927620   1.000000   1.000000
  114      -49.646040    -45.927592   1.000000   1.000000
  115      -49.645976    -45.927537   1.000000   1.000000
  116      -49.645972    -45.927515   1.000000   1.000000
  117      -49.645962    -45.927461   1.000000   1.000000
  118      -49.645947    -45.927422   1.000000   1.000000
  119      -49.645934    -45.927388   1.000000   1.000000
  120      -49.645921    -45.927354   1.000000   1.000000
  121      -49.645875    -45.927344   1.000000   1.000000
  122      -49.645852    -45.927306   1.000000   1.000000
  123      -49.645850    -45.927287   1.000000   1.000000
  124      -49.645844    -45.927223   1.000000   1.000000
  125      -49.645721    -45.927211   1.000000   1.000000
  126      -49.645702    -45.927200   1.000000   1.000000
  127      -49.645664    -45.927175   1.000000   1.000000
  128      -49.645637    -45.927169   1.000000   1.000000
  129      -49.645598    -45.927140   1.000000   1.000000
  130      -49.645569    -45.927117   1.000000   1.000000
  131      -49.645470    -45.927090   1.000000   1.000000
  132      -49.645442    -45.927079   1.000000   1.000000
  133      -49.645423    -45.927049   1.000000   1.000000
  134      -49.645395    -45.927047   1.000000   1.000000
  135      -49.645364    -45.927004   1.000000   1.000000
  136      -49.645352    -45.926984   1.000000   1.000000
  137      -49.645316    -45.926930   1.000000   1.000000
  138      -49.645312    -45.926906   1.000000   1.000000
  139      -49.645260    -45.926875   1.000000   1.000000
  140      -49.645230    -45.926857   1.000000   1.000000
  141      -49.645202    -45.926799   1.000000   1.000000
  142      -49.645173    -45.926775   1.000000   1.000000
  143      -49.645155    -45.926728   1.000000   1.000000
  144      -49.645152    -45.926722   1.000000   1.000000
  145      -49.645113    -45.926691   1.000000   1.000000
  146      -49.645091    -45.926671   1.000000   1.000000
  147      -49.645065    -45.926667   1.000000   1.000000
  148      -49.645055    -45.926648   1.000000   1.000000
  149      -49.644980    -45.926634   1.000000   1.000000
  150      -49.644974    -45.926601   1.000000   1.000000
  151      -49.644914    -45.926591   1.000000   1.000000
  152      -49.644904    -45.926578   1.000000   1.000000
  153      -49.644889    -45.926545   1.000000   1.000000
  154      -49.644857    -45.926521   1.000000   1.000000
  155      -49.644813    -45.926483   1.000000   1.000000
  156      -49.644792    -45.926479   1.000000   1.000000
  157      -49.644763    -45.926470   1.000000   1.000000
  158      -49.644733    -45.926449   1.000000   1.000000
  159      -49.644680    -45.926415   1.000000   1.000000
  160      -49.644669    -45.926406   1.000000   1.000000
  161      -49.644625    -45.926371   1.000000   1.000000
  162      -49.644571    -45.926354   1.000000   1.000000
  163      -49.644556    -45.926330   1.000000   1.000000
  164      -49.644495    -45.926318   1.000000   1.000000
  165      -49.644472    -45.926294   1.000000   1.000000
  166      -49.644428    -45.926265   1.000000   1.000000
  167      -49.644421    -45.926227   1.000000   1.000000
  168      -49.644371    -45.926202   1.000000   1.000000
  169      -49.644359    -45.926160   1.000000   1.000000
  170      -49.644314    -45.926106   1.000000   1.000000
  171      -49.644259    -45.926097   1.000000   1.000000
  172      -49.644254    -45.926067   1.000000   1.000000
  173      -49.644178    -45.925978   1.000000   1.000000
  174      -49.644146    -45.925962   1.000000   1.000000
  175      -49.644123    -45.925951   1.000000   1.000000
  176      -49.644084    -45.925915   1.000000   1.000000
  177      -49.644055    -45.925887   1.000000   1.000000
  178      -49.644031    -45.925842   1.000000   1.000000
  179      -49.644001    -45.925770   1.000000   1.000000
  180      -49.643978    -45.925723   1.000000   1.000000
  181      -49.643864    -45.925700   1.000000   1.000000
  182      -49.643835    -45.925692   1.000000   1.000000
  183      -49.643788    -45.925630   1.000000   1.000000
  184      -49.643699    -45.925596   1.000000   1.000000
  185      -49.643639    -45.925445   1.000000   1.000000
  186      -49.643634    -45.925407   1.000000   1.000000
  187      -49.643502    -45.925274   1.000000   1.000000
  188      -49.643475    -45.925251   1.000000   1.000000
  189      -49.643323    -45.925086   1.000000   1.000000
  190      -49.643202    -45.925056   1.000000   1.000000
  191      -49.642715    -45.925002   1.000000   1.000000
  192      -49.642683    -45.924955   1.000000   1.000000
  193      -39.643666    -39.642802   1.000000   1.000000
  194      -39.641048    -39.640131   1.000000   1.000000
  195      -39.638069    -39.637204   1.000000   1.000000
  196      -39.633549    -39.632677   1.000000   1.000000
  197      -39.633441    -39.632568   1.000000   1.000000
  198      -39.633440    -39.632567   1.000000   1.000000
  199      -39.633386    -39.632513   1.000000   1.000000
  200      -39.633356    -39.632484   1.000000   1.000000
  201      -39.633349    -39.632476   1.000000   1.000000
  202      -39.632498    -39.631629   1.000000   1.000000
  203      -39.629776    -39.628935   1.000000   1.000000
  204      -39.627905    -39.627067   1.000000   1.000000
  205      -39.627795    -39.626957   1.000000   1.000000
  206      -39.627766    -39.626928   1.000000   1.000000
  207      -39.627757    -39.626918   1.000000   1.000000
  208      -39.627697    -39.626858   1.000000   1.000000
  209      -39.627657    -39.626819   1.000000   1.000000
  210      -39.626290    -39.625453   1.000000   1.000000
  211      -39.621039    -39.620260   1.000000   1.000000
  212      -39.616418    -39.615643   1.000000   1.000000
  213      -39.616219    -39.615449   1.000000   1.000000
  214      -39.616050    -39.615272   1.000000   1.000000
  215      -39.616013    -39.615237   1.000000   1.000000
  216      -39.615876    -39.615101   1.000000   1.000000
  217      -39.615686    -39.614907   1.000000   1.000000
  218      -39.615603    -39.614830   1.000000   1.000000
  219      -39.615520    -39.614740   1.000000   1.000000
  220      -39.615280    -39.614509   1.000000   1.000000
  221      -39.615239    -39.614471   1.000000   1.000000
  222      -39.615228    -39.614460   1.000000   1.000000
  223      -39.615222    -39.614455   1.000000   1.000000
  224      -39.615189    -39.614419   1.000000   1.000000
  225      -39.615156    -39.614389   1.000000   1.000000
  226      -39.615154    -39.614387   1.000000   1.000000
  227      -39.615081    -39.614314   1.000000   1.000000
  228      -39.614935    -39.614168   1.000000   1.000000
  229      -39.614907    -39.614138   1.000000   1.000000
  230      -39.614906    -39.614136   1.000000   1.000000
  231      -39.614903    -39.614135   1.000000   1.000000
  232      -39.614778    -39.614011   1.000000   1.000000
  233      -39.614450    -39.613687   1.000000   1.000000
  234      -39.614429    -39.613660   1.000000   1.000000
  235      -39.614293    -39.613534   1.000000   1.000000
  236      -39.614255    -39.613498   1.000000   1.000000
  237      -39.613709    -39.612946   1.000000   1.000000
  238      -39.609845    -39.609078   1.000000   1.000000
  239      -39.605287    -39.604566   1.000000   1.000000
  240      -39.603875    -39.603156   1.000000   1.000000
  241      -39.603873    -39.603154   1.000000   1.000000
  242      -39.603807    -39.603088   1.000000   1.000000
  243      -39.603796    -39.603077   1.000000   1.000000
  244      -39.603777    -39.603057   1.000000   1.000000
  245      -39.603715    -39.602995   1.000000   1.000000
  246      -39.602211    -39.601492   1.000000   1.000000
  247      -39.600314    -39.599606   1.000000   1.000000
  248      -39.599600    -39.598894   1.000000   1.000000
  249      -39.599595    -39.598889   1.000000   1.000000
  250      -39.599565    -39.598859   1.000000   1.000000
  251      -39.599511    -39.598806   1.000000   1.000000
  252      -39.599509    -39.598803   1.000000   1.000000
  253      -39.599398    -39.598691   1.000000   1.000000
  254      -39.595196    -39.594491   1.000000   1.000000
  255      -39.593282    -39.592599   1.000000   1.000000
  256      -39.589429    -39.588689   1.000000   1.000000
  257      -12.747206    -12.467737   1.000000   1.000000
  258      -12.747195    -12.467725   1.000000   1.000000
  259      -12.719746    -12.440006   1.000000   1.000000
  260      -12.719406    -12.439646   1.000000   1.000000
  261      -12.719379    -12.439618   1.000000   1.000000
  262      -12.719336    -12.439585   1.000000   1.000000
  263      -12.719317    -12.439567   1.000000   1.000000
  264      -12.719267    -12.439523   1.000000   1.000000
  265      -12.719252    -12.439509   1.000000   1.000000
  266      -12.718931    -12.439169   1.000000   1.000000
  267      -12.697244    -12.417075   1.000000   1.000000
  268      -12.697133    -12.416960   1.000000   1.000000
  269      -12.694857    -12.415246   1.000000   1.000000
  270      -12.694763    -12.415155   1.000000   1.000000
  271      -12.694749    -12.415140   1.000000   1.000000
  272      -12.694723    -12.415116   1.000000   1.000000
  273      -12.692450    -12.413381   1.000000   1.000000
  274      -12.692320    -12.413265   1.000000   1.000000
  275      -12.691257    -12.411222   1.000000   1.000000
  276      -12.691247    -12.411215   1.000000   1.000000
  277      -12.691242    -12.411209   1.000000   1.000000
  278      -12.691070    -12.411070   1.000000   1.000000
  279      -12.672980    -12.392971   1.000000   1.000000
  280      -12.672739    -12.392720   1.000000   1.000000
  281      -12.672605    -12.392594   1.000000   1.000000
  282      -12.672352    -12.392340   1.000000   1.000000
  283      -12.667893    -12.389000   1.000000   1.000000
  284      -12.667671    -12.388777   1.000000   1.000000
  285      -12.667537    -12.388651   1.000000   1.000000
  286      -12.667258    -12.388360   1.000000   1.000000
  287      -12.654515    -12.374562   1.000000   1.000000
  288      -12.643740    -12.366015   1.000000   1.000000
  289       -7.800026     -7.599027   1.000000   1.000000
  290       -7.748234     -7.551513   1.000000   1.000000
  291       -7.505818     -7.319567   1.000000   1.000000
  292       -7.505416     -7.319163   1.000000   1.000000
  293       -7.505305     -7.319049   1.000000   1.000000
  294       -7.504926     -7.318654   1.000000   1.000000
  295       -7.501294     -7.309174   1.000000   1.000000
  296       -7.501008     -7.308868   1.000000   1.000000
  297       -7.500854     -7.308717   1.000000   1.000000
  298       -7.500563     -7.308409   1.000000   1.000000
  299       -7.315187     -7.117731   1.000000   1.000000
  300       -7.315128     -7.117676   1.000000   1.000000
  301       -7.296848     -7.093564   1.000000   1.000000
  302       -7.296820     -7.093538   1.000000   1.000000
  303       -7.296805     -7.093520   1.000000   1.000000
  304       -7.296771     -7.093490   1.000000   1.000000
  305       -7.269239     -7.061939   1.000000   1.000000
  306       -7.269224     -7.061928   1.000000   1.000000
  307       -7.088674     -6.893853   1.000000   1.000000
  308       -7.084656     -6.893845   1.000000   1.000000
  309       -7.084649     -6.893842   1.000000   1.000000
  310       -7.084629     -6.893830   1.000000   1.000000
  311       -7.084614     -6.796734   1.000000   1.000000
  312       -7.046571     -6.783806   1.000000   1.000000
  313       -7.000624     -6.767925   1.000000   1.000000
  314       -6.999858     -6.767910   1.000000   1.000000
  315       -6.999840     -6.767902   1.000000   1.000000
  316       -6.999814     -6.767900   1.000000   1.000000
  317       -6.999764     -6.766972   1.000000   1.000000
  318       -6.999690     -6.766154   1.000000   1.000000
  319       -6.999684     -6.766147   1.000000   1.000000
  320       -6.998956     -6.766100   1.000000   1.000000
  321       -6.994547     -6.766080   1.000000   1.000000
  322       -6.994221     -6.766005   1.000000   1.000000
  323       -6.994071     -6.765990   1.000000   1.000000
  324       -6.993742     -6.765209   1.000000   1.000000
  325       -6.955784     -6.745296   1.000000   1.000000
  326       -6.955765     -6.744939   1.000000   1.000000
  327       -6.955758     -6.744799   1.000000   1.000000
  328       -6.955738     -6.744427   1.000000   1.000000
  329       -6.948328     -6.697468   1.000000   1.000000
  330       -6.948301     -6.697430   1.000000   1.000000
  331       -6.929007     -6.689476   1.000000   1.000000
  332       -6.928670     -6.689133   1.000000   1.000000
  333       -6.928553     -6.689007   1.000000   1.000000
  334       -6.928207     -6.688653   1.000000   1.000000
  335       -6.911316     -6.640038   1.000000   1.000000
  336       -6.911293     -6.639314   1.000000   1.000000
  337       -6.885676     -6.639127   1.000000   1.000000
  338       -6.885668     -6.639104   1.000000   1.000000
  339       -6.885639     -6.639041   1.000000   1.000000
  340       -6.885630     -6.638969   1.000000   1.000000
  341       -6.877625     -6.638962   1.000000   1.000000
  342       -6.876883     -6.638617   1.000000   1.000000
  343       -6.876880     -6.638361   1.000000   1.000000
  344       -6.876811     -6.638327   1.000000   1.000000
  345       -6.876782     -6.638074   1.000000   1.000000
  346       -6.876732     -6.637749   1.000000   1.000000
  347       -6.876728     -6.628072   1.000000   1.000000
  348       -6.875945     -6.628052   1.000000   1.000000
  349       -6.832596     -6.586632   1.000000   1.000000
  350       -6.832584     -6.586623   1.000000   1.000000
  351       -6.794268     -6.499090   1.000000   1.000000
  352       -6.794247     -6.499070   1.000000   1.000000
  353       -1.525515     -0.414586   1.000000   1.000000
  354       -1.467873     -0.414569   1.000000   1.000000
  355       -1.467715     -0.414459   1.000000   1.000000
  356       -1.467589     -0.414440   1.000000   1.000000
  357       -1.467510      0.026170   1.000000   1.000000
  358       -1.460331      0.026278   1.000000   1.000000
  359       -1.460276      0.026438   1.000000   1.000000
  360       -1.460194      0.026575   1.000000   1.000000
  361       -1.460183      0.037431   1.000000   1.000000
  362       -1.421473      0.037913   1.000000   1.000000
  363       -1.421252      0.037976   1.000000   1.000000
  364       -1.382836      0.037999   1.000000   1.000000
  365       -1.382805      0.038063   1.000000   1.000000
  366       -1.382741      0.038131   1.000000   1.000000
  367       -1.382712      0.038245   1.000000   1.000000
  368       -1.332929      0.038680   1.000000   1.000000
  369       -1.332651      0.102786   1.000000   1.000000
  370       -1.332621      0.103022   1.000000   1.000000
  371       -1.332533      0.207456   1.000000   1.000000
  372       -1.332470      0.207503   1.000000   1.000000
  373       -1.332387      0.207586   1.000000   1.000000
  374       -1.332328      0.207649   1.000000   1.000000
  375       -1.332059      0.304165   1.000000   1.000000
  376       -1.292731      0.392317   1.000000   1.000000
  377       -1.292558      0.392503   1.000000   1.000000
  378       -1.292388      0.392686   1.000000   1.000000
  379       -1.292224      0.392880   1.000000   1.000000
  380       -1.256797      0.490870   1.000000   1.000000
  381       -1.256782      0.490924   1.000000   1.000000
  382       -1.232218      0.497559   1.000000   1.000000
  383       -1.232117      0.497688   1.000000   1.000000
  384       -1.220381      0.497711   1.000000   1.000000
  385       -0.822762      0.497829   1.000000   1.000000
  386       -0.822733      0.510661   1.000000   1.000000
  387       -0.822664      0.510699   1.000000   1.000000
  388       -0.822629      0.531201   1.000000   1.000000
  389       -0.722689      0.531215   1.000000   1.000000
  390       -0.722614      0.531282   1.000000   1.000000
  391       -0.699161      0.531299   1.000000   1.000000
  392       -0.699118      0.573797   1.000000   1.000000
  393       -0.698971      0.574247   1.000000   1.000000
  394       -0.698922      0.574334   1.000000   1.000000
  395       -0.688469      0.574349   1.000000   1.000000
  396       -0.688432      0.574409   1.000000   1.000000
  397       -0.688194      0.574441   1.000000   1.000000
  398       -0.688153      0.574529   1.000000   1.000000
  399       -0.666758      0.574979   1.000000   1.000000
  400       -0.666638      0.638615   1.000000   1.000000
  401       -0.666402      0.666266   1.000000   1.000000
  402       -0.666376      0.666374   1.000000   1.000000
  403       -0.651974      0.733085   1.000000   1.000000
  404       -0.651905      0.733106   1.000000   1.000000
  405       -0.651786      0.931376   1.000000   1.000000
  406       -0.651758      0.932549   1.000000   1.000000
  407       -0.589486      0.935604   1.000000   1.000000
  408       -0.589340      0.935652   1.000000   1.000000
  409       -0.576608      0.948911   1.000000   1.000000
  410       -0.576581      0.948940   1.000000   1.000000
  411       -0.576511      0.948965   1.000000   1.000000
  412       -0.576467      0.949000   1.000000   1.000000
  413       -0.553539      0.985862   1.000000   1.000000
  414       -0.553290      0.986188   1.000000   1.000000
  415       -0.553034      0.986230   1.000000   1.000000
  416       -0.552955      0.986551   1.000000   1.000000
  417       -0.497625      0.992779   1.000000   1.000000
  418       -0.496873      0.992970   1.000000   1.000000
  419       -0.472904      1.008932   1.000000   1.000000
  420       -0.472679      1.008941   1.000000   1.000000
  421       -0.461619      1.008952   1.000000   1.000000
  422       -0.461502      1.008962   1.000000   1.000000
  423       -0.461233      1.018469   1.000000   1.000000
  424       -0.461151      1.048906   1.000000   1.000000
  425       -0.459852      1.049250   1.000000   1.000000
  426       -0.459706      1.051629   1.000000   1.000000
  427       -0.459401      1.051696   1.000000   1.000000
  428       -0.459349      1.051758   1.000000   1.000000
  429       -0.410049      1.051928   1.000000   1.000000
  430       -0.409973      1.078662   1.000000   1.000000
  431       -0.407729      1.078735   1.000000   1.000000
  432       -0.407563      1.078844   1.000000   1.000000
  433       -0.407439      1.078974   1.000000   1.000000
  434       -0.407389      1.079755   1.000000   1.000000
  435       -0.407352      1.079799   1.000000   1.000000
  436       -0.407303      1.079949   1.000000   1.000000
  437       -0.383326      1.080086   1.000000   1.000000
  438       -0.383234      1.192787   1.000000   1.000000
  439       -0.378176      1.192945   1.000000   1.000000
  440       -0.368844      1.376462   1.000000   1.000000
  441       -0.368831      1.390345   1.000000   1.000000
  442       -0.368796      1.391142   1.000000   1.000000
  443       -0.368694      1.391249   1.000000   1.000000
  444       -0.368675      1.391299   1.000000   1.000000
  445       -0.368643      1.391389   1.000000   1.000000
  446       -0.368594      1.437315   1.000000   1.000000
  447       -0.368506      1.450207   1.000000   1.000000
  448       -0.353589      1.526169   1.000000   1.000000
  449       -0.353493      1.526334   1.000000   1.000000
  450       -0.349051      1.526482   1.000000   1.000000
  451       -0.341785      1.526596   1.000000   1.000000
  452       -0.335818      1.528757   1.000000   1.000000
  453       -0.335779      1.528902   1.000000   1.000000
  454       -0.335424      1.528982   1.000000   1.000000
  455       -0.335374      1.529240   1.000000   1.000000
  456       -0.334195      1.558266   1.000000   1.000000
  457       -0.334191      1.558328   1.000000   1.000000
  458       -0.334053      1.558343   1.000000   1.000000
  459       -0.334009      1.558396   1.000000   1.000000
  460       -0.324300      1.566415   1.000000   1.000000
  461       -0.324221      1.566742   1.000000   1.000000
  462       -0.323921      1.566813   1.000000   1.000000
  463       -0.323766      1.567194   1.000000   1.000000
  464       -0.321671      1.568036   1.000000   1.000000
  465       -0.321637      1.568255   1.000000   1.000000
  466       -0.321200      1.568366   1.000000   1.000000
  467       -0.321155      1.568898   1.000000   1.000000
  468       -0.303841      1.586589   1.000000   1.000000
  469       -0.295910      1.586666   1.000000   1.000000
  470       -0.288104      1.695624   1.000000   1.000000
  471       -0.287922      1.695816   1.000000   1.000000
  472       -0.287782      1.741006   1.000000   1.000000
  473       -0.287592      1.741075   1.000000   1.000000
  474       -0.280406      1.741179   1.000000   1.000000
  475       -0.280369      1.741252   1.000000   1.000000
  476       -0.275069      1.746858   1.000000   1.000000
  477       -0.275051      1.746862   1.000000   1.000000
  478       -0.274825      1.746898   1.000000   1.000000
  479       -0.274813      1.746903   1.000000   1.000000
  480       -0.241676      1.779042   1.000000   1.000000
  481       -0.241640      1.780597   1.000000   1.000000
  482       -0.241638      1.780661   1.000000   1.000000
  483       -0.241567      1.836609   1.000000   1.000000
  484       -0.241411      1.836948   1.000000   1.000000
  485       -0.241365      1.837332   1.000000   1.000000
  486       -0.241288      1.837473   1.000000   1.000000
  487       -0.241207      1.837751   1.000000   1.000000
  488       -0.207399      1.837997   1.000000   1.000000
  489       -0.207393      1.838423   1.000000   1.000000
  490       -0.199677      1.838461   1.000000   1.000000
  491       -0.199599      1.866203   1.000000   1.000000
  492       -0.199522      1.866409   1.000000   1.000000
  493       -0.199452      1.913004   1.000000   1.000000
  494       -0.194090      1.913329   1.000000   1.000000
  495       -0.193931      1.913498   1.000000   1.000000
  496       -0.164035      1.913539   1.000000   1.000000
  497       -0.163880      1.913606   1.000000   1.000000
  498       -0.163755      1.913675   1.000000   1.000000
  499       -0.163750      1.913821   1.000000   1.000000
  500       -0.156661      1.914179   1.000000   1.000000
  501       -0.156644      1.926927   1.000000   1.000000
  502       -0.156183      1.926999   1.000000   1.000000
  503       -0.156177      1.927040   1.000000   1.000000
  504       -0.139049      1.927153   1.000000   1.000000
  505       -0.139023      2.133165   1.000000   1.000000
  506       -0.138845      2.133338   1.000000   1.000000
  507       -0.138812      2.191258   1.000000   1.000000
  508       -0.091023      2.193190   1.000000   1.000000
  509       -0.090910      2.300457   1.000000   1.000000
  510       -0.082562      2.300807   1.000000   1.000000
  511       -0.082512      2.301158   1.000000   1.000000
  512       -0.082465      2.301275   1.000000   1.000000