 224 224   0   0
  0.1357572E+02  0.1537960E-08  0.1537962E-08  0.1395899E-08  0.5000000E-15
  1.000000000000000E-004
  CAR 
 unknown system                          
     17.69724087    -54.42149259  301      5.25675935      1.00000000
    -54.421  0.0000E+00  0.0000E+00  0.0000E+00  0.0000E+00
    -54.181  0.0000E+00  0.0000E+00  0.0000E+00  0.0000E+00
    -53.941  0.0000E+00  0.0000E+00  0.0000E+00  0.0000E+00
    -53.700  0.0000E+00  0.0000E+00  0.0000E+00  0.0000E+00
    -53.460  0.0000E+00  0.0000E+00  0.0000E+00  0.0000E+00
    -53.220  0.0000E+00  0.0000E+00  0.0000E+00  0.0000E+00
    -52.979  0.0000E+00  0.0000E+00  0.0000E+00  0.0000E+00
    -52.739  0.0000E+00  0.0000E+00  0.0000E+00  0.0000E+00
    -52.498  0.0000E+00  0.0000E+00  0.0000E+00  0.0000E+00
    -52.258  0.0000E+00  0.0000E+00  0.0000E+00  0.0000E+00
    -52.018  0.0000E+00  0.0000E+00  0.0000E+00  0.0000E+00
    -51.777  0.0000E+00  0.0000E+00  0.0000E+00  0.0000E+00
    -51.537  0.0000E+00  0.0000E+00  0.0000E+00  0.0000E+00
    -51.296  0.1370E-02  0.0000E+00  0.3294E-03  0.0000E+00
    -51.056  0.2640E+03  0.0000E+00  0.6346E+02  0.0000E+00
    -50.816  0.2266E+01  0.0000E+00  0.6400E+02  0.0000E+00
    -50.575  0.0000E+00  0.0000E+00  0.6400E+02  0.0000E+00
    -50.335  0.0000E+00  0.0000E+00  0.6400E+02  0.0000E+00
    -50.094  0.0000E+00  0.0000E+00  0.6400E+02  0.0000E+00
    -49.854  0.1037E-05  0.0000E+00  0.6400E+02  0.0000E+00
    -49.614  0.4353E+03  0.0000E+00  0.1686E+03  0.0000E+00
    -49.373  0.9713E+02  0.0000E+00  0.1920E+03  0.0000E+00
    -49.133  0.0000E+00  0.0000E+00  0.1920E+03  0.0000E+00
    -48.892  0.0000E+00  0.0000E+00  0.1920E+03  0.0000E+00
    -48.652  0.0000E+00  0.0000E+00  0.1920E+03  0.0000E+00
    -48.412  0.0000E+00  0.0000E+00  0.1920E+03  0.0000E+00
    -48.171  0.0000E+00  0.0000E+00  0.1920E+03  0.0000E+00
    -47.931  0.0000E+00  0.0000E+00  0.1920E+03  0.0000E+00
    -47.690  0.0000E+00  0.0000E+00  0.1920E+03  0.0000E+00
    -47.450  0.0000E+00  0.0000E+00  0.1920E+03  0.0000E+00
    -47.210  0.0000E+00  0.0000E+00  0.1920E+03  0.0000E+00
    -46.969  0.0000E+00  0.0000E+00  0.1920E+03  0.0000E+00
    -46.729  0.0000E+00  0.0000E+00  0.1920E+03  0.0000E+00
    -46.488  0.0000E+00  0.6718E+00  0.1920E+03  0.1615E+00
    -46.248  0.0000E+00  0.2655E+03  0.1920E+03  0.6400E+02
    -46.008  0.0000E+00  0.6135E+01  0.1920E+03  0.6547E+02
    -45.767  0.0000E+00  0.5263E+03  0.1920E+03  0.1920E+03
    -45.527  0.0000E+00  0.7806E-03  0.1920E+03  0.1920E+03
    -45.286  0.0000E+00  0.0000E+00  0.1920E+03  0.1920E+03
    -45.046  0.0000E+00  0.0000E+00  0.1920E+03  0.1920E+03
    -44.806  0.0000E+00  0.0000E+00  0.1920E+03  0.1920E+03
    -44.565  0.0000E+00  0.0000E+00  0.1920E+03  0.1920E+03
    -44.325  0.0000E+00  0.0000E+00  0.1920E+03  0.1920E+03
    -44.084  0.0000E+00  0.0000E+00  0.1920E+03  0.1920E+03
    -43.844  0.0000E+00  0.0000E+00  0.1920E+03  0.1920E+03
    -43.604  0.0000E+00  0.0000E+00  0.1920E+03  0.1920E+03
    -43.363  0.0000E+00  0.0000E+00  0.1920E+03  0.1920E+03
    -43.123  0.0000E+00  0.0000E+00  0.1920E+03  0.1920E+03
    -42.882  0.0000E+00  0.0000E+00  0.1920E+03  0.1920E+03
    -42.642  0.0000E+00  0.0000E+00  0.1920E+03  0.1920E+03
    -42.402  0.0000E+00  0.0000E+00  0.1920E+03  0.1920E+03
    -42.161  0.0000E+00  0.0000E+00  0.1920E+03  0.1920E+03
    -41.921  0.0000E+00  0.0000E+00  0.1920E+03  0.1920E+03
    -41.681  0.0000E+00  0.0000E+00  0.1920E+03  0.1920E+03
    -41.440  0.0000E+00  0.0000E+00  0.1920E+03  0.1920E+03
    -41.200  0.0000E+00  0.0000E+00  0.1920E+03  0.1920E+03
    -40.959  0.0000E+00  0.0000E+00  0.1920E+03  0.1920E+03
    -40.719  0.0000E+00  0.0000E+00  0.1920E+03  0.1920E+03
    -40.479  0.0000E+00  0.0000E+00  0.1920E+03  0.1920E+03
    -40.238  0.0000E+00  0.0000E+00  0.1920E+03  0.1920E+03
    -39.998  0.0000E+00  0.0000E+00  0.1920E+03  0.1920E+03
    -39.757  0.1971E-01  0.1796E-01  0.1920E+03  0.1920E+03
    -39.517  0.2652E+03  0.2651E+03  0.2557E+03  0.2557E+03
    -39.277  0.1054E+01  0.1117E+01  0.2560E+03  0.2560E+03
    -39.036  0.0000E+00  0.0000E+00  0.2560E+03  0.2560E+03
    -38.796  0.0000E+00  0.0000E+00  0.2560E+03  0.2560E+03
    -38.555  0.0000E+00  0.0000E+00  0.2560E+03  0.2560E+03
    -38.315  0.0000E+00  0.0000E+00  0.2560E+03  0.2560E+03
    -38.075  0.0000E+00  0.0000E+00  0.2560E+03  0.2560E+03
    -37.834  0.0000E+00  0.0000E+00  0.2560E+03  0.2560E+03
    -37.594  0.0000E+00  0.0000E+00  0.2560E+03  0.2560E+03
    -37.353  0.0000E+00  0.0000E+00  0.2560E+03  0.2560E+03
    -37.113  0.0000E+00  0.0000E+00  0.2560E+03  0.2560E+03
    -36.873  0.0000E+00  0.0000E+00  0.2560E+03  0.2560E+03
    -36.632  0.0000E+00  0.0000E+00  0.2560E+03  0.2560E+03
    -36.392  0.0000E+00  0.0000E+00  0.2560E+03  0.2560E+03
    -36.151  0.0000E+00  0.0000E+00  0.2560E+03  0.2560E+03
    -35.911  0.0000E+00  0.0000E+00  0.2560E+03  0.2560E+03
    -35.671  0.0000E+00  0.0000E+00  0.2560E+03  0.2560E+03
    -35.430  0.0000E+00  0.0000E+00  0.2560E+03  0.2560E+03
    -35.190  0.0000E+00  0.0000E+00  0.2560E+03  0.2560E+03
    -34.949  0.0000E+00  0.0000E+00  0.2560E+03  0.2560E+03
    -34.709  0.0000E+00  0.0000E+00  0.2560E+03  0.2560E+03
    -34.469  0.0000E+00  0.0000E+00  0.2560E+03  0.2560E+03
    -34.228  0.0000E+00  0.0000E+00  0.2560E+03  0.2560E+03
    -33.988  0.0000E+00  0.0000E+00  0.2560E+03  0.2560E+03
    -33.747  0.0000E+00  0.0000E+00  0.2560E+03  0.2560E+03
    -33.507  0.0000E+00  0.0000E+00  0.2560E+03  0.2560E+03
    -33.267  0.0000E+00  0.0000E+00  0.2560E+03  0.2560E+03
    -33.026  0.0000E+00  0.0000E+00  0.2560E+03  0.2560E+03
    -32.786  0.0000E+00  0.0000E+00  0.2560E+03  0.2560E+03
    -32.545  0.0000E+00  0.0000E+00  0.2560E+03  0.2560E+03
    -32.305  0.0000E+00  0.0000E+00  0.2560E+03  0.2560E+03
    -32.065  0.0000E+00  0.0000E+00  0.2560E+03  0.2560E+03
    -31.824  0.0000E+00  0.0000E+00  0.2560E+03  0.2560E+03
    -31.584  0.0000E+00  0.0000E+00  0.2560E+03  0.2560E+03
    -31.343  0.0000E+00  0.0000E+00  0.2560E+03  0.2560E+03
    -31.103  0.0000E+00  0.0000E+00  0.2560E+03  0.2560E+03
    -30.863  0.0000E+00  0.0000E+00  0.2560E+03  0.2560E+03
    -30.622  0.0000E+00  0.0000E+00  0.2560E+03  0.2560E+03
    -30.382  0.0000E+00  0.0000E+00  0.2560E+03  0.2560E+03
    -30.142  0.0000E+00  0.0000E+00  0.2560E+03  0.2560E+03
    -29.901  0.0000E+00  0.0000E+00  0.2560E+03  0.2560E+03
    -29.661  0.0000E+00  0.0000E+00  0.2560E+03  0.2560E+03
    -29.420  0.0000E+00  0.0000E+00  0.2560E+03  0.2560E+03
    -29.180  0.0000E+00  0.0000E+00  0.2560E+03  0.2560E+03
    -28.940  0.0000E+00  0.0000E+00  0.2560E+03  0.2560E+03
    -28.699  0.0000E+00  0.0000E+00  0.2560E+03  0.2560E+03
    -28.459  0.0000E+00  0.0000E+00  0.2560E+03  0.2560E+03
    -28.218  0.0000E+00  0.0000E+00  0.2560E+03  0.2560E+03
    -27.978  0.0000E+00  0.0000E+00  0.2560E+03  0.2560E+03
    -27.738  0.0000E+00  0.0000E+00  0.2560E+03  0.2560E+03
    -27.497  0.0000E+00  0.0000E+00  0.2560E+03  0.2560E+03
    -27.257  0.0000E+00  0.0000E+00  0.2560E+03  0.2560E+03
    -27.016  0.0000E+00  0.0000E+00  0.2560E+03  0.2560E+03
    -26.776  0.0000E+00  0.0000E+00  0.2560E+03  0.2560E+03
    -26.536  0.0000E+00  0.0000E+00  0.2560E+03  0.2560E+03
    -26.295  0.0000E+00  0.0000E+00  0.2560E+03  0.2560E+03
    -26.055  0.0000E+00  0.0000E+00  0.2560E+03  0.2560E+03
    -25.814  0.0000E+00  0.0000E+00  0.2560E+03  0.2560E+03
    -25.574  0.0000E+00  0.0000E+00  0.2560E+03  0.2560E+03
    -25.334  0.0000E+00  0.0000E+00  0.2560E+03  0.2560E+03
    -25.093  0.0000E+00  0.0000E+00  0.2560E+03  0.2560E+03
    -24.853  0.0000E+00  0.0000E+00  0.2560E+03  0.2560E+03
    -24.612  0.0000E+00  0.0000E+00  0.2560E+03  0.2560E+03
    -24.372  0.0000E+00  0.0000E+00  0.2560E+03  0.2560E+03
    -24.132  0.0000E+00  0.0000E+00  0.2560E+03  0.2560E+03
    -23.891  0.0000E+00  0.0000E+00  0.2560E+03  0.2560E+03
    -23.651  0.0000E+00  0.0000E+00  0.2560E+03  0.2560E+03
    -23.410  0.0000E+00  0.0000E+00  0.2560E+03  0.2560E+03
    -23.170  0.0000E+00  0.0000E+00  0.2560E+03  0.2560E+03
    -22.930  0.0000E+00  0.0000E+00  0.2560E+03  0.2560E+03
    -22.689  0.0000E+00  0.0000E+00  0.2560E+03  0.2560E+03
    -22.449  0.0000E+00  0.0000E+00  0.2560E+03  0.2560E+03
    -22.208  0.0000E+00  0.0000E+00  0.2560E+03  0.2560E+03
    -21.968  0.0000E+00  0.0000E+00  0.2560E+03  0.2560E+03
    -21.728  0.0000E+00  0.0000E+00  0.2560E+03  0.2560E+03
    -21.487  0.0000E+00  0.0000E+00  0.2560E+03  0.2560E+03
    -21.247  0.0000E+00  0.0000E+00  0.2560E+03  0.2560E+03
    -21.006  0.0000E+00  0.0000E+00  0.2560E+03  0.2560E+03
    -20.766  0.0000E+00  0.0000E+00  0.2560E+03  0.2560E+03
    -20.526  0.0000E+00  0.0000E+00  0.2560E+03  0.2560E+03
    -20.285  0.0000E+00  0.0000E+00  0.2560E+03  0.2560E+03
    -20.045  0.0000E+00  0.0000E+00  0.2560E+03  0.2560E+03
    -19.805  0.0000E+00  0.0000E+00  0.2560E+03  0.2560E+03
    -19.564  0.0000E+00  0.0000E+00  0.2560E+03  0.2560E+03
    -19.324  0.0000E+00  0.0000E+00  0.2560E+03  0.2560E+03
    -19.083  0.0000E+00  0.0000E+00  0.2560E+03  0.2560E+03
    -18.843  0.0000E+00  0.0000E+00  0.2560E+03  0.2560E+03
    -18.603  0.0000E+00  0.0000E+00  0.2560E+03  0.2560E+03
    -18.362  0.0000E+00  0.0000E+00  0.2560E+03  0.2560E+03
    -18.122  0.0000E+00  0.0000E+00  0.2560E+03  0.2560E+03
    -17.881  0.0000E+00  0.0000E+00  0.2560E+03  0.2560E+03
    -17.641  0.0000E+00  0.0000E+00  0.2560E+03  0.2560E+03
    -17.401  0.0000E+00  0.0000E+00  0.2560E+03  0.2560E+03
    -17.160  0.0000E+00  0.0000E+00  0.2560E+03  0.2560E+03
    -16.920  0.0000E+00  0.0000E+00  0.2560E+03  0.2560E+03
    -16.679  0.0000E+00  0.0000E+00  0.2560E+03  0.2560E+03
    -16.439  0.0000E+00  0.0000E+00  0.2560E+03  0.2560E+03
    -16.199  0.0000E+00  0.0000E+00  0.2560E+03  0.2560E+03
    -15.958  0.0000E+00  0.0000E+00  0.2560E+03  0.2560E+03
    -15.718  0.0000E+00  0.0000E+00  0.2560E+03  0.2560E+03
    -15.477  0.0000E+00  0.0000E+00  0.2560E+03  0.2560E+03
    -15.237  0.0000E+00  0.0000E+00  0.2560E+03  0.2560E+03
    -14.997  0.0000E+00  0.0000E+00  0.2560E+03  0.2560E+03
    -14.756  0.0000E+00  0.0000E+00  0.2560E+03  0.2560E+03
    -14.516  0.0000E+00  0.0000E+00  0.2560E+03  0.2560E+03
    -14.275  0.0000E+00  0.0000E+00  0.2560E+03  0.2560E+03
    -14.035  0.0000E+00  0.0000E+00  0.2560E+03  0.2560E+03
    -13.795  0.0000E+00  0.0000E+00  0.2560E+03  0.2560E+03
    -13.554  0.0000E+00  0.0000E+00  0.2560E+03  0.2560E+03
    -13.314  0.0000E+00  0.0000E+00  0.2560E+03  0.2560E+03
    -13.073  0.0000E+00  0.0000E+00  0.2560E+03  0.2560E+03
    -12.833  0.7894E-01  0.0000E+00  0.2560E+03  0.2560E+03
    -12.593  0.1320E+03  0.1552E-02  0.2877E+03  0.2560E+03
    -12.352  0.1047E+01  0.1236E+03  0.2880E+03  0.2857E+03
    -12.112  0.0000E+00  0.9491E+01  0.2880E+03  0.2880E+03
    -11.871  0.0000E+00  0.0000E+00  0.2880E+03  0.2880E+03
    -11.631  0.0000E+00  0.0000E+00  0.2880E+03  0.2880E+03
    -11.391  0.0000E+00  0.0000E+00  0.2880E+03  0.2880E+03
    -11.150  0.0000E+00  0.0000E+00  0.2880E+03  0.2880E+03
    -10.910  0.0000E+00  0.0000E+00  0.2880E+03  0.2880E+03
    -10.669  0.0000E+00  0.0000E+00  0.2880E+03  0.2880E+03
    -10.429  0.0000E+00  0.0000E+00  0.2880E+03  0.2880E+03
    -10.189  0.0000E+00  0.0000E+00  0.2880E+03  0.2880E+03
     -9.948  0.0000E+00  0.0000E+00  0.2880E+03  0.2880E+03
     -9.708  0.0000E+00  0.0000E+00  0.2880E+03  0.2880E+03
     -9.467  0.0000E+00  0.0000E+00  0.2880E+03  0.2880E+03
     -9.227  0.0000E+00  0.0000E+00  0.2880E+03  0.2880E+03
     -8.987  0.0000E+00  0.0000E+00  0.2880E+03  0.2880E+03
     -8.746  0.0000E+00  0.0000E+00  0.2880E+03  0.2880E+03
     -8.506  0.0000E+00  0.0000E+00  0.2880E+03  0.2880E+03
     -8.266  0.0000E+00  0.0000E+00  0.2880E+03  0.2880E+03
     -8.025  0.5101E-10  0.0000E+00  0.2880E+03  0.2880E+03
     -7.785  0.9330E+00  0.4080E-07  0.2882E+03  0.2880E+03
     -7.544  0.1880E+02  0.2856E+01  0.2927E+03  0.2887E+03
     -7.304  0.2817E+02  0.2234E+02  0.2995E+03  0.2941E+03
     -7.064  0.5376E+02  0.3104E+02  0.3124E+03  0.3015E+03
     -6.823  0.1469E+03  0.4888E+02  0.3478E+03  0.3133E+03
     -6.583  0.1765E+02  0.1389E+03  0.3520E+03  0.3467E+03
     -6.342  0.0000E+00  0.2217E+02  0.3520E+03  0.3520E+03
     -6.102  0.0000E+00  0.1146E-04  0.3520E+03  0.3520E+03
     -5.862  0.0000E+00  0.0000E+00  0.3520E+03  0.3520E+03
     -5.621  0.0000E+00  0.0000E+00  0.3520E+03  0.3520E+03
     -5.381  0.0000E+00  0.0000E+00  0.3520E+03  0.3520E+03
     -5.140  0.0000E+00  0.0000E+00  0.3520E+03  0.3520E+03
     -4.900  0.0000E+00  0.0000E+00  0.3520E+03  0.3520E+03
     -4.660  0.0000E+00  0.0000E+00  0.3520E+03  0.3520E+03
     -4.419  0.0000E+00  0.0000E+00  0.3520E+03  0.3520E+03
     -4.179  0.0000E+00  0.0000E+00  0.3520E+03  0.3520E+03
     -3.938  0.0000E+00  0.0000E+00  0.3520E+03  0.3520E+03
     -3.698  0.0000E+00  0.0000E+00  0.3520E+03  0.3520E+03
     -3.458  0.0000E+00  0.0000E+00  0.3520E+03  0.3520E+03
     -3.217  0.0000E+00  0.0000E+00  0.3520E+03  0.3520E+03
     -2.977  0.0000E+00  0.0000E+00  0.3520E+03  0.3520E+03
     -2.736  0.0000E+00  0.0000E+00  0.3520E+03  0.3520E+03
     -2.496  0.0000E+00  0.0000E+00  0.3520E+03  0.3520E+03
     -2.256  0.0000E+00  0.0000E+00  0.3520E+03  0.3520E+03
     -2.015  0.0000E+00  0.0000E+00  0.3520E+03  0.3520E+03
     -1.775  0.4994E-12  0.0000E+00  0.3520E+03  0.3520E+03
     -1.534  0.1246E+01  0.0000E+00  0.3523E+03  0.3520E+03
     -1.294  0.9997E+02  0.0000E+00  0.3763E+03  0.3520E+03
     -1.054  0.3190E+02  0.0000E+00  0.3840E+03  0.3520E+03
     -0.813  0.1245E+02  0.0000E+00  0.3870E+03  0.3520E+03
     -0.573  0.8943E+02  0.7847E-05  0.4085E+03  0.3520E+03
     -0.332  0.2237E+03  0.4064E+01  0.4623E+03  0.3530E+03
     -0.092  0.2017E+03  0.2468E+02  0.5108E+03  0.3589E+03
      0.148  0.1767E+03  0.4105E+02  0.5533E+03  0.3688E+03
      0.389  0.1518E+03  0.4236E+02  0.5897E+03  0.3790E+03
      0.629  0.1198E+03  0.7193E+02  0.6185E+03  0.3963E+03
      0.870  0.5443E+02  0.6050E+02  0.6316E+03  0.4108E+03
      1.110  0.6963E+02  0.6533E+02  0.6484E+03  0.4265E+03
      1.350  0.7346E+02  0.6772E+02  0.6660E+03  0.4428E+03
      1.591  0.6802E+02  0.7761E+02  0.6824E+03  0.4614E+03
      1.831  0.1106E+03  0.1110E+03  0.7089E+03  0.4881E+03
      2.072  0.2136E+03  0.6218E+02  0.7603E+03  0.5031E+03
      2.312  0.1399E+03  0.3782E+02  0.7939E+03  0.5122E+03
      2.552  0.8453E+02  0.7744E+02  0.8142E+03  0.5308E+03
      2.793  0.6869E+02  0.1040E+03  0.8307E+03  0.5558E+03
      3.033  0.3530E+02  0.7077E+02  0.8392E+03  0.5728E+03
      3.273  0.4041E+02  0.1313E+03  0.8489E+03  0.6043E+03
      3.514  0.5192E+02  0.1173E+03  0.8614E+03  0.6326E+03
      3.754  0.6738E+02  0.2513E+02  0.8776E+03  0.6386E+03
      3.995  0.7973E+02  0.4390E+02  0.8968E+03  0.6491E+03
      4.235  0.8007E+02  0.1786E+03  0.9160E+03  0.6921E+03
      4.475  0.7582E+02  0.4794E+02  0.9343E+03  0.7036E+03
      4.716  0.2870E+02  0.1673E+01  0.9412E+03  0.7040E+03
      4.956  0.6463E+02  0.0000E+00  0.9567E+03  0.7040E+03
      5.197  0.1373E+02  0.0000E+00  0.9600E+03  0.7040E+03
      5.437  0.0000E+00  0.0000E+00  0.9600E+03  0.7040E+03
      5.677  0.0000E+00  0.0000E+00  0.9600E+03  0.7040E+03
      5.918  0.0000E+00  0.0000E+00  0.9600E+03  0.7040E+03
      6.158  0.0000E+00  0.8521E-07  0.9600E+03  0.7040E+03
      6.399  0.0000E+00  0.1030E+01  0.9600E+03  0.7042E+03
      6.639  0.0000E+00  0.1012E+02  0.9600E+03  0.7067E+03
      6.879  0.0000E+00  0.2650E+02  0.9600E+03  0.7131E+03
      7.120  0.2886E-16  0.6581E+02  0.9600E+03  0.7289E+03
      7.360  0.5761E-01  0.1114E+03  0.9600E+03  0.7556E+03
      7.601  0.1502E+01  0.1393E+03  0.9604E+03  0.7891E+03
      7.841  0.5119E+01  0.1182E+03  0.9616E+03  0.8175E+03
      8.081  0.7083E+01  0.1785E+03  0.9633E+03  0.8605E+03
      8.322  0.9301E+01  0.1459E+03  0.9655E+03  0.8956E+03
      8.562  0.1252E+02  0.6189E+02  0.9686E+03  0.9104E+03
      8.803  0.1444E+02  0.8258E+02  0.9720E+03  0.9303E+03
      9.043  0.2716E+02  0.7301E+02  0.9786E+03  0.9478E+03
      9.283  0.3344E+02  0.5734E+02  0.9866E+03  0.9616E+03
      9.524  0.3528E+02  0.2321E+02  0.9951E+03  0.9672E+03
      9.764  0.5330E+02  0.3405E+02  0.1008E+04  0.9754E+03
     10.005  0.5112E+02  0.2267E+02  0.1020E+04  0.9808E+03
     10.245  0.3395E+02  0.3871E+02  0.1028E+04  0.9901E+03
     10.485  0.2153E+02  0.4345E+02  0.1034E+04  0.1001E+04
     10.726  0.4557E+02  0.6102E+02  0.1044E+04  0.1015E+04
     10.966  0.3308E+02  0.4352E+02  0.1052E+04  0.1026E+04
     11.207  0.4351E+02  0.4020E+02  0.1063E+04  0.1035E+04
     11.447  0.7796E+02  0.3448E+02  0.1082E+04  0.1044E+04
     11.687  0.4290E+02  0.4376E+02  0.1092E+04  0.1054E+04
     11.928  0.6448E+02  0.5183E+02  0.1107E+04  0.1067E+04
     12.168  0.6670E+02  0.5753E+02  0.1123E+04  0.1080E+04
     12.409  0.6932E+02  0.5325E+02  0.1140E+04  0.1093E+04
     12.649  0.6091E+02  0.6689E+02  0.1155E+04  0.1109E+04
     12.889  0.5276E+02  0.7975E+02  0.1167E+04  0.1129E+04
     13.130  0.5862E+02  0.6467E+02  0.1182E+04  0.1144E+04
     13.370  0.4846E+02  0.6626E+02  0.1193E+04  0.1160E+04
     13.611  0.4028E+02  0.6465E+02  0.1203E+04  0.1176E+04
     13.851  0.1876E+02  0.5731E+02  0.1207E+04  0.1189E+04
     14.091  0.2533E+01  0.5313E+02  0.1208E+04  0.1202E+04
     14.332  0.0000E+00  0.2147E+02  0.1208E+04  0.1207E+04
     14.572  0.0000E+00  0.3069E+01  0.1208E+04  0.1208E+04
     14.812  0.0000E+00  0.3932E-05  0.1208E+04  0.1208E+04
     15.053  0.0000E+00  0.0000E+00  0.1208E+04  0.1208E+04
     15.293  0.0000E+00  0.0000E+00  0.1208E+04  0.1208E+04
     15.534  0.0000E+00  0.0000E+00  0.1208E+04  0.1208E+04
     15.774  0.0000E+00  0.0000E+00  0.1208E+04  0.1208E+04
     16.014  0.0000E+00  0.0000E+00  0.1208E+04  0.1208E+04
     16.255  0.0000E+00  0.0000E+00  0.1208E+04  0.1208E+04
     16.495  0.0000E+00  0.0000E+00  0.1208E+04  0.1208E+04
     16.736  0.0000E+00  0.0000E+00  0.1208E+04  0.1208E+04
     16.976  0.0000E+00  0.0000E+00  0.1208E+04  0.1208E+04
     17.216  0.0000E+00  0.0000E+00  0.1208E+04  0.1208E+04
     17.457  0.0000E+00  0.0000E+00  0.1208E+04  0.1208E+04
     17.697  0.0000E+00  0.0000E+00  0.1208E+04  0.1208E+04
