  224  224    1    2
  0.1357572E+02  0.1537960E-08  0.1537962E-08  0.1395899E-08  0.5000000E-15
  1.000000000000000E-004
  CAR 
 unknown system                          
   1664      8   1208
 
  0.0000000E+00  0.0000000E+00  0.0000000E+00  0.1250000E+00
    1      -51.143368    -46.392592   1.000000   1.000000
    2      -51.142925    -46.391851   1.000000   1.000000
    3      -51.141678    -46.391123   1.000000   1.000000
    4      -51.141398    -46.390682   1.000000   1.000000
    5      -51.141378    -46.390676   1.000000   1.000000
    6      -51.141268    -46.390580   1.000000   1.000000
    7      -51.141215    -46.390485   1.000000   1.000000
    8      -51.141171    -46.390359   1.000000   1.000000
    9      -51.141126    -46.390310   1.000000   1.000000
   10      -51.141064    -46.390255   1.000000   1.000000
   11      -51.141024    -46.390158   1.000000   1.000000
   12      -51.140991    -46.390136   1.000000   1.000000
   13      -51.140926    -46.390061   1.000000   1.000000
   14      -51.140911    -46.390022   1.000000   1.000000
   15      -51.140893    -46.390007   1.000000   1.000000
   16      -51.140857    -46.389969   1.000000   1.000000
   17      -51.140797    -46.389879   1.000000   1.000000
   18      -51.140769    -46.389803   1.000000   1.000000
   19      -51.140726    -46.389756   1.000000   1.000000
   20      -51.140700    -46.389738   1.000000   1.000000
   21      -51.140680    -46.389713   1.000000   1.000000
   22      -51.140644    -46.389639   1.000000   1.000000
   23      -51.140577    -46.389610   1.000000   1.000000
   24      -51.140557    -46.389600   1.000000   1.000000
   25      -51.140522    -46.389550   1.000000   1.000000
   26      -51.140504    -46.389531   1.000000   1.000000
   27      -51.140500    -46.389524   1.000000   1.000000
   28      -51.140482    -46.389465   1.000000   1.000000
   29      -51.140467    -46.389458   1.000000   1.000000
   30      -51.140427    -46.389427   1.000000   1.000000
   31      -51.140392    -46.389412   1.000000   1.000000
   32      -51.140380    -46.389371   1.000000   1.000000
   33      -51.140288    -46.389099   1.000000   1.000000
   34      -51.140247    -46.389055   1.000000   1.000000
   35      -51.140237    -46.388988   1.000000   1.000000
   36      -51.140217    -46.388975   1.000000   1.000000
   37      -51.140176    -46.388949   1.000000   1.000000
   38      -51.140129    -46.388888   1.000000   1.000000
   39      -51.140124    -46.388861   1.000000   1.000000
   40      -51.140084    -46.388851   1.000000   1.000000
   41      -51.140076    -46.388811   1.000000   1.000000
   42      -51.140064    -46.388793   1.000000   1.000000
   43      -51.140019    -46.388779   1.000000   1.000000
   44      -51.139992    -46.388738   1.000000   1.000000
   45      -51.139961    -46.388692   1.000000   1.000000
   46      -51.139946    -46.388683   1.000000   1.000000
   47      -51.139932    -46.388657   1.000000   1.000000
   48      -51.139891    -46.388609   1.000000   1.000000
   49      -51.139864    -46.388569   1.000000   1.000000
   50      -51.139818    -46.388503   1.000000   1.000000
   51      -51.139783    -46.388478   1.000000   1.000000
   52      -51.139756    -46.388453   1.000000   1.000000
   53      -51.139745    -46.388436   1.000000   1.000000
   54      -51.139694    -46.388385   1.000000   1.000000
   55      -51.139655    -46.388320   1.000000   1.000000
   56      -51.139605    -46.388249   1.000000   1.000000
   57      -51.139562    -46.388165   1.000000   1.000000
   58      -51.139533    -46.388093   1.000000   1.000000
   59      -51.139509    -46.388049   1.000000   1.000000
   60      -51.139421    -46.387944   1.000000   1.000000
   61      -51.139384    -46.387919   1.000000   1.000000
   62      -51.139163    -46.387573   1.000000   1.000000
   63      -51.137671    -46.386567   1.000000   1.000000
   64      -51.137230    -46.385830   1.000000   1.000000
   65      -49.648805    -45.930354   1.000000   1.000000
   66      -49.648747    -45.930256   1.000000   1.000000
   67      -49.647951    -45.929782   1.000000   1.000000
   68      -49.647810    -45.929702   1.000000   1.000000
   69      -49.647699    -45.929125   1.000000   1.000000
   70      -49.647465    -45.929062   1.000000   1.000000
   71      -49.647460    -45.929054   1.000000   1.000000
   72      -49.647429    -45.928979   1.000000   1.000000
   73      -49.647403    -45.928763   1.000000   1.000000
   74      -49.647379    -45.928727   1.000000   1.000000
   75      -49.647356    -45.928683   1.000000   1.000000
   76      -49.647306    -45.928655   1.000000   1.000000
   77      -49.647265    -45.928631   1.000000   1.000000
   78      -49.647247    -45.928621   1.000000   1.000000
   79      -49.647235    -45.928604   1.000000   1.000000
   80      -49.647220    -45.928583   1.000000   1.000000
   81      -49.647211    -45.928550   1.000000   1.000000
   82      -49.647206    -45.928522   1.000000   1.000000
   83      -49.647167    -45.928482   1.000000   1.000000
   84      -49.647133    -45.928462   1.000000   1.000000
   85      -49.647116    -45.928426   1.000000   1.000000
   86      -49.647108    -45.928414   1.000000   1.000000
   87      -49.647096    -45.928410   1.000000   1.000000
   88      -49.647083    -45.928389   1.000000   1.000000
   89      -49.647066    -45.928348   1.000000   1.000000
   90      -49.647040    -45.928325   1.000000   1.000000
   91      -49.646961    -45.928299   1.000000   1.000000
   92      -49.646926    -45.928294   1.000000   1.000000
   93      -49.646857    -45.928264   1.000000   1.000000
   94      -49.646835    -45.928256   1.000000   1.000000
   95      -49.646804    -45.928224   1.000000   1.000000
   96      -49.646757    -45.928195   1.000000   1.000000
   97      -49.646708    -45.928120   1.000000   1.000000
   98      -49.646701    -45.928085   1.000000   1.000000
   99      -49.646643    -45.928057   1.000000   1.000000
  100      -49.646632    -45.928031   1.000000   1.000000
  101      -49.646596    -45.927969   1.000000   1.000000
  102      -49.646572    -45.927943   1.000000   1.000000
  103      -49.646560    -45.927929   1.000000   1.000000
  104      -49.646548    -45.927901   1.000000   1.000000
  105      -49.646400    -45.927880   1.000000   1.000000
  106      -49.646385    -45.927855   1.000000   1.000000
  107      -49.646356    -45.927837   1.000000   1.000000
  108      -49.646296    -45.927814   1.000000   1.000000
  109      -49.646291    -45.927646   1.000000   1.000000
  110      -49.646276    -45.927615   1.000000   1.000000
  111      -49.646203    -45.927601   1.000000   1.000000
  112      -49.646166    -45.927570   1.000000   1.000000
  113      -49.646092    -45.927467   1.000000   1.000000
  114      -49.646068    -45.927453   1.000000   1.000000
  115      -49.646043    -45.927435   1.000000   1.000000
  116      -49.646012    -45.927422   1.000000   1.000000
  117      -49.645913    -45.927380   1.000000   1.000000
  118      -49.645879    -45.927372   1.000000   1.000000
  119      -49.645862    -45.927345   1.000000   1.000000
  120      -49.645814    -45.927320   1.000000   1.000000
  121      -49.645808    -45.927300   1.000000   1.000000
  122      -49.645771    -45.927276   1.000000   1.000000
  123      -49.645767    -45.927265   1.000000   1.000000
  124      -49.645639    -45.927241   1.000000   1.000000
  125      -49.645603    -45.927194   1.000000   1.000000
  126      -49.645570    -45.927169   1.000000   1.000000
  127      -49.645559    -45.927152   1.000000   1.000000
  128      -49.645524    -45.927127   1.000000   1.000000
  129      -49.645487    -45.927091   1.000000   1.000000
  130      -49.645483    -45.927077   1.000000   1.000000
  131      -49.645460    -45.927064   1.000000   1.000000
  132      -49.645421    -45.927034   1.000000   1.000000
  133      -49.645417    -45.927029   1.000000   1.000000
  134      -49.645405    -45.927021   1.000000   1.000000
  135      -49.645386    -45.926986   1.000000   1.000000
  136      -49.645366    -45.926975   1.000000   1.000000
  137      -49.645345    -45.926954   1.000000   1.000000
  138      -49.645299    -45.926930   1.000000   1.000000
  139      -49.645260    -45.926916   1.000000   1.000000
  140      -49.645247    -45.926892   1.000000   1.000000
  141      -49.645240    -45.926828   1.000000   1.000000
  142      -49.645215    -45.926818   1.000000   1.000000
  143      -49.645215    -45.926787   1.000000   1.000000
  144      -49.645196    -45.926769   1.000000   1.000000
  145      -49.645178    -45.926747   1.000000   1.000000
  146      -49.645132    -45.926728   1.000000   1.000000
  147      -49.645118    -45.926698   1.000000   1.000000
  148      -49.645109    -45.926665   1.000000   1.000000
  149      -49.645072    -45.926625   1.000000   1.000000
  150      -49.645053    -45.926597   1.000000   1.000000
  151      -49.645035    -45.926577   1.000000   1.000000
  152      -49.644980    -45.926573   1.000000   1.000000
  153      -49.644915    -45.926557   1.000000   1.000000
  154      -49.644829    -45.926532   1.000000   1.000000
  155      -49.644823    -45.926519   1.000000   1.000000
  156      -49.644785    -45.926517   1.000000   1.000000
  157      -49.644743    -45.926488   1.000000   1.000000
  158      -49.644734    -45.926477   1.000000   1.000000
  159      -49.644661    -45.926456   1.000000   1.000000
  160      -49.644630    -45.926438   1.000000   1.000000
  161      -49.644600    -45.926414   1.000000   1.000000
  162      -49.644576    -45.926392   1.000000   1.000000
  163      -49.644574    -45.926357   1.000000   1.000000
  164      -49.644494    -45.926349   1.000000   1.000000
  165      -49.644485    -45.926324   1.000000   1.000000
  166      -49.644435    -45.926307   1.000000   1.000000
  167      -49.644428    -45.926252   1.000000   1.000000
  168      -49.644383    -45.926231   1.000000   1.000000
  169      -49.644357    -45.926204   1.000000   1.000000
  170      -49.644319    -45.926179   1.000000   1.000000
  171      -49.644225    -45.926147   1.000000   1.000000
  172      -49.644203    -45.926137   1.000000   1.000000
  173      -49.644182    -45.926131   1.000000   1.000000
  174      -49.644173    -45.926098   1.000000   1.000000
  175      -49.644117    -45.926070   1.000000   1.000000
  176      -49.644101    -45.926055   1.000000   1.000000
  177      -49.644091    -45.926016   1.000000   1.000000
  178      -49.644054    -45.925974   1.000000   1.000000
  179      -49.644019    -45.925844   1.000000   1.000000
  180      -49.643986    -45.925805   1.000000   1.000000
  181      -49.643950    -45.925774   1.000000   1.000000
  182      -49.643941    -45.925768   1.000000   1.000000
  183      -49.643890    -45.925747   1.000000   1.000000
  184      -49.643842    -45.925693   1.000000   1.000000
  185      -49.643733    -45.925672   1.000000   1.000000
  186      -49.643696    -45.925629   1.000000   1.000000
  187      -49.643590    -45.925520   1.000000   1.000000
  188      -49.643536    -45.925475   1.000000   1.000000
  189      -49.643479    -45.924570   1.000000   1.000000
  190      -49.643431    -45.924475   1.000000   1.000000
  191      -49.642013    -45.924321   1.000000   1.000000
  192      -49.641934    -45.924218   1.000000   1.000000
  193      -39.641203    -39.640286   1.000000   1.000000
  194      -39.641037    -39.640120   1.000000   1.000000
  195      -39.634373    -39.633499   1.000000   1.000000
  196      -39.633528    -39.632656   1.000000   1.000000
  197      -39.633426    -39.632553   1.000000   1.000000
  198      -39.633425    -39.632552   1.000000   1.000000
  199      -39.633416    -39.632543   1.000000   1.000000
  200      -39.633354    -39.632482   1.000000   1.000000
  201      -39.633352    -39.632479   1.000000   1.000000
  202      -39.632673    -39.631802   1.000000   1.000000
  203      -39.628208    -39.627370   1.000000   1.000000
  204      -39.628149    -39.627311   1.000000   1.000000
  205      -39.627796    -39.626959   1.000000   1.000000
  206      -39.627763    -39.626925   1.000000   1.000000
  207      -39.627755    -39.626918   1.000000   1.000000
  208      -39.627690    -39.626852   1.000000   1.000000
  209      -39.627418    -39.626581   1.000000   1.000000
  210      -39.627280    -39.626443   1.000000   1.000000
  211      -39.617461    -39.616688   1.000000   1.000000
  212      -39.616182    -39.615408   1.000000   1.000000
  213      -39.616066    -39.615289   1.000000   1.000000
  214      -39.615947    -39.615171   1.000000   1.000000
  215      -39.615866    -39.615090   1.000000   1.000000
  216      -39.615712    -39.614939   1.000000   1.000000
  217      -39.615610    -39.614830   1.000000   1.000000
  218      -39.615576    -39.614799   1.000000   1.000000
  219      -39.615506    -39.614727   1.000000   1.000000
  220      -39.615311    -39.614538   1.000000   1.000000
  221      -39.615247    -39.614480   1.000000   1.000000
  222      -39.615235    -39.614468   1.000000   1.000000
  223      -39.615159    -39.614392   1.000000   1.000000
  224      -39.615129    -39.614362   1.000000   1.000000
  225      -39.615127    -39.614360   1.000000   1.000000
  226      -39.615082    -39.614314   1.000000   1.000000
  227      -39.615008    -39.614240   1.000000   1.000000
  228      -39.615004    -39.614235   1.000000   1.000000
  229      -39.614998    -39.614229   1.000000   1.000000
  230      -39.614894    -39.614126   1.000000   1.000000
  231      -39.614888    -39.614120   1.000000   1.000000
  232      -39.614871    -39.614103   1.000000   1.000000
  233      -39.614659    -39.613895   1.000000   1.000000
  234      -39.614654    -39.613892   1.000000   1.000000
  235      -39.614389    -39.613632   1.000000   1.000000
  236      -39.614272    -39.613515   1.000000   1.000000
  237      -39.613865    -39.613101   1.000000   1.000000
  238      -39.613070    -39.612308   1.000000   1.000000
  239      -39.604205    -39.603485   1.000000   1.000000
  240      -39.604164    -39.603445   1.000000   1.000000
  241      -39.603870    -39.603152   1.000000   1.000000
  242      -39.603797    -39.603078   1.000000   1.000000
  243      -39.603790    -39.603071   1.000000   1.000000
  244      -39.603767    -39.603047   1.000000   1.000000
  245      -39.603528    -39.602809   1.000000   1.000000
  246      -39.603375    -39.602657   1.000000   1.000000
  247      -39.600192    -39.599486   1.000000   1.000000
  248      -39.599589    -39.598883   1.000000   1.000000
  249      -39.599587    -39.598882   1.000000   1.000000
  250      -39.599539    -39.598833   1.000000   1.000000
  251      -39.599518    -39.598813   1.000000   1.000000
  252      -39.599515    -39.598809   1.000000   1.000000
  253      -39.599405    -39.598699   1.000000   1.000000
  254      -39.598666    -39.597961   1.000000   1.000000
  255      -39.593291    -39.592609   1.000000   1.000000
  256      -39.593122    -39.592439   1.000000   1.000000
  257      -12.747485    -12.468041   1.000000   1.000000
  258      -12.747182    -12.467712   1.000000   1.000000
  259      -12.722407    -12.442828   1.000000   1.000000
  260      -12.719369    -12.439614   1.000000   1.000000
  261      -12.719357    -12.439602   1.000000   1.000000
  262      -12.719338    -12.439587   1.000000   1.000000
  263      -12.719318    -12.439566   1.000000   1.000000
  264      -12.719270    -12.439521   1.000000   1.000000
  265      -12.719259    -12.439510   1.000000   1.000000
  266      -12.717477    -12.437665   1.000000   1.000000
  267      -12.698760    -12.418925   1.000000   1.000000
  268      -12.696848    -12.416709   1.000000   1.000000
  269      -12.695992    -12.416200   1.000000   1.000000
  270      -12.694751    -12.415143   1.000000   1.000000
  271      -12.694736    -12.415129   1.000000   1.000000
  272      -12.694003    -12.414407   1.000000   1.000000
  273      -12.692956    -12.413732   1.000000   1.000000
  274      -12.692090    -12.412795   1.000000   1.000000
  275      -12.691674    -12.411822   1.000000   1.000000
  276      -12.691242    -12.411207   1.000000   1.000000
  277      -12.691236    -12.411202   1.000000   1.000000
  278      -12.688832    -12.408861   1.000000   1.000000
  279      -12.673727    -12.393793   1.000000   1.000000
  280      -12.672689    -12.392672   1.000000   1.000000
  281      -12.672647    -12.392632   1.000000   1.000000
  282      -12.671483    -12.391542   1.000000   1.000000
  283      -12.668401    -12.389480   1.000000   1.000000
  284      -12.667620    -12.388728   1.000000   1.000000
  285      -12.667578    -12.388689   1.000000   1.000000
  286      -12.665664    -12.386528   1.000000   1.000000
  287      -12.654320    -12.374353   1.000000   1.000000
  288      -12.643600    -12.365852   1.000000   1.000000
  289       -7.800025     -7.599026   1.000000   1.000000
  290       -7.748232     -7.551510   1.000000   1.000000
  291       -7.505515     -7.319259   1.000000   1.000000
  292       -7.505386     -7.319132   1.000000   1.000000
  293       -7.505325     -7.319072   1.000000   1.000000
  294       -7.505201     -7.318950   1.000000   1.000000
  295       -7.501087     -7.308942   1.000000   1.000000
  296       -7.500971     -7.308828   1.000000   1.000000
  297       -7.500900     -7.308759   1.000000   1.000000
  298       -7.500789     -7.308650   1.000000   1.000000
  299       -7.315196     -7.117738   1.000000   1.000000
  300       -7.315104     -7.117657   1.000000   1.000000
  301       -7.296873     -7.093586   1.000000   1.000000
  302       -7.296834     -7.093547   1.000000   1.000000
  303       -7.296794     -7.093513   1.000000   1.000000
  304       -7.296754     -7.093475   1.000000   1.000000
  305       -7.269280     -7.061975   1.000000   1.000000
  306       -7.269186     -7.061894   1.000000   1.000000
  307       -7.088625     -6.893900   1.000000   1.000000
  308       -7.084714     -6.893851   1.000000   1.000000
  309       -7.084662     -6.893835   1.000000   1.000000
  310       -7.084634     -6.893772   1.000000   1.000000
  311       -7.084567     -6.796723   1.000000   1.000000
  312       -7.046565     -6.783790   1.000000   1.000000
  313       -7.000001     -6.767963   1.000000   1.000000
  314       -6.999817     -6.767912   1.000000   1.000000
  315       -6.999815     -6.767895   1.000000   1.000000
  316       -6.999774     -6.767832   1.000000   1.000000
  317       -6.999763     -6.766317   1.000000   1.000000
  318       -6.999710     -6.766128   1.000000   1.000000
  319       -6.999703     -6.766124   1.000000   1.000000
  320       -6.999540     -6.766089   1.000000   1.000000
  321       -6.994321     -6.766081   1.000000   1.000000
  322       -6.994203     -6.766031   1.000000   1.000000
  323       -6.994134     -6.766028   1.000000   1.000000
  324       -6.994020     -6.765856   1.000000   1.000000
  325       -6.955825     -6.745023   1.000000   1.000000
  326       -6.955773     -6.744907   1.000000   1.000000
  327       -6.955744     -6.744841   1.000000   1.000000
  328       -6.955676     -6.744727   1.000000   1.000000
  329       -6.948363     -6.697489   1.000000   1.000000
  330       -6.948280     -6.697418   1.000000   1.000000
  331       -6.928761     -6.689214   1.000000   1.000000
  332       -6.928641     -6.689097   1.000000   1.000000
  333       -6.928577     -6.689035   1.000000   1.000000
  334       -6.928459     -6.688920   1.000000   1.000000
  335       -6.911319     -6.639269   1.000000   1.000000
  336       -6.911303     -6.639074   1.000000   1.000000
  337       -6.885683     -6.639068   1.000000   1.000000
  338       -6.885670     -6.639057   1.000000   1.000000
  339       -6.885617     -6.639025   1.000000   1.000000
  340       -6.885597     -6.638971   1.000000   1.000000
  341       -6.877040     -6.638970   1.000000   1.000000
  342       -6.876863     -6.638824   1.000000   1.000000
  343       -6.876861     -6.638420   1.000000   1.000000
  344       -6.876819     -6.638365   1.000000   1.000000
  345       -6.876802     -6.638346   1.000000   1.000000
  346       -6.876754     -6.638319   1.000000   1.000000
  347       -6.876749     -6.628082   1.000000   1.000000
  348       -6.876586     -6.628064   1.000000   1.000000
  349       -6.832642     -6.586673   1.000000   1.000000
  350       -6.832558     -6.586602   1.000000   1.000000
  351       -6.794274     -6.499095   1.000000   1.000000
  352       -6.794259     -6.499076   1.000000   1.000000
  353       -1.525533     -0.415107   1.000000   1.000000
  354       -1.468402     -0.414575   1.000000   1.000000
  355       -1.467705     -0.414447   1.000000   1.000000
  356       -1.467636     -0.413939   1.000000   1.000000
  357       -1.467081      0.025411   1.000000   1.000000
  358       -1.460822      0.026320   1.000000   1.000000
  359       -1.460326      0.026450   1.000000   1.000000
  360       -1.460190      0.027019   1.000000   1.000000
  361       -1.459612      0.036884   1.000000   1.000000
  362       -1.421745      0.037910   1.000000   1.000000
  363       -1.420988      0.037964   1.000000   1.000000
  364       -1.383451      0.038045   1.000000   1.000000
  365       -1.382813      0.038059   1.000000   1.000000
  366       -1.382746      0.038137   1.000000   1.000000
  367       -1.382110      0.038186   1.000000   1.000000
  368       -1.333688      0.039439   1.000000   1.000000
  369       -1.332590      0.102449   1.000000   1.000000
  370       -1.332551      0.103358   1.000000   1.000000
  371       -1.332513      0.206741   1.000000   1.000000
  372       -1.332466      0.207507   1.000000   1.000000
  373       -1.332443      0.207586   1.000000   1.000000
  374       -1.332432      0.208386   1.000000   1.000000
  375       -1.331326      0.304168   1.000000   1.000000
  376       -1.293054      0.391745   1.000000   1.000000
  377       -1.292515      0.392556   1.000000   1.000000
  378       -1.292447      0.392675   1.000000   1.000000
  379       -1.291851      0.393417   1.000000   1.000000
  380       -1.256800      0.490403   1.000000   1.000000
  381       -1.256772      0.491376   1.000000   1.000000
  382       -1.232516      0.497509   1.000000   1.000000
  383       -1.231812      0.497667   1.000000   1.000000
  384       -1.220362      0.497704   1.000000   1.000000
  385       -0.822880      0.497901   1.000000   1.000000
  386       -0.822752      0.510653   1.000000   1.000000
  387       -0.822649      0.510729   1.000000   1.000000
  388       -0.822514      0.531121   1.000000   1.000000
  389       -0.722839      0.531206   1.000000   1.000000
  390       -0.722465      0.531296   1.000000   1.000000
  391       -0.699216      0.531373   1.000000   1.000000
  392       -0.699145      0.574192   1.000000   1.000000
  393       -0.699118      0.574249   1.000000   1.000000
  394       -0.698726      0.574309   1.000000   1.000000
  395       -0.688519      0.574354   1.000000   1.000000
  396       -0.688445      0.574411   1.000000   1.000000
  397       -0.688183      0.574439   1.000000   1.000000
  398       -0.688106      0.574521   1.000000   1.000000
  399       -0.666887      0.574598   1.000000   1.000000
  400       -0.666485      0.638614   1.000000   1.000000
  401       -0.666409      0.666213   1.000000   1.000000
  402       -0.666396      0.666433   1.000000   1.000000
  403       -0.652164      0.733098   1.000000   1.000000
  404       -0.651802      0.733108   1.000000   1.000000
  405       -0.651780      0.931397   1.000000   1.000000
  406       -0.651672      0.932459   1.000000   1.000000
  407       -0.589603      0.935302   1.000000   1.000000
  408       -0.589225      0.935935   1.000000   1.000000
  409       -0.576867      0.948667   1.000000   1.000000
  410       -0.576618      0.948837   1.000000   1.000000
  411       -0.576467      0.948939   1.000000   1.000000
  412       -0.576217      0.949341   1.000000   1.000000
  413       -0.553383      0.985746   1.000000   1.000000
  414       -0.553375      0.986129   1.000000   1.000000
  415       -0.553226      0.986298   1.000000   1.000000
  416       -0.552859      0.986751   1.000000   1.000000
  417       -0.497620      0.992793   1.000000   1.000000
  418       -0.496885      0.992960   1.000000   1.000000
  419       -0.472911      1.008664   1.000000   1.000000
  420       -0.472684      1.008923   1.000000   1.000000
  421       -0.461577      1.008967   1.000000   1.000000
  422       -0.461566      1.009242   1.000000   1.000000
  423       -0.461287      1.018462   1.000000   1.000000
  424       -0.461076      1.048928   1.000000   1.000000
  425       -0.459787      1.049279   1.000000   1.000000
  426       -0.459773      1.051307   1.000000   1.000000
  427       -0.459484      1.051707   1.000000   1.000000
  428       -0.459270      1.051779   1.000000   1.000000
  429       -0.410295      1.052256   1.000000   1.000000
  430       -0.409747      1.078219   1.000000   1.000000
  431       -0.408052      1.078815   1.000000   1.000000
  432       -0.407537      1.078855   1.000000   1.000000
  433       -0.407498      1.079174   1.000000   1.000000
  434       -0.407422      1.079516   1.000000   1.000000
  435       -0.407329      1.079767   1.000000   1.000000
  436       -0.406916      1.079966   1.000000   1.000000
  437       -0.383337      1.080352   1.000000   1.000000
  438       -0.383245      1.192442   1.000000   1.000000
  439       -0.378173      1.193331   1.000000   1.000000
  440       -0.368834      1.376461   1.000000   1.000000
  441       -0.368830      1.390364   1.000000   1.000000
  442       -0.368745      1.391118   1.000000   1.000000
  443       -0.368722      1.391176   1.000000   1.000000
  444       -0.368687      1.391355   1.000000   1.000000
  445       -0.368649      1.391410   1.000000   1.000000
  446       -0.368582      1.437304   1.000000   1.000000
  447       -0.368541      1.450207   1.000000   1.000000
  448       -0.353573      1.525658   1.000000   1.000000
  449       -0.353535      1.526441   1.000000   1.000000
  450       -0.349063      1.526523   1.000000   1.000000
  451       -0.341777      1.526785   1.000000   1.000000
  452       -0.335838      1.528561   1.000000   1.000000
  453       -0.335797      1.528893   1.000000   1.000000
  454       -0.335376      1.528974   1.000000   1.000000
  455       -0.335330      1.529642   1.000000   1.000000
  456       -0.334297      1.558259   1.000000   1.000000
  457       -0.334261      1.558313   1.000000   1.000000
  458       -0.333987      1.558375   1.000000   1.000000
  459       -0.333919      1.558455   1.000000   1.000000
  460       -0.324493      1.566216   1.000000   1.000000
  461       -0.324040      1.566766   1.000000   1.000000
  462       -0.323866      1.566946   1.000000   1.000000
  463       -0.323847      1.567162   1.000000   1.000000
  464       -0.321865      1.567960   1.000000   1.000000
  465       -0.321389      1.568309   1.000000   1.000000
  466       -0.321196      1.568509   1.000000   1.000000
  467       -0.321183      1.568886   1.000000   1.000000
  468       -0.303817      1.586587   1.000000   1.000000
  469       -0.295909      1.586663   1.000000   1.000000
  470       -0.288109      1.695599   1.000000   1.000000
  471       -0.287888      1.695852   1.000000   1.000000
  472       -0.287785      1.740898   1.000000   1.000000
  473       -0.287635      1.741127   1.000000   1.000000
  474       -0.280411      1.741152   1.000000   1.000000
  475       -0.280383      1.741222   1.000000   1.000000
  476       -0.275150      1.746867   1.000000   1.000000
  477       -0.275066      1.746908   1.000000   1.000000
  478       -0.274824      1.746923   1.000000   1.000000
  479       -0.274734      1.746939   1.000000   1.000000
  480       -0.241708      1.779034   1.000000   1.000000
  481       -0.241608      1.780472   1.000000   1.000000
  482       -0.241596      1.780754   1.000000   1.000000
  483       -0.241575      1.836712   1.000000   1.000000
  484       -0.241386      1.836918   1.000000   1.000000
  485       -0.241361      1.837197   1.000000   1.000000
  486       -0.241347      1.837519   1.000000   1.000000
  487       -0.241224      1.837682   1.000000   1.000000
  488       -0.207403      1.837761   1.000000   1.000000
  489       -0.207400      1.838439   1.000000   1.000000
  490       -0.199721      1.838826   1.000000   1.000000
  491       -0.199663      1.866215   1.000000   1.000000
  492       -0.199452      1.866413   1.000000   1.000000
  493       -0.199407      1.912836   1.000000   1.000000
  494       -0.194173      1.913317   1.000000   1.000000
  495       -0.193851      1.913485   1.000000   1.000000
  496       -0.163963      1.913585   1.000000   1.000000
  497       -0.163953      1.913592   1.000000   1.000000
  498       -0.163846      1.913622   1.000000   1.000000
  499       -0.163668      1.913687   1.000000   1.000000
  500       -0.156653      1.914505   1.000000   1.000000
  501       -0.156646      1.926739   1.000000   1.000000
  502       -0.156330      1.926914   1.000000   1.000000
  503       -0.156049      1.927081   1.000000   1.000000
  504       -0.139151      1.927323   1.000000   1.000000
  505       -0.139037      2.133060   1.000000   1.000000
  506       -0.138829      2.133456   1.000000   1.000000
  507       -0.138715      2.191237   1.000000   1.000000
  508       -0.091147      2.193213   1.000000   1.000000
  509       -0.090774      2.300685   1.000000   1.000000
  510       -0.082791      2.300706   1.000000   1.000000
  511       -0.082555      2.300987   1.000000   1.000000
  512       -0.082391      2.301293   1.000000   1.000000