 144 144   0   0
  0.1325381E+02  0.1546422E-08  0.1214491E-08  0.1054520E-08  0.5000000E-15
  1.000000000000000E-004
  CAR 
 unknown system                          
     17.00729407    -54.87093146  301      5.08748833      1.00000000
    -54.871  0.0000E+00  0.0000E+00  0.0000E+00  0.0000E+00
    -54.631  0.0000E+00  0.0000E+00  0.0000E+00  0.0000E+00
    -54.392  0.0000E+00  0.0000E+00  0.0000E+00  0.0000E+00
    -54.152  0.0000E+00  0.0000E+00  0.0000E+00  0.0000E+00
    -53.913  0.0000E+00  0.0000E+00  0.0000E+00  0.0000E+00
    -53.673  0.0000E+00  0.0000E+00  0.0000E+00  0.0000E+00
    -53.433  0.0000E+00  0.0000E+00  0.0000E+00  0.0000E+00
    -53.194  0.0000E+00  0.0000E+00  0.0000E+00  0.0000E+00
    -52.954  0.0000E+00  0.0000E+00  0.0000E+00  0.0000E+00
    -52.715  0.0000E+00  0.0000E+00  0.0000E+00  0.0000E+00
    -52.475  0.0000E+00  0.0000E+00  0.0000E+00  0.0000E+00
    -52.235  0.0000E+00  0.0000E+00  0.0000E+00  0.0000E+00
    -51.996  0.0000E+00  0.0000E+00  0.0000E+00  0.0000E+00
    -51.756  0.3451E-03  0.0000E+00  0.8269E-04  0.0000E+00
    -51.517  0.4983E+02  0.0000E+00  0.1194E+02  0.0000E+00
    -51.277  0.8635E+02  0.0000E+00  0.3263E+02  0.0000E+00
    -51.037  0.1407E+02  0.0000E+00  0.3600E+02  0.0000E+00
    -50.798  0.0000E+00  0.0000E+00  0.3600E+02  0.0000E+00
    -50.558  0.0000E+00  0.0000E+00  0.3600E+02  0.0000E+00
    -50.319  0.1240E-03  0.0000E+00  0.3600E+02  0.0000E+00
    -50.079  0.6708E+02  0.0000E+00  0.5207E+02  0.0000E+00
    -49.839  0.2084E+03  0.0000E+00  0.1020E+03  0.0000E+00
    -49.600  0.2501E+02  0.0000E+00  0.1080E+03  0.0000E+00
    -49.360  0.0000E+00  0.0000E+00  0.1080E+03  0.0000E+00
    -49.121  0.0000E+00  0.0000E+00  0.1080E+03  0.0000E+00
    -48.881  0.0000E+00  0.0000E+00  0.1080E+03  0.0000E+00
    -48.641  0.0000E+00  0.0000E+00  0.1080E+03  0.0000E+00
    -48.402  0.0000E+00  0.0000E+00  0.1080E+03  0.0000E+00
    -48.162  0.0000E+00  0.0000E+00  0.1080E+03  0.0000E+00
    -47.923  0.0000E+00  0.0000E+00  0.1080E+03  0.0000E+00
    -47.683  0.0000E+00  0.0000E+00  0.1080E+03  0.0000E+00
    -47.444  0.0000E+00  0.0000E+00  0.1080E+03  0.0000E+00
    -47.204  0.0000E+00  0.0000E+00  0.1080E+03  0.0000E+00
    -46.964  0.0000E+00  0.6364E-01  0.1080E+03  0.1525E-01
    -46.725  0.0000E+00  0.5093E+02  0.1080E+03  0.1222E+02
    -46.485  0.0000E+00  0.9543E+02  0.1080E+03  0.3508E+02
    -46.246  0.0000E+00  0.1458E+03  0.1080E+03  0.7002E+02
    -46.006  0.0000E+00  0.1585E+03  0.1080E+03  0.1080E+03
    -45.766  0.0000E+00  0.4688E-02  0.1080E+03  0.1080E+03
    -45.527  0.0000E+00  0.0000E+00  0.1080E+03  0.1080E+03
    -45.287  0.0000E+00  0.0000E+00  0.1080E+03  0.1080E+03
    -45.048  0.0000E+00  0.0000E+00  0.1080E+03  0.1080E+03
    -44.808  0.0000E+00  0.0000E+00  0.1080E+03  0.1080E+03
    -44.568  0.0000E+00  0.0000E+00  0.1080E+03  0.1080E+03
    -44.329  0.0000E+00  0.0000E+00  0.1080E+03  0.1080E+03
    -44.089  0.0000E+00  0.0000E+00  0.1080E+03  0.1080E+03
    -43.850  0.0000E+00  0.0000E+00  0.1080E+03  0.1080E+03
    -43.610  0.0000E+00  0.0000E+00  0.1080E+03  0.1080E+03
    -43.370  0.0000E+00  0.0000E+00  0.1080E+03  0.1080E+03
    -43.131  0.0000E+00  0.0000E+00  0.1080E+03  0.1080E+03
    -42.891  0.0000E+00  0.0000E+00  0.1080E+03  0.1080E+03
    -42.652  0.0000E+00  0.0000E+00  0.1080E+03  0.1080E+03
    -42.412  0.0000E+00  0.0000E+00  0.1080E+03  0.1080E+03
    -42.172  0.0000E+00  0.0000E+00  0.1080E+03  0.1080E+03
    -41.933  0.0000E+00  0.0000E+00  0.1080E+03  0.1080E+03
    -41.693  0.0000E+00  0.0000E+00  0.1080E+03  0.1080E+03
    -41.454  0.0000E+00  0.0000E+00  0.1080E+03  0.1080E+03
    -41.214  0.0000E+00  0.0000E+00  0.1080E+03  0.1080E+03
    -40.974  0.0000E+00  0.0000E+00  0.1080E+03  0.1080E+03
    -40.735  0.1292E-08  0.4194E-09  0.1080E+03  0.1080E+03
    -40.495  0.2902E+02  0.2574E+02  0.1150E+03  0.1142E+03
    -40.256  0.4589E+02  0.4943E+02  0.1259E+03  0.1260E+03
    -40.016  0.1001E+03  0.1001E+03  0.1499E+03  0.1500E+03
    -39.777  0.2532E+02  0.2506E+02  0.1560E+03  0.1560E+03
    -39.537  0.0000E+00  0.0000E+00  0.1560E+03  0.1560E+03
    -39.297  0.0000E+00  0.0000E+00  0.1560E+03  0.1560E+03
    -39.058  0.0000E+00  0.0000E+00  0.1560E+03  0.1560E+03
    -38.818  0.0000E+00  0.0000E+00  0.1560E+03  0.1560E+03
    -38.579  0.0000E+00  0.0000E+00  0.1560E+03  0.1560E+03
    -38.339  0.0000E+00  0.0000E+00  0.1560E+03  0.1560E+03
    -38.099  0.0000E+00  0.0000E+00  0.1560E+03  0.1560E+03
    -37.860  0.0000E+00  0.0000E+00  0.1560E+03  0.1560E+03
    -37.620  0.0000E+00  0.0000E+00  0.1560E+03  0.1560E+03
    -37.381  0.0000E+00  0.0000E+00  0.1560E+03  0.1560E+03
    -37.141  0.0000E+00  0.0000E+00  0.1560E+03  0.1560E+03
    -36.901  0.0000E+00  0.0000E+00  0.1560E+03  0.1560E+03
    -36.662  0.0000E+00  0.0000E+00  0.1560E+03  0.1560E+03
    -36.422  0.0000E+00  0.0000E+00  0.1560E+03  0.1560E+03
    -36.183  0.0000E+00  0.0000E+00  0.1560E+03  0.1560E+03
    -35.943  0.0000E+00  0.0000E+00  0.1560E+03  0.1560E+03
    -35.703  0.0000E+00  0.0000E+00  0.1560E+03  0.1560E+03
    -35.464  0.0000E+00  0.0000E+00  0.1560E+03  0.1560E+03
    -35.224  0.0000E+00  0.0000E+00  0.1560E+03  0.1560E+03
    -34.985  0.0000E+00  0.0000E+00  0.1560E+03  0.1560E+03
    -34.745  0.0000E+00  0.0000E+00  0.1560E+03  0.1560E+03
    -34.505  0.0000E+00  0.0000E+00  0.1560E+03  0.1560E+03
    -34.266  0.0000E+00  0.0000E+00  0.1560E+03  0.1560E+03
    -34.026  0.0000E+00  0.0000E+00  0.1560E+03  0.1560E+03
    -33.787  0.0000E+00  0.0000E+00  0.1560E+03  0.1560E+03
    -33.547  0.0000E+00  0.0000E+00  0.1560E+03  0.1560E+03
    -33.307  0.0000E+00  0.0000E+00  0.1560E+03  0.1560E+03
    -33.068  0.0000E+00  0.0000E+00  0.1560E+03  0.1560E+03
    -32.828  0.0000E+00  0.0000E+00  0.1560E+03  0.1560E+03
    -32.589  0.0000E+00  0.0000E+00  0.1560E+03  0.1560E+03
    -32.349  0.0000E+00  0.0000E+00  0.1560E+03  0.1560E+03
    -32.109  0.0000E+00  0.0000E+00  0.1560E+03  0.1560E+03
    -31.870  0.0000E+00  0.0000E+00  0.1560E+03  0.1560E+03
    -31.630  0.0000E+00  0.0000E+00  0.1560E+03  0.1560E+03
    -31.391  0.0000E+00  0.0000E+00  0.1560E+03  0.1560E+03
    -31.151  0.0000E+00  0.0000E+00  0.1560E+03  0.1560E+03
    -30.912  0.0000E+00  0.0000E+00  0.1560E+03  0.1560E+03
    -30.672  0.0000E+00  0.0000E+00  0.1560E+03  0.1560E+03
    -30.432  0.0000E+00  0.0000E+00  0.1560E+03  0.1560E+03
    -30.193  0.0000E+00  0.0000E+00  0.1560E+03  0.1560E+03
    -29.953  0.0000E+00  0.0000E+00  0.1560E+03  0.1560E+03
    -29.714  0.0000E+00  0.0000E+00  0.1560E+03  0.1560E+03
    -29.474  0.0000E+00  0.0000E+00  0.1560E+03  0.1560E+03
    -29.234  0.0000E+00  0.0000E+00  0.1560E+03  0.1560E+03
    -28.995  0.0000E+00  0.0000E+00  0.1560E+03  0.1560E+03
    -28.755  0.0000E+00  0.0000E+00  0.1560E+03  0.1560E+03
    -28.516  0.0000E+00  0.0000E+00  0.1560E+03  0.1560E+03
    -28.276  0.0000E+00  0.0000E+00  0.1560E+03  0.1560E+03
    -28.036  0.0000E+00  0.0000E+00  0.1560E+03  0.1560E+03
    -27.797  0.0000E+00  0.0000E+00  0.1560E+03  0.1560E+03
    -27.557  0.0000E+00  0.0000E+00  0.1560E+03  0.1560E+03
    -27.318  0.0000E+00  0.0000E+00  0.1560E+03  0.1560E+03
    -27.078  0.0000E+00  0.0000E+00  0.1560E+03  0.1560E+03
    -26.838  0.0000E+00  0.0000E+00  0.1560E+03  0.1560E+03
    -26.599  0.0000E+00  0.0000E+00  0.1560E+03  0.1560E+03
    -26.359  0.0000E+00  0.0000E+00  0.1560E+03  0.1560E+03
    -26.120  0.0000E+00  0.0000E+00  0.1560E+03  0.1560E+03
    -25.880  0.0000E+00  0.0000E+00  0.1560E+03  0.1560E+03
    -25.640  0.0000E+00  0.0000E+00  0.1560E+03  0.1560E+03
    -25.401  0.0000E+00  0.0000E+00  0.1560E+03  0.1560E+03
    -25.161  0.0000E+00  0.0000E+00  0.1560E+03  0.1560E+03
    -24.922  0.0000E+00  0.0000E+00  0.1560E+03  0.1560E+03
    -24.682  0.0000E+00  0.0000E+00  0.1560E+03  0.1560E+03
    -24.442  0.0000E+00  0.0000E+00  0.1560E+03  0.1560E+03
    -24.203  0.0000E+00  0.0000E+00  0.1560E+03  0.1560E+03
    -23.963  0.0000E+00  0.0000E+00  0.1560E+03  0.1560E+03
    -23.724  0.0000E+00  0.0000E+00  0.1560E+03  0.1560E+03
    -23.484  0.0000E+00  0.0000E+00  0.1560E+03  0.1560E+03
    -23.245  0.0000E+00  0.0000E+00  0.1560E+03  0.1560E+03
    -23.005  0.0000E+00  0.0000E+00  0.1560E+03  0.1560E+03
    -22.765  0.0000E+00  0.0000E+00  0.1560E+03  0.1560E+03
    -22.526  0.0000E+00  0.0000E+00  0.1560E+03  0.1560E+03
    -22.286  0.0000E+00  0.0000E+00  0.1560E+03  0.1560E+03
    -22.047  0.0000E+00  0.0000E+00  0.1560E+03  0.1560E+03
    -21.807  0.0000E+00  0.0000E+00  0.1560E+03  0.1560E+03
    -21.567  0.0000E+00  0.0000E+00  0.1560E+03  0.1560E+03
    -21.328  0.0000E+00  0.0000E+00  0.1560E+03  0.1560E+03
    -21.088  0.0000E+00  0.0000E+00  0.1560E+03  0.1560E+03
    -20.849  0.0000E+00  0.0000E+00  0.1560E+03  0.1560E+03
    -20.609  0.0000E+00  0.0000E+00  0.1560E+03  0.1560E+03
    -20.369  0.0000E+00  0.0000E+00  0.1560E+03  0.1560E+03
    -20.130  0.0000E+00  0.0000E+00  0.1560E+03  0.1560E+03
    -19.890  0.0000E+00  0.0000E+00  0.1560E+03  0.1560E+03
    -19.651  0.0000E+00  0.0000E+00  0.1560E+03  0.1560E+03
    -19.411  0.0000E+00  0.0000E+00  0.1560E+03  0.1560E+03
    -19.171  0.0000E+00  0.0000E+00  0.1560E+03  0.1560E+03
    -18.932  0.0000E+00  0.0000E+00  0.1560E+03  0.1560E+03
    -18.692  0.0000E+00  0.0000E+00  0.1560E+03  0.1560E+03
    -18.453  0.0000E+00  0.0000E+00  0.1560E+03  0.1560E+03
    -18.213  0.0000E+00  0.0000E+00  0.1560E+03  0.1560E+03
    -17.973  0.0000E+00  0.0000E+00  0.1560E+03  0.1560E+03
    -17.734  0.0000E+00  0.0000E+00  0.1560E+03  0.1560E+03
    -17.494  0.0000E+00  0.0000E+00  0.1560E+03  0.1560E+03
    -17.255  0.0000E+00  0.0000E+00  0.1560E+03  0.1560E+03
    -17.015  0.0000E+00  0.0000E+00  0.1560E+03  0.1560E+03
    -16.775  0.0000E+00  0.0000E+00  0.1560E+03  0.1560E+03
    -16.536  0.0000E+00  0.0000E+00  0.1560E+03  0.1560E+03
    -16.296  0.0000E+00  0.0000E+00  0.1560E+03  0.1560E+03
    -16.057  0.0000E+00  0.0000E+00  0.1560E+03  0.1560E+03
    -15.817  0.0000E+00  0.0000E+00  0.1560E+03  0.1560E+03
    -15.578  0.0000E+00  0.0000E+00  0.1560E+03  0.1560E+03
    -15.338  0.0000E+00  0.0000E+00  0.1560E+03  0.1560E+03
    -15.098  0.0000E+00  0.0000E+00  0.1560E+03  0.1560E+03
    -14.859  0.0000E+00  0.0000E+00  0.1560E+03  0.1560E+03
    -14.619  0.0000E+00  0.0000E+00  0.1560E+03  0.1560E+03
    -14.380  0.0000E+00  0.0000E+00  0.1560E+03  0.1560E+03
    -14.140  0.0000E+00  0.0000E+00  0.1560E+03  0.1560E+03
    -13.900  0.1112E-02  0.0000E+00  0.1560E+03  0.1560E+03
    -13.661  0.2204E+02  0.4571E-13  0.1613E+03  0.1560E+03
    -13.421  0.2785E+02  0.1704E+01  0.1680E+03  0.1564E+03
    -13.182  0.8787E+01  0.4441E+02  0.1701E+03  0.1670E+03
    -12.942  0.3149E+02  0.4650E+01  0.1776E+03  0.1682E+03
    -12.702  0.1000E+02  0.4194E+02  0.1800E+03  0.1782E+03
    -12.463  0.0000E+00  0.7465E+01  0.1800E+03  0.1800E+03
    -12.223  0.0000E+00  0.0000E+00  0.1800E+03  0.1800E+03
    -11.984  0.0000E+00  0.0000E+00  0.1800E+03  0.1800E+03
    -11.744  0.0000E+00  0.0000E+00  0.1800E+03  0.1800E+03
    -11.504  0.0000E+00  0.0000E+00  0.1800E+03  0.1800E+03
    -11.265  0.0000E+00  0.0000E+00  0.1800E+03  0.1800E+03
    -11.025  0.0000E+00  0.0000E+00  0.1800E+03  0.1800E+03
    -10.786  0.0000E+00  0.0000E+00  0.1800E+03  0.1800E+03
    -10.546  0.0000E+00  0.0000E+00  0.1800E+03  0.1800E+03
    -10.306  0.0000E+00  0.0000E+00  0.1800E+03  0.1800E+03
    -10.067  0.0000E+00  0.0000E+00  0.1800E+03  0.1800E+03
     -9.827  0.0000E+00  0.0000E+00  0.1800E+03  0.1800E+03
     -9.588  0.0000E+00  0.0000E+00  0.1800E+03  0.1800E+03
     -9.348  0.0000E+00  0.0000E+00  0.1800E+03  0.1800E+03
     -9.108  0.0000E+00  0.0000E+00  0.1800E+03  0.1800E+03
     -8.869  0.0000E+00  0.0000E+00  0.1800E+03  0.1800E+03
     -8.629  0.0000E+00  0.0000E+00  0.1800E+03  0.1800E+03
     -8.390  0.0000E+00  0.0000E+00  0.1800E+03  0.1800E+03
     -8.150  0.0000E+00  0.0000E+00  0.1800E+03  0.1800E+03
     -7.910  0.2059E-02  0.0000E+00  0.1800E+03  0.1800E+03
     -7.671  0.9317E+01  0.1564E-01  0.1822E+03  0.1800E+03
     -7.431  0.2306E+02  0.1189E+02  0.1878E+03  0.1829E+03
     -7.192  0.5558E+02  0.2846E+02  0.2011E+03  0.1897E+03
     -6.952  0.5824E+02  0.5977E+02  0.2150E+03  0.2040E+03
     -6.713  0.4054E+01  0.4672E+02  0.2160E+03  0.2152E+03
     -6.473  0.0000E+00  0.3391E+01  0.2160E+03  0.2160E+03
     -6.233  0.0000E+00  0.0000E+00  0.2160E+03  0.2160E+03
     -5.994  0.0000E+00  0.0000E+00  0.2160E+03  0.2160E+03
     -5.754  0.0000E+00  0.0000E+00  0.2160E+03  0.2160E+03
     -5.515  0.0000E+00  0.0000E+00  0.2160E+03  0.2160E+03
     -5.275  0.0000E+00  0.0000E+00  0.2160E+03  0.2160E+03
     -5.035  0.0000E+00  0.0000E+00  0.2160E+03  0.2160E+03
     -4.796  0.0000E+00  0.0000E+00  0.2160E+03  0.2160E+03
     -4.556  0.0000E+00  0.0000E+00  0.2160E+03  0.2160E+03
     -4.317  0.0000E+00  0.0000E+00  0.2160E+03  0.2160E+03
     -4.077  0.0000E+00  0.0000E+00  0.2160E+03  0.2160E+03
     -3.837  0.0000E+00  0.0000E+00  0.2160E+03  0.2160E+03
     -3.598  0.0000E+00  0.0000E+00  0.2160E+03  0.2160E+03
     -3.358  0.0000E+00  0.0000E+00  0.2160E+03  0.2160E+03
     -3.119  0.0000E+00  0.0000E+00  0.2160E+03  0.2160E+03
     -2.879  0.1261E-13  0.0000E+00  0.2160E+03  0.2160E+03
     -2.639  0.7917E+00  0.0000E+00  0.2162E+03  0.2160E+03
     -2.400  0.1034E+02  0.0000E+00  0.2187E+03  0.2160E+03
     -2.160  0.2038E+02  0.0000E+00  0.2236E+03  0.2160E+03
     -1.921  0.1948E+01  0.0000E+00  0.2240E+03  0.2160E+03
     -1.681  0.3446E+02  0.0000E+00  0.2323E+03  0.2160E+03
     -1.441  0.1939E+02  0.3347E-15  0.2369E+03  0.2160E+03
     -1.202  0.4428E+02  0.8135E-01  0.2475E+03  0.2160E+03
     -0.962  0.4948E+02  0.4402E+01  0.2594E+03  0.2171E+03
     -0.723  0.7491E+02  0.1403E+02  0.2773E+03  0.2204E+03
     -0.483  0.1032E+03  0.1528E+02  0.3020E+03  0.2241E+03
     -0.243  0.8550E+02  0.1947E+02  0.3225E+03  0.2288E+03
     -0.004  0.1104E+03  0.4128E+02  0.3490E+03  0.2387E+03
      0.236  0.7003E+02  0.3396E+02  0.3658E+03  0.2468E+03
      0.475  0.3839E+02  0.4205E+02  0.3750E+03  0.2569E+03
      0.715  0.4569E+02  0.3378E+02  0.3859E+03  0.2650E+03
      0.954  0.4868E+02  0.5281E+02  0.3976E+03  0.2776E+03
      1.194  0.5544E+02  0.6051E+02  0.4109E+03  0.2921E+03
      1.434  0.6417E+02  0.4445E+02  0.4262E+03  0.3028E+03
      1.673  0.1008E+03  0.4013E+02  0.4504E+03  0.3124E+03
      1.913  0.5278E+02  0.3841E+02  0.4630E+03  0.3216E+03
      2.152  0.3870E+02  0.3743E+02  0.4723E+03  0.3305E+03
      2.392  0.4652E+02  0.3827E+02  0.4835E+03  0.3397E+03
      2.632  0.4780E+02  0.4924E+02  0.4949E+03  0.3515E+03
      2.871  0.4359E+02  0.6295E+02  0.5054E+03  0.3666E+03
      3.111  0.4013E+02  0.5874E+02  0.5150E+03  0.3807E+03
      3.350  0.4735E+02  0.4817E+02  0.5263E+03  0.3922E+03
      3.590  0.5254E+02  0.2975E+02  0.5389E+03  0.3993E+03
      3.830  0.4549E+02  0.6117E+02  0.5498E+03  0.4140E+03
      4.069  0.3194E+02  0.7374E+02  0.5575E+03  0.4317E+03
      4.309  0.4248E+02  0.1405E+01  0.5676E+03  0.4320E+03
      4.548  0.2370E+02  0.0000E+00  0.5733E+03  0.4320E+03
      4.788  0.1028E+02  0.0000E+00  0.5758E+03  0.4320E+03
      5.028  0.9329E+00  0.0000E+00  0.5760E+03  0.4320E+03
      5.267  0.0000E+00  0.0000E+00  0.5760E+03  0.4320E+03
      5.507  0.0000E+00  0.0000E+00  0.5760E+03  0.4320E+03
      5.746  0.0000E+00  0.0000E+00  0.5760E+03  0.4320E+03
      5.986  0.0000E+00  0.3934E-11  0.5760E+03  0.4320E+03
      6.226  0.0000E+00  0.1398E+00  0.5760E+03  0.4320E+03
      6.465  0.0000E+00  0.8071E+01  0.5760E+03  0.4340E+03
      6.705  0.0000E+00  0.3016E+02  0.5760E+03  0.4412E+03
      6.944  0.5604E-12  0.4324E+02  0.5760E+03  0.4516E+03
      7.184  0.1036E+00  0.7303E+02  0.5760E+03  0.4691E+03
      7.424  0.1340E+00  0.8091E+02  0.5761E+03  0.4884E+03
      7.663  0.8815E+00  0.6535E+02  0.5763E+03  0.5041E+03
      7.903  0.3488E+01  0.8793E+02  0.5771E+03  0.5252E+03
      8.142  0.4268E+01  0.7140E+02  0.5781E+03  0.5423E+03
      8.382  0.6998E+01  0.5453E+02  0.5798E+03  0.5553E+03
      8.622  0.1630E+02  0.3717E+02  0.5837E+03  0.5642E+03
      8.861  0.2532E+02  0.3929E+02  0.5898E+03  0.5737E+03
      9.101  0.1925E+02  0.1946E+02  0.5944E+03  0.5783E+03
      9.340  0.2530E+02  0.1382E+02  0.6004E+03  0.5816E+03
      9.580  0.3120E+02  0.2057E+02  0.6079E+03  0.5866E+03
      9.819  0.2667E+02  0.2995E+02  0.6143E+03  0.5937E+03
     10.059  0.2967E+02  0.2656E+02  0.6214E+03  0.6001E+03
     10.299  0.2277E+02  0.3462E+02  0.6269E+03  0.6084E+03
     10.538  0.2042E+02  0.3558E+02  0.6318E+03  0.6169E+03
     10.778  0.2845E+02  0.2789E+02  0.6386E+03  0.6236E+03
     11.017  0.3896E+02  0.2253E+02  0.6479E+03  0.6290E+03
     11.257  0.3939E+02  0.2153E+02  0.6574E+03  0.6342E+03
     11.497  0.3732E+02  0.3226E+02  0.6663E+03  0.6419E+03
     11.736  0.4473E+02  0.3877E+02  0.6770E+03  0.6512E+03
     11.976  0.3858E+02  0.4253E+02  0.6863E+03  0.6614E+03
     12.215  0.3852E+02  0.5191E+02  0.6955E+03  0.6738E+03
     12.455  0.3988E+02  0.4688E+02  0.7050E+03  0.6850E+03
     12.695  0.3658E+02  0.3599E+02  0.7138E+03  0.6937E+03
     12.934  0.3443E+02  0.4123E+02  0.7221E+03  0.7035E+03
     13.174  0.2293E+02  0.3984E+02  0.7275E+03  0.7131E+03
     13.413  0.1881E+01  0.3414E+02  0.7280E+03  0.7213E+03
     13.653  0.0000E+00  0.2415E+02  0.7280E+03  0.7270E+03
     13.893  0.0000E+00  0.3976E+01  0.7280E+03  0.7280E+03
     14.132  0.0000E+00  0.3743E-05  0.7280E+03  0.7280E+03
     14.372  0.0000E+00  0.0000E+00  0.7280E+03  0.7280E+03
     14.611  0.0000E+00  0.0000E+00  0.7280E+03  0.7280E+03
     14.851  0.0000E+00  0.0000E+00  0.7280E+03  0.7280E+03
     15.091  0.0000E+00  0.0000E+00  0.7280E+03  0.7280E+03
     15.330  0.0000E+00  0.0000E+00  0.7280E+03  0.7280E+03
     15.570  0.0000E+00  0.0000E+00  0.7280E+03  0.7280E+03
     15.809  0.0000E+00  0.0000E+00  0.7280E+03  0.7280E+03
     16.049  0.0000E+00  0.0000E+00  0.7280E+03  0.7280E+03
     16.289  0.0000E+00  0.0000E+00  0.7280E+03  0.7280E+03
     16.528  0.0000E+00  0.0000E+00  0.7280E+03  0.7280E+03
     16.768  0.0000E+00  0.0000E+00  0.7280E+03  0.7280E+03
     17.007  0.0000E+00  0.0000E+00  0.7280E+03  0.7280E+03
