 126 126   0   0
  0.1357194E+02  0.1157659E-08  0.1157660E-08  0.1387803E-08  0.5000000E-15
  1.000000000000000E-004
  CAR 
 unknown system                          
     17.62223612    -54.42518629  301      5.43421383      1.00000000
    -54.425  0.0000E+00  0.0000E+00  0.0000E+00  0.0000E+00
    -54.185  0.0000E+00  0.0000E+00  0.0000E+00  0.0000E+00
    -53.945  0.0000E+00  0.0000E+00  0.0000E+00  0.0000E+00
    -53.705  0.0000E+00  0.0000E+00  0.0000E+00  0.0000E+00
    -53.465  0.0000E+00  0.0000E+00  0.0000E+00  0.0000E+00
    -53.224  0.0000E+00  0.0000E+00  0.0000E+00  0.0000E+00
    -52.984  0.0000E+00  0.0000E+00  0.0000E+00  0.0000E+00
    -52.744  0.0000E+00  0.0000E+00  0.0000E+00  0.0000E+00
    -52.504  0.0000E+00  0.0000E+00  0.0000E+00  0.0000E+00
    -52.264  0.0000E+00  0.0000E+00  0.0000E+00  0.0000E+00
    -52.024  0.0000E+00  0.0000E+00  0.0000E+00  0.0000E+00
    -51.783  0.0000E+00  0.0000E+00  0.0000E+00  0.0000E+00
    -51.543  0.0000E+00  0.0000E+00  0.0000E+00  0.0000E+00
    -51.303  0.2996E-03  0.0000E+00  0.7195E-04  0.0000E+00
    -51.063  0.1476E+03  0.0000E+00  0.3546E+02  0.0000E+00
    -50.823  0.2268E+01  0.0000E+00  0.3600E+02  0.0000E+00
    -50.583  0.0000E+00  0.0000E+00  0.3600E+02  0.0000E+00
    -50.342  0.0000E+00  0.0000E+00  0.3600E+02  0.0000E+00
    -50.102  0.0000E+00  0.0000E+00  0.3600E+02  0.0000E+00
    -49.862  0.5792E-06  0.0000E+00  0.3600E+02  0.0000E+00
    -49.622  0.2436E+03  0.0000E+00  0.9451E+02  0.0000E+00
    -49.382  0.5619E+02  0.0000E+00  0.1080E+03  0.0000E+00
    -49.142  0.0000E+00  0.0000E+00  0.1080E+03  0.0000E+00
    -48.902  0.0000E+00  0.0000E+00  0.1080E+03  0.0000E+00
    -48.661  0.0000E+00  0.0000E+00  0.1080E+03  0.0000E+00
    -48.421  0.0000E+00  0.0000E+00  0.1080E+03  0.0000E+00
    -48.181  0.0000E+00  0.0000E+00  0.1080E+03  0.0000E+00
    -47.941  0.0000E+00  0.0000E+00  0.1080E+03  0.0000E+00
    -47.701  0.0000E+00  0.0000E+00  0.1080E+03  0.0000E+00
    -47.461  0.0000E+00  0.0000E+00  0.1080E+03  0.0000E+00
    -47.220  0.0000E+00  0.0000E+00  0.1080E+03  0.0000E+00
    -46.980  0.0000E+00  0.0000E+00  0.1080E+03  0.0000E+00
    -46.740  0.0000E+00  0.0000E+00  0.1080E+03  0.0000E+00
    -46.500  0.0000E+00  0.1868E+00  0.1080E+03  0.4486E-01
    -46.260  0.0000E+00  0.1497E+03  0.1080E+03  0.3600E+02
    -46.020  0.0000E+00  0.2865E+01  0.1080E+03  0.3669E+02
    -45.779  0.0000E+00  0.2969E+03  0.1080E+03  0.1080E+03
    -45.539  0.0000E+00  0.1330E-02  0.1080E+03  0.1080E+03
    -45.299  0.0000E+00  0.0000E+00  0.1080E+03  0.1080E+03
    -45.059  0.0000E+00  0.0000E+00  0.1080E+03  0.1080E+03
    -44.819  0.0000E+00  0.0000E+00  0.1080E+03  0.1080E+03
    -44.579  0.0000E+00  0.0000E+00  0.1080E+03  0.1080E+03
    -44.339  0.0000E+00  0.0000E+00  0.1080E+03  0.1080E+03
    -44.098  0.0000E+00  0.0000E+00  0.1080E+03  0.1080E+03
    -43.858  0.0000E+00  0.0000E+00  0.1080E+03  0.1080E+03
    -43.618  0.0000E+00  0.0000E+00  0.1080E+03  0.1080E+03
    -43.378  0.0000E+00  0.0000E+00  0.1080E+03  0.1080E+03
    -43.138  0.0000E+00  0.0000E+00  0.1080E+03  0.1080E+03
    -42.898  0.0000E+00  0.0000E+00  0.1080E+03  0.1080E+03
    -42.657  0.0000E+00  0.0000E+00  0.1080E+03  0.1080E+03
    -42.417  0.0000E+00  0.0000E+00  0.1080E+03  0.1080E+03
    -42.177  0.0000E+00  0.0000E+00  0.1080E+03  0.1080E+03
    -41.937  0.0000E+00  0.0000E+00  0.1080E+03  0.1080E+03
    -41.697  0.0000E+00  0.0000E+00  0.1080E+03  0.1080E+03
    -41.457  0.0000E+00  0.0000E+00  0.1080E+03  0.1080E+03
    -41.216  0.0000E+00  0.0000E+00  0.1080E+03  0.1080E+03
    -40.976  0.0000E+00  0.0000E+00  0.1080E+03  0.1080E+03
    -40.736  0.0000E+00  0.0000E+00  0.1080E+03  0.1080E+03
    -40.496  0.0000E+00  0.0000E+00  0.1080E+03  0.1080E+03
    -40.256  0.0000E+00  0.0000E+00  0.1080E+03  0.1080E+03
    -40.016  0.0000E+00  0.0000E+00  0.1080E+03  0.1080E+03
    -39.776  0.8406E-03  0.7740E-03  0.1080E+03  0.1080E+03
    -39.535  0.1465E+03  0.1464E+03  0.1432E+03  0.1432E+03
    -39.295  0.3378E+01  0.3493E+01  0.1440E+03  0.1440E+03
    -39.055  0.0000E+00  0.0000E+00  0.1440E+03  0.1440E+03
    -38.815  0.0000E+00  0.0000E+00  0.1440E+03  0.1440E+03
    -38.575  0.0000E+00  0.0000E+00  0.1440E+03  0.1440E+03
    -38.335  0.0000E+00  0.0000E+00  0.1440E+03  0.1440E+03
    -38.094  0.0000E+00  0.0000E+00  0.1440E+03  0.1440E+03
    -37.854  0.0000E+00  0.0000E+00  0.1440E+03  0.1440E+03
    -37.614  0.0000E+00  0.0000E+00  0.1440E+03  0.1440E+03
    -37.374  0.0000E+00  0.0000E+00  0.1440E+03  0.1440E+03
    -37.134  0.0000E+00  0.0000E+00  0.1440E+03  0.1440E+03
    -36.894  0.0000E+00  0.0000E+00  0.1440E+03  0.1440E+03
    -36.653  0.0000E+00  0.0000E+00  0.1440E+03  0.1440E+03
    -36.413  0.0000E+00  0.0000E+00  0.1440E+03  0.1440E+03
    -36.173  0.0000E+00  0.0000E+00  0.1440E+03  0.1440E+03
    -35.933  0.0000E+00  0.0000E+00  0.1440E+03  0.1440E+03
    -35.693  0.0000E+00  0.0000E+00  0.1440E+03  0.1440E+03
    -35.453  0.0000E+00  0.0000E+00  0.1440E+03  0.1440E+03
    -35.213  0.0000E+00  0.0000E+00  0.1440E+03  0.1440E+03
    -34.972  0.0000E+00  0.0000E+00  0.1440E+03  0.1440E+03
    -34.732  0.0000E+00  0.0000E+00  0.1440E+03  0.1440E+03
    -34.492  0.0000E+00  0.0000E+00  0.1440E+03  0.1440E+03
    -34.252  0.0000E+00  0.0000E+00  0.1440E+03  0.1440E+03
    -34.012  0.0000E+00  0.0000E+00  0.1440E+03  0.1440E+03
    -33.772  0.0000E+00  0.0000E+00  0.1440E+03  0.1440E+03
    -33.531  0.0000E+00  0.0000E+00  0.1440E+03  0.1440E+03
    -33.291  0.0000E+00  0.0000E+00  0.1440E+03  0.1440E+03
    -33.051  0.0000E+00  0.0000E+00  0.1440E+03  0.1440E+03
    -32.811  0.0000E+00  0.0000E+00  0.1440E+03  0.1440E+03
    -32.571  0.0000E+00  0.0000E+00  0.1440E+03  0.1440E+03
    -32.331  0.0000E+00  0.0000E+00  0.1440E+03  0.1440E+03
    -32.090  0.0000E+00  0.0000E+00  0.1440E+03  0.1440E+03
    -31.850  0.0000E+00  0.0000E+00  0.1440E+03  0.1440E+03
    -31.610  0.0000E+00  0.0000E+00  0.1440E+03  0.1440E+03
    -31.370  0.0000E+00  0.0000E+00  0.1440E+03  0.1440E+03
    -31.130  0.0000E+00  0.0000E+00  0.1440E+03  0.1440E+03
    -30.890  0.0000E+00  0.0000E+00  0.1440E+03  0.1440E+03
    -30.650  0.0000E+00  0.0000E+00  0.1440E+03  0.1440E+03
    -30.409  0.0000E+00  0.0000E+00  0.1440E+03  0.1440E+03
    -30.169  0.0000E+00  0.0000E+00  0.1440E+03  0.1440E+03
    -29.929  0.0000E+00  0.0000E+00  0.1440E+03  0.1440E+03
    -29.689  0.0000E+00  0.0000E+00  0.1440E+03  0.1440E+03
    -29.449  0.0000E+00  0.0000E+00  0.1440E+03  0.1440E+03
    -29.209  0.0000E+00  0.0000E+00  0.1440E+03  0.1440E+03
    -28.968  0.0000E+00  0.0000E+00  0.1440E+03  0.1440E+03
    -28.728  0.0000E+00  0.0000E+00  0.1440E+03  0.1440E+03
    -28.488  0.0000E+00  0.0000E+00  0.1440E+03  0.1440E+03
    -28.248  0.0000E+00  0.0000E+00  0.1440E+03  0.1440E+03
    -28.008  0.0000E+00  0.0000E+00  0.1440E+03  0.1440E+03
    -27.768  0.0000E+00  0.0000E+00  0.1440E+03  0.1440E+03
    -27.527  0.0000E+00  0.0000E+00  0.1440E+03  0.1440E+03
    -27.287  0.0000E+00  0.0000E+00  0.1440E+03  0.1440E+03
    -27.047  0.0000E+00  0.0000E+00  0.1440E+03  0.1440E+03
    -26.807  0.0000E+00  0.0000E+00  0.1440E+03  0.1440E+03
    -26.567  0.0000E+00  0.0000E+00  0.1440E+03  0.1440E+03
    -26.327  0.0000E+00  0.0000E+00  0.1440E+03  0.1440E+03
    -26.087  0.0000E+00  0.0000E+00  0.1440E+03  0.1440E+03
    -25.846  0.0000E+00  0.0000E+00  0.1440E+03  0.1440E+03
    -25.606  0.0000E+00  0.0000E+00  0.1440E+03  0.1440E+03
    -25.366  0.0000E+00  0.0000E+00  0.1440E+03  0.1440E+03
    -25.126  0.0000E+00  0.0000E+00  0.1440E+03  0.1440E+03
    -24.886  0.0000E+00  0.0000E+00  0.1440E+03  0.1440E+03
    -24.646  0.0000E+00  0.0000E+00  0.1440E+03  0.1440E+03
    -24.405  0.0000E+00  0.0000E+00  0.1440E+03  0.1440E+03
    -24.165  0.0000E+00  0.0000E+00  0.1440E+03  0.1440E+03
    -23.925  0.0000E+00  0.0000E+00  0.1440E+03  0.1440E+03
    -23.685  0.0000E+00  0.0000E+00  0.1440E+03  0.1440E+03
    -23.445  0.0000E+00  0.0000E+00  0.1440E+03  0.1440E+03
    -23.205  0.0000E+00  0.0000E+00  0.1440E+03  0.1440E+03
    -22.964  0.0000E+00  0.0000E+00  0.1440E+03  0.1440E+03
    -22.724  0.0000E+00  0.0000E+00  0.1440E+03  0.1440E+03
    -22.484  0.0000E+00  0.0000E+00  0.1440E+03  0.1440E+03
    -22.244  0.0000E+00  0.0000E+00  0.1440E+03  0.1440E+03
    -22.004  0.0000E+00  0.0000E+00  0.1440E+03  0.1440E+03
    -21.764  0.0000E+00  0.0000E+00  0.1440E+03  0.1440E+03
    -21.524  0.0000E+00  0.0000E+00  0.1440E+03  0.1440E+03
    -21.283  0.0000E+00  0.0000E+00  0.1440E+03  0.1440E+03
    -21.043  0.0000E+00  0.0000E+00  0.1440E+03  0.1440E+03
    -20.803  0.0000E+00  0.0000E+00  0.1440E+03  0.1440E+03
    -20.563  0.0000E+00  0.0000E+00  0.1440E+03  0.1440E+03
    -20.323  0.0000E+00  0.0000E+00  0.1440E+03  0.1440E+03
    -20.083  0.0000E+00  0.0000E+00  0.1440E+03  0.1440E+03
    -19.842  0.0000E+00  0.0000E+00  0.1440E+03  0.1440E+03
    -19.602  0.0000E+00  0.0000E+00  0.1440E+03  0.1440E+03
    -19.362  0.0000E+00  0.0000E+00  0.1440E+03  0.1440E+03
    -19.122  0.0000E+00  0.0000E+00  0.1440E+03  0.1440E+03
    -18.882  0.0000E+00  0.0000E+00  0.1440E+03  0.1440E+03
    -18.642  0.0000E+00  0.0000E+00  0.1440E+03  0.1440E+03
    -18.401  0.0000E+00  0.0000E+00  0.1440E+03  0.1440E+03
    -18.161  0.0000E+00  0.0000E+00  0.1440E+03  0.1440E+03
    -17.921  0.0000E+00  0.0000E+00  0.1440E+03  0.1440E+03
    -17.681  0.0000E+00  0.0000E+00  0.1440E+03  0.1440E+03
    -17.441  0.0000E+00  0.0000E+00  0.1440E+03  0.1440E+03
    -17.201  0.0000E+00  0.0000E+00  0.1440E+03  0.1440E+03
    -16.961  0.0000E+00  0.0000E+00  0.1440E+03  0.1440E+03
    -16.720  0.0000E+00  0.0000E+00  0.1440E+03  0.1440E+03
    -16.480  0.0000E+00  0.0000E+00  0.1440E+03  0.1440E+03
    -16.240  0.0000E+00  0.0000E+00  0.1440E+03  0.1440E+03
    -16.000  0.0000E+00  0.0000E+00  0.1440E+03  0.1440E+03
    -15.760  0.0000E+00  0.0000E+00  0.1440E+03  0.1440E+03
    -15.520  0.0000E+00  0.0000E+00  0.1440E+03  0.1440E+03
    -15.279  0.0000E+00  0.0000E+00  0.1440E+03  0.1440E+03
    -15.039  0.0000E+00  0.0000E+00  0.1440E+03  0.1440E+03
    -14.799  0.0000E+00  0.0000E+00  0.1440E+03  0.1440E+03
    -14.559  0.0000E+00  0.0000E+00  0.1440E+03  0.1440E+03
    -14.319  0.0000E+00  0.0000E+00  0.1440E+03  0.1440E+03
    -14.079  0.0000E+00  0.0000E+00  0.1440E+03  0.1440E+03
    -13.838  0.0000E+00  0.0000E+00  0.1440E+03  0.1440E+03
    -13.598  0.0000E+00  0.0000E+00  0.1440E+03  0.1440E+03
    -13.358  0.0000E+00  0.0000E+00  0.1440E+03  0.1440E+03
    -13.118  0.0000E+00  0.0000E+00  0.1440E+03  0.1440E+03
    -12.878  0.2045E-01  0.0000E+00  0.1440E+03  0.1440E+03
    -12.638  0.7267E+02  0.3441E-03  0.1615E+03  0.1440E+03
    -12.398  0.2263E+01  0.6276E+02  0.1620E+03  0.1591E+03
    -12.157  0.0000E+00  0.1219E+02  0.1620E+03  0.1620E+03
    -11.917  0.0000E+00  0.0000E+00  0.1620E+03  0.1620E+03
    -11.677  0.0000E+00  0.0000E+00  0.1620E+03  0.1620E+03
    -11.437  0.0000E+00  0.0000E+00  0.1620E+03  0.1620E+03
    -11.197  0.0000E+00  0.0000E+00  0.1620E+03  0.1620E+03
    -10.957  0.0000E+00  0.0000E+00  0.1620E+03  0.1620E+03
    -10.716  0.0000E+00  0.0000E+00  0.1620E+03  0.1620E+03
    -10.476  0.0000E+00  0.0000E+00  0.1620E+03  0.1620E+03
    -10.236  0.0000E+00  0.0000E+00  0.1620E+03  0.1620E+03
     -9.996  0.0000E+00  0.0000E+00  0.1620E+03  0.1620E+03
     -9.756  0.0000E+00  0.0000E+00  0.1620E+03  0.1620E+03
     -9.516  0.0000E+00  0.0000E+00  0.1620E+03  0.1620E+03
     -9.275  0.0000E+00  0.0000E+00  0.1620E+03  0.1620E+03
     -9.035  0.0000E+00  0.0000E+00  0.1620E+03  0.1620E+03
     -8.795  0.0000E+00  0.0000E+00  0.1620E+03  0.1620E+03
     -8.555  0.0000E+00  0.0000E+00  0.1620E+03  0.1620E+03
     -8.315  0.0000E+00  0.0000E+00  0.1620E+03  0.1620E+03
     -8.075  0.0000E+00  0.0000E+00  0.1620E+03  0.1620E+03
     -7.835  0.5896E-02  0.6549E-15  0.1620E+03  0.1620E+03
     -7.594  0.7780E+01  0.7189E-01  0.1639E+03  0.1620E+03
     -7.354  0.1426E+02  0.9532E+01  0.1673E+03  0.1643E+03
     -7.114  0.2435E+02  0.1702E+02  0.1731E+03  0.1684E+03
     -6.874  0.7334E+02  0.2407E+02  0.1908E+03  0.1742E+03
     -6.634  0.3017E+02  0.6950E+02  0.1980E+03  0.1909E+03
     -6.394  0.2168E-03  0.2970E+02  0.1980E+03  0.1980E+03
     -6.153  0.0000E+00  0.1542E-01  0.1980E+03  0.1980E+03
     -5.913  0.0000E+00  0.0000E+00  0.1980E+03  0.1980E+03
     -5.673  0.0000E+00  0.0000E+00  0.1980E+03  0.1980E+03
     -5.433  0.0000E+00  0.0000E+00  0.1980E+03  0.1980E+03
     -5.193  0.0000E+00  0.0000E+00  0.1980E+03  0.1980E+03
     -4.953  0.0000E+00  0.0000E+00  0.1980E+03  0.1980E+03
     -4.712  0.0000E+00  0.0000E+00  0.1980E+03  0.1980E+03
     -4.472  0.0000E+00  0.0000E+00  0.1980E+03  0.1980E+03
     -4.232  0.0000E+00  0.0000E+00  0.1980E+03  0.1980E+03
     -3.992  0.0000E+00  0.0000E+00  0.1980E+03  0.1980E+03
     -3.752  0.0000E+00  0.0000E+00  0.1980E+03  0.1980E+03
     -3.512  0.0000E+00  0.0000E+00  0.1980E+03  0.1980E+03
     -3.272  0.0000E+00  0.0000E+00  0.1980E+03  0.1980E+03
     -3.031  0.0000E+00  0.0000E+00  0.1980E+03  0.1980E+03
     -2.791  0.0000E+00  0.0000E+00  0.1980E+03  0.1980E+03
     -2.551  0.0000E+00  0.0000E+00  0.1980E+03  0.1980E+03
     -2.311  0.0000E+00  0.0000E+00  0.1980E+03  0.1980E+03
     -2.071  0.0000E+00  0.0000E+00  0.1980E+03  0.1980E+03
     -1.831  0.1798E-15  0.0000E+00  0.1980E+03  0.1980E+03
     -1.590  0.1204E+00  0.0000E+00  0.1980E+03  0.1980E+03
     -1.350  0.4556E+02  0.0000E+00  0.2090E+03  0.1980E+03
     -1.110  0.2927E+02  0.0000E+00  0.2160E+03  0.1980E+03
     -0.870  0.2940E+01  0.0000E+00  0.2167E+03  0.1980E+03
     -0.630  0.3963E+02  0.3229E-10  0.2262E+03  0.1980E+03
     -0.390  0.1077E+03  0.1220E+01  0.2521E+03  0.1983E+03
     -0.149  0.1171E+03  0.1254E+02  0.2802E+03  0.2013E+03
      0.091  0.1056E+03  0.1987E+02  0.3056E+03  0.2061E+03
      0.331  0.8739E+02  0.2740E+02  0.3265E+03  0.2127E+03
      0.571  0.7728E+02  0.3060E+02  0.3451E+03  0.2200E+03
      0.811  0.3502E+02  0.3795E+02  0.3535E+03  0.2291E+03
      1.051  0.3010E+02  0.3559E+02  0.3607E+03  0.2377E+03
      1.291  0.5006E+02  0.4700E+02  0.3728E+03  0.2490E+03
      1.532  0.3192E+02  0.3082E+02  0.3804E+03  0.2564E+03
      1.772  0.5632E+02  0.6124E+02  0.3940E+03  0.2711E+03
      2.012  0.1235E+03  0.4765E+02  0.4236E+03  0.2825E+03
      2.252  0.7897E+02  0.1858E+02  0.4426E+03  0.2870E+03
      2.492  0.5339E+02  0.3003E+02  0.4554E+03  0.2942E+03
      2.732  0.3974E+02  0.5973E+02  0.4649E+03  0.3085E+03
      2.973  0.2554E+02  0.5004E+02  0.4711E+03  0.3205E+03
      3.213  0.1586E+02  0.5599E+02  0.4749E+03  0.3340E+03
      3.453  0.2733E+02  0.7524E+02  0.4814E+03  0.3521E+03
      3.693  0.4053E+02  0.2708E+02  0.4912E+03  0.3586E+03
      3.933  0.4245E+02  0.1934E+02  0.5014E+03  0.3632E+03
      4.173  0.4502E+02  0.9288E+02  0.5122E+03  0.3855E+03
      4.414  0.4532E+02  0.4191E+02  0.5231E+03  0.3956E+03
      4.654  0.2502E+02  0.1769E+01  0.5291E+03  0.3960E+03
      4.894  0.2762E+02  0.1732E-05  0.5357E+03  0.3960E+03
      5.134  0.1783E+02  0.0000E+00  0.5400E+03  0.3960E+03
      5.374  0.4284E-01  0.0000E+00  0.5400E+03  0.3960E+03
      5.614  0.0000E+00  0.0000E+00  0.5400E+03  0.3960E+03
      5.854  0.0000E+00  0.0000E+00  0.5400E+03  0.3960E+03
      6.095  0.0000E+00  0.2196E-13  0.5400E+03  0.3960E+03
      6.335  0.0000E+00  0.1590E+00  0.5400E+03  0.3960E+03
      6.575  0.0000E+00  0.4383E+01  0.5400E+03  0.3971E+03
      6.815  0.0000E+00  0.1367E+02  0.5400E+03  0.4004E+03
      7.055  0.0000E+00  0.2975E+02  0.5400E+03  0.4075E+03
      7.295  0.5435E-05  0.5639E+02  0.5400E+03  0.4211E+03
      7.536  0.5158E+00  0.7980E+02  0.5401E+03  0.4402E+03
      7.776  0.2310E+01  0.6768E+02  0.5407E+03  0.4565E+03
      8.016  0.1634E+01  0.8273E+02  0.5411E+03  0.4764E+03
      8.256  0.7092E+01  0.9935E+02  0.5428E+03  0.5002E+03
      8.496  0.7705E+01  0.3915E+02  0.5446E+03  0.5096E+03
      8.736  0.4743E+01  0.4415E+02  0.5458E+03  0.5202E+03
      8.977  0.1122E+02  0.4050E+02  0.5485E+03  0.5299E+03
      9.217  0.2026E+02  0.3948E+02  0.5533E+03  0.5394E+03
      9.457  0.2070E+02  0.1500E+02  0.5583E+03  0.5430E+03
      9.697  0.3069E+02  0.1579E+02  0.5657E+03  0.5468E+03
      9.937  0.2767E+02  0.1310E+02  0.5723E+03  0.5500E+03
     10.177  0.1738E+02  0.2537E+02  0.5765E+03  0.5561E+03
     10.417  0.1459E+02  0.2248E+02  0.5800E+03  0.5615E+03
     10.658  0.1886E+02  0.2750E+02  0.5845E+03  0.5681E+03
     10.898  0.2366E+02  0.2495E+02  0.5902E+03  0.5741E+03
     11.138  0.2865E+02  0.2506E+02  0.5971E+03  0.5801E+03
     11.378  0.2928E+02  0.2023E+02  0.6041E+03  0.5849E+03
     11.618  0.3031E+02  0.2443E+02  0.6114E+03  0.5908E+03
     11.858  0.2993E+02  0.2674E+02  0.6186E+03  0.5972E+03
     12.099  0.4157E+02  0.2661E+02  0.6286E+03  0.6036E+03
     12.339  0.5027E+02  0.3628E+02  0.6406E+03  0.6123E+03
     12.579  0.2557E+02  0.3807E+02  0.6468E+03  0.6215E+03
     12.819  0.2732E+02  0.4659E+02  0.6533E+03  0.6327E+03
     13.059  0.3291E+02  0.3553E+02  0.6612E+03  0.6412E+03
     13.299  0.3684E+02  0.2984E+02  0.6701E+03  0.6484E+03
     13.540  0.2454E+02  0.4838E+02  0.6760E+03  0.6600E+03
     13.780  0.1264E+02  0.3867E+02  0.6790E+03  0.6693E+03
     14.020  0.4101E+01  0.2091E+02  0.6800E+03  0.6743E+03
     14.260  0.2858E-02  0.1813E+02  0.6800E+03  0.6786E+03
     14.500  0.0000E+00  0.5699E+01  0.6800E+03  0.6800E+03
     14.740  0.0000E+00  0.5328E-05  0.6800E+03  0.6800E+03
     14.980  0.0000E+00  0.0000E+00  0.6800E+03  0.6800E+03
     15.221  0.0000E+00  0.0000E+00  0.6800E+03  0.6800E+03
     15.461  0.0000E+00  0.0000E+00  0.6800E+03  0.6800E+03
     15.701  0.0000E+00  0.0000E+00  0.6800E+03  0.6800E+03
     15.941  0.0000E+00  0.0000E+00  0.6800E+03  0.6800E+03
     16.181  0.0000E+00  0.0000E+00  0.6800E+03  0.6800E+03
     16.421  0.0000E+00  0.0000E+00  0.6800E+03  0.6800E+03
     16.662  0.0000E+00  0.0000E+00  0.6800E+03  0.6800E+03
     16.902  0.0000E+00  0.0000E+00  0.6800E+03  0.6800E+03
     17.142  0.0000E+00  0.0000E+00  0.6800E+03  0.6800E+03
     17.382  0.0000E+00  0.0000E+00  0.6800E+03  0.6800E+03
     17.622  0.0000E+00  0.0000E+00  0.6800E+03  0.6800E+03
