<?xml version="1.0" encoding="ISO-8859-1"?>
<modeling>
 <generator>
  <i name="program" type="string">vasp </i>
  <i name="version" type="string">5.4.4.18Apr17-6-g9f103f2a35  </i>
  <i name="subversion" type="string">(build Oct 25 2017 14:42:18) complex            parallel </i>
  <i name="platform" type="string">LinuxIFC </i>
  <i name="date" type="string">2021 04 17 </i>
  <i name="time" type="string">04:27:59 </i>
 </generator>
 <incar>
  <i type="string" name="PREC">accurate</i>
  <i type="string" name="ALGO"> all</i>
  <i type="logical" name="ADDGRID"> T  </i>
  <i type="int" name="ISPIN">     2</i>
  <i type="int" name="ICHARG">     1</i>
  <i type="int" name="NELM">   200</i>
  <i type="int" name="NELMIN">     8</i>
  <i name="EDIFF">      0.00000100</i>
  <i type="int" name="ISIF">     3</i>
  <i type="int" name="ISYM">     0</i>
  <i name="ENCUT">    650.00000000</i>
  <v name="MAGMOM">      0.60000000      0.60000000      0.60000000      0.60000000      0.60000000      0.60000000      0.60000000      0.60000000      0.60000000      0.60000000      0.60000000      0.60000000      0.60000000      0.60000000      0.60000000      0.60000000      0.60000000      0.60000000      0.60000000      0.60000000
      0.60000000      0.60000000      0.60000000      0.60000000      0.60000000      0.60000000      0.60000000      0.60000000      0.60000000      0.60000000      0.60000000      0.60000000      0.60000000      0.60000000      0.60000000      0.60000000      0.60000000      0.60000000      0.60000000      0.60000000
      0.60000000      0.60000000      0.60000000      0.60000000      0.60000000      0.60000000      0.60000000      0.60000000      0.60000000      0.60000000      0.60000000      0.60000000      0.60000000      0.60000000      0.60000000      0.60000000      0.60000000      0.60000000      0.60000000      0.60000000
      0.60000000      0.60000000      0.60000000      0.60000000      0.60000000      0.60000000      0.60000000      0.60000000      0.60000000      0.60000000      0.60000000      0.60000000      0.60000000      0.60000000      0.60000000      0.60000000      0.60000000      0.60000000      0.60000000      0.60000000
      0.60000000      0.60000000      0.60000000      0.60000000      0.60000000      0.60000000      0.60000000      0.60000000      0.60000000      0.60000000      5.00000000      5.00000000      5.00000000      5.00000000      5.00000000      5.00000000      5.00000000      5.00000000      5.00000000      5.00000000
      5.00000000      5.00000000      5.00000000      5.00000000      5.00000000      5.00000000      5.00000000      5.00000000      5.00000000      5.00000000      5.00000000      5.00000000      5.00000000      5.00000000      5.00000000      5.00000000      5.00000000      5.00000000      5.00000000      5.00000000
      5.00000000      5.00000000      5.00000000      5.00000000      5.00000000      5.00000000</v>
  <i type="logical" name="LREAL"> F  </i>
  <i type="int" name="ISMEAR">     0</i>
  <i name="SIGMA">      0.05000000</i>
  <i type="int" name="NWRITE">     1</i>
  <i type="int" name="LMAXMIX">     4</i>
  <i type="logical" name="LWAVE"> F  </i>
  <i type="logical" name="LASPH"> T  </i>
  <v type="int" name="KPOINT_BSE">    -1     0     0     0</v>
  <i type="int" name="NELM">   200</i>
  <i type="string" name="GGA"> pe</i>
  <i type="logical" name="LDAU"> T  </i>
  <v type="int" name="LDAUTYPE">     2</v>
  <v type="int" name="LDAUL">    -1    -1    -1     2</v>
  <v name="LDAUU">      0.00000000      0.00000000      0.00000000      4.00000000</v>
  <v name="LDAUJ">      0.00000000      0.00000000      0.00000000      0.00000000</v>
  <i type="logical" name="LASPH"> T  </i>
 </incar>
 <structure name="primitive_cell" >
  <crystal>
   <varray name="basis" >
    <v>      11.57658324       0.00206628      -0.00954291 </v>
    <v>      -0.00198552      11.57659983      -0.00954294 </v>
    <v>      -3.84767942      -3.84903072      12.76635918 </v>
   </varray>
   <i name="volume">   1710.06494320 </i>
   <varray name="rec_basis" >
    <v>       0.08640274       0.00003629       0.02605204 </v>
    <v>       0.00000605       0.08640263       0.02605204 </v>
    <v>       0.00006459       0.00006461       0.07836982 </v>
   </varray>
  </crystal>
  <varray name="positions" >
   <v>       0.14940024       0.01727802       0.00000711 </v>
   <v>       0.31606288       0.01727079       0.00000000 </v>
   <v>      -0.01727046       0.01727079       0.00000000 </v>
   <v>       0.19934057       0.23388678       0.14911715 </v>
   <v>       0.19934057      -0.09944656       0.14983771 </v>
   <v>       0.09944656       0.13399276      -0.14983771 </v>
   <v>       0.09944656      -0.19934057      -0.14983771 </v>
   <v>       0.31605532       0.18393310      -0.00000711 </v>
   <v>      -0.01727802       0.18393310      -0.00000711 </v>
   <v>       0.31605532      -0.14940024      -0.00000711 </v>
   <v>      -0.01727802      -0.14940024      -0.00000711 </v>
   <v>       0.03603208       0.07057630       0.15990038 </v>
   <v>       0.36936541       0.07057630       0.15990038 </v>
   <v>       0.26275703      -0.03603208      -0.15990038 </v>
   <v>      -0.07057630      -0.03603208      -0.15990038 </v>
   <v>       0.48273357       0.01727802       0.00000711 </v>
   <v>      -0.18393310       0.01727802       0.00000711 </v>
   <v>       0.14940024       0.35061135       0.00000711 </v>
   <v>       0.14940024      -0.31605532       0.00000711 </v>
   <v>      -0.01727046       0.35060413       0.00000000 </v>
   <v>       0.31606288       0.35060413       0.00000000 </v>
   <v>       0.31606288      -0.31606254       0.00000000 </v>
   <v>      -0.01727046      -0.31606254       0.00000000 </v>
   <v>      -0.46732609      -0.09944656       0.14983771 </v>
   <v>      -0.46732609       0.23388678       0.14983771 </v>
   <v>      -0.13399276       0.23388678       0.14983771 </v>
   <v>       0.43277989       0.13399276      -0.14983771 </v>
   <v>       0.43277989      -0.19934057      -0.14983771 </v>
   <v>      -0.13399276      -0.09944656       0.14983771 </v>
   <v>      -0.23388678       0.13399276      -0.14983771 </v>
   <v>      -0.23388678      -0.19934057      -0.14983771 </v>
   <v>       0.26275703       0.29730125       0.34009962 </v>
   <v>       0.26275703      -0.03603208       0.34009962 </v>
   <v>       0.03603208      -0.26275703      -0.34009962 </v>
   <v>       0.03603208       0.07057630      -0.34009962 </v>
   <v>       0.26275703       0.29730125      -0.15990038 </v>
   <v>       0.36936541      -0.26275703       0.15990038 </v>
   <v>       0.03603208       0.40390964       0.15990038 </v>
   <v>       0.03603208      -0.26275703       0.15990038 </v>
   <v>       0.36936541       0.40390964       0.15990038 </v>
   <v>      -0.07057630       0.29730125      -0.15990038 </v>
   <v>       0.26275703      -0.36936541      -0.15990038 </v>
   <v>      -0.07057630      -0.36936541      -0.15990038 </v>
   <v>       0.43277989       0.13399276       0.35016229 </v>
   <v>       0.09944656       0.13399276       0.35016229 </v>
   <v>       0.19934057      -0.09944656      -0.35016229 </v>
   <v>      -0.13399276      -0.09944656      -0.35016229 </v>
   <v>      -0.18393310       0.35061135       0.00000711 </v>
   <v>       0.48273357      -0.31605532       0.00000711 </v>
   <v>       0.48273357       0.35061135       0.00000711 </v>
   <v>      -0.18393310      -0.31605532       0.00000711 </v>
   <v>      -0.35060379       0.01727079       0.00000000 </v>
   <v>       0.19934057      -0.43277989       0.14983771 </v>
   <v>       0.09944656       0.46732609      -0.14983771 </v>
   <v>      -0.35061135       0.18393310      -0.00000711 </v>
   <v>       0.31605532      -0.48273357      -0.00000711 </v>
   <v>      -0.35061135      -0.14940024      -0.00000711 </v>
   <v>      -0.01727802      -0.48273357      -0.00000711 </v>
   <v>      -0.40390964       0.29730125       0.34009962 </v>
   <v>      -0.40390964      -0.03603208       0.34009962 </v>
   <v>      -0.07057630       0.29730125       0.34009962 </v>
   <v>      -0.07057630      -0.03603208       0.34009962 </v>
   <v>      -0.29730125       0.07057630      -0.34009962 </v>
   <v>       0.36936541      -0.26275703      -0.34009962 </v>
   <v>      -0.29730125      -0.26275703      -0.34009962 </v>
   <v>       0.36936541       0.07057630      -0.34009962 </v>
   <v>      -0.40390964      -0.03603208      -0.15990038 </v>
   <v>      -0.29730125       0.07057630       0.15990038 </v>
   <v>       0.43277989       0.46732609       0.35016229 </v>
   <v>       0.09944656       0.46732609       0.35016229 </v>
   <v>       0.43277989      -0.19934057       0.35016229 </v>
   <v>       0.09944656      -0.19934057       0.35016229 </v>
   <v>       0.19934057       0.23388678      -0.35016229 </v>
   <v>       0.19934057      -0.43277989      -0.35016229 </v>
   <v>      -0.13399276       0.23388678      -0.35016229 </v>
   <v>      -0.13399276      -0.43277989      -0.35016229 </v>
   <v>       0.31605532       0.18393310       0.49999289 </v>
   <v>      -0.01727802      -0.14940024       0.49999289 </v>
   <v>       0.31606288       0.35060413      -0.50000000 </v>
   <v>       0.31606288       0.01727079      -0.50000000 </v>
   <v>      -0.01727046       0.01727079      -0.50000000 </v>
   <v>      -0.01727046      -0.31606254      -0.50000000 </v>
   <v>       0.48273357       0.01727802      -0.49999289 </v>
   <v>      -0.18393310       0.01727802      -0.49999289 </v>
   <v>       0.14940024       0.35061135      -0.49999289 </v>
   <v>       0.14940024      -0.31605532      -0.49999289 </v>
   <v>       0.14940024       0.01727802      -0.49999289 </v>
   <v>       0.48273357       0.35061135      -0.49999289 </v>
   <v>      -0.18393310      -0.31605532      -0.49999289 </v>
   <v>      -0.35060379       0.35060413       0.00000000 </v>
   <v>      -0.35060379      -0.31606254       0.00000000 </v>
   <v>      -0.46732609      -0.43277989       0.14983771 </v>
   <v>      -0.13399276      -0.43277989       0.14983771 </v>
   <v>       0.43277989       0.46732609      -0.14983771 </v>
   <v>      -0.23388678       0.46732609      -0.14983771 </v>
   <v>       0.26275703      -0.36936541       0.34009962 </v>
   <v>       0.03603208       0.40390964      -0.34009962 </v>
   <v>      -0.40390964       0.29730125      -0.15990038 </v>
   <v>      -0.29730125       0.40390964       0.15990038 </v>
   <v>      -0.29730125      -0.26275703       0.15990038 </v>
   <v>      -0.40390964      -0.36936541      -0.15990038 </v>
   <v>      -0.23388678       0.13399276       0.35016229 </v>
   <v>      -0.46732609      -0.09944656      -0.35016229 </v>
   <v>      -0.35061135       0.18393310       0.49999289 </v>
   <v>       0.31605532      -0.48273357       0.49999289 </v>
   <v>      -0.01727802       0.18393310       0.49999289 </v>
   <v>       0.31605532      -0.14940024       0.49999289 </v>
   <v>      -0.35061135      -0.14940024       0.49999289 </v>
   <v>      -0.01727802      -0.48273357       0.49999289 </v>
   <v>      -0.35060379       0.35060413      -0.50000000 </v>
   <v>      -0.01727046       0.35060413      -0.50000000 </v>
   <v>      -0.35060379       0.01727079      -0.50000000 </v>
   <v>       0.31606288      -0.31606254      -0.50000000 </v>
   <v>      -0.35060379      -0.31606254      -0.50000000 </v>
   <v>      -0.35061135      -0.48273357      -0.00000711 </v>
   <v>      -0.40390964      -0.36936541       0.34009962 </v>
   <v>      -0.07057630      -0.36936541       0.34009962 </v>
   <v>      -0.29730125       0.40390964      -0.34009962 </v>
   <v>       0.36936541       0.40390964      -0.34009962 </v>
   <v>      -0.23388678      -0.19934057       0.35016229 </v>
   <v>      -0.23388678       0.46732609       0.35016229 </v>
   <v>      -0.46732609      -0.43277989      -0.35016229 </v>
   <v>      -0.46732609       0.23388678      -0.35016229 </v>
   <v>      -0.35061135      -0.48273357       0.49999289 </v>
   <v>       0.48273357      -0.31605532      -0.49999289 </v>
   <v>      -0.18393310       0.35061135      -0.49999289 </v>
  </varray>
 </structure>
 <varray name="primitive_index" >
  <v type="int" >        1 </v>
  <v type="int" >       37 </v>
  <v type="int" >       39 </v>
  <v type="int" >       55 </v>
  <v type="int" >       61 </v>
  <v type="int" >       82 </v>
  <v type="int" >       88 </v>
  <v type="int" >       28 </v>
  <v type="int" >       30 </v>
  <v type="int" >       34 </v>
  <v type="int" >       36 </v>
  <v type="int" >       91 </v>
  <v type="int" >       92 </v>
  <v type="int" >      124 </v>
  <v type="int" >      126 </v>
  <v type="int" >        2 </v>
  <v type="int" >        3 </v>
  <v type="int" >        4 </v>
  <v type="int" >        7 </v>
  <v type="int" >       42 </v>
  <v type="int" >       40 </v>
  <v type="int" >       43 </v>
  <v type="int" >       45 </v>
  <v type="int" >       62 </v>
  <v type="int" >       56 </v>
  <v type="int" >       57 </v>
  <v type="int" >       83 </v>
  <v type="int" >       89 </v>
  <v type="int" >       63 </v>
  <v type="int" >       84 </v>
  <v type="int" >       90 </v>
  <v type="int" >      109 </v>
  <v type="int" >      115 </v>
  <v type="int" >      106 </v>
  <v type="int" >      100 </v>
  <v type="int" >      118 </v>
  <v type="int" >       98 </v>
  <v type="int" >       94 </v>
  <v type="int" >       97 </v>
  <v type="int" >       95 </v>
  <v type="int" >      120 </v>
  <v type="int" >      121 </v>
  <v type="int" >      123 </v>
  <v type="int" >       74 </v>
  <v type="int" >       73 </v>
  <v type="int" >       70 </v>
  <v type="int" >       72 </v>
  <v type="int" >        6 </v>
  <v type="int" >        8 </v>
  <v type="int" >        5 </v>
  <v type="int" >        9 </v>
  <v type="int" >       38 </v>
  <v type="int" >       58 </v>
  <v type="int" >       85 </v>
  <v type="int" >       29 </v>
  <v type="int" >       31 </v>
  <v type="int" >       35 </v>
  <v type="int" >       33 </v>
  <v type="int" >      110 </v>
  <v type="int" >      116 </v>
  <v type="int" >      111 </v>
  <v type="int" >      117 </v>
  <v type="int" >      102 </v>
  <v type="int" >      107 </v>
  <v type="int" >      108 </v>
  <v type="int" >      101 </v>
  <v type="int" >      125 </v>
  <v type="int" >       93 </v>
  <v type="int" >       77 </v>
  <v type="int" >       76 </v>
  <v type="int" >       80 </v>
  <v type="int" >       79 </v>
  <v type="int" >       64 </v>
  <v type="int" >       67 </v>
  <v type="int" >       66 </v>
  <v type="int" >       69 </v>
  <v type="int" >       19 </v>
  <v type="int" >       27 </v>
  <v type="int" >       49 </v>
  <v type="int" >       46 </v>
  <v type="int" >       48 </v>
  <v type="int" >       54 </v>
  <v type="int" >       11 </v>
  <v type="int" >       12 </v>
  <v type="int" >       13 </v>
  <v type="int" >       16 </v>
  <v type="int" >       10 </v>
  <v type="int" >       14 </v>
  <v type="int" >       18 </v>
  <v type="int" >       41 </v>
  <v type="int" >       44 </v>
  <v type="int" >       59 </v>
  <v type="int" >       60 </v>
  <v type="int" >       86 </v>
  <v type="int" >       87 </v>
  <v type="int" >      112 </v>
  <v type="int" >      103 </v>
  <v type="int" >      119 </v>
  <v type="int" >       96 </v>
  <v type="int" >       99 </v>
  <v type="int" >      122 </v>
  <v type="int" >       75 </v>
  <v type="int" >       71 </v>
  <v type="int" >       20 </v>
  <v type="int" >       22 </v>
  <v type="int" >       21 </v>
  <v type="int" >       25 </v>
  <v type="int" >       26 </v>
  <v type="int" >       24 </v>
  <v type="int" >       50 </v>
  <v type="int" >       51 </v>
  <v type="int" >       47 </v>
  <v type="int" >       52 </v>
  <v type="int" >       53 </v>
  <v type="int" >       32 </v>
  <v type="int" >      113 </v>
  <v type="int" >      114 </v>
  <v type="int" >      105 </v>
  <v type="int" >      104 </v>
  <v type="int" >       81 </v>
  <v type="int" >       78 </v>
  <v type="int" >       68 </v>
  <v type="int" >       65 </v>
  <v type="int" >       23 </v>
  <v type="int" >       17 </v>
  <v type="int" >       15 </v>
 </varray>
 <kpoints>
  <generation param="Gamma">
   <v type="int" name="divisions">       3        3        2 </v>
   <v name="usershift">      0.00000000       0.00000000       0.00000000 </v>
   <v name="genvec1">      0.33333333       0.00000000       0.00000000 </v>
   <v name="genvec2">     -0.00000000       0.33333333       0.00000000 </v>
   <v name="genvec3">      0.00000000      -0.00000000       0.50000000 </v>
   <v name="shift">      0.00000000       0.00000000       0.00000000 </v>
  </generation>
  <varray name="kpointlist" >
   <v>       0.00000000       0.00000000       0.00000000 </v>
   <v>       0.33333333       0.00000000      -0.00000000 </v>
   <v>      -0.00000000       0.33333333       0.00000000 </v>
   <v>       0.33333333       0.33333333      -0.00000000 </v>
   <v>      -0.33333333       0.33333333       0.00000000 </v>
   <v>       0.00000000      -0.00000000       0.50000000 </v>
   <v>       0.33333333      -0.00000000       0.50000000 </v>
   <v>       0.00000000       0.33333333       0.50000000 </v>
   <v>       0.33333333       0.33333333       0.50000000 </v>
   <v>      -0.33333333       0.33333333       0.50000000 </v>
  </varray>
  <varray name="weights" >
   <v>       0.05555556 </v>
   <v>       0.11111111 </v>
   <v>       0.11111111 </v>
   <v>       0.11111111 </v>
   <v>       0.11111111 </v>
   <v>       0.05555556 </v>
   <v>       0.11111111 </v>
   <v>       0.11111111 </v>
   <v>       0.11111111 </v>
   <v>       0.11111111 </v>
  </varray>
 </kpoints>
 <parameters>
  <separator name="general" >
   <i type="string" name="SYSTEM">unknown system</i>
   <i type="logical" name="LCOMPAT"> F  </i>
  </separator>
  <separator name="electronic" >
   <i type="string" name="PREC">accura</i>
   <i name="ENMAX">    650.00000000</i>
   <i name="ENAUG">    628.94500000</i>
   <i name="EDIFF">      0.00000100</i>
   <i type="int" name="IALGO">    58</i>
   <i type="int" name="IWAVPR">    10</i>
   <i type="int" name="NBANDS">   680</i>
   <i name="NELECT">    936.00000000</i>
   <i type="int" name="TURBO">     0</i>
   <i type="int" name="IRESTART">     0</i>
   <i type="int" name="NREBOOT">     0</i>
   <i type="int" name="NMIN">     0</i>
   <i name="EREF">      0.00000000</i>
   <separator name="electronic smearing" >
    <i type="int" name="ISMEAR">     0</i>
    <i name="SIGMA">      0.05000000</i>
    <i name="KSPACING">      0.50000000</i>
    <i type="logical" name="KGAMMA"> T  </i>
   </separator>
   <separator name="electronic projectors" >
    <i type="logical" name="LREAL"> F  </i>
    <v name="ROPT">      0.00000000      0.00000000      0.00000000      0.00000000</v>
    <i type="int" name="LMAXPAW">  -100</i>
    <i type="int" name="LMAXMIX">     4</i>
    <i type="logical" name="NLSPLINE"> F  </i>
   </separator>
   <separator name="electronic startup" >
    <i type="int" name="ISTART">     0</i>
    <i type="int" name="ICHARG">     1</i>
    <i type="int" name="INIWAV">     1</i>
   </separator>
   <separator name="electronic spin" >
    <i type="int" name="ISPIN">     2</i>
    <i type="logical" name="LNONCOLLINEAR"> F  </i>
    <v name="MAGMOM">      0.60000000      0.60000000      0.60000000      0.60000000      0.60000000      0.60000000      0.60000000      0.60000000      0.60000000      0.60000000      0.60000000      0.60000000      0.60000000      0.60000000      0.60000000      0.60000000      0.60000000      0.60000000      0.60000000      0.60000000
      0.60000000      0.60000000      0.60000000      0.60000000      0.60000000      0.60000000      0.60000000      0.60000000      0.60000000      0.60000000      0.60000000      0.60000000      0.60000000      0.60000000      0.60000000      0.60000000      0.60000000      0.60000000      0.60000000      0.60000000
      0.60000000      0.60000000      0.60000000      0.60000000      0.60000000      0.60000000      0.60000000      0.60000000      0.60000000      0.60000000      0.60000000      0.60000000      0.60000000      0.60000000      0.60000000      0.60000000      0.60000000      0.60000000      0.60000000      0.60000000
      0.60000000      0.60000000      0.60000000      0.60000000      0.60000000      0.60000000      0.60000000      0.60000000      0.60000000      0.60000000      0.60000000      0.60000000      0.60000000      0.60000000      0.60000000      0.60000000      0.60000000      0.60000000      0.60000000      0.60000000
      0.60000000      0.60000000      0.60000000      0.60000000      0.60000000      0.60000000      0.60000000      0.60000000      0.60000000      0.60000000      5.00000000      5.00000000      5.00000000      5.00000000      5.00000000      5.00000000      5.00000000      5.00000000      5.00000000      5.00000000
      5.00000000      5.00000000      5.00000000      5.00000000      5.00000000      5.00000000      5.00000000      5.00000000      5.00000000      5.00000000      5.00000000      5.00000000      5.00000000      5.00000000      5.00000000      5.00000000      5.00000000      5.00000000      5.00000000      5.00000000
      5.00000000      5.00000000      5.00000000      5.00000000      5.00000000      5.00000000</v>
    <i name="NUPDOWN">     -1.00000000</i>
    <i type="logical" name="LSORBIT"> F  </i>
    <v name="SAXIS">      0.00000000      0.00000000      1.00000000</v>
    <i type="logical" name="LSPIRAL"> F  </i>
    <v name="QSPIRAL">      0.00000000      0.00000000      0.00000000</v>
    <i type="logical" name="LZEROZ"> F  </i>
   </separator>
   <separator name="electronic exchange-correlation" >
    <i type="logical" name="LASPH"> T  </i>
    <i type="logical" name="LMETAGGA"> F  </i>
   </separator>
   <separator name="electronic convergence" >
    <i type="int" name="NELM">   200</i>
    <i type="int" name="NELMDL">     0</i>
    <i type="int" name="NELMIN">     8</i>
    <i name="ENINI">    650.00000000</i>
    <separator name="electronic convergence detail" >
     <i type="logical" name="LDIAG"> T  </i>
     <i type="logical" name="LSUBROT"> F  </i>
     <i name="WEIMIN">      0.00000000</i>
     <i name="EBREAK">      0.00000000</i>
     <i name="DEPER">      0.30000000</i>
     <i type="int" name="NRMM">     4</i>
     <i name="TIME">      0.40000000</i>
    </separator>
   </separator>
   <separator name="electronic mixer" >
    <i name="AMIX">      0.40000000</i>
    <i name="BMIX">      1.00000000</i>
    <i name="AMIN">      0.10000000</i>
    <i name="AMIX_MAG">      1.60000000</i>
    <i name="BMIX_MAG">      1.00000000</i>
    <separator name="electronic mixer details" >
     <i type="int" name="IMIX">     4</i>
     <i type="logical" name="MIXFIRST"> F  </i>
     <i type="int" name="MAXMIX">   -45</i>
     <i name="WC">    100.00000000</i>
     <i type="int" name="INIMIX">     1</i>
     <i type="int" name="MIXPRE">     1</i>
     <i type="int" name="MREMOVE">     5</i>
    </separator>
   </separator>
   <separator name="electronic dipolcorrection" >
    <i type="logical" name="LDIPOL"> F  </i>
    <i type="logical" name="LMONO"> F  </i>
    <i type="int" name="IDIPOL">     0</i>
    <i name="EPSILON">      1.00000000</i>
    <v name="DIPOL">   -100.00000000   -100.00000000   -100.00000000</v>
    <i name="EFIELD">      0.00000000</i>
   </separator>
  </separator>
  <separator name="grids" >
   <i type="int" name="NGX">    96</i>
   <i type="int" name="NGY">    96</i>
   <i type="int" name="NGZ">   120</i>
   <i type="int" name="NGXF">   192</i>
   <i type="int" name="NGYF">   192</i>
   <i type="int" name="NGZF">   240</i>
   <i type="logical" name="ADDGRID"> T  </i>
  </separator>
  <separator name="ionic" >
   <i type="int" name="NSW">     0</i>
   <i type="int" name="IBRION">    -1</i>
   <i type="int" name="MDALGO">     0</i>
   <i type="int" name="ISIF">     3</i>
   <i name="PSTRESS">      0.00000000</i>
   <i name="EDIFFG">      0.00001000</i>
   <i type="int" name="NFREE">     0</i>
   <i name="POTIM">      0.50000000</i>
   <i name="SMASS">     -3.00000000</i>
   <i name="SCALEE">      1.00000000</i>
  </separator>
  <separator name="ionic md" >
   <i name="TEBEG">      0.00010000</i>
   <i name="TEEND">      0.00010000</i>
   <i type="int" name="NBLOCK">     1</i>
   <i type="int" name="KBLOCK">     1</i>
   <i type="int" name="NPACO">   256</i>
   <i name="APACO">     16.00000000</i>
  </separator>
  <separator name="symmetry" >
   <i type="int" name="ISYM">     0</i>
   <i name="SYMPREC">      0.00001000</i>
  </separator>
  <separator name="dos" >
   <i type="int" name="LORBIT">     0</i>
   <v name="RWIGS">     -1.00000000     -1.00000000     -1.00000000     -1.00000000</v>
   <i type="int" name="NEDOS">   301</i>
   <i name="EMIN">     10.00000000</i>
   <i name="EMAX">    -10.00000000</i>
   <i name="EFERMI">      0.00000000</i>
  </separator>
  <separator name="writing" >
   <i type="int" name="NWRITE">     1</i>
   <i type="logical" name="LWAVE"> F  </i>
   <i type="logical" name="LDOWNSAMPLE"> F  </i>
   <i type="logical" name="LCHARG"> T  </i>
   <i type="logical" name="LPARD"> F  </i>
   <i type="logical" name="LVTOT"> F  </i>
   <i type="logical" name="LVHAR"> F  </i>
   <i type="logical" name="LELF"> F  </i>
   <i type="logical" name="LOPTICS"> F  </i>
   <v name="STM">      0.00000000      0.00000000      0.00000000      0.00000000      0.00000000      0.00000000      0.00000000</v>
  </separator>
  <separator name="performance" >
   <i type="int" name="NPAR">     4</i>
   <i type="int" name="NSIM">     4</i>
   <i type="int" name="NBLK">    -1</i>
   <i type="logical" name="LPLANE"> T  </i>
   <i type="logical" name="LSCALAPACK"> T  </i>
   <i type="logical" name="LSCAAWARE"> F  </i>
   <i type="logical" name="LSCALU"> F  </i>
   <i type="logical" name="LASYNC"> F  </i>
   <i type="logical" name="LORBITALREAL"> F  </i>
  </separator>
  <separator name="miscellaneous" >
   <i type="int" name="IDIOT">     3</i>
   <i type="int" name="ISPECIAL">     0</i>
   <i type="logical" name="LMUSIC"> F  </i>
   <v name="POMASS">      7.01000000     16.00000000     32.06600000     55.84700000</v>
   <v name="DARWINR">      0.00000000      0.00000000      0.00000000      0.00000000</v>
   <v name="DARWINV">      1.00000000      1.00000000      1.00000000      1.00000000</v>
   <i type="logical" name="LCORR"> T  </i>
  </separator>
  <i type="logical" name="GGA_COMPAT"> T  </i>
  <i type="logical" name="LBERRY"> F  </i>
  <i type="int" name="ICORELEVEL">     0</i>
  <i type="logical" name="LDAU"> T  </i>
  <v type="int" name="LDAUTYPE">     2</v>
  <v type="int" name="LDAUL">    -1</v>
  <v name="LDAUU">      0.00000000</v>
  <v name="LDAUJ">      0.00000000</v>
  <i type="int" name="LDAUPRINT">     0</i>
  <i type="int" name="I_CONSTRAINED_M">     0</i>
  <separator name="electronic exchange-correlation" >
   <i type="string" name="GGA">PE</i>
   <i type="int" name="VOSKOWN">     0</i>
   <i type="logical" name="LHFCALC"> F  </i>
   <i type="string" name="PRECFOCK"></i>
   <i type="logical" name="LSYMGRAD"> F  </i>
   <i type="logical" name="LHFONE"> F  </i>
   <i type="logical" name="LRHFCALC"> F  </i>
   <i type="logical" name="LTHOMAS"> F  </i>
   <i type="logical" name="LMODELHF"> F  </i>
   <i name="ENCUT4O">     -1.00000000</i>
   <i type="int" name="EXXOEP">     0</i>
   <i type="int" name="FOURORBIT">     0</i>
   <i name="AEXX">      0.00000000</i>
   <i name="HFALPHA">      0.00000000</i>
   <i name="MCALPHA">      0.00000000</i>
   <i name="ALDAX">      1.00000000</i>
   <i name="AGGAX">      1.00000000</i>
   <i name="ALDAC">      1.00000000</i>
   <i name="AGGAC">      1.00000000</i>
   <i type="int" name="NKREDX">     1</i>
   <i type="int" name="NKREDY">     1</i>
   <i type="int" name="NKREDZ">     1</i>
   <i type="logical" name="SHIFTRED"> F  </i>
   <i type="logical" name="ODDONLY"> F  </i>
   <i type="logical" name="EVENONLY"> F  </i>
   <i type="int" name="LMAXFOCK">     0</i>
   <i type="int" name="NMAXFOCKAE">     0</i>
   <i type="logical" name="LFOCKAEDFT"> F  </i>
   <i name="HFSCREEN">      0.00000000</i>
   <i name="HFSCREENC">      0.00000000</i>
   <i type="int" name="NBANDSGWLOW">     0</i>
  </separator>
  <separator name="vdW DFT" >
   <i type="logical" name="LUSE_VDW"> F  </i>
   <i name="Zab_VDW">     -0.84910000</i>
   <i name="PARAM1">      0.12340000</i>
   <i name="PARAM2">      1.00000000</i>
   <i name="PARAM3">      0.00000000</i>
  </separator>
  <separator name="model GW" >
   <i type="int" name="MODEL_GW">     0</i>
   <i name="MODEL_EPS0">      8.14316640</i>
   <i name="MODEL_ALPHA">      1.00000000</i>
  </separator>
  <separator name="linear response parameters" >
   <i type="logical" name="LEPSILON"> F  </i>
   <i type="logical" name="LRPA"> F  </i>
   <i type="logical" name="LNABLA"> F  </i>
   <i type="logical" name="LVEL"> F  </i>
   <i type="int" name="KINTER">     0</i>
   <i name="CSHIFT">      0.10000000</i>
   <i name="OMEGAMAX">     -1.00000000</i>
   <i name="DEG_THRESHOLD">      0.00200000</i>
   <i name="RTIME">     -0.10000000</i>
   <i name="WPLASMAI">      0.00000000</i>
   <v name="DFIELD">      0.00000000      0.00000000      0.00000000</v>
   <v name="WPLASMA">      0.00000000      0.00000000      0.00000000      0.00000000      0.00000000      0.00000000      0.00000000      0.00000000      0.00000000</v>
  </separator>
  <separator name="orbital magnetization" >
   <i type="logical" name="NUCIND"> F  </i>
   <v name="MAGPOS">      0.00000000      0.00000000      0.00000000</v>
   <i type="logical" name="LNICSALL"> T  </i>
   <i type="logical" name="ORBITALMAG"> F  </i>
   <i type="logical" name="LMAGBLOCH"> F  </i>
   <i type="logical" name="LCHIMAG"> F  </i>
   <i type="logical" name="LGAUGE"> T  </i>
   <i type="int" name="MAGATOM">     0</i>
   <v name="MAGDIPOL">      0.00000000      0.00000000      0.00000000</v>
   <v name="AVECCONST">      0.00000000      0.00000000      0.00000000</v>
  </separator>
  <separator name="response functions" >
   <i type="logical" name="LADDER"> F  </i>
   <i type="logical" name="LRPAFORCE"> F  </i>
   <i type="logical" name="LFXC"> F  </i>
   <i type="logical" name="LHARTREE"> T  </i>
   <i type="int" name="IBSE">     0</i>
   <v type="int" name="KPOINT">    -1     0     0     0</v>
   <i type="logical" name="LTCTE"> F  </i>
   <i type="logical" name="LTETE"> F  </i>
   <i type="logical" name="LTRIPLET"> F  </i>
   <i type="logical" name="LFXCEPS"> F  </i>
   <i type="logical" name="LFXHEG"> F  </i>
   <i type="int" name="NATURALO">     2</i>
   <i type="logical" name="L2ORDER"> F  </i>
   <i type="logical" name="LMP2LT"> F  </i>
   <i type="logical" name="LUSEW"> F  </i>
   <i name="ENCUTGW">     -2.00000000</i>
   <i name="ENCUTGWSOFT">     -2.00000000</i>
   <i name="ENCUTLF">     -1.00000000</i>
   <i type="int" name="LMAXMP2">    -1</i>
   <i name="SCISSOR">      0.00000000</i>
   <i type="int" name="NOMEGA">     0</i>
   <i type="int" name="NOMEGAR">     0</i>
   <i type="int" name="NBANDSGW">    -1</i>
   <i type="int" name="NBANDSO">    -1</i>
   <i type="int" name="NBANDSV">    -1</i>
   <i type="int" name="NELM">   200</i>
   <i type="int" name="NELMHF">     1</i>
   <i type="int" name="DIM">     3</i>
   <i type="int" name="ANTIRES">     0</i>
   <i name="OMEGAMAX">    -30.00000000</i>
   <i name="OMEGAMIN">    -30.00000000</i>
   <i name="OMEGATL">   -200.00000000</i>
   <i type="int" name="OMEGAGRID">   140</i>
   <i name="CSHIFT">     -0.10000000</i>
   <i type="logical" name="SELFENERGY"> F  </i>
   <i type="logical" name="LSPECTRAL"> F  </i>
   <i type="logical" name="LSPECTRALGW"> F  </i>
   <i type="logical" name="LSINGLES"> F  </i>
   <i type="logical" name="LFERMIGW"> F  </i>
   <i type="logical" name="ODDONLYGW"> F  </i>
   <i type="logical" name="EVENONLYGW"> F  </i>
   <i type="int" name="NKREDLFX">     1</i>
   <i type="int" name="NKREDLFY">     1</i>
   <i type="int" name="NKREDLFZ">     1</i>
   <i type="int" name="MAXMEM">  2800</i>
   <i type="int" name="TELESCOPE">     0</i>
   <i type="int" name="TAUPAR">     1</i>
   <i type="int" name="OMEGAPAR">    -1</i>
   <i name="LAMBDA">      1.00000000</i>
  </separator>
  <separator name="External order field" >
   <i name="OFIELD_KAPPA">      0.00000000</i>
   <v name="OFIELD_K">      0.00000000      0.00000000      0.00000000</v>
   <i name="OFIELD_Q6_NEAR">      0.00000000</i>
   <i name="OFIELD_Q6_FAR">      0.00000000</i>
   <i name="OFIELD_A">      0.00000000</i>
  </separator>
 </parameters>
 <atominfo>
  <atoms>     126 </atoms>
  <types>       4 </types>
  <array name="atoms" >
   <dimension dim="1">ion</dimension>
   <field type="string">element</field>
   <field type="int">atomtype</field>
   <set>
    <rc><c>Li</c><c>   1</c></rc>
    <rc><c>Li</c><c>   1</c></rc>
    <rc><c>Li</c><c>   1</c></rc>
    <rc><c>Li</c><c>   1</c></rc>
    <rc><c>Li</c><c>   1</c></rc>
    <rc><c>Li</c><c>   1</c></rc>
    <rc><c>Li</c><c>   1</c></rc>
    <rc><c>Li</c><c>   1</c></rc>
    <rc><c>Li</c><c>   1</c></rc>
    <rc><c>Li</c><c>   1</c></rc>
    <rc><c>Li</c><c>   1</c></rc>
    <rc><c>Li</c><c>   1</c></rc>
    <rc><c>Li</c><c>   1</c></rc>
    <rc><c>Li</c><c>   1</c></rc>
    <rc><c>Li</c><c>   1</c></rc>
    <rc><c>Li</c><c>   1</c></rc>
    <rc><c>Li</c><c>   1</c></rc>
    <rc><c>Li</c><c>   1</c></rc>
    <rc><c>Li</c><c>   1</c></rc>
    <rc><c>Li</c><c>   1</c></rc>
    <rc><c>Li</c><c>   1</c></rc>
    <rc><c>Li</c><c>   1</c></rc>
    <rc><c>Li</c><c>   1</c></rc>
    <rc><c>Li</c><c>   1</c></rc>
    <rc><c>Li</c><c>   1</c></rc>
    <rc><c>Li</c><c>   1</c></rc>
    <rc><c>Li</c><c>   1</c></rc>
    <rc><c>Li</c><c>   1</c></rc>
    <rc><c>Li</c><c>   1</c></rc>
    <rc><c>Li</c><c>   1</c></rc>
    <rc><c>Li</c><c>   1</c></rc>
    <rc><c>Li</c><c>   1</c></rc>
    <rc><c>Li</c><c>   1</c></rc>
    <rc><c>Li</c><c>   1</c></rc>
    <rc><c>Li</c><c>   1</c></rc>
    <rc><c>Li</c><c>   1</c></rc>
    <rc><c>O </c><c>   2</c></rc>
    <rc><c>O </c><c>   2</c></rc>
    <rc><c>O </c><c>   2</c></rc>
    <rc><c>O </c><c>   2</c></rc>
    <rc><c>O </c><c>   2</c></rc>
    <rc><c>O </c><c>   2</c></rc>
    <rc><c>O </c><c>   2</c></rc>
    <rc><c>O </c><c>   2</c></rc>
    <rc><c>O </c><c>   2</c></rc>
    <rc><c>O </c><c>   2</c></rc>
    <rc><c>O </c><c>   2</c></rc>
    <rc><c>O </c><c>   2</c></rc>
    <rc><c>O </c><c>   2</c></rc>
    <rc><c>O </c><c>   2</c></rc>
    <rc><c>O </c><c>   2</c></rc>
    <rc><c>O </c><c>   2</c></rc>
    <rc><c>O </c><c>   2</c></rc>
    <rc><c>O </c><c>   2</c></rc>
    <rc><c>S </c><c>   3</c></rc>
    <rc><c>S </c><c>   3</c></rc>
    <rc><c>S </c><c>   3</c></rc>
    <rc><c>S </c><c>   3</c></rc>
    <rc><c>S </c><c>   3</c></rc>
    <rc><c>S </c><c>   3</c></rc>
    <rc><c>S </c><c>   3</c></rc>
    <rc><c>S </c><c>   3</c></rc>
    <rc><c>S </c><c>   3</c></rc>
    <rc><c>S </c><c>   3</c></rc>
    <rc><c>S </c><c>   3</c></rc>
    <rc><c>S </c><c>   3</c></rc>
    <rc><c>S </c><c>   3</c></rc>
    <rc><c>S </c><c>   3</c></rc>
    <rc><c>S </c><c>   3</c></rc>
    <rc><c>S </c><c>   3</c></rc>
    <rc><c>S </c><c>   3</c></rc>
    <rc><c>S </c><c>   3</c></rc>
    <rc><c>S </c><c>   3</c></rc>
    <rc><c>S </c><c>   3</c></rc>
    <rc><c>S </c><c>   3</c></rc>
    <rc><c>S </c><c>   3</c></rc>
    <rc><c>S </c><c>   3</c></rc>
    <rc><c>S </c><c>   3</c></rc>
    <rc><c>S </c><c>   3</c></rc>
    <rc><c>S </c><c>   3</c></rc>
    <rc><c>S </c><c>   3</c></rc>
    <rc><c>S </c><c>   3</c></rc>
    <rc><c>S </c><c>   3</c></rc>
    <rc><c>S </c><c>   3</c></rc>
    <rc><c>S </c><c>   3</c></rc>
    <rc><c>S </c><c>   3</c></rc>
    <rc><c>S </c><c>   3</c></rc>
    <rc><c>S </c><c>   3</c></rc>
    <rc><c>S </c><c>   3</c></rc>
    <rc><c>S </c><c>   3</c></rc>
    <rc><c>Fe</c><c>   4</c></rc>
    <rc><c>Fe</c><c>   4</c></rc>
    <rc><c>Fe</c><c>   4</c></rc>
    <rc><c>Fe</c><c>   4</c></rc>
    <rc><c>Fe</c><c>   4</c></rc>
    <rc><c>Fe</c><c>   4</c></rc>
    <rc><c>Fe</c><c>   4</c></rc>
    <rc><c>Fe</c><c>   4</c></rc>
    <rc><c>Fe</c><c>   4</c></rc>
    <rc><c>Fe</c><c>   4</c></rc>
    <rc><c>Fe</c><c>   4</c></rc>
    <rc><c>Fe</c><c>   4</c></rc>
    <rc><c>Fe</c><c>   4</c></rc>
    <rc><c>Fe</c><c>   4</c></rc>
    <rc><c>Fe</c><c>   4</c></rc>
    <rc><c>Fe</c><c>   4</c></rc>
    <rc><c>Fe</c><c>   4</c></rc>
    <rc><c>Fe</c><c>   4</c></rc>
    <rc><c>Fe</c><c>   4</c></rc>
    <rc><c>Fe</c><c>   4</c></rc>
    <rc><c>Fe</c><c>   4</c></rc>
    <rc><c>Fe</c><c>   4</c></rc>
    <rc><c>Fe</c><c>   4</c></rc>
    <rc><c>Fe</c><c>   4</c></rc>
    <rc><c>Fe</c><c>   4</c></rc>
    <rc><c>Fe</c><c>   4</c></rc>
    <rc><c>Fe</c><c>   4</c></rc>
    <rc><c>Fe</c><c>   4</c></rc>
    <rc><c>Fe</c><c>   4</c></rc>
    <rc><c>Fe</c><c>   4</c></rc>
    <rc><c>Fe</c><c>   4</c></rc>
    <rc><c>Fe</c><c>   4</c></rc>
    <rc><c>Fe</c><c>   4</c></rc>
    <rc><c>Fe</c><c>   4</c></rc>
    <rc><c>Fe</c><c>   4</c></rc>
    <rc><c>Fe</c><c>   4</c></rc>
   </set>
  </array>
  <array name="atomtypes" >
   <dimension dim="1">type</dimension>
   <field type="int">atomspertype</field>
   <field type="string">element</field>
   <field>mass</field>
   <field>valence</field>
   <field type="string">pseudopotential</field>
   <set>
    <rc><c>  36</c><c>Li</c><c>      7.01000000</c><c>      3.00000000</c><c>  PAW_PBE Li_sv 10Sep2004               </c></rc>
    <rc><c>  18</c><c>O </c><c>     16.00000000</c><c>      6.00000000</c><c>  PAW_PBE O 08Apr2002                   </c></rc>
    <rc><c>  36</c><c>S </c><c>     32.06600000</c><c>      6.00000000</c><c>  PAW_PBE S 06Sep2000                   </c></rc>
    <rc><c>  36</c><c>Fe</c><c>     55.84700000</c><c>     14.00000000</c><c>  PAW_PBE Fe_pv 02Aug2007               </c></rc>
   </set>
  </array>
 </atominfo>
 <structure name="initialpos" >
  <crystal>
   <varray name="basis" >
    <v>      11.57658324       0.00206628      -0.00954291 </v>
    <v>      -0.00198552      11.57659983      -0.00954294 </v>
    <v>      -3.84767942      -3.84903072      12.76635918 </v>
   </varray>
   <i name="volume">   1710.06494320 </i>
   <varray name="rec_basis" >
    <v>       0.08640274       0.00003629       0.02605204 </v>
    <v>       0.00000605       0.08640263       0.02605204 </v>
    <v>       0.00006459       0.00006461       0.07836982 </v>
   </varray>
  </crystal>
  <varray name="positions" >
   <v>       0.14940024       0.01727802       0.00000711 </v>
   <v>       0.48273357       0.01727802       0.00000711 </v>
   <v>       0.81606690       0.01727802       0.00000711 </v>
   <v>       0.14940024       0.35061135       0.00000711 </v>
   <v>       0.48273357       0.35061135       0.00000711 </v>
   <v>       0.81606690       0.35061135       0.00000711 </v>
   <v>       0.14940024       0.68394468       0.00000711 </v>
   <v>       0.48273357       0.68394468       0.00000711 </v>
   <v>       0.81606690       0.68394468       0.00000711 </v>
   <v>       0.14940024       0.01727802       0.50000711 </v>
   <v>       0.48273357       0.01727802       0.50000711 </v>
   <v>       0.81606690       0.01727802       0.50000711 </v>
   <v>       0.14940024       0.35061135       0.50000711 </v>
   <v>       0.48273357       0.35061135       0.50000711 </v>
   <v>       0.81606690       0.35061135       0.50000711 </v>
   <v>       0.14940024       0.68394468       0.50000711 </v>
   <v>       0.48273357       0.68394468       0.50000711 </v>
   <v>       0.81606690       0.68394468       0.50000711 </v>
   <v>       0.31605532       0.18393310       0.49999289 </v>
   <v>       0.64938865       0.18393310       0.49999289 </v>
   <v>       0.98272198       0.18393310       0.49999289 </v>
   <v>       0.31605532       0.51726643       0.49999289 </v>
   <v>       0.64938865       0.51726643       0.49999289 </v>
   <v>       0.98272198       0.51726643       0.49999289 </v>
   <v>       0.31605532       0.85059976       0.49999289 </v>
   <v>       0.64938865       0.85059976       0.49999289 </v>
   <v>       0.98272198       0.85059976       0.49999289 </v>
   <v>       0.31605532       0.18393310       0.99999289 </v>
   <v>       0.64938865       0.18393310       0.99999289 </v>
   <v>       0.98272198       0.18393310       0.99999289 </v>
   <v>       0.31605532       0.51726643       0.99999289 </v>
   <v>       0.64938865       0.51726643       0.99999289 </v>
   <v>       0.98272198       0.51726643       0.99999289 </v>
   <v>       0.31605532       0.85059976       0.99999289 </v>
   <v>       0.64938865       0.85059976       0.99999289 </v>
   <v>       0.98272198       0.85059976       0.99999289 </v>
   <v>       0.31606288       0.01727079       0.00000000 </v>
   <v>       0.64939621       0.01727079       0.00000000 </v>
   <v>       0.98272954       0.01727079       0.00000000 </v>
   <v>       0.31606288       0.35060413       0.00000000 </v>
   <v>       0.64939621       0.35060413       0.00000000 </v>
   <v>       0.98272954       0.35060413       0.00000000 </v>
   <v>       0.31606288       0.68393746       0.00000000 </v>
   <v>       0.64939621       0.68393746       0.00000000 </v>
   <v>       0.98272954       0.68393746       0.00000000 </v>
   <v>       0.31606288       0.01727079       0.50000000 </v>
   <v>       0.64939621       0.01727079       0.50000000 </v>
   <v>       0.98272954       0.01727079       0.50000000 </v>
   <v>       0.31606288       0.35060413       0.50000000 </v>
   <v>       0.64939621       0.35060413       0.50000000 </v>
   <v>       0.98272954       0.35060413       0.50000000 </v>
   <v>       0.31606288       0.68393746       0.50000000 </v>
   <v>       0.64939621       0.68393746       0.50000000 </v>
   <v>       0.98272954       0.68393746       0.50000000 </v>
   <v>       0.19934057       0.23388678       0.14911715 </v>
   <v>       0.53267391       0.23388678       0.14983771 </v>
   <v>       0.86600724       0.23388678       0.14983771 </v>
   <v>       0.19934057       0.56722011       0.14983771 </v>
   <v>       0.53267391       0.56722011       0.14983771 </v>
   <v>       0.86600724       0.56722011       0.14983771 </v>
   <v>       0.19934057       0.90055344       0.14983771 </v>
   <v>       0.53267391       0.90055344       0.14983771 </v>
   <v>       0.86600724       0.90055344       0.14983771 </v>
   <v>       0.19934057       0.23388678       0.64983771 </v>
   <v>       0.53267391       0.23388678       0.64983771 </v>
   <v>       0.86600724       0.23388678       0.64983771 </v>
   <v>       0.19934057       0.56722011       0.64983771 </v>
   <v>       0.53267391       0.56722011       0.64983771 </v>
   <v>       0.86600724       0.56722011       0.64983771 </v>
   <v>       0.19934057       0.90055344       0.64983771 </v>
   <v>       0.53267391       0.90055344       0.64983771 </v>
   <v>       0.86600724       0.90055344       0.64983771 </v>
   <v>       0.09944656       0.13399276       0.35016229 </v>
   <v>       0.43277989       0.13399276       0.35016229 </v>
   <v>       0.76611322       0.13399276       0.35016229 </v>
   <v>       0.09944656       0.46732609       0.35016229 </v>
   <v>       0.43277989       0.46732609       0.35016229 </v>
   <v>       0.76611322       0.46732609       0.35016229 </v>
   <v>       0.09944656       0.80065943       0.35016229 </v>
   <v>       0.43277989       0.80065943       0.35016229 </v>
   <v>       0.76611322       0.80065943       0.35016229 </v>
   <v>       0.09944656       0.13399276       0.85016229 </v>
   <v>       0.43277989       0.13399276       0.85016229 </v>
   <v>       0.76611322       0.13399276       0.85016229 </v>
   <v>       0.09944656       0.46732609       0.85016229 </v>
   <v>       0.43277989       0.46732609       0.85016229 </v>
   <v>       0.76611322       0.46732609       0.85016229 </v>
   <v>       0.09944656       0.80065943       0.85016229 </v>
   <v>       0.43277989       0.80065943       0.85016229 </v>
   <v>       0.76611322       0.80065943       0.85016229 </v>
   <v>       0.03603208       0.07057630       0.15990037 </v>
   <v>       0.36936541       0.07057630       0.15990037 </v>
   <v>       0.70269875       0.07057630       0.15990037 </v>
   <v>       0.03603208       0.40390964       0.15990037 </v>
   <v>       0.36936541       0.40390964       0.15990037 </v>
   <v>       0.70269875       0.40390964       0.15990037 </v>
   <v>       0.03603208       0.73724297       0.15990037 </v>
   <v>       0.36936541       0.73724297       0.15990037 </v>
   <v>       0.70269875       0.73724297       0.15990037 </v>
   <v>       0.03603208       0.07057630       0.65990037 </v>
   <v>       0.36936541       0.07057630       0.65990037 </v>
   <v>       0.70269875       0.07057630       0.65990037 </v>
   <v>       0.03603208       0.40390964       0.65990037 </v>
   <v>       0.36936541       0.40390964       0.65990037 </v>
   <v>       0.70269875       0.40390964       0.65990037 </v>
   <v>       0.03603208       0.73724297       0.65990037 </v>
   <v>       0.36936541       0.73724297       0.65990037 </v>
   <v>       0.70269875       0.73724297       0.65990037 </v>
   <v>       0.26275703       0.29730125       0.34009963 </v>
   <v>       0.59609036       0.29730125       0.34009963 </v>
   <v>       0.92942370       0.29730125       0.34009963 </v>
   <v>       0.26275703       0.63063459       0.34009963 </v>
   <v>       0.59609036       0.63063459       0.34009963 </v>
   <v>       0.92942370       0.63063459       0.34009963 </v>
   <v>       0.26275703       0.96396792       0.34009963 </v>
   <v>       0.59609036       0.96396792       0.34009963 </v>
   <v>       0.92942370       0.96396792       0.34009963 </v>
   <v>       0.26275703       0.29730125       0.84009963 </v>
   <v>       0.59609036       0.29730125       0.84009963 </v>
   <v>       0.92942370       0.29730125       0.84009963 </v>
   <v>       0.26275703       0.63063459       0.84009963 </v>
   <v>       0.59609036       0.63063459       0.84009963 </v>
   <v>       0.92942370       0.63063459       0.84009963 </v>
   <v>       0.26275703       0.96396792       0.84009963 </v>
   <v>       0.59609036       0.96396792       0.84009963 </v>
   <v>       0.92942370       0.96396792       0.84009963 </v>
  </varray>
 </structure>
 <calculation>
  <scstep>
   <time name="total">  254.34  258.34</time>
   <energy>
    <i name="alphaZ">   2639.27042227 </i>
    <i name="ewald"> -69235.98070803 </i>
    <i name="hartreedc"> -34826.81825097 </i>
    <i name="XCdc">   3975.72742354 </i>
    <i name="pawpsdc"> 109952.41695739 </i>
    <i name="pawaedc">-113408.94482908 </i>
    <i name="eentropy">     -0.02342815 </i>
    <i name="bandstr">     37.47298850 </i>
    <i name="atom"> 113515.32941094 </i>
    <i name="e_fr_energy">  12648.44998642 </i>
    <i name="e_wo_entrp">  12648.47341457 </i>
    <i name="e_0_energy">  12648.46170049 </i>
   </energy>
  </scstep>
  <scstep>
   <time name="total">  244.64  248.97</time>
   <energy>
    <i name="e_fr_energy">   1374.96062444 </i>
    <i name="e_wo_entrp">   1375.04298989 </i>
    <i name="e_0_energy">   1375.00180717 </i>
   </energy>
  </scstep>
  <scstep>
   <time name="total">  263.36  267.98</time>
   <energy>
    <i name="e_fr_energy">   -410.69402828 </i>
    <i name="e_wo_entrp">   -410.69402828 </i>
    <i name="e_0_energy">   -410.69402828 </i>
   </energy>
  </scstep>
  <scstep>
   <time name="total">  286.26  291.49</time>
   <energy>
    <i name="e_fr_energy">   -632.82063254 </i>
    <i name="e_wo_entrp">   -632.82063254 </i>
    <i name="e_0_energy">   -632.82063254 </i>
   </energy>
  </scstep>
  <scstep>
   <time name="total">  381.15  388.05</time>
   <energy>
    <i name="e_fr_energy">   -656.93487206 </i>
    <i name="e_wo_entrp">   -656.93487206 </i>
    <i name="e_0_energy">   -656.93487206 </i>
   </energy>
  </scstep>
  <scstep>
   <time name="total">  165.65  169.06</time>
   <energy>
    <i name="e_fr_energy">   -656.88602985 </i>
    <i name="e_wo_entrp">   -656.88602985 </i>
    <i name="e_0_energy">   -656.88602985 </i>
   </energy>
  </scstep>
  <scstep>
   <time name="total">  166.57  169.88</time>
   <energy>
    <i name="e_fr_energy">   -657.40638231 </i>
    <i name="e_wo_entrp">   -657.40638231 </i>
    <i name="e_0_energy">   -657.40638231 </i>
   </energy>
  </scstep>
  <scstep>
   <time name="total">  166.50  169.48</time>
   <energy>
    <i name="e_fr_energy">   -657.70841969 </i>
    <i name="e_wo_entrp">   -657.70841969 </i>
    <i name="e_0_energy">   -657.70841969 </i>
   </energy>
  </scstep>
  <scstep>
   <time name="total">  166.04  168.56</time>
   <energy>
    <i name="e_fr_energy">   -657.82835833 </i>
    <i name="e_wo_entrp">   -657.82835833 </i>
    <i name="e_0_energy">   -657.82835833 </i>
   </energy>
  </scstep>
  <scstep>
   <time name="total">  167.01  169.06</time>
   <energy>
    <i name="e_fr_energy">   -657.87280048 </i>
    <i name="e_wo_entrp">   -657.87280048 </i>
    <i name="e_0_energy">   -657.87280048 </i>
   </energy>
  </scstep>
  <scstep>
   <time name="total">  166.45  169.87</time>
   <energy>
    <i name="e_fr_energy">   -657.89004424 </i>
    <i name="e_wo_entrp">   -657.89004424 </i>
    <i name="e_0_energy">   -657.89004424 </i>
   </energy>
  </scstep>
  <scstep>
   <time name="total">  165.37  168.26</time>
   <energy>
    <i name="e_fr_energy">   -657.89542477 </i>
    <i name="e_wo_entrp">   -657.89542477 </i>
    <i name="e_0_energy">   -657.89542477 </i>
   </energy>
  </scstep>
  <scstep>
   <time name="total">  165.43  168.14</time>
   <energy>
    <i name="e_fr_energy">   -657.89793072 </i>
    <i name="e_wo_entrp">   -657.89793072 </i>
    <i name="e_0_energy">   -657.89793072 </i>
   </energy>
  </scstep>
  <scstep>
   <time name="total">  166.13  168.95</time>
   <energy>
    <i name="e_fr_energy">   -657.89937393 </i>
    <i name="e_wo_entrp">   -657.89937393 </i>
    <i name="e_0_energy">   -657.89937393 </i>
   </energy>
  </scstep>
  <scstep>
   <time name="total">  167.33  170.02</time>
   <energy>
    <i name="e_fr_energy">   -657.90021115 </i>
    <i name="e_wo_entrp">   -657.90021115 </i>
    <i name="e_0_energy">   -657.90021115 </i>
   </energy>
  </scstep>
  <scstep>
   <time name="total">  167.78  169.50</time>
   <energy>
    <i name="e_fr_energy">   -657.90066992 </i>
    <i name="e_wo_entrp">   -657.90066992 </i>
    <i name="e_0_energy">   -657.90066992 </i>
   </energy>
  </scstep>
  <scstep>
   <time name="total">  167.55  168.79</time>
   <energy>
    <i name="e_fr_energy">   -657.90091688 </i>
    <i name="e_wo_entrp">   -657.90091688 </i>
    <i name="e_0_energy">   -657.90091688 </i>
   </energy>
  </scstep>
  <scstep>
   <time name="total">  167.52  168.61</time>
   <energy>
    <i name="e_fr_energy">   -657.90109183 </i>
    <i name="e_wo_entrp">   -657.90109183 </i>
    <i name="e_0_energy">   -657.90109183 </i>
   </energy>
  </scstep>
  <scstep>
   <time name="total">  167.38  169.11</time>
   <energy>
    <i name="e_fr_energy">   -657.90122803 </i>
    <i name="e_wo_entrp">   -657.90122803 </i>
    <i name="e_0_energy">   -657.90122803 </i>
   </energy>
  </scstep>
  <scstep>
   <time name="total">  167.17  168.49</time>
   <energy>
    <i name="e_fr_energy">   -657.90131509 </i>
    <i name="e_wo_entrp">   -657.90131509 </i>
    <i name="e_0_energy">   -657.90131509 </i>
   </energy>
  </scstep>
  <scstep>
   <time name="total">  166.99  168.60</time>
   <energy>
    <i name="e_fr_energy">   -657.90135845 </i>
    <i name="e_wo_entrp">   -657.90135845 </i>
    <i name="e_0_energy">   -657.90135845 </i>
   </energy>
  </scstep>
  <scstep>
   <time name="total">  167.32  168.77</time>
   <energy>
    <i name="e_fr_energy">   -657.90138445 </i>
    <i name="e_wo_entrp">   -657.90138445 </i>
    <i name="e_0_energy">   -657.90138445 </i>
   </energy>
  </scstep>
  <scstep>
   <time name="total">  166.71  168.06</time>
   <energy>
    <i name="e_fr_energy">   -657.90140059 </i>
    <i name="e_wo_entrp">   -657.90140059 </i>
    <i name="e_0_energy">   -657.90140059 </i>
   </energy>
  </scstep>
  <scstep>
   <time name="total">  166.86  168.17</time>
   <energy>
    <i name="e_fr_energy">   -657.90140928 </i>
    <i name="e_wo_entrp">   -657.90140928 </i>
    <i name="e_0_energy">   -657.90140928 </i>
   </energy>
  </scstep>
  <scstep>
   <time name="total">  168.15  169.31</time>
   <energy>
    <i name="e_fr_energy">   -657.90141420 </i>
    <i name="e_wo_entrp">   -657.90141420 </i>
    <i name="e_0_energy">   -657.90141420 </i>
   </energy>
  </scstep>
  <scstep>
   <time name="total">  167.19  168.33</time>
   <energy>
    <i name="e_fr_energy">   -657.90141789 </i>
    <i name="e_wo_entrp">   -657.90141789 </i>
    <i name="e_0_energy">   -657.90141789 </i>
   </energy>
  </scstep>
  <scstep>
   <time name="total">  167.84  169.08</time>
   <energy>
    <i name="e_fr_energy">   -657.90142086 </i>
    <i name="e_wo_entrp">   -657.90142086 </i>
    <i name="e_0_energy">   -657.90142086 </i>
   </energy>
  </scstep>
  <scstep>
   <time name="total">  167.55  168.86</time>
   <energy>
    <i name="e_fr_energy">   -657.90142277 </i>
    <i name="e_wo_entrp">   -657.90142277 </i>
    <i name="e_0_energy">   -657.90142277 </i>
   </energy>
  </scstep>
  <scstep>
   <time name="total">  167.45  169.05</time>
   <energy>
    <i name="e_fr_energy">   -657.90142440 </i>
    <i name="e_wo_entrp">   -657.90142440 </i>
    <i name="e_0_energy">   -657.90142440 </i>
   </energy>
  </scstep>
  <scstep>
   <time name="total">  167.71  169.02</time>
   <energy>
    <i name="e_fr_energy">   -657.90142554 </i>
    <i name="e_wo_entrp">   -657.90142554 </i>
    <i name="e_0_energy">   -657.90142554 </i>
   </energy>
  </scstep>
  <scstep>
   <time name="total">  169.01  170.28</time>
   <energy>
    <i name="e_fr_energy">   -657.90142655 </i>
    <i name="e_wo_entrp">   -657.90142655 </i>
    <i name="e_0_energy">   -657.90142655 </i>
   </energy>
  </scstep>
  <scstep>
   <time name="total">  193.09  194.32</time>
   <energy>
    <i name="alphaZ">   2639.27042227 </i>
    <i name="ewald"> -69235.98070803 </i>
    <i name="hartreedc"> -34826.72950129 </i>
    <i name="XCdc">   3975.72759320 </i>
    <i name="pawpsdc"> 109950.02784833 </i>
    <i name="pawaedc">-113406.53600602 </i>
    <i name="eentropy">     -0.00000000 </i>
    <i name="bandstr"> -13269.01048667 </i>
    <i name="atom"> 113515.32941094 </i>
    <i name="e_fr_energy">   -657.90142728 </i>
    <i name="e_wo_entrp">   -657.90142728 </i>
    <i name="e_0_energy">   -657.90142728 </i>
   </energy>
  </scstep>
  <structure>
   <crystal>
    <varray name="basis" >
     <v>      11.57658324       0.00206628      -0.00954291 </v>
     <v>      -0.00198552      11.57659983      -0.00954294 </v>
     <v>      -3.84767942      -3.84903072      12.76635918 </v>
    </varray>
    <i name="volume">   1710.06494320 </i>
    <varray name="rec_basis" >
     <v>       0.08640274       0.00003629       0.02605204 </v>
     <v>       0.00000605       0.08640263       0.02605204 </v>
     <v>       0.00006459       0.00006461       0.07836982 </v>
    </varray>
   </crystal>
   <varray name="positions" >
    <v>       0.14940024       0.01727802       0.00000711 </v>
    <v>       0.48273357       0.01727802       0.00000711 </v>
    <v>       0.81606690       0.01727802       0.00000711 </v>
    <v>       0.14940024       0.35061135       0.00000711 </v>
    <v>       0.48273357       0.35061135       0.00000711 </v>
    <v>       0.81606690       0.35061135       0.00000711 </v>
    <v>       0.14940024       0.68394468       0.00000711 </v>
    <v>       0.48273357       0.68394468       0.00000711 </v>
    <v>       0.81606690       0.68394468       0.00000711 </v>
    <v>       0.14940024       0.01727802       0.50000711 </v>
    <v>       0.48273357       0.01727802       0.50000711 </v>
    <v>       0.81606690       0.01727802       0.50000711 </v>
    <v>       0.14940024       0.35061135       0.50000711 </v>
    <v>       0.48273357       0.35061135       0.50000711 </v>
    <v>       0.81606690       0.35061135       0.50000711 </v>
    <v>       0.14940024       0.68394468       0.50000711 </v>
    <v>       0.48273357       0.68394468       0.50000711 </v>
    <v>       0.81606690       0.68394468       0.50000711 </v>
    <v>       0.31605532       0.18393310       0.49999289 </v>
    <v>       0.64938865       0.18393310       0.49999289 </v>
    <v>       0.98272198       0.18393310       0.49999289 </v>
    <v>       0.31605532       0.51726643       0.49999289 </v>
    <v>       0.64938865       0.51726643       0.49999289 </v>
    <v>       0.98272198       0.51726643       0.49999289 </v>
    <v>       0.31605532       0.85059976       0.49999289 </v>
    <v>       0.64938865       0.85059976       0.49999289 </v>
    <v>       0.98272198       0.85059976       0.49999289 </v>
    <v>       0.31605532       0.18393310       0.99999289 </v>
    <v>       0.64938865       0.18393310       0.99999289 </v>
    <v>       0.98272198       0.18393310       0.99999289 </v>
    <v>       0.31605532       0.51726643       0.99999289 </v>
    <v>       0.64938865       0.51726643       0.99999289 </v>
    <v>       0.98272198       0.51726643       0.99999289 </v>
    <v>       0.31605532       0.85059976       0.99999289 </v>
    <v>       0.64938865       0.85059976       0.99999289 </v>
    <v>       0.98272198       0.85059976       0.99999289 </v>
    <v>       0.31606288       0.01727079       0.00000000 </v>
    <v>       0.64939621       0.01727079       0.00000000 </v>
    <v>       0.98272954       0.01727079       0.00000000 </v>
    <v>       0.31606288       0.35060413       0.00000000 </v>
    <v>       0.64939621       0.35060413       0.00000000 </v>
    <v>       0.98272954       0.35060413       0.00000000 </v>
    <v>       0.31606288       0.68393746       0.00000000 </v>
    <v>       0.64939621       0.68393746       0.00000000 </v>
    <v>       0.98272954       0.68393746       0.00000000 </v>
    <v>       0.31606288       0.01727079       0.50000000 </v>
    <v>       0.64939621       0.01727079       0.50000000 </v>
    <v>       0.98272954       0.01727079       0.50000000 </v>
    <v>       0.31606288       0.35060413       0.50000000 </v>
    <v>       0.64939621       0.35060413       0.50000000 </v>
    <v>       0.98272954       0.35060413       0.50000000 </v>
    <v>       0.31606288       0.68393746       0.50000000 </v>
    <v>       0.64939621       0.68393746       0.50000000 </v>
    <v>       0.98272954       0.68393746       0.50000000 </v>
    <v>       0.19934057       0.23388678       0.14911715 </v>
    <v>       0.53267391       0.23388678       0.14983771 </v>
    <v>       0.86600724       0.23388678       0.14983771 </v>
    <v>       0.19934057       0.56722011       0.14983771 </v>
    <v>       0.53267391       0.56722011       0.14983771 </v>
    <v>       0.86600724       0.56722011       0.14983771 </v>
    <v>       0.19934057       0.90055344       0.14983771 </v>
    <v>       0.53267391       0.90055344       0.14983771 </v>
    <v>       0.86600724       0.90055344       0.14983771 </v>
    <v>       0.19934057       0.23388678       0.64983771 </v>
    <v>       0.53267391       0.23388678       0.64983771 </v>
    <v>       0.86600724       0.23388678       0.64983771 </v>
    <v>       0.19934057       0.56722011       0.64983771 </v>
    <v>       0.53267391       0.56722011       0.64983771 </v>
    <v>       0.86600724       0.56722011       0.64983771 </v>
    <v>       0.19934057       0.90055344       0.64983771 </v>
    <v>       0.53267391       0.90055344       0.64983771 </v>
    <v>       0.86600724       0.90055344       0.64983771 </v>
    <v>       0.09944656       0.13399276       0.35016229 </v>
    <v>       0.43277989       0.13399276       0.35016229 </v>
    <v>       0.76611322       0.13399276       0.35016229 </v>
    <v>       0.09944656       0.46732609       0.35016229 </v>
    <v>       0.43277989       0.46732609       0.35016229 </v>
    <v>       0.76611322       0.46732609       0.35016229 </v>
    <v>       0.09944656       0.80065943       0.35016229 </v>
    <v>       0.43277989       0.80065943       0.35016229 </v>
    <v>       0.76611322       0.80065943       0.35016229 </v>
    <v>       0.09944656       0.13399276       0.85016229 </v>
    <v>       0.43277989       0.13399276       0.85016229 </v>
    <v>       0.76611322       0.13399276       0.85016229 </v>
    <v>       0.09944656       0.46732609       0.85016229 </v>
    <v>       0.43277989       0.46732609       0.85016229 </v>
    <v>       0.76611322       0.46732609       0.85016229 </v>
    <v>       0.09944656       0.80065943       0.85016229 </v>
    <v>       0.43277989       0.80065943       0.85016229 </v>
    <v>       0.76611322       0.80065943       0.85016229 </v>
    <v>       0.03603208       0.07057630       0.15990037 </v>
    <v>       0.36936541       0.07057630       0.15990037 </v>
    <v>       0.70269875       0.07057630       0.15990037 </v>
    <v>       0.03603208       0.40390964       0.15990037 </v>
    <v>       0.36936541       0.40390964       0.15990037 </v>
    <v>       0.70269875       0.40390964       0.15990037 </v>
    <v>       0.03603208       0.73724297       0.15990037 </v>
    <v>       0.36936541       0.73724297       0.15990037 </v>
    <v>       0.70269875       0.73724297       0.15990037 </v>
    <v>       0.03603208       0.07057630       0.65990037 </v>
    <v>       0.36936541       0.07057630       0.65990037 </v>
    <v>       0.70269875       0.07057630       0.65990037 </v>
    <v>       0.03603208       0.40390964       0.65990037 </v>
    <v>       0.36936541       0.40390964       0.65990037 </v>
    <v>       0.70269875       0.40390964       0.65990037 </v>
    <v>       0.03603208       0.73724297       0.65990037 </v>
    <v>       0.36936541       0.73724297       0.65990037 </v>
    <v>       0.70269875       0.73724297       0.65990037 </v>
    <v>       0.26275703       0.29730125       0.34009963 </v>
    <v>       0.59609036       0.29730125       0.34009963 </v>
    <v>       0.92942370       0.29730125       0.34009963 </v>
    <v>       0.26275703       0.63063459       0.34009963 </v>
    <v>       0.59609036       0.63063459       0.34009963 </v>
    <v>       0.92942370       0.63063459       0.34009963 </v>
    <v>       0.26275703       0.96396792       0.34009963 </v>
    <v>       0.59609036       0.96396792       0.34009963 </v>
    <v>       0.92942370       0.96396792       0.34009963 </v>
    <v>       0.26275703       0.29730125       0.84009963 </v>
    <v>       0.59609036       0.29730125       0.84009963 </v>
    <v>       0.92942370       0.29730125       0.84009963 </v>
    <v>       0.26275703       0.63063459       0.84009963 </v>
    <v>       0.59609036       0.63063459       0.84009963 </v>
    <v>       0.92942370       0.63063459       0.84009963 </v>
    <v>       0.26275703       0.96396792       0.84009963 </v>
    <v>       0.59609036       0.96396792       0.84009963 </v>
    <v>       0.92942370       0.96396792       0.84009963 </v>
   </varray>
  </structure>
  <varray name="forces" >
   <v>       0.00078541       0.00262092      -0.00021861 </v>
   <v>      -0.00058222       0.00012208      -0.00010702 </v>
   <v>       0.00020509      -0.00003317      -0.00028843 </v>
   <v>       0.00076517      -0.00218678       0.00042562 </v>
   <v>      -0.00101307      -0.00013450      -0.00006771 </v>
   <v>       0.00065143       0.00002801      -0.00030740 </v>
   <v>       0.00003738      -0.00031575      -0.00024105 </v>
   <v>       0.00000706      -0.00012166      -0.00017386 </v>
   <v>       0.00008905      -0.00014145      -0.00026569 </v>
   <v>       0.00015226      -0.00072861       0.00085106 </v>
   <v>      -0.00002822      -0.00046529       0.00054856 </v>
   <v>       0.00005262      -0.00005754       0.00024744 </v>
   <v>      -0.00041582       0.00009482       0.00096146 </v>
   <v>       0.00054529       0.00016902       0.00054526 </v>
   <v>      -0.00003148      -0.00009457       0.00024205 </v>
   <v>       0.00019265       0.00040903       0.00064393 </v>
   <v>      -0.00000838       0.00006526       0.00035375 </v>
   <v>      -0.00001647       0.00000120       0.00024164 </v>
   <v>       0.00019565      -0.00049921       0.00097184 </v>
   <v>       0.00051157       0.00012456       0.00064929 </v>
   <v>      -0.00062210       0.00008605       0.00086314 </v>
   <v>       0.00026399       0.00047751       0.00058944 </v>
   <v>       0.00015919      -0.00006809       0.00035524 </v>
   <v>      -0.00034690      -0.00010041       0.00052770 </v>
   <v>       0.00000914      -0.00010370       0.00026557 </v>
   <v>       0.00010283      -0.00008810       0.00025010 </v>
   <v>       0.00005618      -0.00001444       0.00025872 </v>
   <v>      -0.00208790       0.00067823       0.00044372 </v>
   <v>      -0.00021231      -0.00004430      -0.00023761 </v>
   <v>       0.00271666       0.00070330      -0.00019588 </v>
   <v>      -0.00003361      -0.00107138      -0.00006921 </v>
   <v>      -0.00002254      -0.00005689      -0.00016111 </v>
   <v>       0.00023394      -0.00065228      -0.00011813 </v>
   <v>       0.00012713       0.00058671      -0.00030691 </v>
   <v>      -0.00003649       0.00002107      -0.00025640 </v>
   <v>       0.00008014       0.00013456      -0.00026468 </v>
   <v>       0.00416119      -0.00504505      -0.00293037 </v>
   <v>       0.00028896      -0.00020238       0.00045931 </v>
   <v>      -0.00253230      -0.00257784       0.00144131 </v>
   <v>       0.00662997       0.00657583      -0.00685240 </v>
   <v>       0.00025393      -0.00005392       0.00034775 </v>
   <v>      -0.00497656       0.00410085      -0.00288531 </v>
   <v>      -0.00000581       0.00025340       0.00030640 </v>
   <v>       0.00014530       0.00014133       0.00037994 </v>
   <v>      -0.00012002       0.00025249       0.00044786 </v>
   <v>      -0.00012551       0.00042636      -0.00123114 </v>
   <v>      -0.00046892       0.00044516      -0.00115693 </v>
   <v>       0.00076433       0.00071283      -0.00211617 </v>
   <v>      -0.00029484      -0.00031535      -0.00335490 </v>
   <v>      -0.00025963      -0.00017110      -0.00073814 </v>
   <v>       0.00050845      -0.00017611      -0.00135039 </v>
   <v>      -0.00013952      -0.00029064      -0.00064481 </v>
   <v>      -0.00023911      -0.00024908      -0.00074712 </v>
   <v>       0.00051228      -0.00051449      -0.00119150 </v>
   <v>      -0.01112935      -0.01113463       0.06951722 </v>
   <v>       0.00219454      -0.00065908       0.00132281 </v>
   <v>       0.00165462      -0.00074793       0.00124857 </v>
   <v>      -0.00068964       0.00221305       0.00129471 </v>
   <v>       0.00046857       0.00047836       0.00068933 </v>
   <v>      -0.00004312      -0.00001167       0.00077342 </v>
   <v>      -0.00078423       0.00169354       0.00117249 </v>
   <v>      -0.00002514      -0.00002314       0.00073217 </v>
   <v>       0.00054089       0.00056695       0.00083449 </v>
   <v>       0.00037046       0.00039067      -0.00120557 </v>
   <v>      -0.00016682       0.00009600      -0.00056896 </v>
   <v>      -0.00035872       0.00023965      -0.00060537 </v>
   <v>       0.00009592      -0.00011199      -0.00056642 </v>
   <v>      -0.00016444      -0.00011191      -0.00039298 </v>
   <v>      -0.00005028       0.00001900      -0.00027200 </v>
   <v>       0.00023030      -0.00036465      -0.00058523 </v>
   <v>      -0.00002760      -0.00004767      -0.00028444 </v>
   <v>      -0.00033684      -0.00033089      -0.00058565 </v>
   <v>       0.00500892       0.00508005      -0.00480068 </v>
   <v>      -0.00407632       0.00346825      -0.00229074 </v>
   <v>       0.00044319      -0.00015723       0.00011576 </v>
   <v>       0.00340914      -0.00406545      -0.00227218 </v>
   <v>      -0.00243982      -0.00243514      -0.00000797 </v>
   <v>       0.00042240       0.00002013       0.00013616 </v>
   <v>      -0.00022334       0.00043824       0.00013429 </v>
   <v>       0.00000891       0.00041427       0.00017371 </v>
   <v>       0.00030057       0.00030265       0.00008644 </v>
   <v>      -0.00027656      -0.00028259      -0.00620399 </v>
   <v>       0.00072334      -0.00007996      -0.00067875 </v>
   <v>      -0.00039523      -0.00005976      -0.00033768 </v>
   <v>      -0.00008806       0.00077323      -0.00068508 </v>
   <v>       0.00058841       0.00063297      -0.00071740 </v>
   <v>      -0.00033144       0.00039294      -0.00035118 </v>
   <v>      -0.00006872      -0.00037045      -0.00033433 </v>
   <v>       0.00035242      -0.00029118      -0.00037256 </v>
   <v>      -0.00010281      -0.00008290      -0.00013848 </v>
   <v>       0.00090338       0.00097524      -0.00418365 </v>
   <v>      -0.00080315       0.00188834      -0.00435015 </v>
   <v>      -0.00054460       0.00036786      -0.00049565 </v>
   <v>       0.00178808      -0.00070897      -0.00432632 </v>
   <v>      -0.00152571      -0.00146805      -0.00433896 </v>
   <v>      -0.00060248      -0.00001269      -0.00049972 </v>
   <v>       0.00027795      -0.00041540      -0.00053273 </v>
   <v>      -0.00011869      -0.00054192      -0.00055010 </v>
   <v>      -0.00043557      -0.00036819      -0.00034312 </v>
   <v>      -0.00016864      -0.00011233       0.00239243 </v>
   <v>      -0.00021821      -0.00016140       0.00096412 </v>
   <v>       0.00010854      -0.00005441       0.00066501 </v>
   <v>      -0.00022010      -0.00011995       0.00099099 </v>
   <v>      -0.00017305      -0.00003101       0.00175015 </v>
   <v>       0.00013239      -0.00009431       0.00051009 </v>
   <v>      -0.00010190       0.00020349       0.00066583 </v>
   <v>      -0.00019905       0.00024297       0.00049426 </v>
   <v>       0.00004524       0.00015551       0.00029981 </v>
   <v>       0.00092663       0.00098135      -0.03379180 </v>
   <v>       0.00063771       0.00040788      -0.00066307 </v>
   <v>      -0.00114241       0.00035815      -0.00004097 </v>
   <v>       0.00031780       0.00071982      -0.00064340 </v>
   <v>       0.00046675       0.00053149      -0.00023285 </v>
   <v>      -0.00089082       0.00095551      -0.00017897 </v>
   <v>       0.00022045      -0.00106739      -0.00001309 </v>
   <v>       0.00085796      -0.00082999      -0.00019031 </v>
   <v>      -0.00122216      -0.00114305      -0.00006270 </v>
   <v>      -0.00055878      -0.00046527       0.00294888 </v>
   <v>      -0.00011170      -0.00010357       0.00030197 </v>
   <v>       0.00070028      -0.00045959       0.00167272 </v>
   <v>      -0.00018557       0.00000971       0.00032479 </v>
   <v>      -0.00012911      -0.00003690       0.00008485 </v>
   <v>       0.00029556      -0.00005442       0.00009674 </v>
   <v>      -0.00056577       0.00077017       0.00165594 </v>
   <v>      -0.00016096       0.00036293       0.00006859 </v>
   <v>       0.00078112       0.00081016       0.00043724 </v>
  </varray>
  <varray name="stress" >
   <v>      -0.18015235      -0.00062323      -0.00500228 </v>
   <v>      -0.00061771      -0.14859717      -0.00502461 </v>
   <v>      -0.00495829      -0.00500830      -0.18460841 </v>
  </varray>
  <energy>
   <i name="e_fr_energy">   -657.90142728 </i>
   <i name="e_wo_entrp">   -657.90142728 </i>
   <i name="e_0_energy">     -0.00000000 </i>
  </energy>
  <time name="totalsc"> 6401.22 6481.49</time>
  <eigenvalues>
   <array>
    <dimension dim="1">band</dimension>
    <dimension dim="2">kpoint</dimension>
    <dimension dim="3">spin</dimension>
    <field>eigene</field>
    <field>occ</field>
    <set>
     <set comment="spin 1">
      <set comment="kpoint 1">
       <r>  -51.1503    1.0000 </r>
       <r>  -51.1421    1.0000 </r>
       <r>  -51.1410    1.0000 </r>
       <r>  -51.1407    1.0000 </r>
       <r>  -51.1406    1.0000 </r>
       <r>  -51.1405    1.0000 </r>
       <r>  -51.1404    1.0000 </r>
       <r>  -51.1403    1.0000 </r>
       <r>  -51.1402    1.0000 </r>
       <r>  -51.1402    1.0000 </r>
       <r>  -51.1401    1.0000 </r>
       <r>  -51.1399    1.0000 </r>
       <r>  -51.1398    1.0000 </r>
       <r>  -51.1397    1.0000 </r>
       <r>  -51.1397    1.0000 </r>
       <r>  -51.1395    1.0000 </r>
       <r>  -51.1395    1.0000 </r>
       <r>  -51.1394    1.0000 </r>
       <r>  -51.1394    1.0000 </r>
       <r>  -51.1394    1.0000 </r>
       <r>  -51.1393    1.0000 </r>
       <r>  -51.1392    1.0000 </r>
       <r>  -51.1392    1.0000 </r>
       <r>  -51.1391    1.0000 </r>
       <r>  -51.1390    1.0000 </r>
       <r>  -51.1389    1.0000 </r>
       <r>  -51.1389    1.0000 </r>
       <r>  -51.1388    1.0000 </r>
       <r>  -51.1387    1.0000 </r>
       <r>  -51.1387    1.0000 </r>
       <r>  -51.1384    1.0000 </r>
       <r>  -51.1383    1.0000 </r>
       <r>  -51.1380    1.0000 </r>
       <r>  -51.1379    1.0000 </r>
       <r>  -51.1375    1.0000 </r>
       <r>  -51.1365    1.0000 </r>
       <r>  -49.6634    1.0000 </r>
       <r>  -49.6617    1.0000 </r>
       <r>  -49.6568    1.0000 </r>
       <r>  -49.6557    1.0000 </r>
       <r>  -49.6555    1.0000 </r>
       <r>  -49.6554    1.0000 </r>
       <r>  -49.6554    1.0000 </r>
       <r>  -49.6552    1.0000 </r>
       <r>  -49.6549    1.0000 </r>
       <r>  -49.6548    1.0000 </r>
       <r>  -49.6548    1.0000 </r>
       <r>  -49.6547    1.0000 </r>
       <r>  -49.6547    1.0000 </r>
       <r>  -49.6546    1.0000 </r>
       <r>  -49.6546    1.0000 </r>
       <r>  -49.6546    1.0000 </r>
       <r>  -49.6546    1.0000 </r>
       <r>  -49.6545    1.0000 </r>
       <r>  -49.6545    1.0000 </r>
       <r>  -49.6544    1.0000 </r>
       <r>  -49.6544    1.0000 </r>
       <r>  -49.6543    1.0000 </r>
       <r>  -49.6541    1.0000 </r>
       <r>  -49.6541    1.0000 </r>
       <r>  -49.6541    1.0000 </r>
       <r>  -49.6540    1.0000 </r>
       <r>  -49.6539    1.0000 </r>
       <r>  -49.6537    1.0000 </r>
       <r>  -49.6537    1.0000 </r>
       <r>  -49.6536    1.0000 </r>
       <r>  -49.6536    1.0000 </r>
       <r>  -49.6536    1.0000 </r>
       <r>  -49.6535    1.0000 </r>
       <r>  -49.6534    1.0000 </r>
       <r>  -49.6533    1.0000 </r>
       <r>  -49.6532    1.0000 </r>
       <r>  -49.6532    1.0000 </r>
       <r>  -49.6532    1.0000 </r>
       <r>  -49.6531    1.0000 </r>
       <r>  -49.6530    1.0000 </r>
       <r>  -49.6529    1.0000 </r>
       <r>  -49.6529    1.0000 </r>
       <r>  -49.6528    1.0000 </r>
       <r>  -49.6528    1.0000 </r>
       <r>  -49.6527    1.0000 </r>
       <r>  -49.6525    1.0000 </r>
       <r>  -49.6525    1.0000 </r>
       <r>  -49.6525    1.0000 </r>
       <r>  -49.6525    1.0000 </r>
       <r>  -49.6524    1.0000 </r>
       <r>  -49.6523    1.0000 </r>
       <r>  -49.6523    1.0000 </r>
       <r>  -49.6523    1.0000 </r>
       <r>  -49.6522    1.0000 </r>
       <r>  -49.6521    1.0000 </r>
       <r>  -49.6521    1.0000 </r>
       <r>  -49.6520    1.0000 </r>
       <r>  -49.6520    1.0000 </r>
       <r>  -49.6520    1.0000 </r>
       <r>  -49.6519    1.0000 </r>
       <r>  -49.6518    1.0000 </r>
       <r>  -49.6517    1.0000 </r>
       <r>  -49.6517    1.0000 </r>
       <r>  -49.6516    1.0000 </r>
       <r>  -49.6515    1.0000 </r>
       <r>  -49.6514    1.0000 </r>
       <r>  -49.6511    1.0000 </r>
       <r>  -49.6511    1.0000 </r>
       <r>  -49.6510    1.0000 </r>
       <r>  -49.6507    1.0000 </r>
       <r>  -49.6504    1.0000 </r>
       <r>  -49.6492    1.0000 </r>
       <r>  -39.6385    1.0000 </r>
       <r>  -39.6366    1.0000 </r>
       <r>  -39.6251    1.0000 </r>
       <r>  -39.6250    1.0000 </r>
       <r>  -39.6250    1.0000 </r>
       <r>  -39.6248    1.0000 </r>
       <r>  -39.6237    1.0000 </r>
       <r>  -39.6232    1.0000 </r>
       <r>  -39.6231    1.0000 </r>
       <r>  -39.6221    1.0000 </r>
       <r>  -39.6180    1.0000 </r>
       <r>  -39.6179    1.0000 </r>
       <r>  -39.6179    1.0000 </r>
       <r>  -39.6177    1.0000 </r>
       <r>  -39.6164    1.0000 </r>
       <r>  -39.6157    1.0000 </r>
       <r>  -39.6154    1.0000 </r>
       <r>  -39.6150    1.0000 </r>
       <r>  -39.6051    1.0000 </r>
       <r>  -39.6050    1.0000 </r>
       <r>  -39.6050    1.0000 </r>
       <r>  -39.6049    1.0000 </r>
       <r>  -39.6036    1.0000 </r>
       <r>  -39.6034    1.0000 </r>
       <r>  -39.6024    1.0000 </r>
       <r>  -39.6024    1.0000 </r>
       <r>  -39.5993    1.0000 </r>
       <r>  -39.5992    1.0000 </r>
       <r>  -39.5992    1.0000 </r>
       <r>  -39.5990    1.0000 </r>
       <r>  -39.5977    1.0000 </r>
       <r>  -39.5969    1.0000 </r>
       <r>  -39.5967    1.0000 </r>
       <r>  -39.5957    1.0000 </r>
       <r>  -39.5869    1.0000 </r>
       <r>  -39.5844    1.0000 </r>
       <r>  -12.7554    1.0000 </r>
       <r>  -12.7549    1.0000 </r>
       <r>  -12.7545    1.0000 </r>
       <r>  -12.7543    1.0000 </r>
       <r>  -12.7530    1.0000 </r>
       <r>  -12.7527    1.0000 </r>
       <r>  -12.7521    1.0000 </r>
       <r>  -12.7507    1.0000 </r>
       <r>  -12.7080    1.0000 </r>
       <r>  -12.7078    1.0000 </r>
       <r>  -12.7076    1.0000 </r>
       <r>  -12.7075    1.0000 </r>
       <r>  -12.7051    1.0000 </r>
       <r>  -12.7048    1.0000 </r>
       <r>  -12.7040    1.0000 </r>
       <r>  -12.7038    1.0000 </r>
       <r>  -12.6736    1.0000 </r>
       <r>  -12.6620    1.0000 </r>
       <r>   -7.7604    1.0000 </r>
       <r>   -7.7171    1.0000 </r>
       <r>   -7.3284    1.0000 </r>
       <r>   -7.3282    1.0000 </r>
       <r>   -7.3281    1.0000 </r>
       <r>   -7.3272    1.0000 </r>
       <r>   -7.2988    1.0000 </r>
       <r>   -7.2987    1.0000 </r>
       <r>   -7.2985    1.0000 </r>
       <r>   -7.2974    1.0000 </r>
       <r>   -7.1012    1.0000 </r>
       <r>   -7.1009    1.0000 </r>
       <r>   -7.0874    1.0000 </r>
       <r>   -7.0871    1.0000 </r>
       <r>   -7.0815    1.0000 </r>
       <r>   -7.0431    1.0000 </r>
       <r>   -7.0426    1.0000 </r>
       <r>   -7.0217    1.0000 </r>
       <r>   -6.9925    1.0000 </r>
       <r>   -6.9918    1.0000 </r>
       <r>   -6.9488    1.0000 </r>
       <r>   -6.9487    1.0000 </r>
       <r>   -6.9484    1.0000 </r>
       <r>   -6.9482    1.0000 </r>
       <r>   -6.9188    1.0000 </r>
       <r>   -6.9187    1.0000 </r>
       <r>   -6.8808    1.0000 </r>
       <r>   -6.8808    1.0000 </r>
       <r>   -6.8806    1.0000 </r>
       <r>   -6.8802    1.0000 </r>
       <r>   -6.8574    1.0000 </r>
       <r>   -6.8568    1.0000 </r>
       <r>   -6.7919    1.0000 </r>
       <r>   -6.7915    1.0000 </r>
       <r>   -6.7682    1.0000 </r>
       <r>   -6.7678    1.0000 </r>
       <r>   -1.5488    1.0000 </r>
       <r>   -1.4785    1.0000 </r>
       <r>   -1.4784    1.0000 </r>
       <r>   -1.4782    1.0000 </r>
       <r>   -1.4781    1.0000 </r>
       <r>   -1.3842    1.0000 </r>
       <r>   -1.3841    1.0000 </r>
       <r>   -1.3765    1.0000 </r>
       <r>   -1.3764    1.0000 </r>
       <r>   -1.3763    1.0000 </r>
       <r>   -1.3762    1.0000 </r>
[...]
       <r>   -37.6141     0.0000   144.0000 </r>
       <r>   -37.3740     0.0000   144.0000 </r>
       <r>   -37.1338     0.0000   144.0000 </r>
       <r>   -36.8936     0.0000   144.0000 </r>
       <r>   -36.6535     0.0000   144.0000 </r>
       <r>   -36.4133     0.0000   144.0000 </r>
       <r>   -36.1732     0.0000   144.0000 </r>
       <r>   -35.9330     0.0000   144.0000 </r>
       <r>   -35.6929     0.0000   144.0000 </r>
       <r>   -35.4527     0.0000   144.0000 </r>
       <r>   -35.2125     0.0000   144.0000 </r>
       <r>   -34.9724     0.0000   144.0000 </r>
       <r>   -34.7322     0.0000   144.0000 </r>
       <r>   -34.4921     0.0000   144.0000 </r>
       <r>   -34.2519     0.0000   144.0000 </r>
       <r>   -34.0117     0.0000   144.0000 </r>
       <r>   -33.7716     0.0000   144.0000 </r>
       <r>   -33.5314     0.0000   144.0000 </r>
       <r>   -33.2913     0.0000   144.0000 </r>
       <r>   -33.0511     0.0000   144.0000 </r>
       <r>   -32.8110     0.0000   144.0000 </r>
       <r>   -32.5708     0.0000   144.0000 </r>
       <r>   -32.3306     0.0000   144.0000 </r>
       <r>   -32.0905     0.0000   144.0000 </r>
       <r>   -31.8503     0.0000   144.0000 </r>
       <r>   -31.6102     0.0000   144.0000 </r>
       <r>   -31.3700     0.0000   144.0000 </r>
       <r>   -31.1299     0.0000   144.0000 </r>
       <r>   -30.8897     0.0000   144.0000 </r>
       <r>   -30.6495     0.0000   144.0000 </r>
       <r>   -30.4094     0.0000   144.0000 </r>
       <r>   -30.1692     0.0000   144.0000 </r>
       <r>   -29.9291     0.0000   144.0000 </r>
       <r>   -29.6889     0.0000   144.0000 </r>
       <r>   -29.4487     0.0000   144.0000 </r>
       <r>   -29.2086     0.0000   144.0000 </r>
       <r>   -28.9684     0.0000   144.0000 </r>
       <r>   -28.7283     0.0000   144.0000 </r>
       <r>   -28.4881     0.0000   144.0000 </r>
       <r>   -28.2480     0.0000   144.0000 </r>
       <r>   -28.0078     0.0000   144.0000 </r>
       <r>   -27.7676     0.0000   144.0000 </r>
       <r>   -27.5275     0.0000   144.0000 </r>
       <r>   -27.2873     0.0000   144.0000 </r>
       <r>   -27.0472     0.0000   144.0000 </r>
       <r>   -26.8070     0.0000   144.0000 </r>
       <r>   -26.5668     0.0000   144.0000 </r>
       <r>   -26.3267     0.0000   144.0000 </r>
       <r>   -26.0865     0.0000   144.0000 </r>
       <r>   -25.8464     0.0000   144.0000 </r>
       <r>   -25.6062     0.0000   144.0000 </r>
       <r>   -25.3661     0.0000   144.0000 </r>
       <r>   -25.1259     0.0000   144.0000 </r>
       <r>   -24.8857     0.0000   144.0000 </r>
       <r>   -24.6456     0.0000   144.0000 </r>
       <r>   -24.4054     0.0000   144.0000 </r>
       <r>   -24.1653     0.0000   144.0000 </r>
       <r>   -23.9251     0.0000   144.0000 </r>
       <r>   -23.6850     0.0000   144.0000 </r>
       <r>   -23.4448     0.0000   144.0000 </r>
       <r>   -23.2046     0.0000   144.0000 </r>
       <r>   -22.9645     0.0000   144.0000 </r>
       <r>   -22.7243     0.0000   144.0000 </r>
       <r>   -22.4842     0.0000   144.0000 </r>
       <r>   -22.2440     0.0000   144.0000 </r>
       <r>   -22.0038     0.0000   144.0000 </r>
       <r>   -21.7637     0.0000   144.0000 </r>
       <r>   -21.5235     0.0000   144.0000 </r>
       <r>   -21.2834     0.0000   144.0000 </r>
       <r>   -21.0432     0.0000   144.0000 </r>
       <r>   -20.8031     0.0000   144.0000 </r>
       <r>   -20.5629     0.0000   144.0000 </r>
       <r>   -20.3227     0.0000   144.0000 </r>
       <r>   -20.0826     0.0000   144.0000 </r>
       <r>   -19.8424     0.0000   144.0000 </r>
       <r>   -19.6023     0.0000   144.0000 </r>
       <r>   -19.3621     0.0000   144.0000 </r>
       <r>   -19.1219     0.0000   144.0000 </r>
       <r>   -18.8818     0.0000   144.0000 </r>
       <r>   -18.6416     0.0000   144.0000 </r>
       <r>   -18.4015     0.0000   144.0000 </r>
       <r>   -18.1613     0.0000   144.0000 </r>
       <r>   -17.9212     0.0000   144.0000 </r>
       <r>   -17.6810     0.0000   144.0000 </r>
       <r>   -17.4408     0.0000   144.0000 </r>
       <r>   -17.2007     0.0000   144.0000 </r>
       <r>   -16.9605     0.0000   144.0000 </r>
       <r>   -16.7204     0.0000   144.0000 </r>
       <r>   -16.4802     0.0000   144.0000 </r>
       <r>   -16.2401     0.0000   144.0000 </r>
       <r>   -15.9999     0.0000   144.0000 </r>
       <r>   -15.7597     0.0000   144.0000 </r>
       <r>   -15.5196     0.0000   144.0000 </r>
       <r>   -15.2794     0.0000   144.0000 </r>
       <r>   -15.0393     0.0000   144.0000 </r>
       <r>   -14.7991     0.0000   144.0000 </r>
       <r>   -14.5589     0.0000   144.0000 </r>
       <r>   -14.3188     0.0000   144.0000 </r>
       <r>   -14.0786     0.0000   144.0000 </r>
       <r>   -13.8385     0.0000   144.0000 </r>
       <r>   -13.5983     0.0000   144.0000 </r>
       <r>   -13.3582     0.0000   144.0000 </r>
       <r>   -13.1180     0.0000   144.0000 </r>
       <r>   -12.8778     0.0000   144.0000 </r>
       <r>   -12.6377     0.0003   144.0001 </r>
       <r>   -12.3975    62.7601   159.0724 </r>
       <r>   -12.1574    12.1902   162.0000 </r>
       <r>   -11.9172     0.0000   162.0000 </r>
       <r>   -11.6770     0.0000   162.0000 </r>
       <r>   -11.4369     0.0000   162.0000 </r>
       <r>   -11.1967     0.0000   162.0000 </r>
       <r>   -10.9566     0.0000   162.0000 </r>
       <r>   -10.7164     0.0000   162.0000 </r>
       <r>   -10.4763     0.0000   162.0000 </r>
       <r>   -10.2361     0.0000   162.0000 </r>
       <r>    -9.9959     0.0000   162.0000 </r>
       <r>    -9.7558     0.0000   162.0000 </r>
       <r>    -9.5156     0.0000   162.0000 </r>
       <r>    -9.2755     0.0000   162.0000 </r>
       <r>    -9.0353     0.0000   162.0000 </r>
       <r>    -8.7952     0.0000   162.0000 </r>
       <r>    -8.5550     0.0000   162.0000 </r>
       <r>    -8.3148     0.0000   162.0000 </r>
       <r>    -8.0747     0.0000   162.0000 </r>
       <r>    -7.8345     0.0000   162.0000 </r>
       <r>    -7.5944     0.0719   162.0173 </r>
       <r>    -7.3542     9.5317   164.3064 </r>
       <r>    -7.1140    17.0224   168.3944 </r>
       <r>    -6.8739    24.0663   174.1741 </r>
       <r>    -6.6337    69.4977   190.8646 </r>
       <r>    -6.3936    29.6960   197.9963 </r>
       <r>    -6.1534     0.0154   198.0000 </r>
       <r>    -5.9133     0.0000   198.0000 </r>
       <r>    -5.6731     0.0000   198.0000 </r>
       <r>    -5.4329     0.0000   198.0000 </r>
       <r>    -5.1928     0.0000   198.0000 </r>
       <r>    -4.9526     0.0000   198.0000 </r>
       <r>    -4.7125     0.0000   198.0000 </r>
       <r>    -4.4723     0.0000   198.0000 </r>
       <r>    -4.2321     0.0000   198.0000 </r>
       <r>    -3.9920     0.0000   198.0000 </r>
       <r>    -3.7518     0.0000   198.0000 </r>
       <r>    -3.5117     0.0000   198.0000 </r>
       <r>    -3.2715     0.0000   198.0000 </r>
       <r>    -3.0314     0.0000   198.0000 </r>
       <r>    -2.7912     0.0000   198.0000 </r>
       <r>    -2.5510     0.0000   198.0000 </r>
       <r>    -2.3109     0.0000   198.0000 </r>
       <r>    -2.0707     0.0000   198.0000 </r>
       <r>    -1.8306     0.0000   198.0000 </r>
       <r>    -1.5904     0.0000   198.0000 </r>
       <r>    -1.3503     0.0000   198.0000 </r>
       <r>    -1.1101     0.0000   198.0000 </r>
       <r>    -0.8699     0.0000   198.0000 </r>
       <r>    -0.6298     0.0000   198.0000 </r>
       <r>    -0.3896     1.2204   198.2931 </r>
       <r>    -0.1495    12.5359   201.3037 </r>
       <r>     0.0907    19.8704   206.0757 </r>
       <r>     0.3309    27.4009   212.6563 </r>
       <r>     0.5710    30.5972   220.0044 </r>
       <r>     0.8112    37.9464   229.1176 </r>
       <r>     1.0513    35.5853   237.6637 </r>
       <r>     1.2915    47.0039   248.9520 </r>
       <r>     1.5316    30.8164   256.3528 </r>
       <r>     1.7718    61.2388   271.0598 </r>
       <r>     2.0120    47.6535   282.5042 </r>
       <r>     2.2521    18.5789   286.9661 </r>
       <r>     2.4923    30.0288   294.1777 </r>
       <r>     2.7324    59.7341   308.5233 </r>
       <r>     2.9726    50.0351   320.5397 </r>
       <r>     3.2128    55.9856   333.9851 </r>
       <r>     3.4529    75.2407   352.0547 </r>
       <r>     3.6931    27.0829   358.5589 </r>
       <r>     3.9332    19.3360   363.2026 </r>
       <r>     4.1734    92.8823   385.5090 </r>
       <r>     4.4135    41.9149   395.5752 </r>
       <r>     4.6537     1.7688   396.0000 </r>
       <r>     4.8939     0.0000   396.0000 </r>
       <r>     5.1340     0.0000   396.0000 </r>
       <r>     5.3742     0.0000   396.0000 </r>
       <r>     5.6143     0.0000   396.0000 </r>
       <r>     5.8545     0.0000   396.0000 </r>
       <r>     6.0946     0.0000   396.0000 </r>
       <r>     6.3348     0.1590   396.0382 </r>
       <r>     6.5750     4.3826   397.0907 </r>
       <r>     6.8151    13.6677   400.3731 </r>
       <r>     7.0553    29.7542   407.5188 </r>
       <r>     7.2954    56.3921   421.0619 </r>
       <r>     7.5356    79.8032   440.2273 </r>
       <r>     7.7758    67.6792   456.4810 </r>
       <r>     8.0159    82.7345   476.3503 </r>
       <r>     8.2561    99.3472   500.2094 </r>
       <r>     8.4962    39.1462   509.6106 </r>
       <r>     8.7364    44.1451   520.2124 </r>
       <r>     8.9765    40.5015   529.9392 </r>
       <r>     9.2167    39.4832   539.4214 </r>
       <r>     9.4569    15.0013   543.0241 </r>
       <r>     9.6970    15.7878   546.8157 </r>
       <r>     9.9372    13.0951   549.9605 </r>
       <r>    10.1773    25.3738   556.0543 </r>
       <r>    10.4175    22.4754   561.4519 </r>
       <r>    10.6577    27.5044   568.0573 </r>
       <r>    10.8978    24.9536   574.0501 </r>
       <r>    11.1380    25.0554   580.0674 </r>
       <r>    11.3781    20.2328   584.9265 </r>
       <r>    11.6183    24.4328   590.7942 </r>
       <r>    11.8584    26.7366   597.2152 </r>
       <r>    12.0986    26.6071   603.6051 </r>
       <r>    12.3388    36.2824   612.3186 </r>
       <r>    12.5789    38.0712   621.4617 </r>
       <r>    12.8191    46.5928   632.6514 </r>
       <r>    13.0592    35.5253   641.1831 </r>
       <r>    13.2994    29.8431   648.3501 </r>
       <r>    13.5395    48.3753   659.9678 </r>
       <r>    13.7797    38.6691   669.2545 </r>
       <r>    14.0199    20.9099   674.2762 </r>
       <r>    14.2600    18.1349   678.6314 </r>
       <r>    14.5002     5.6986   680.0000 </r>
       <r>    14.7403     0.0000   680.0000 </r>
       <r>    14.9805     0.0000   680.0000 </r>
       <r>    15.2207     0.0000   680.0000 </r>
       <r>    15.4608     0.0000   680.0000 </r>
       <r>    15.7010     0.0000   680.0000 </r>
       <r>    15.9411     0.0000   680.0000 </r>
       <r>    16.1813     0.0000   680.0000 </r>
       <r>    16.4214     0.0000   680.0000 </r>
       <r>    16.6616     0.0000   680.0000 </r>
       <r>    16.9018     0.0000   680.0000 </r>
       <r>    17.1419     0.0000   680.0000 </r>
       <r>    17.3821     0.0000   680.0000 </r>
       <r>    17.6222     0.0000   680.0000 </r>
      </set>
     </set>
    </array>
   </total>
  </dos>
 </calculation>
 <structure name="finalpos" >
  <crystal>
   <varray name="basis" >
    <v>      11.57658324       0.00206628      -0.00954291 </v>
    <v>      -0.00198552      11.57659983      -0.00954294 </v>
    <v>      -3.84767942      -3.84903072      12.76635918 </v>
   </varray>
   <i name="volume">   1710.06494320 </i>
   <varray name="rec_basis" >
    <v>       0.08640274       0.00003629       0.02605204 </v>
    <v>       0.00000605       0.08640263       0.02605204 </v>
    <v>       0.00006459       0.00006461       0.07836982 </v>
   </varray>
  </crystal>
  <varray name="positions" >
   <v>       0.14940024       0.01727802       0.00000711 </v>
   <v>       0.48273357       0.01727802       0.00000711 </v>
   <v>       0.81606690       0.01727802       0.00000711 </v>
   <v>       0.14940024       0.35061135       0.00000711 </v>
   <v>       0.48273357       0.35061135       0.00000711 </v>
   <v>       0.81606690       0.35061135       0.00000711 </v>
   <v>       0.14940024       0.68394468       0.00000711 </v>
   <v>       0.48273357       0.68394468       0.00000711 </v>
   <v>       0.81606690       0.68394468       0.00000711 </v>
   <v>       0.14940024       0.01727802       0.50000711 </v>
   <v>       0.48273357       0.01727802       0.50000711 </v>
   <v>       0.81606690       0.01727802       0.50000711 </v>
   <v>       0.14940024       0.35061135       0.50000711 </v>
   <v>       0.48273357       0.35061135       0.50000711 </v>
   <v>       0.81606690       0.35061135       0.50000711 </v>
   <v>       0.14940024       0.68394468       0.50000711 </v>
   <v>       0.48273357       0.68394468       0.50000711 </v>
   <v>       0.81606690       0.68394468       0.50000711 </v>
   <v>       0.31605532       0.18393310       0.49999289 </v>
   <v>       0.64938865       0.18393310       0.49999289 </v>
   <v>       0.98272198       0.18393310       0.49999289 </v>
   <v>       0.31605532       0.51726643       0.49999289 </v>
   <v>       0.64938865       0.51726643       0.49999289 </v>
   <v>       0.98272198       0.51726643       0.49999289 </v>
   <v>       0.31605532       0.85059976       0.49999289 </v>
   <v>       0.64938865       0.85059976       0.49999289 </v>
   <v>       0.98272198       0.85059976       0.49999289 </v>
   <v>       0.31605532       0.18393310       0.99999289 </v>
   <v>       0.64938865       0.18393310       0.99999289 </v>
   <v>       0.98272198       0.18393310       0.99999289 </v>
   <v>       0.31605532       0.51726643       0.99999289 </v>
   <v>       0.64938865       0.51726643       0.99999289 </v>
   <v>       0.98272198       0.51726643       0.99999289 </v>
   <v>       0.31605532       0.85059976       0.99999289 </v>
   <v>       0.64938865       0.85059976       0.99999289 </v>
   <v>       0.98272198       0.85059976       0.99999289 </v>
   <v>       0.31606288       0.01727079       0.00000000 </v>
   <v>       0.64939621       0.01727079       0.00000000 </v>
   <v>       0.98272954       0.01727079       0.00000000 </v>
   <v>       0.31606288       0.35060413       0.00000000 </v>
   <v>       0.64939621       0.35060413       0.00000000 </v>
   <v>       0.98272954       0.35060413       0.00000000 </v>
   <v>       0.31606288       0.68393746       0.00000000 </v>
   <v>       0.64939621       0.68393746       0.00000000 </v>
   <v>       0.98272954       0.68393746       0.00000000 </v>
   <v>       0.31606288       0.01727079       0.50000000 </v>
   <v>       0.64939621       0.01727079       0.50000000 </v>
   <v>       0.98272954       0.01727079       0.50000000 </v>
   <v>       0.31606288       0.35060413       0.50000000 </v>
   <v>       0.64939621       0.35060413       0.50000000 </v>
   <v>       0.98272954       0.35060413       0.50000000 </v>
   <v>       0.31606288       0.68393746       0.50000000 </v>
   <v>       0.64939621       0.68393746       0.50000000 </v>
   <v>       0.98272954       0.68393746       0.50000000 </v>
   <v>       0.19934057       0.23388678       0.14911715 </v>
   <v>       0.53267391       0.23388678       0.14983771 </v>
   <v>       0.86600724       0.23388678       0.14983771 </v>
   <v>       0.19934057       0.56722011       0.14983771 </v>
   <v>       0.53267391       0.56722011       0.14983771 </v>
   <v>       0.86600724       0.56722011       0.14983771 </v>
   <v>       0.19934057       0.90055344       0.14983771 </v>
   <v>       0.53267391       0.90055344       0.14983771 </v>
   <v>       0.86600724       0.90055344       0.14983771 </v>
   <v>       0.19934057       0.23388678       0.64983771 </v>
   <v>       0.53267391       0.23388678       0.64983771 </v>
   <v>       0.86600724       0.23388678       0.64983771 </v>
   <v>       0.19934057       0.56722011       0.64983771 </v>
   <v>       0.53267391       0.56722011       0.64983771 </v>
   <v>       0.86600724       0.56722011       0.64983771 </v>
   <v>       0.19934057       0.90055344       0.64983771 </v>
   <v>       0.53267391       0.90055344       0.64983771 </v>
   <v>       0.86600724       0.90055344       0.64983771 </v>
   <v>       0.09944656       0.13399276       0.35016229 </v>
   <v>       0.43277989       0.13399276       0.35016229 </v>
   <v>       0.76611322       0.13399276       0.35016229 </v>
   <v>       0.09944656       0.46732609       0.35016229 </v>
   <v>       0.43277989       0.46732609       0.35016229 </v>
   <v>       0.76611322       0.46732609       0.35016229 </v>
   <v>       0.09944656       0.80065943       0.35016229 </v>
   <v>       0.43277989       0.80065943       0.35016229 </v>
   <v>       0.76611322       0.80065943       0.35016229 </v>
   <v>       0.09944656       0.13399276       0.85016229 </v>
   <v>       0.43277989       0.13399276       0.85016229 </v>
   <v>       0.76611322       0.13399276       0.85016229 </v>
   <v>       0.09944656       0.46732609       0.85016229 </v>
   <v>       0.43277989       0.46732609       0.85016229 </v>
   <v>       0.76611322       0.46732609       0.85016229 </v>
   <v>       0.09944656       0.80065943       0.85016229 </v>
   <v>       0.43277989       0.80065943       0.85016229 </v>
   <v>       0.76611322       0.80065943       0.85016229 </v>
   <v>       0.03603208       0.07057630       0.15990037 </v>
   <v>       0.36936541       0.07057630       0.15990037 </v>
   <v>       0.70269875       0.07057630       0.15990037 </v>
   <v>       0.03603208       0.40390964       0.15990037 </v>
   <v>       0.36936541       0.40390964       0.15990037 </v>
   <v>       0.70269875       0.40390964       0.15990037 </v>
   <v>       0.03603208       0.73724297       0.15990037 </v>
   <v>       0.36936541       0.73724297       0.15990037 </v>
   <v>       0.70269875       0.73724297       0.15990037 </v>
   <v>       0.03603208       0.07057630       0.65990037 </v>
   <v>       0.36936541       0.07057630       0.65990037 </v>
   <v>       0.70269875       0.07057630       0.65990037 </v>
   <v>       0.03603208       0.40390964       0.65990037 </v>
   <v>       0.36936541       0.40390964       0.65990037 </v>
   <v>       0.70269875       0.40390964       0.65990037 </v>
   <v>       0.03603208       0.73724297       0.65990037 </v>
   <v>       0.36936541       0.73724297       0.65990037 </v>
   <v>       0.70269875       0.73724297       0.65990037 </v>
   <v>       0.26275703       0.29730125       0.34009963 </v>
   <v>       0.59609036       0.29730125       0.34009963 </v>
   <v>       0.92942370       0.29730125       0.34009963 </v>
   <v>       0.26275703       0.63063459       0.34009963 </v>
   <v>       0.59609036       0.63063459       0.34009963 </v>
   <v>       0.92942370       0.63063459       0.34009963 </v>
   <v>       0.26275703       0.96396792       0.34009963 </v>
   <v>       0.59609036       0.96396792       0.34009963 </v>
   <v>       0.92942370       0.96396792       0.34009963 </v>
   <v>       0.26275703       0.29730125       0.84009963 </v>
   <v>       0.59609036       0.29730125       0.84009963 </v>
   <v>       0.92942370       0.29730125       0.84009963 </v>
   <v>       0.26275703       0.63063459       0.84009963 </v>
   <v>       0.59609036       0.63063459       0.84009963 </v>
   <v>       0.92942370       0.63063459       0.84009963 </v>
   <v>       0.26275703       0.96396792       0.84009963 </v>
   <v>       0.59609036       0.96396792       0.84009963 </v>
   <v>       0.92942370       0.96396792       0.84009963 </v>
  </varray>
 </structure>
</modeling>
