   10   10   60    2
  0.1232929E+02  0.3919080E-09  0.5612354E-09  0.5605449E-09  0.5000000E-15
  1.000000000000000E-004
  CAR 
 unknown system                          
     64     42     45
 
  0.0000000E+00  0.0000000E+00  0.0000000E+00  0.1041667E-01
    1      -56.219279    -49.669945   1.000000   1.000000
    2      -56.181021    -49.645972   1.000000   1.000000
    3      -54.897785    -49.636284   1.000000   1.000000
    4      -54.891555    -49.615656   1.000000   1.000000
    5      -54.668138    -49.607819   1.000000   1.000000
    6      -54.629937    -49.557318   1.000000   1.000000
    7      -43.970164    -43.959088   1.000000   1.000000
    8      -43.948270    -43.937280   1.000000   1.000000
    9      -43.732994    -43.734738   1.000000   1.000000
   10      -43.730772    -43.732468   1.000000   1.000000
   11      -16.100869    -15.714605   1.000000   1.000000
   12      -15.811296    -15.439952   1.000000   1.000000
   13       -9.490390     -9.209077   1.000000   1.000000
   14       -8.916522     -8.671413   1.000000   1.000000
   15       -2.935145     -1.873928   1.000000   1.000000
   16       -2.916661     -1.801228   1.000000   1.000000
   17       -2.041301     -0.592880   1.000000   1.000000
   18       -1.486392     -0.566508   1.000000   1.000000
   19       -1.230849     -0.404508   1.000000   1.000000
   20       -1.218277     -0.143801   1.000000   1.000000
   21       -0.988246      1.123736   1.000000   1.000000
   22       -0.914314      1.193989   1.000000   1.000000
   23       -0.788228      1.893006   1.000000   1.000000
   24       -0.603892      2.590059   1.000000   1.000000
   25       -0.425167      2.655548   1.000000   1.000000
   26       -0.216288      2.880155   1.000000   1.000000
   27        0.066200      3.230872   1.000000   1.000000
   28        0.881450      3.983117   1.000000   1.000000
   29        1.341069      7.433928   1.000000   0.000000
   30        1.647274      7.642486   1.000000   0.000000
   31        2.823645      7.957961   1.000000   0.000000
   32        2.835501      8.014630   1.000000   0.000000
   33        2.876828      8.196364   1.000000   0.000000
   34        3.628163      8.827366   1.000000   0.000000
   35        3.687317      9.044475   1.000000   0.000000
   36        3.860331      9.305586   1.000000   0.000000
   37        8.295883      9.456946   0.000000   0.000000
   38        8.407647      9.945530   0.000000   0.000000
   39        9.969208     10.132301   0.000000   0.000000
   40       10.150998     11.072384   0.000000   0.000000
   41       10.876044     11.474866   0.000000   0.000000
   42       11.452533     11.822492   0.000000   0.000000
   43       11.471796     11.878944   0.000000   0.000000
   44       14.785923     15.204410   0.000000   0.000000
   45       14.814297     15.387410   0.000000   0.000000
 
  0.1666667E+00  0.2076227E-18  0.0000000E+00  0.2083333E-01
    1      -56.219251    -49.669825   1.000000   1.000000
    2      -56.180975    -49.646136   1.000000   1.000000
    3      -54.897995    -49.636687   1.000000   1.000000
    4      -54.891756    -49.615536   1.000000   1.000000
    5      -54.668102    -49.607731   1.000000   1.000000
    6      -54.629918    -49.557271   1.000000   1.000000
    7      -43.969117    -43.957995   1.000000   1.000000
    8      -43.948103    -43.937105   1.000000   1.000000
    9      -43.732768    -43.734536   1.000000   1.000000
   10      -43.731428    -43.733141   1.000000   1.000000
   11      -16.108422    -15.721622   1.000000   1.000000
   12      -15.825928    -15.454766   1.000000   1.000000
   13       -9.421976     -9.149596   1.000000   1.000000
   14       -8.866159     -8.606098   1.000000   1.000000
   15       -2.866247     -1.704450   1.000000   1.000000
   16       -2.856159     -1.646255   1.000000   1.000000
   17       -2.101560     -0.535404   1.000000   1.000000
   18       -1.382415     -0.507635   1.000000   1.000000
   19       -1.326693     -0.382804   1.000000   1.000000
   20       -1.141417     -0.102976   1.000000   1.000000
   21       -1.030248      1.044998   1.000000   1.000000
   22       -0.827700      1.111319   1.000000   1.000000
   23       -0.699941      1.372886   1.000000   1.000000
   24       -0.592421      1.593449   1.000000   1.000000
   25       -0.373110      2.756952   1.000000   1.000000
   26       -0.129474      2.787916   1.000000   1.000000
   27        0.109478      3.396301   1.000000   1.000000
   28        0.734203      3.919189   1.000000   1.000000
   29        1.369064      7.258168   1.000000   0.000000
   30        1.623268      7.675049   1.000000   0.000000
   31        2.215616      7.843188   1.000000   0.000000
   32        2.550069      8.012684   1.000000   0.000000
   33        3.072938      8.674438   1.000000   0.000000
   34        3.076743      8.687921   1.000000   0.000000
   35        3.334545      8.816412   1.000000   0.000000
   36        3.454956      9.304396   1.000000   0.000000
   37        8.952029      9.884502   0.000000   0.000000
   38        9.496028     10.605156   0.000000   0.000000
   39       10.349864     10.643416   0.000000   0.000000
   40       10.467559     11.108804   0.000000   0.000000
   41       11.304049     12.041174   0.000000   0.000000
   42       11.550833     12.223328   0.000000   0.000000
   43       11.718502     12.243172   0.000000   0.000000
   44       14.013891     14.575385   0.000000   0.000000
   45       14.016169     14.673126   0.000000   0.000000
 
  0.3333333E+00 -0.4936633E-19  0.0000000E+00  0.2083333E-01
    1      -56.219207    -49.669586   1.000000   1.000000
    2      -56.180891    -49.646470   1.000000   1.000000
    3      -54.898427    -49.637497   1.000000   1.000000
    4      -54.892160    -49.615292   1.000000   1.000000
    5      -54.668027    -49.607555   1.000000   1.000000
    6      -54.629873    -49.557173   1.000000   1.000000
    7      -43.967087    -43.955870   1.000000   1.000000
    8      -43.947773    -43.936758   1.000000   1.000000
    9      -43.732763    -43.734512   1.000000   1.000000
   10      -43.732373    -43.734188   1.000000   1.000000
   11      -16.123995    -15.736157   1.000000   1.000000
   12      -15.854908    -15.484100   1.000000   1.000000
   13       -9.273988     -9.021696   1.000000   1.000000
   14       -8.761973     -8.468223   1.000000   1.000000
   15       -2.748530     -1.283388   1.000000   1.000000
   16       -2.742411     -1.269754   1.000000   1.000000
   17       -2.185744     -0.606690   1.000000   1.000000
   18       -1.770863     -0.345013   1.000000   1.000000
   19       -1.025393     -0.215570   1.000000   1.000000
   20       -0.936203     -0.068350   1.000000   1.000000
   21       -0.773550      0.545979   1.000000   1.000000
   22       -0.718545      0.643450   1.000000   1.000000
   23       -0.669848      0.788323   1.000000   1.000000
   24       -0.407313      0.900549   1.000000   1.000000
   25       -0.274190      2.403887   1.000000   1.000000
   26        0.122003      2.490788   1.000000   1.000000
   27        0.207812      3.463468   1.000000   1.000000
   28        0.474136      3.854472   1.000000   1.000000
   29        0.988056      7.039112   1.000000   0.000000
   30        1.407019      7.180708   1.000000   0.000000
   31        1.493901      8.033655   1.000000   0.000000
   32        1.623520      8.255205   1.000000   0.000000
   33        2.359981      8.565847   1.000000   0.000000
   34        2.994663      8.889853   1.000000   0.000000
   35        3.181304      8.932111   1.000000   0.000000
   36        3.212866      9.326613   1.000000   0.000000
   37        9.947416     10.554408   0.000000   0.000000
   38       10.045170     10.571437   0.000000   0.000000
   39       11.372596     11.813122   0.000000   0.000000
   40       11.400606     12.592951   0.000000   0.000000
   41       11.438727     12.626503   0.000000   0.000000
   42       12.462275     13.060350   0.000000   0.000000
   43       12.650016     13.116505   0.000000   0.000000
   44       13.077548     13.661846   0.000000   0.000000
   45       13.354701     13.791261   0.000000   0.000000
 
  0.5000000E+00  0.1923314E-18  0.0000000E+00  0.1041667E-01
    1      -56.219183    -49.669461   1.000000   1.000000
    2      -56.180847    -49.646646   1.000000   1.000000
    3      -54.898644    -49.637908   1.000000   1.000000
    4      -54.892368    -49.615168   1.000000   1.000000
    5      -54.667984    -49.607467   1.000000   1.000000
    6      -54.629850    -49.557126   1.000000   1.000000
    7      -43.966013    -43.954748   1.000000   1.000000
    8      -43.947575    -43.936551   1.000000   1.000000
    9      -43.733406    -43.735174   1.000000   1.000000
   10      -43.732120    -43.733959   1.000000   1.000000
   11      -16.131868    -15.743528   1.000000   1.000000
   12      -15.869259    -15.498625   1.000000   1.000000
   13       -9.193537     -8.952685   1.000000   1.000000
   14       -8.707986     -8.395160   1.000000   1.000000
   15       -2.702245     -1.073006   1.000000   1.000000
   16       -2.701540     -0.992439   1.000000   1.000000
   17       -2.216900     -0.672412   1.000000   1.000000
   18       -1.964364     -0.174344   1.000000   1.000000
   19       -1.023294     -0.167388   1.000000   1.000000
   20       -0.741152     -0.058668   1.000000   1.000000
   21       -0.656515      0.237159   1.000000   1.000000
   22       -0.425912      0.302448   1.000000   1.000000
   23       -0.378899      0.549711   1.000000   1.000000
   24       -0.355618      0.721325   1.000000   1.000000
   25       -0.057816      2.204849   1.000000   1.000000
   26        0.058331      2.320249   1.000000   1.000000
   27        0.126676      3.463165   1.000000   1.000000
   28        0.358180      3.846414   1.000000   1.000000
   29        0.667594      6.953451   1.000000   0.000000
   30        0.835443      6.983474   1.000000   0.000000
   31        1.117237      8.059016   1.000000   0.000000
   32        1.551205      8.266325   1.000000   0.000000
   33        2.083604      8.823168   1.000000   0.000000
   34        2.816896      8.881777   1.000000   0.000000
   35        3.192380      9.060752   1.000000   0.000000
   36        3.262197      9.218468   1.000000   0.000000
   37       10.055516     10.398004   0.000000   0.000000
   38       10.830621     11.249195   0.000000   0.000000
   39       11.171582     12.488962   0.000000   0.000000
   40       11.202031     12.598203   0.000000   0.000000
   41       12.339345     12.835708   0.000000   0.000000
   42       12.459583     13.024580   0.000000   0.000000
   43       12.509065     13.195487   0.000000   0.000000
   44       13.566205     13.997605   0.000000   0.000000
   45       14.055466     14.636744   0.000000   0.000000
 
 -0.1200733E-18  0.2500000E+00  0.0000000E+00  0.2083333E-01
    1      -56.213602    -49.658581   1.000000   1.000000
    2      -56.186551    -49.644576   1.000000   1.000000
    3      -54.896867    -49.637721   1.000000   1.000000
    4      -54.892463    -49.619994   1.000000   1.000000
    5      -54.662626    -49.603889   1.000000   1.000000
    6      -54.635617    -49.568384   1.000000   1.000000
    7      -43.966931    -43.955870   1.000000   1.000000
    8      -43.951475    -43.940475   1.000000   1.000000
    9      -43.732618    -43.734351   1.000000   1.000000
   10      -43.731041    -43.732741   1.000000   1.000000
   11      -16.056519    -15.671861   1.000000   1.000000
   12      -15.851663    -15.477529   1.000000   1.000000
   13       -9.438145     -9.164633   1.000000   1.000000
   14       -9.041265     -8.793268   1.000000   1.000000
   15       -2.780068     -1.659982   1.000000   1.000000
   16       -2.669427     -1.464204   1.000000   1.000000
   17       -1.942580     -0.710391   1.000000   1.000000
   18       -1.685643     -0.493158   1.000000   1.000000
   19       -1.684977     -0.336623   1.000000   1.000000
   20       -1.210017     -0.143641   1.000000   1.000000
   21       -1.117619      0.910947   1.000000   1.000000
   22       -0.928040      1.270291   1.000000   1.000000
   23       -0.604600      1.921005   1.000000   1.000000
   24       -0.580703      2.276131   1.000000   1.000000
   25       -0.081578      2.454430   1.000000   1.000000
   26        0.127862      2.685841   1.000000   1.000000
   27        0.317354      3.103393   1.000000   1.000000
   28        0.976739      3.807523   1.000000   1.000000
   29        1.176644      7.612599   1.000000   0.000000
   30        1.427030      7.827975   1.000000   0.000000
   31        2.329275      7.953778   1.000000   0.000000
   32        2.571852      8.004588   1.000000   0.000000
   33        2.917065      8.505767   1.000000   0.000000
   34        3.415262      8.675969   1.000000   0.000000
   35        3.528458      8.701194   1.000000   0.000000
   36        3.620886      9.240919   1.000000   0.000000
   37        8.874630      9.941492   0.000000   0.000000
   38        8.913246     10.191210   0.000000   0.000000
   39       10.447729     10.679340   0.000000   0.000000
   40       10.868208     11.453688   0.000000   0.000000
   41       11.018858     11.596398   0.000000   0.000000
   42       11.814219     12.317236   0.000000   0.000000
   43       12.100557     12.587295   0.000000   0.000000
   44       13.799802     14.216610   0.000000   0.000000
   45       13.902559     14.255598   0.000000   0.000000
 
  0.1666667E+00  0.2500000E+00  0.0000000E+00  0.2083333E-01
    1      -56.213586    -49.658479   1.000000   1.000000
    2      -56.186518    -49.644768   1.000000   1.000000
    3      -54.897082    -49.638082   1.000000   1.000000
    4      -54.892671    -49.619881   1.000000   1.000000
    5      -54.662596    -49.603800   1.000000   1.000000
    6      -54.635594    -49.568325   1.000000   1.000000
    7      -43.966053    -43.954953   1.000000   1.000000
    8      -43.951201    -43.940188   1.000000   1.000000
    9      -43.732561    -43.734318   1.000000   1.000000
   10      -43.731624    -43.733343   1.000000   1.000000
   11      -16.065624    -15.680588   1.000000   1.000000
   12      -15.865646    -15.491646   1.000000   1.000000
   13       -9.366189     -9.097976   1.000000   1.000000
   14       -8.979787     -8.720615   1.000000   1.000000
   15       -2.726565     -1.523905   1.000000   1.000000
   16       -2.649524     -1.389244   1.000000   1.000000
   17       -2.032264     -0.654339   1.000000   1.000000
   18       -1.637090     -0.609437   1.000000   1.000000
   19       -1.613156     -0.224536   1.000000   1.000000
   20       -1.288259     -0.136035   1.000000   1.000000
   21       -1.076494      1.023168   1.000000   1.000000
   22       -0.861744      1.180932   1.000000   1.000000
   23       -0.671817      1.445217   1.000000   1.000000
   24       -0.452249      1.465989   1.000000   1.000000
   25       -0.114176      2.396586   1.000000   1.000000
   26        0.267736      2.532562   1.000000   1.000000
   27        0.345903      3.527309   1.000000   1.000000
   28        0.850446      3.816584   1.000000   1.000000
   29        1.150797      7.424273   1.000000   0.000000
   30        1.349977      7.814332   1.000000   0.000000
   31        2.172197      7.858706   1.000000   0.000000
   32        2.230561      8.045151   1.000000   0.000000
   33        2.816836      8.611456   1.000000   0.000000
   34        3.074921      8.615464   1.000000   0.000000
   35        3.344909      8.900930   1.000000   0.000000
   36        3.422582      9.143915   1.000000   0.000000
   37        9.512793     10.409899   0.000000   0.000000
   38        9.940598     10.701326   0.000000   0.000000
   39       10.341828     10.898603   0.000000   0.000000
   40       11.029756     11.556954   0.000000   0.000000
   41       11.417712     11.984879   0.000000   0.000000
   42       11.863739     12.437512   0.000000   0.000000
   43       12.154163     12.833930   0.000000   0.000000
   44       13.207495     13.746103   0.000000   0.000000
   45       13.227726     13.834902   0.000000   0.000000
 
  0.3333333E+00  0.2500000E+00  0.0000000E+00  0.2083333E-01
    1      -56.213541    -49.658260   1.000000   1.000000
    2      -56.186448    -49.645156   1.000000   1.000000
    3      -54.897508    -49.638813   1.000000   1.000000
    4      -54.893081    -49.619650   1.000000   1.000000
    5      -54.662524    -49.603614   1.000000   1.000000
    6      -54.635548    -49.568208   1.000000   1.000000
    7      -43.964237    -43.953056   1.000000   1.000000
    8      -43.950616    -43.939577   1.000000   1.000000
    9      -43.732702    -43.734460   1.000000   1.000000
   10      -43.732458    -43.734263   1.000000   1.000000
   11      -16.083785    -15.698021   1.000000   1.000000
   12      -15.893497    -15.519766   1.000000   1.000000
   13       -9.210910     -8.954648   1.000000   1.000000
   14       -8.850991     -8.566008   1.000000   1.000000
   15       -2.636024     -1.279359   1.000000   1.000000
   16       -2.612848     -1.271443   1.000000   1.000000
   17       -2.130631     -0.767696   1.000000   1.000000
   18       -1.579575     -0.451816   1.000000   1.000000
   19       -1.484896     -0.308168   1.000000   1.000000
   20       -1.460158      0.070774   1.000000   1.000000
   21       -1.216966      0.431568   1.000000   1.000000
   22       -0.935911      0.682110   1.000000   1.000000
   23       -0.383041      1.060679   1.000000   1.000000
   24       -0.160442      1.294761   1.000000   1.000000
   25        0.034117      2.202408   1.000000   1.000000
   26        0.294216      2.480535   1.000000   1.000000
   27        0.514844      3.601172   1.000000   1.000000
   28        0.674521      3.812797   1.000000   1.000000
   29        0.708018      7.191602   1.000000   0.000000
   30        1.216032      7.402235   1.000000   0.000000
   31        1.699979      7.849320   1.000000   0.000000
   32        1.803138      8.118536   1.000000   0.000000
   33        2.768290      8.598523   1.000000   0.000000
   34        2.917979      8.750923   1.000000   0.000000
   35        2.930529      8.938973   1.000000   0.000000
   36        3.085038      9.062502   1.000000   0.000000
   37       10.151764     10.921680   0.000000   0.000000
   38       10.171813     11.144555   0.000000   0.000000
   39       10.803474     11.243426   0.000000   0.000000
   40       11.287303     12.052765   0.000000   0.000000
   41       11.942974     12.691531   0.000000   0.000000
   42       12.119849     12.851001   0.000000   0.000000
   43       12.464301     13.258712   0.000000   0.000000
   44       13.000675     13.410835   0.000000   0.000000
   45       13.331202     13.779838   0.000000   0.000000
 
  0.5000000E+00  0.2500000E+00  0.0000000E+00  0.2083333E-01
    1      -56.213524    -49.658148   1.000000   1.000000
    2      -56.186415    -49.645360   1.000000   1.000000
    3      -54.897727    -49.639181   1.000000   1.000000
    4      -54.893286    -49.619535   1.000000   1.000000
    5      -54.662490    -49.603527   1.000000   1.000000
    6      -54.635526    -49.568152   1.000000   1.000000
    7      -43.963321    -43.952098   1.000000   1.000000
    8      -43.950298    -43.939246   1.000000   1.000000
    9      -43.733262    -43.735041   1.000000   1.000000
   10      -43.732356    -43.734185   1.000000   1.000000
   11      -16.092984    -15.706874   1.000000   1.000000
   12      -15.907313    -15.533714   1.000000   1.000000
   13       -9.126713     -8.877283   1.000000   1.000000
   14       -8.783377     -8.483375   1.000000   1.000000
   15       -2.610229     -1.302330   1.000000   1.000000
   16       -2.595879     -1.267391   1.000000   1.000000
   17       -2.161784     -0.611103   1.000000   1.000000
   18       -1.744771     -0.498594   1.000000   1.000000
   19       -1.433610     -0.162353   1.000000   1.000000
   20       -1.343370     -0.039320   1.000000   1.000000
   21       -1.322750      0.310497   1.000000   1.000000
   22       -0.654963      0.455253   1.000000   1.000000
   23       -0.559562      0.825135   1.000000   1.000000
   24       -0.425465      1.278352   1.000000   1.000000
   25        0.317356      2.106802   1.000000   1.000000
   26        0.523798      2.578826   1.000000   1.000000
   27        0.601797      3.529129   1.000000   1.000000
   28        0.725652      3.800928   1.000000   1.000000
   29        0.885565      7.108129   1.000000   0.000000
   30        1.019463      7.121154   1.000000   0.000000
   31        1.075440      7.852371   1.000000   0.000000
   32        1.696141      8.092676   1.000000   0.000000
   33        2.406764      8.749265   1.000000   0.000000
   34        2.826089      8.801956   1.000000   0.000000
   35        2.857826      8.966171   1.000000   0.000000
   36        3.194037      8.974421   1.000000   0.000000
   37       10.211034     11.146803   0.000000   0.000000
   38       10.358119     11.261162   0.000000   0.000000
   39       10.778123     11.353845   0.000000   0.000000
   40       10.846062     11.610885   0.000000   0.000000
   41       12.087631     12.736063   0.000000   0.000000
   42       12.118515     13.037613   0.000000   0.000000
   43       12.437977     13.116528   0.000000   0.000000
   44       13.823986     14.155096   0.000000   0.000000
   45       13.960192     14.419746   0.000000   0.000000
 
 -0.3333333E+00  0.2500000E+00  0.0000000E+00  0.2083333E-01
    1      -56.213527    -49.658247   1.000000   1.000000
    2      -56.186434    -49.645145   1.000000   1.000000
    3      -54.897496    -49.638799   1.000000   1.000000
    4      -54.893066    -49.619637   1.000000   1.000000
    5      -54.662512    -49.603602   1.000000   1.000000
    6      -54.635536    -49.568196   1.000000   1.000000
    7      -43.964216    -43.953034   1.000000   1.000000
    8      -43.950575    -43.939537   1.000000   1.000000
    9      -43.732673    -43.734431   1.000000   1.000000
   10      -43.732428    -43.734233   1.000000   1.000000
   11      -16.083777    -15.698014   1.000000   1.000000
   12      -15.893469    -15.519738   1.000000   1.000000
   13       -9.210904     -8.954648   1.000000   1.000000
   14       -8.850935     -8.565940   1.000000   1.000000
   15       -2.635877     -1.279163   1.000000   1.000000
   16       -2.613036     -1.271952   1.000000   1.000000
   17       -2.130472     -0.768097   1.000000   1.000000
   18       -1.579139     -0.449876   1.000000   1.000000
   19       -1.486704     -0.310178   1.000000   1.000000
   20       -1.460276      0.069311   1.000000   1.000000
   21       -1.216692      0.433212   1.000000   1.000000
   22       -0.935292      0.681681   1.000000   1.000000
   23       -0.382533      1.060631   1.000000   1.000000
   24       -0.162732      1.296152   1.000000   1.000000
   25        0.034185      2.202677   1.000000   1.000000
   26        0.297879      2.481007   1.000000   1.000000
   27        0.518197      3.601467   1.000000   1.000000
   28        0.671535      3.812002   1.000000   1.000000
   29        0.706867      7.194808   1.000000   0.000000
   30        1.214272      7.400910   1.000000   0.000000
   31        1.700792      7.846737   1.000000   0.000000
   32        1.804121      8.119420   1.000000   0.000000
   33        2.768789      8.598992   1.000000   0.000000
   34        2.917350      8.748607   1.000000   0.000000
   35        2.930296      8.939942   1.000000   0.000000
   36        3.085410      9.061752   1.000000   0.000000
   37       10.148816     10.921230   0.000000   0.000000
   38       10.173465     11.146642   0.000000   0.000000
   39       10.804327     11.245120   0.000000   0.000000
   40       11.289563     12.053203   0.000000   0.000000
   41       11.939509     12.690138   0.000000   0.000000
   42       12.112461     12.842041   0.000000   0.000000
   43       12.465514     13.257694   0.000000   0.000000
   44       12.995219     13.402966   0.000000   0.000000
   45       13.333820     13.783291   0.000000   0.000000
 
 -0.1666667E+00  0.2500000E+00  0.0000000E+00  0.2083333E-01
    1      -56.213582    -49.658474   1.000000   1.000000
    2      -56.186515    -49.644763   1.000000   1.000000
    3      -54.897077    -49.638081   1.000000   1.000000
    4      -54.892667    -49.619877   1.000000   1.000000
    5      -54.662591    -49.603795   1.000000   1.000000
    6      -54.635590    -49.568322   1.000000   1.000000
    7      -43.966058    -43.954957   1.000000   1.000000
    8      -43.951211    -43.940199   1.000000   1.000000
    9      -43.732573    -43.734330   1.000000   1.000000
   10      -43.731628    -43.733346   1.000000   1.000000
   11      -16.065630    -15.680595   1.000000   1.000000
   12      -15.865683    -15.491684   1.000000   1.000000
   13       -9.366188     -9.097981   1.000000   1.000000
   14       -8.979741     -8.720559   1.000000   1.000000
   15       -2.726524     -1.524061   1.000000   1.000000
   16       -2.649709     -1.389570   1.000000   1.000000
   17       -2.031956     -0.653528   1.000000   1.000000
   18       -1.636591     -0.608816   1.000000   1.000000
   19       -1.613739     -0.225395   1.000000   1.000000
   20       -1.289368     -0.137519   1.000000   1.000000
   21       -1.075846      1.021725   1.000000   1.000000
   22       -0.863731      1.179197   1.000000   1.000000
   23       -0.672201      1.447707   1.000000   1.000000
   24       -0.450951      1.469221   1.000000   1.000000
   25       -0.114644      2.395713   1.000000   1.000000
   26        0.271151      2.532879   1.000000   1.000000
   27        0.347351      3.528634   1.000000   1.000000
   28        0.848951      3.815237   1.000000   1.000000
   29        1.149816      7.428270   1.000000   0.000000
   30        1.349135      7.809852   1.000000   0.000000
   31        2.172036      7.854701   1.000000   0.000000
   32        2.231975      8.048524   1.000000   0.000000
   33        2.815257      8.612440   1.000000   0.000000
   34        3.071699      8.613528   1.000000   0.000000
   35        3.345766      8.902503   1.000000   0.000000
   36        3.426426      9.142971   1.000000   0.000000
   37        9.510462     10.411557   0.000000   0.000000
   38        9.937711     10.700515   0.000000   0.000000
   39       10.347172     10.900897   0.000000   0.000000
   40       11.029197     11.556938   0.000000   0.000000
   41       11.409289     11.973228   0.000000   0.000000
   42       11.871967     12.444806   0.000000   0.000000
   43       12.155110     12.834937   0.000000   0.000000
   44       13.207335     13.746383   0.000000   0.000000
   45       13.224808     13.833517   0.000000   0.000000
 
 -0.2401467E-18  0.5000000E+00  0.0000000E+00  0.1041667E-01
    1      -56.200029    -49.641180   1.000000   1.000000
    2      -56.200021    -49.641171   1.000000   1.000000
    3      -54.894670    -49.635239   1.000000   1.000000
    4      -54.894661    -49.635231   1.000000   1.000000
    5      -54.649216    -49.590262   1.000000   1.000000
    6      -54.649209    -49.590255   1.000000   1.000000
    7      -43.959259    -43.948231   1.000000   1.000000
    8      -43.959258    -43.948230   1.000000   1.000000
    9      -43.731847    -43.733560   1.000000   1.000000
   10      -43.731845    -43.733560   1.000000   1.000000
   11      -15.952218    -15.572229   1.000000   1.000000
   12      -15.952216    -15.572227   1.000000   1.000000
   13       -9.274494     -9.016199   1.000000   1.000000
   14       -9.274491     -9.016197   1.000000   1.000000
   15       -2.475058     -1.320027   1.000000   1.000000
   16       -2.475055     -1.320026   1.000000   1.000000
   17       -1.945636     -0.464730   1.000000   1.000000
   18       -1.945634     -0.464728   1.000000   1.000000
   19       -1.653247     -0.205470   1.000000   1.000000
   20       -1.653243     -0.205468   1.000000   1.000000
   21       -0.843425      0.798394   1.000000   1.000000
   22       -0.843419      0.798395   1.000000   1.000000
   23       -0.698724      2.103042   1.000000   1.000000
   24       -0.698721      2.103044   1.000000   1.000000
   25        0.548311      2.253851   1.000000   1.000000
   26        0.548314      2.253852   1.000000   1.000000
   27        0.719084      3.404333   1.000000   1.000000
   28        0.719087      3.404338   1.000000   1.000000
   29        1.089605      7.942248   1.000000   0.000000
   30        1.089607      7.942253   1.000000   0.000000
   31        1.949463      7.982160   1.000000   0.000000
   32        1.949464      7.982163   1.000000   0.000000
   33        3.201522      8.495946   1.000000   0.000000
   34        3.201524      8.495950   1.000000   0.000000
   35        3.337587      8.838251   1.000000   0.000000
   36        3.337590      8.838256   1.000000   0.000000
   37        9.383232     10.459806   0.000000   0.000000
   38        9.383233     10.459807   0.000000   0.000000
   39       11.755550     11.972660   0.000000   0.000000
   40       11.757216     11.973376   0.000000   0.000000
   41       12.246268     12.500429   0.000000   0.000000
   42       12.257271     12.503618   0.000000   0.000000
   43       12.500967     13.185383   0.000000   0.000000
   44       12.522102     13.245952   0.000000   0.000000
   45       12.720198     13.328339   0.000000   0.000000
 
  0.1666667E+00  0.5000000E+00  0.0000000E+00  0.2083333E-01
    1      -56.200003    -49.641455   1.000000   1.000000
    2      -56.199995    -49.641445   1.000000   1.000000
    3      -54.894883    -49.635137   1.000000   1.000000
    4      -54.894876    -49.635129   1.000000   1.000000
    5      -54.649188    -49.590176   1.000000   1.000000