 vasp.6.2.0 18Jan21 (build Jan 29 2021 15:03:46) complex                        
  
 executed on             LinuxIFC date 2021.02.22  21:22:20
 running on  189 total cores
 distrk:  each k-point on    9 cores,   21 groups
 distr:  one band on NCORE=   1 cores,    9 groups


--------------------------------------------------------------------------------------------------------


 INCAR:
   AEXX = 0.25
   ALGO = all
   EDIFF = 1e-05
   EDIFFG = -0.03
   ENCUT = 520
   GGA = pe
   HFSCREEN = 0.207
   IBRION = 2
   ISIF = 3
   ISMEAR = 0
   ISPIN = 2
   KPAR = 21
   LASPH = .TRUE.
   LHFCALC = .TRUE.
   LMAXFOCK = 4
   LORBIT = 11
   LREAL = .FALSE.
   LVHAR = .TRUE.
   LWAVE = .TRUE.
   MAGMOM = 0.6 0.6 0.6 0.6 5 5 0.6 0.6 0.6 0.6
   NCORE = 1
   NEDOS = 2000
   NELM = 200
   NELMIN = 4
   NSW = 60
   NWRITE = 1
   PREC = accurate
   PRECFOCK = fast
   SIGMA = 0.05
   TIME = 0.3

 POTCAR:    PAW_PBE Li_sv 10Sep2004               
 POTCAR:    PAW_PBE Fe_pv 02Aug2007               
 POTCAR:    PAW_PBE S 06Sep2000                   
 POTCAR:    PAW_PBE O 08Apr2002                   
 -----------------------------------------------------------------------------
|                                                                             |
|           W    W    AA    RRRRR   N    N  II  N    N   GGGG   !!!           |
|           W    W   A  A   R    R  NN   N  II  NN   N  G    G  !!!           |
|           W    W  A    A  R    R  N N  N  II  N N  N  G       !!!           |
|           W WW W  AAAAAA  RRRRR   N  N N  II  N  N N  G  GGG   !            |
|           WW  WW  A    A  R   R   N   NN  II  N   NN  G    G                |
|           W    W  A    A  R    R  N    N  II  N    N   GGGG   !!!           |
|                                                                             |
|     For optimal performance we recommend to set                             |
|       NCORE = 2 up to number-of-cores-per-socket                            |
|     NCORE specifies how many cores store one orbital (NPAR=cpu/NCORE).      |
|     This setting can greatly improve the performance of VASP for DFT.       |
|     The default, NCORE=1 might be grossly inefficient on modern             |
|     multi-core architectures or massively parallel machines. Do your        |
|     own testing! More info at https://www.vasp.at/wiki/index.php/NCORE      |
|     Unfortunately you need to use the default for GW and RPA                |
|     calculations (for HF NCORE is supported but not extensively tested      |
|     yet).                                                                   |
|                                                                             |
 -----------------------------------------------------------------------------

 POTCAR:    PAW_PBE Li_sv 10Sep2004               
  local pseudopotential read in
  atomic valenz-charges read in
  non local Contribution for L=           0  read in
    real space projection operators read in
  non local Contribution for L=           0  read in
    real space projection operators read in
  non local Contribution for L=           1  read in
    real space projection operators read in
    PAW grid and wavefunctions read in
 
   number of l-projection  operators is LMAX  =           3
   number of lm-projection operators is LMMAX =           5
 
 POTCAR:    PAW_PBE Fe_pv 02Aug2007               
  local pseudopotential read in
  partial core-charges read in
  partial kinetic energy density read in
  atomic valenz-charges read in
  non local Contribution for L=           1  read in
    real space projection operators read in
  non local Contribution for L=           1  read in
    real space projection operators read in
  non local Contribution for L=           2  read in
    real space projection operators read in
  non local Contribution for L=           2  read in
    real space projection operators read in
  non local Contribution for L=           0  read in
    real space projection operators read in
  non local Contribution for L=           0  read in
    real space projection operators read in
    PAW grid and wavefunctions read in
 
   number of l-projection  operators is LMAX  =           6
   number of lm-projection operators is LMMAX =          18
 
 POTCAR:    PAW_PBE S 06Sep2000                   
  local pseudopotential read in
  partial core-charges read in
  partial kinetic energy density read in
  atomic valenz-charges read in
  non local Contribution for L=           0  read in
    real space projection operators read in
  non local Contribution for L=           0  read in
    real space projection operators read in
  non local Contribution for L=           1  read in
    real space projection operators read in
  non local Contribution for L=           1  read in
    real space projection operators read in
    PAW grid and wavefunctions read in
 
   number of l-projection  operators is LMAX  =           4
   number of lm-projection operators is LMMAX =           8
 
 POTCAR:    PAW_PBE O 08Apr2002                   
  local pseudopotential read in
  partial core-charges read in
  partial kinetic energy density read in
  kinetic energy density of atom read in
  atomic valenz-charges read in
  non local Contribution for L=           0  read in
    real space projection operators read in
  non local Contribution for L=           0  read in
    real space projection operators read in
  non local Contribution for L=           1  read in
    real space projection operators read in
  non local Contribution for L=           1  read in
    real space projection operators read in
    PAW grid and wavefunctions read in
 
   number of l-projection  operators is LMAX  =           4
   number of lm-projection operators is LMMAX =           8
 
  PAW_PBE Li_sv 10Sep2004               :
 energy of atom  1       EATOM= -202.7858
 kinetic energy error for atom=    0.0130 (will be added to EATOM!!)
  PAW_PBE Fe_pv 02Aug2007               :
 energy of atom  2       EATOM=-2457.4239
 kinetic energy error for atom=    0.0062 (will be added to EATOM!!)
  PAW_PBE S 06Sep2000                   :
 energy of atom  3       EATOM= -276.8230
 kinetic energy error for atom=    0.0016 (will be added to EATOM!!)
  PAW_PBE O 08Apr2002                   :
 energy of atom  4       EATOM= -432.3788
 kinetic energy error for atom=    0.0208 (will be added to EATOM!!)
 
 
 POSCAR: # Compound: Li4Fe2S2O2. Old comment: Li2
  positions in direct lattice
  No initial velocities read in
 exchange correlation table for  LEXCH =        8
   RHO(1)=    0.500       N(1)  =     2000
   RHO(2)=  100.500       N(2)  =     4000
 


--------------------------------------------------------------------------------------------------------


 ion  position               nearest neighbor table
   1  0.106  0.727  0.714-   9 1.97   9 1.97   7 2.66
   2  0.106  0.227  0.286-  10 1.97  10 1.97   8 2.66
   3  0.608  0.436  0.547-  10 2.00   9 2.02   8 2.54   8 2.55
   4  0.608  0.936  0.453-   9 2.00  10 2.02   7 2.54   7 2.55
   5  0.606  0.026  0.959-   9 2.01  10 2.02   8 2.55   8 2.56
   6  0.606  0.526  0.041-  10 2.01   9 2.02   7 2.55   7 2.56
   7  0.106  0.740  0.240-   4 2.54   4 2.55   6 2.55   6 2.56   1 2.66
   8  0.106  0.240  0.760-   3 2.54   3 2.55   5 2.55   5 2.56   2 2.66
   9  0.605  0.736  0.748-   1 1.97   1 1.97   4 2.00   5 2.01   6 2.02   3 2.02
  10  0.605  0.236  0.252-   2 1.97   2 1.97   3 2.00   6 2.01   5 2.02   4 2.02
 
  LATTYP: Found a simple monoclinic cell.
 ALAT       =     3.9190801968
 B/A-ratio  =     1.4302970260
 C/A-ratio  =     1.4320589446
 COS(beta)  =    -0.0024902322
  
  Lattice vectors:
  
 A1 = (   3.9190061000,  -0.0240993200,   0.0000000000)
 A2 = (   0.0000000000,   0.0000000000,  -5.6054487500)
 A3 = (   0.0205357400,   5.6123162800,   0.0000000000)


Analysis of symmetry for initial positions (statically):
=====================================================================
 Subroutine PRICEL returns:
 Original cell was already a primitive cell.
 

 Routine SETGRP: Setting up the symmetry group for a 
 simple monoclinic supercell.


 Subroutine GETGRP returns: Found  2 space group operations
 (whereof  1 operations were pure point group operations)
 out of a pool of  4 trial point group operations.


The static configuration has the point symmetry C_1 .
 The point group associated with its full space group is C_1h.


Analysis of symmetry for dynamics (positions and initial velocities):
=====================================================================
 Subroutine PRICEL returns:
 Original cell was already a primitive cell.
 

 Routine SETGRP: Setting up the symmetry group for a 
 simple monoclinic supercell.


 Subroutine GETGRP returns: Found  2 space group operations
 (whereof  1 operations were pure point group operations)
 out of a pool of  4 trial point group operations.


The dynamic configuration has the point symmetry C_1 .
 The point group associated with its full space group is C_1h.


Analysis of structural, dynamic, and magnetic symmetry:
=====================================================================
 Subroutine PRICEL returns:
 Original cell was already a primitive cell.
 

 Routine SETGRP: Setting up the symmetry group for a 
 simple monoclinic supercell.


 Subroutine GETGRP returns: Found  2 space group operations
 (whereof  1 operations were pure point group operations)
 out of a pool of  4 trial point group operations.


The overall configuration has the point symmetry C_1 .
 The point group associated with its full space group is C_1h.


 Subroutine INISYM returns: Found  2 space group operations
 (whereof  1 operations are pure point group operations),
 and found     1 'primitive' translations


----------------------------------------------------------------------------------------

                                     Primitive cell                                     

  volume of cell :     123.2929

  direct lattice vectors                    reciprocal lattice vectors
     3.919006100 -0.024099320  0.000000000     0.255160996 -0.000933647  0.000000000
     0.020535740  5.612316280  0.000000000     0.001095663  0.178175543  0.000000000
     0.000000000  0.000000000  5.605448750     0.000000000  0.000000000  0.178397849

  length of vectors
     3.919080197  5.612353851  5.605448750     0.255162704  0.178178912  0.178397849

  position of ions in fractional coordinates (direct lattice)
     0.106418770  0.726891310  0.714393110
     0.106418770  0.226891310  0.285606890
     0.608093500  0.435804320  0.546872520
     0.608093500  0.935804320  0.453127480
     0.605740360  0.025551280  0.959307580
     0.605740360  0.525551280  0.040692420
     0.105621080  0.739854980  0.239934860
     0.105621080  0.239854980  0.760065140
     0.605497290  0.735540110  0.747548600
     0.605497290  0.235540110  0.252451400

  ion indices of the primitive-cell ions
   primitive index   ion index
                 1           1
                 2           2
                 3           3
                 4           4
                 5           5
                 6           6
                 7           7
                 8           8
                 9           9
                10          10

----------------------------------------------------------------------------------------

 
 
 KPOINTS: # No comment                            

Automatic generation of k-mesh.
 Grid dimensions read from file:
 generate k-points for:    6    4    4

 Generating k-lattice:

  Cartesian coordinates                     Fractional coordinates (reciprocal lattice)
     0.042526833 -0.000155608  0.000000000     0.166666667 -0.000000000  0.000000000
     0.000273916  0.044543886  0.000000000    -0.000000000  0.250000000  0.000000000
     0.000000000  0.000000000  0.044599462     0.000000000  0.000000000  0.250000000

  Length of vectors
     0.042527117  0.044544728  0.044599462

  Shift w.r.t. Gamma in fractional coordinates (k-lattice)
     0.000000000  0.000000000  0.000000000

 
 Subroutine IBZKPT returns following result:
 ===========================================
 
 Found     42 irreducible k-points:
 
 Following reciprocal coordinates:
            Coordinates               Weight
  0.000000  0.000000  0.000000      1.000000
  0.166667  0.000000  0.000000      2.000000
  0.333333 -0.000000  0.000000      2.000000
  0.500000  0.000000  0.000000      1.000000
 -0.000000  0.250000  0.000000      2.000000
  0.166667  0.250000  0.000000      2.000000
  0.333333  0.250000  0.000000      2.000000
  0.500000  0.250000  0.000000      2.000000
 -0.333333  0.250000  0.000000      2.000000
 -0.166667  0.250000  0.000000      2.000000
 -0.000000  0.500000  0.000000      1.000000
  0.166667  0.500000  0.000000      2.000000
  0.333333  0.500000  0.000000      2.000000
  0.500000  0.500000  0.000000      1.000000
  0.000000  0.000000  0.250000      2.000000
  0.166667  0.000000  0.250000      4.000000
  0.333333 -0.000000  0.250000      4.000000
  0.500000  0.000000  0.250000      2.000000
 -0.000000  0.250000  0.250000      4.000000
  0.166667  0.250000  0.250000      4.000000
  0.333333  0.250000  0.250000      4.000000
  0.500000  0.250000  0.250000      4.000000
 -0.333333  0.250000  0.250000      4.000000
 -0.166667  0.250000  0.250000      4.000000
 -0.000000  0.500000  0.250000      2.000000
  0.166667  0.500000  0.250000      4.000000
  0.333333  0.500000  0.250000      4.000000
  0.500000  0.500000  0.250000      2.000000
  0.000000  0.000000  0.500000      1.000000
  0.166667  0.000000  0.500000      2.000000
  0.333333 -0.000000  0.500000      2.000000
  0.500000  0.000000  0.500000      1.000000
 -0.000000  0.250000  0.500000      2.000000
  0.166667  0.250000  0.500000      2.000000
  0.333333  0.250000  0.500000      2.000000
  0.500000  0.250000  0.500000      2.000000
 -0.333333  0.250000  0.500000      2.000000
 -0.166667  0.250000  0.500000      2.000000
 -0.000000  0.500000  0.500000      1.000000
  0.166667  0.500000  0.500000      2.000000
  0.333333  0.500000  0.500000      2.000000
  0.500000  0.500000  0.500000      1.000000
 
 Following cartesian coordinates:
            Coordinates               Weight
  0.000000  0.000000  0.000000      1.000000
  0.042527 -0.000156  0.000000      2.000000
  0.085054 -0.000311  0.000000      2.000000
  0.127580 -0.000467  0.000000      1.000000
  0.000274  0.044544  0.000000      2.000000
  0.042801  0.044388  0.000000      2.000000
  0.085328  0.044233  0.000000      2.000000
  0.127854  0.044077  0.000000      2.000000
 -0.084780  0.044855  0.000000      2.000000
 -0.042253  0.044699  0.000000      2.000000
  0.000548  0.089088  0.000000      1.000000
  0.043075  0.088932  0.000000      2.000000
  0.085601  0.088777  0.000000      2.000000
  0.128128  0.088621  0.000000      1.000000
  0.000000  0.000000  0.044599      2.000000
  0.042527 -0.000156  0.044599      4.000000
  0.085054 -0.000311  0.044599      4.000000
  0.127580 -0.000467  0.044599      2.000000
  0.000274  0.044544  0.044599      4.000000
  0.042801  0.044388  0.044599      4.000000
  0.085328  0.044233  0.044599      4.000000
  0.127854  0.044077  0.044599      4.000000
 -0.084780  0.044855  0.044599      4.000000
 -0.042253  0.044699  0.044599      4.000000
  0.000548  0.089088  0.044599      2.000000
  0.043075  0.088932  0.044599      4.000000
  0.085601  0.088777  0.044599      4.000000
  0.128128  0.088621  0.044599      2.000000
  0.000000  0.000000  0.089199      1.000000
  0.042527 -0.000156  0.089199      2.000000
  0.085054 -0.000311  0.089199      2.000000
  0.127580 -0.000467  0.089199      1.000000
  0.000274  0.044544  0.089199      2.000000
  0.042801  0.044388  0.089199      2.000000
  0.085328  0.044233  0.089199      2.000000
  0.127854  0.044077  0.089199      2.000000
 -0.084780  0.044855  0.089199      2.000000
 -0.042253  0.044699  0.089199      2.000000
  0.000548  0.089088  0.089199      1.000000
  0.043075  0.088932  0.089199      2.000000
  0.085601  0.088777  0.089199      2.000000
  0.128128  0.088621  0.089199      1.000000
 
 
 Subroutine IBZKPT_HF returns following result:
 ==============================================
 
 Found     96 k-points in 1st BZ
 the following     96 k-points will be used (e.g. in the exchange kernel)
 Following reciprocal coordinates:   # in IRBZ
  0.000000  0.000000  0.000000    0.01041667   1 t-inv F
  0.166667  0.000000  0.000000    0.01041667   2 t-inv F
  0.333333 -0.000000  0.000000    0.01041667   3 t-inv F
  0.500000  0.000000  0.000000    0.01041667   4 t-inv F
 -0.000000  0.250000  0.000000    0.01041667   5 t-inv F
  0.166667  0.250000  0.000000    0.01041667   6 t-inv F
  0.333333  0.250000  0.000000    0.01041667   7 t-inv F
  0.500000  0.250000  0.000000    0.01041667   8 t-inv F
 -0.333333  0.250000  0.000000    0.01041667   9 t-inv F
 -0.166667  0.250000  0.000000    0.01041667  10 t-inv F
 -0.000000  0.500000  0.000000    0.01041667  11 t-inv F
  0.166667  0.500000  0.000000    0.01041667  12 t-inv F
  0.333333  0.500000  0.000000    0.01041667  13 t-inv F
  0.500000  0.500000  0.000000    0.01041667  14 t-inv F
  0.000000  0.000000  0.250000    0.01041667  15 t-inv F
  0.166667  0.000000  0.250000    0.01041667  16 t-inv F
  0.333333 -0.000000  0.250000    0.01041667  17 t-inv F
  0.500000  0.000000  0.250000    0.01041667  18 t-inv F
 -0.000000  0.250000  0.250000    0.01041667  19 t-inv F
  0.166667  0.250000  0.250000    0.01041667  20 t-inv F
  0.333333  0.250000  0.250000    0.01041667  21 t-inv F
  0.500000  0.250000  0.250000    0.01041667  22 t-inv F
 -0.333333  0.250000  0.250000    0.01041667  23 t-inv F
 -0.166667  0.250000  0.250000    0.01041667  24 t-inv F
 -0.000000  0.500000  0.250000    0.01041667  25 t-inv F
  0.166667  0.500000  0.250000    0.01041667  26 t-inv F
  0.333333  0.500000  0.250000    0.01041667  27 t-inv F
  0.500000  0.500000  0.250000    0.01041667  28 t-inv F
  0.000000  0.000000  0.500000    0.01041667  29 t-inv F
  0.166667  0.000000  0.500000    0.01041667  30 t-inv F
  0.333333 -0.000000  0.500000    0.01041667  31 t-inv F
  0.500000  0.000000  0.500000    0.01041667  32 t-inv F
 -0.000000  0.250000  0.500000    0.01041667  33 t-inv F
  0.166667  0.250000  0.500000    0.01041667  34 t-inv F
  0.333333  0.250000  0.500000    0.01041667  35 t-inv F
  0.500000  0.250000  0.500000    0.01041667  36 t-inv F
 -0.333333  0.250000  0.500000    0.01041667  37 t-inv F
 -0.166667  0.250000  0.500000    0.01041667  38 t-inv F
 -0.000000  0.500000  0.500000    0.01041667  39 t-inv F
  0.166667  0.500000  0.500000    0.01041667  40 t-inv F
  0.333333  0.500000  0.500000    0.01041667  41 t-inv F
  0.500000  0.500000  0.500000    0.01041667  42 t-inv F
  0.000000  0.000000 -0.250000    0.01041667  15 t-inv F
  0.166667  0.000000 -0.250000    0.01041667  16 t-inv F
  0.333333 -0.000000 -0.250000    0.01041667  17 t-inv F
  0.500000  0.000000 -0.250000    0.01041667  18 t-inv F
 -0.000000  0.250000 -0.250000    0.01041667  19 t-inv F
  0.166667  0.250000 -0.250000    0.01041667  20 t-inv F
  0.333333  0.250000 -0.250000    0.01041667  21 t-inv F
  0.500000  0.250000 -0.250000    0.01041667  22 t-inv F
 -0.333333  0.250000 -0.250000    0.01041667  23 t-inv F
 -0.166667  0.250000 -0.250000    0.01041667  24 t-inv F
 -0.000000  0.500000 -0.250000    0.01041667  25 t-inv F
  0.166667  0.500000 -0.250000    0.01041667  26 t-inv F
  0.333333  0.500000 -0.250000    0.01041667  27 t-inv F
  0.500000  0.500000 -0.250000    0.01041667  28 t-inv F
 -0.166667 -0.000000  0.000000    0.01041667   2 t-inv T
 -0.333333  0.000000  0.000000    0.01041667   3 t-inv T
  0.000000 -0.250000  0.000000    0.01041667   5 t-inv T
 -0.166667 -0.250000  0.000000    0.01041667   6 t-inv T
 -0.333333 -0.250000  0.000000    0.01041667   7 t-inv T
 -0.500000 -0.250000  0.000000    0.01041667   8 t-inv T
  0.333333 -0.250000  0.000000    0.01041667   9 t-inv T
  0.166667 -0.250000  0.000000    0.01041667  10 t-inv T
 -0.166667 -0.500000  0.000000    0.01041667  12 t-inv T
 -0.333333 -0.500000  0.000000    0.01041667  13 t-inv T
 -0.166667 -0.000000 -0.250000    0.01041667  16 t-inv T
 -0.166667 -0.000000  0.250000    0.01041667  16 t-inv T
 -0.333333  0.000000 -0.250000    0.01041667  17 t-inv T
 -0.333333  0.000000  0.250000    0.01041667  17 t-inv T
  0.000000 -0.250000 -0.250000    0.01041667  19 t-inv T
  0.000000 -0.250000  0.250000    0.01041667  19 t-inv T
 -0.166667 -0.250000 -0.250000    0.01041667  20 t-inv T
 -0.166667 -0.250000  0.250000    0.01041667  20 t-inv T
 -0.333333 -0.250000 -0.250000    0.01041667  21 t-inv T
 -0.333333 -0.250000  0.250000    0.01041667  21 t-inv T
 -0.500000 -0.250000 -0.250000    0.01041667  22 t-inv T
 -0.500000 -0.250000  0.250000    0.01041667  22 t-inv T
  0.333333 -0.250000 -0.250000    0.01041667  23 t-inv T
  0.333333 -0.250000  0.250000    0.01041667  23 t-inv T
  0.166667 -0.250000 -0.250000    0.01041667  24 t-inv T
  0.166667 -0.250000  0.250000    0.01041667  24 t-inv T
 -0.166667 -0.500000 -0.250000    0.01041667  26 t-inv T
 -0.166667 -0.500000  0.250000    0.01041667  26 t-inv T
 -0.333333 -0.500000 -0.250000    0.01041667  27 t-inv T
 -0.333333 -0.500000  0.250000    0.01041667  27 t-inv T
 -0.166667 -0.000000 -0.500000    0.01041667  30 t-inv T
 -0.333333  0.000000 -0.500000    0.01041667  31 t-inv T
  0.000000 -0.250000 -0.500000    0.01041667  33 t-inv T
 -0.166667 -0.250000 -0.500000    0.01041667  34 t-inv T
 -0.333333 -0.250000 -0.500000    0.01041667  35 t-inv T
 -0.500000 -0.250000 -0.500000    0.01041667  36 t-inv T
  0.333333 -0.250000 -0.500000    0.01041667  37 t-inv T
  0.166667 -0.250000 -0.500000    0.01041667  38 t-inv T
 -0.166667 -0.500000 -0.500000    0.01041667  40 t-inv T
 -0.333333 -0.500000 -0.500000    0.01041667  41 t-inv T


--------------------------------------------------------------------------------------------------------




 Dimension of arrays:
   k-points           NKPTS =     42   k-points in BZ     NKDIM =     96   number of bands    NBANDS=     45
   number of dos      NEDOS =   2000   number of ions     NIONS =     10
   non local maximal  LDIM  =      6   non local SUM 2l+1 LMDIM =     18
   total plane-waves  NPLWV =  52920
   max r-space proj   IRMAX =      1   max aug-charges    IRDMAX=  13721
   dimension x,y,z NGX =    30 NGY =   42 NGZ =   42
   dimension x,y,z NGXF=    60 NGYF=   84 NGZF=   84
   support grid    NGXF=    60 NGYF=   84 NGZF=   84
   ions per type =               4   2   2   2
   NGX,Y,Z   is equivalent  to a cutoff of  12.73, 12.44, 12.46 a.u.
   NGXF,Y,Z  is equivalent  to a cutoff of  25.45, 24.88, 24.91 a.u.

 SYSTEM =  unknown system                          
 POSCAR =  # Compound: Li4Fe2S2O2. Old comment: Li2

 Startparameter for this run:
   NWRITE =      1    write-flag & timer
   PREC   = accura    normal or accurate (medium, high low for compatibility)
   ISTART =      0    job   : 0-new  1-cont  2-samecut
   ICHARG =      2    charge: 1-file 2-atom 10-const
   ISPIN  =      2    spin polarized calculation?
   LNONCOLLINEAR =      F non collinear calculations
   LSORBIT =      F    spin-orbit coupling
   INIWAV =      1    electr: 0-lowe 1-rand  2-diag
   LASPH  =      T    aspherical Exc in radial PAW
   METAGGA=      F    non-selfconsistent MetaGGA calc.

 Electronic Relaxation 1
   ENCUT  =  520.0 eV  38.22 Ry    6.18 a.u.   7.29 10.44 10.42*2*pi/ulx,y,z
   ENINI  =  520.0     initial cutoff
   ENAUG  =  628.9 eV  augmentation charge cutoff
   NELM   =    200;   NELMIN=  4; NELMDL= -5     # of ELM steps 
   EDIFF  = 0.1E-04   stopping-criterion for ELM
   LREAL  =      F    real-space projection
   NLSPLINE    = F    spline interpolate recip. space projectors
   LCOMPAT=      F    compatible to vasp.4.4
   GGA_COMPAT  = T    GGA compatible to vasp.4.4-vasp.4.6
   LMAXPAW     = -100 max onsite density
   LMAXMIX     =    2 max onsite mixed and CHGCAR
   VOSKOWN=      0    Vosko Wilk Nusair interpolation
   ROPT   =    0.00000   0.00000   0.00000   0.00000
 Ionic relaxation
   EDIFFG = -.3E-01   stopping-criterion for IOM
   NSW    =     60    number of steps for IOM
   NBLOCK =      1;   KBLOCK =     60    inner block; outer block 
   IBRION =      2    ionic relax: 0-MD 1-quasi-New 2-CG
   NFREE  =      1    steps in history (QN), initial steepest desc. (CG)
   ISIF   =      3    stress and relaxation
   IWAVPR =     11    prediction:  0-non 1-charg 2-wave 3-comb
   ISYM   =      3    0-nonsym 1-usesym 2-fastsym
   LCORR  =      T    Harris-Foulkes like correction to forces

   POTIM  = 0.5000    time-step for ionic-motion
   TEIN   =    0.0    initial temperature
   TEBEG  =    0.0;   TEEND  =   0.0 temperature during run
   SMASS  =  -3.00    Nose mass-parameter (am)
   estimated Nose-frequenzy (Omega)   =  0.10E-29 period in steps = 0.13E+47 mass=  -0.351E-27a.u.
   SCALEE = 1.0000    scale energy and forces
   NPACO  =    256;   APACO  = 16.0  distance and # of slots for P.C.
   PSTRESS=    0.0 pullay stress

  Mass of Ions in am
   POMASS =   7.01 55.85 32.07 16.00
  Ionic Valenz
   ZVAL   =   3.00 14.00  6.00  6.00
  Atomic Wigner-Seitz radii
   RWIGS  =  -1.00 -1.00 -1.00 -1.00
  virtual crystal weights 
   VCA    =   1.00  1.00  1.00  1.00
   NELECT =      64.0000    total number of electrons
   NUPDOWN=      -1.0000    fix difference up-down

 DOS related values:
   EMIN   =  10.00;   EMAX   =-10.00  energy-range for DOS
   EFERMI =   0.00
   ISMEAR =     0;   SIGMA  =   0.05  broadening in eV -4-tet -1-fermi 0-gaus

 Electronic relaxation 2 (details)
   IALGO  =     58    algorithm
   LDIAG  =      T    sub-space diagonalisation (order eigenvalues)
   LSUBROT=      F    optimize rotation matrix (better conditioning)
   TURBO    =      0    0=normal 1=particle mesh
   IRESTART =      0    0=no restart 2=restart with 2 vectors
   NREBOOT  =      0    no. of reboots
   NMIN     =      0    reboot dimension
   EREF     =   0.00    reference energy to select bands
   IMIX   =      4    mixing-type and parameters
     AMIX     =   0.40;   BMIX     =  1.00
     AMIX_MAG =   1.60;   BMIX_MAG =  1.00
     AMIN     =   0.10
     WC   =   100.;   INIMIX=   1;  MIXPRE=   1;  MAXMIX= -45

 Intra band minimization:
   WEIMIN = 0.0010     energy-eigenvalue tresh-hold
   EBREAK =  0.56E-07  absolut break condition
   DEPER  =   0.30     relativ break condition  

   TIME   =   0.30     timestep for ELM

  volume/ion in A,a.u.               =      12.33        83.20
  Fermi-wavevector in a.u.,A,eV,Ry     =   1.315696  2.486304 23.552431  1.731055
  Thomas-Fermi vector in A             =   2.445860
 
 Write flags
   LWAVE        =      T    write WAVECAR
   LDOWNSAMPLE  =      F    k-point downsampling of WAVECAR
   LCHARG       =      T    write CHGCAR
   LVTOT        =      F    write LOCPOT, total local potential
   LVHAR        =      T    write LOCPOT, Hartree potential only
   LELF         =      F    write electronic localiz. function (ELF)
   LORBIT       =     11    0 simple, 1 ext, 2 COOP (PROOUT), +10 PAW based schemes


 Dipole corrections
   LMONO  =      F    monopole corrections only (constant potential shift)
   LDIPOL =      F    correct potential (dipole corrections)
   IDIPOL =      0    1-x, 2-y, 3-z, 4-all directions 
   EPSILON=  1.0000000 bulk dielectric constant

 Exchange correlation treatment:
   GGA     =    PE    GGA type
   LEXCH   =     8    internal setting for exchange type
   VOSKOWN=      0    Vosko Wilk Nusair interpolation
   EXXOEP  =     0    0=HF, 1=EXX-LHF (local Hartree Fock) 2=EXX OEP
   LHFCALC =     T    Hartree Fock is set to
   LSYMGRAD=     F    symmetrize gradient (conserves proper symmetry)
   PRECFOCK=fast      Normal, Fast or Accurate (Low or Medium for compatibility)
   LRHFCALC=     F    long range Hartree Fock
   LRSCOR  =     F    long range correlation only (use DFT for short range part)
   LTHOMAS =     F    Thomas Fermi screening in HF
   LMODELHF=     F    short range full HF, long range fraction AEXX
   LFOCKACE=     T    use Adeptively-Compressed-Exchange operator
   ENCUT4O =  -1.0   cutoff for four orbital integrals eV
   LMAXFOCK=     4    L truncation for augmentation on plane wave grid
   LMAXFOCKAE=  -1    L truncation for all-electron charge restoration on plane wave grid
   NMAXFOCKAE=   1    number of basis functions for all-electron charge restoration
   LFOCKAEDFT=     F  apply the AE augmentation even for DFT
   NKREDX  =     1    reduce k-point grid by
   NKREDY  =     1    reduce k-point grid by
   NKREDZ  =     1    reduce k-point grid by
   SHIFTRED=     F    shift reduced grid of Gamma
   HFKIDENT=     F    idential grid for each k-point
   ODDONLY =     F    use only odd q-grid points
   EVENONLY=     F    use only even q-grid points
   HFALPHA =   -1.0000 decay constant for conv. correction
   MCALPHA =    0.0000 extent of test-charge in conv. correction in multipole expansion
   AEXX    =    0.2500 exact exchange contribution
   HFSCREEN=    0.2070 screening length (either q_TF or 0.3 A-1)
   HFSCREENC=   0.2070 screening length for correlation (either q_TF or 0.3 A-1)
   HFRCUT  =    0.0000 spherical cutoff for potential kernel
   ALDAX   =    0.7500 LDA exchange part
   AGGAX   =    0.7500 GGA exchange part
   ALDAC   =    1.0000 LDA correlation
   AGGAC   =    1.0000 GGA correlation
   ENCUTFOCK=  -1.0 apply spherical cutoff to Coloumb kernel
   NBANDSGWLOW=     1    first orbital included in HF term
   NBLOCK_FOCK=    64    blocking factor in FOCK_ACC
 Linear response parameters
   LEPSILON=     F    determine dielectric tensor
   LRPA    =     F    only Hartree local field effects (RPA)
   LNABLA  =     F    use nabla operator in PAW spheres
   LVEL    =     F    velocity operator in full k-point grid
   LINTERFAST=   F  fast interpolation
   KINTER  =     0    interpolate to denser k-point grid
   CSHIFT  =0.1000    complex shift for real part using Kramers Kronig
   OMEGAMAX=  -1.0    maximum frequency
   DEG_THRESHOLD= 0.2000000E-02 threshold for treating states as degnerate
   RTIME   =   -0.100 relaxation time in fs
  (WPLASMAI=    0.000 imaginary part of plasma frequency in eV, 0.658/RTIME)
   DFIELD  = 0.0000000 0.0000000 0.0000000 field for delta impulse in time
 
 Orbital magnetization related:
   ORBITALMAG=     F  switch on orbital magnetization
   LCHIMAG   =     F  perturbation theory with respect to B field
   DQ        =  0.001000  dq finite difference perturbation B field
   LLRAUG    =     F  two centre corrections for induced B field



--------------------------------------------------------------------------------------------------------


 conjugate gradient relaxation of ions
 charge density and potential will be updated during run
 spin polarized calculation
 Conjugate gradient for all bands (Freysoldt, et al. PRB 79, 241103 (2009))
 preconditioned conjugated gradient                                        
 perform sub-space diagonalisation
    before iterative eigenvector-optimisation
 modified Broyden-mixing scheme, WC =      100.0
 initial mixing is a Kerker type mixing with AMIX =  0.4000 and BMIX =      1.0000
 Hartree-type preconditioning will be used
 using additional bands           13
 reciprocal scheme for non local part
 use partial core corrections
 no Harris-corrections to forces 
 use gradient corrections 
 use of overlap-Matrix (Vanderbilt PP)
 Gauss-broadening in eV      SIGMA  =   0.05


--------------------------------------------------------------------------------------------------------


  energy-cutoff  :      520.00
  volume of cell :      123.29
      direct lattice vectors                 reciprocal lattice vectors
     3.919006100 -0.024099320  0.000000000     0.255160996 -0.000933647  0.000000000
     0.020535740  5.612316280  0.000000000     0.001095663  0.178175543  0.000000000
     0.000000000  0.000000000  5.605448750     0.000000000  0.000000000  0.178397849

  length of vectors
     3.919080197  5.612353851  5.605448750     0.255162704  0.178178912  0.178397849


 
 k-points in units of 2pi/SCALE and weight: # No comment                            
   0.00000000  0.00000000  0.00000000       0.010
   0.04252683 -0.00015561  0.00000000       0.021
   0.08505367 -0.00031122  0.00000000       0.021
   0.12758050 -0.00046682  0.00000000       0.010
   0.00027392  0.04454389  0.00000000       0.021
   0.04280075  0.04438828  0.00000000       0.021
   0.08532758  0.04423267  0.00000000       0.021
   0.12785441  0.04407706  0.00000000       0.021
  -0.08477975  0.04485510  0.00000000       0.021
  -0.04225292  0.04469949  0.00000000       0.021
   0.00054783  0.08908777  0.00000000       0.010
   0.04307466  0.08893216  0.00000000       0.021
   0.08560150  0.08877656  0.00000000       0.021
   0.12812833  0.08862095  0.00000000       0.010
   0.00000000  0.00000000  0.04459946       0.021
   0.04252683 -0.00015561  0.04459946       0.042
   0.08505367 -0.00031122  0.04459946       0.042
   0.12758050 -0.00046682  0.04459946       0.021
   0.00027392  0.04454389  0.04459946       0.042
   0.04280075  0.04438828  0.04459946       0.042
   0.08532758  0.04423267  0.04459946       0.042
   0.12785441  0.04407706  0.04459946       0.042
  -0.08477975  0.04485510  0.04459946       0.042
  -0.04225292  0.04469949  0.04459946       0.042
   0.00054783  0.08908777  0.04459946       0.021
   0.04307466  0.08893216  0.04459946       0.042
   0.08560150  0.08877656  0.04459946       0.042
   0.12812833  0.08862095  0.04459946       0.021
   0.00000000  0.00000000  0.08919892       0.010
   0.04252683 -0.00015561  0.08919892       0.021
   0.08505367 -0.00031122  0.08919892       0.021
   0.12758050 -0.00046682  0.08919892       0.010
   0.00027392  0.04454389  0.08919892       0.021
   0.04280075  0.04438828  0.08919892       0.021
   0.08532758  0.04423267  0.08919892       0.021
   0.12785441  0.04407706  0.08919892       0.021
  -0.08477975  0.04485510  0.08919892       0.021
  -0.04225292  0.04469949  0.08919892       0.021
   0.00054783  0.08908777  0.08919892       0.010
   0.04307466  0.08893216  0.08919892       0.021
   0.08560150  0.08877656  0.08919892       0.021
   0.12812833  0.08862095  0.08919892       0.010
 
 k-points in reciprocal lattice and weights: # No comment                            
   0.00000000  0.00000000  0.00000000       0.010
   0.16666667  0.00000000  0.00000000       0.021
   0.33333333 -0.00000000  0.00000000       0.021
   0.50000000  0.00000000  0.00000000       0.010
  -0.00000000  0.25000000  0.00000000       0.021
   0.16666667  0.25000000  0.00000000       0.021
   0.33333333  0.25000000  0.00000000       0.021
   0.50000000  0.25000000  0.00000000       0.021
  -0.33333333  0.25000000  0.00000000       0.021
  -0.16666667  0.25000000  0.00000000       0.021
  -0.00000000  0.50000000  0.00000000       0.010
   0.16666667  0.50000000  0.00000000       0.021
   0.33333333  0.50000000  0.00000000       0.021
   0.50000000  0.50000000  0.00000000       0.010
   0.00000000  0.00000000  0.25000000       0.021
   0.16666667  0.00000000  0.25000000       0.042
   0.33333333 -0.00000000  0.25000000       0.042
   0.50000000  0.00000000  0.25000000       0.021
  -0.00000000  0.25000000  0.25000000       0.042
   0.16666667  0.25000000  0.25000000       0.042
   0.33333333  0.25000000  0.25000000       0.042
   0.50000000  0.25000000  0.25000000       0.042
  -0.33333333  0.25000000  0.25000000       0.042
  -0.16666667  0.25000000  0.25000000       0.042
  -0.00000000  0.50000000  0.25000000       0.021
   0.16666667  0.50000000  0.25000000       0.042
   0.33333333  0.50000000  0.25000000       0.042
   0.50000000  0.50000000  0.25000000       0.021
   0.00000000  0.00000000  0.50000000       0.010
   0.16666667  0.00000000  0.50000000       0.021
   0.33333333 -0.00000000  0.50000000       0.021
   0.50000000  0.00000000  0.50000000       0.010
  -0.00000000  0.25000000  0.50000000       0.021
   0.16666667  0.25000000  0.50000000       0.021
   0.33333333  0.25000000  0.50000000       0.021
   0.50000000  0.25000000  0.50000000       0.021
  -0.33333333  0.25000000  0.50000000       0.021
  -0.16666667  0.25000000  0.50000000       0.021
  -0.00000000  0.50000000  0.50000000       0.010
   0.16666667  0.50000000  0.50000000       0.021
   0.33333333  0.50000000  0.50000000       0.021
   0.50000000  0.50000000  0.50000000       0.010
 
 position of ions in fractional coordinates (direct lattice) 
   0.10641877  0.72689131  0.71439311
   0.10641877  0.22689131  0.28560689
   0.60809350  0.43580432  0.54687252
   0.60809350  0.93580432  0.45312748
   0.60574036  0.02555128  0.95930758
   0.60574036  0.52555128  0.04069242
   0.10562108  0.73985498  0.23993486
   0.10562108  0.23985498  0.76006514
   0.60549729  0.73554011  0.74754860
   0.60549729  0.23554011  0.25245140
 
 position of ions in cartesian coordinates  (Angst):
   0.43198306  4.07697931  4.00449397
   0.42171519  1.27082117  1.60095478
   2.39207170  2.43121704  3.06546588
   2.40233957  5.23737518  2.53998287
   2.37442488  0.12880393  5.37734948
   2.38469275  2.93496207  0.22809927
   0.42912313  4.14975475  1.34494256
   0.41885526  1.34359661  4.26050619
   2.38805243  4.11349166  4.19034537
   2.37778456  1.30733352  1.41510338
 


--------------------------------------------------------------------------------------------------------


 k-point   1 :   0.0000 0.0000 0.0000  plane waves:    3347
 k-point   2 :   0.1667 0.0000 0.0000  plane waves:    3327
 k-point   3 :   0.3333-0.0000 0.0000  plane waves:    3325
 k-point   4 :   0.5000 0.0000 0.0000  plane waves:    3310
 k-point   5 :  -0.0000 0.2500 0.0000  plane waves:    3307
 k-point   6 :   0.1667 0.2500 0.0000  plane waves:    3318
 k-point   7 :   0.3333 0.2500 0.0000  plane waves:    3317
 k-point   8 :   0.5000 0.2500 0.0000  plane waves:    3322
 k-point   9 :  -0.3333 0.2500 0.0000  plane waves:    3313
 k-point  10 :  -0.1667 0.2500 0.0000  plane waves:    3333
 k-point  11 :  -0.0000 0.5000 0.0000  plane waves:    3322
 k-point  12 :   0.1667 0.5000 0.0000  plane waves:    3320
 k-point  13 :   0.3333 0.5000 0.0000  plane waves:    3314
 k-point  14 :   0.5000 0.5000 0.0000  plane waves:    3348
 k-point  15 :   0.0000 0.0000 0.2500  plane waves:    3307
 k-point  16 :   0.1667 0.0000 0.2500  plane waves:    3322
 k-point  17 :   0.3333-0.0000 0.2500  plane waves:    3319
 k-point  18 :   0.5000 0.0000 0.2500  plane waves:    3316
 k-point  19 :  -0.0000 0.2500 0.2500  plane waves:    3329
 k-point  20 :   0.1667 0.2500 0.2500  plane waves:    3333
 k-point  21 :   0.3333 0.2500 0.2500  plane waves:    3309
 k-point  22 :   0.5000 0.2500 0.2500  plane waves:    3315
 k-point  23 :  -0.3333 0.2500 0.2500  plane waves:    3311
 k-point  24 :  -0.1667 0.2500 0.2500  plane waves:    3332
 k-point  25 :  -0.0000 0.5000 0.2500  plane waves:    3322
 k-point  26 :   0.1667 0.5000 0.2500  plane waves:    3320
 k-point  27 :   0.3333 0.5000 0.2500  plane waves:    3309
 k-point  28 :   0.5000 0.5000 0.2500  plane waves:    3326
 k-point  29 :   0.0000 0.0000 0.5000  plane waves:    3320
 k-point  30 :   0.1667 0.0000 0.5000  plane waves:    3310
 k-point  31 :   0.3333-0.0000 0.5000  plane waves:    3312
 k-point  32 :   0.5000 0.0000 0.5000  plane waves:    3340
 k-point  33 :  -0.0000 0.2500 0.5000  plane waves:    3324
 k-point  34 :   0.1667 0.2500 0.5000  plane waves:    3324
 k-point  35 :   0.3333 0.2500 0.5000  plane waves:    3310
 k-point  36 :   0.5000 0.2500 0.5000  plane waves:    3320
 k-point  37 :  -0.3333 0.2500 0.5000  plane waves:    3314
 k-point  38 :  -0.1667 0.2500 0.5000  plane waves:    3330
 k-point  39 :  -0.0000 0.5000 0.5000  plane waves:    3300
 k-point  40 :   0.1667 0.5000 0.5000  plane waves:    3308
 k-point  41 :   0.3333 0.5000 0.5000  plane waves:    3320
 k-point  42 :   0.5000 0.5000 0.5000  plane waves:    3288

 maximum and minimum number of plane-waves per node :      3348     3288

 maximum number of plane-waves:      3348
 maximum index in each direction: 
   IXMAX=    7   IYMAX=   10   IZMAX=   10
   IXMIN=   -7   IYMIN=  -10   IZMIN=  -10


 serial   3D FFT for wavefunctions
 parallel 3D FFT for charge:
    minimum data exchange during FFTs selected (reduces bandwidth)


 FFT grid for exact exchange (Hartree Fock) 
  NGX = 16; NGY = 24; NGZ = 24

 
 Radii for the augmentation spheres in the non-local exchange
 for species   1 augmentation radius   0.956 (default was   0.708)
       energy cutoff for augmentation   2080.0
 for species   2 augmentation radius   1.283 (default was   0.950)
       energy cutoff for augmentation   2080.0
 for species   3 augmentation radius   1.309 (default was   0.970)
       energy cutoff for augmentation   2080.0
 for species   4 augmentation radius   0.974 (default was   0.722)
       energy cutoff for augmentation   2080.0
 Maximum index for augmentation-charges in exchange          706
  SETUP_FOCK is finished

 total amount of memory used by VASP MPI-rank0   193078. kBytes
=======================================================================

   base      :      30000. kBytes
   nonl-proj :      81530. kBytes
   fftplans  :       1902. kBytes
   grid      :       9109. kBytes
   one-center:        311. kBytes
   HF        :        259. kBytes
   nonlr-proj:        658. kBytes
   wavefun   :      69309. kBytes
 
     INWAV:  cpu time    0.0000: real time    0.0000
 Broyden mixing: mesh for mixing (old mesh)
   NGX = 15   NGY = 21   NGZ = 21
  (NGX  = 60   NGY  = 84   NGZ  = 84)
  gives a total of   6615 points

 initial charge density was supplied:
 charge density of overlapping atoms calculated
 number of electron      64.0000000 magnetization      14.8000000
 keeping initial charge density in first step


--------------------------------------------------------------------------------------------------------


 Maximum index for augmentation-charges         1642 (set IRDMAX)


--------------------------------------------------------------------------------------------------------


 First call to EWALD:  gamma=   0.356
 Maximum number of real-space cells 3x 2x 2
 Maximum number of reciprocal cells 2x 3x 3

    FEWALD:  cpu time    0.0016: real time    0.0016


--------------------------------------- Iteration      1(   1)  ---------------------------------------


    POTLOK:  cpu time    0.0722: real time    0.0728
    SETDIJ:  cpu time    0.5752: real time    0.5767
    TRIAL :  cpu time    0.3341: real time    0.3482
    CORREC:  cpu time    0.0019: real time    0.0019
    --------------------------------------------
      LOOP:  cpu time    1.0018: real time    1.0192

 eigenvalue-minimisations  :  7884
 total energy-change (2. order) :-0.3432815E+03  (-0.3518021E+04)
 number of electron      64.0000000 magnetization      14.8000000
 augmentation part       64.0000000 magnetization      14.8000000

 Free energy of the ion-electron system (eV)
  ---------------------------------------------------
  alpha Z        PSCENC =       159.04390683
  Ewald energy   TEWEN  =     -4036.88862147
  -Hartree energ DENC   =     -2477.57351250
  -exchange      EXHF   =         0.00000000
  -V(xc)+E(xc)   XCENC  =       276.48084995
  PAW double counting   =      5444.54584303    -6562.38420355
  entropy T*S    EENTRO =        -0.00288254
  eigenvalues    EBANDS =      -269.49114813
  atomic energy  EATOM  =      7122.98826804
  ---------------------------------------------------
  free energy    TOTEN  =      -343.28150034 eV

  energy without entropy =     -343.27861781  energy(sigma->0) =     -343.28005907
  exchange ACFDT corr.  =         0.00000000  see jH, gK, PRB 81, 115126


--------------------------------------------------------------------------------------------------------




--------------------------------------- Iteration      1(   2)  ---------------------------------------


    TRIAL :  cpu time    0.2835: real time    0.2841
    CORREC:  cpu time    0.0018: real time    0.0018
    --------------------------------------------
      LOOP:  cpu time    0.2891: real time    0.2938

 eigenvalue-minimisations  :  7632
 total energy-change (2. order) :-0.6648125E+03  (-0.6244937E+03)
 number of electron      64.0000000 magnetization      14.8000000
 augmentation part       64.0000000 magnetization      14.8000000

 Free energy of the ion-electron system (eV)
  ---------------------------------------------------
  alpha Z        PSCENC =       159.04390683
  Ewald energy   TEWEN  =     -4036.88862147
  -Hartree energ DENC   =     -2477.57351250
  -exchange      EXHF   =         0.00000000
  -V(xc)+E(xc)   XCENC  =       276.48084995
  PAW double counting   =      5444.54584303    -6562.38420355
  entropy T*S    EENTRO =        -0.00538132
  eigenvalues    EBANDS =      -934.30116860
  atomic energy  EATOM  =      7122.98826804
  ---------------------------------------------------
  free energy    TOTEN  =     -1008.09401960 eV

  energy without entropy =    -1008.08863828  energy(sigma->0) =    -1008.09132894
  exchange ACFDT corr.  =         0.00000000  see jH, gK, PRB 81, 115126


--------------------------------------------------------------------------------------------------------




--------------------------------------- Iteration      1(   3)  ---------------------------------------


    TRIAL :  cpu time    0.3281: real time    0.3288
    CORREC:  cpu time    0.0019: real time    0.0019
    --------------------------------------------
      LOOP:  cpu time    0.3367: real time    0.3392

 eigenvalue-minimisations  :  9936
 total energy-change (2. order) :-0.7671807E+02  (-0.7532549E+02)
 number of electron      64.0000000 magnetization      14.8000000
 augmentation part       64.0000000 magnetization      14.8000000

 Free energy of the ion-electron system (eV)
  ---------------------------------------------------
  alpha Z        PSCENC =       159.04390683
  Ewald energy   TEWEN  =     -4036.88862147
  -Hartree energ DENC   =     -2477.57351250
  -exchange      EXHF   =         0.00000000
  -V(xc)+E(xc)   XCENC  =       276.48084995
  PAW double counting   =      5444.54584303    -6562.38420355
  entropy T*S    EENTRO =        -0.00628317
  eigenvalues    EBANDS =     -1011.01833786
  atomic energy  EATOM  =      7122.98826804
  ---------------------------------------------------
  free energy    TOTEN  =     -1084.81209071 eV

  energy without entropy =    -1084.80580754  energy(sigma->0) =    -1084.80894913
  exchange ACFDT corr.  =         0.00000000  see jH, gK, PRB 81, 115126


--------------------------------------------------------------------------------------------------------




--------------------------------------- Iteration      1(   4)  ---------------------------------------


    TRIAL :  cpu time    0.3710: real time    0.3719
    CORREC:  cpu time    0.0018: real time    0.0018
    --------------------------------------------
      LOOP:  cpu time    0.3743: real time    0.3804

 eigenvalue-minimisations  : 12681
 total energy-change (2. order) :-0.8990894E+01  (-0.8896339E+01)
 number of electron      64.0000000 magnetization      14.8000000
 augmentation part       64.0000000 magnetization      14.8000000

 Free energy of the ion-electron system (eV)
  ---------------------------------------------------
  alpha Z        PSCENC =       159.04390683
  Ewald energy   TEWEN  =     -4036.88862147
  -Hartree energ DENC   =     -2477.57351250
  -exchange      EXHF   =         0.00000000
  -V(xc)+E(xc)   XCENC  =       276.48084995
  PAW double counting   =      5444.54584303    -6562.38420355
  entropy T*S    EENTRO =        -0.00649903
  eigenvalues    EBANDS =     -1020.00901642
  atomic energy  EATOM  =      7122.98826804
  ---------------------------------------------------
  free energy    TOTEN  =     -1093.80298513 eV

  energy without entropy =    -1093.79648610  energy(sigma->0) =    -1093.79973562
  exchange ACFDT corr.  =         0.00000000  see jH, gK, PRB 81, 115126


--------------------------------------------------------------------------------------------------------




--------------------------------------- Iteration      1(   5)  ---------------------------------------


    POTLOK:  cpu time    0.1320: real time    0.1323
    SETDIJ:  cpu time    1.1061: real time    1.1087
    TRIAL :  cpu time   24.1362: real time   24.1960
    CORREC:  cpu time    0.0017: real time    0.0017
    CHARGE:  cpu time    0.0436: real time    0.0437
    --------------------------------------------
      LOOP:  cpu time   25.4204: real time   25.4883

 eigenvalue-minimisations  :  8946
 total energy-change (2. order) : 0.1013749E+04  (-0.2549435E+01)
 number of electron      63.9999985 magnetization       9.0413646
 augmentation part       19.3902580 magnetization       5.9087109

 Free energy of the ion-electron system (eV)
  ---------------------------------------------------
  alpha Z        PSCENC =       159.04390683
  Ewald energy   TEWEN  =     -4036.88862147
  -Hartree energ DENC   =     -2477.57351250
  -exchange      EXHF   =       191.26282741
  -V(xc)+E(xc)   XCENC  =       210.52600911
  PAW double counting   =      5507.16821310    -5709.19656030
  entropy T*S    EENTRO =        -0.00411461
  eigenvalues    EBANDS =     -1047.38049426
  atomic energy  EATOM  =      7122.98826804
  ---------------------------------------------------
  free energy    TOTEN  =       -80.05407866 eV

  energy without entropy =      -80.04996405  energy(sigma->0) =      -80.05202135
  exchange ACFDT corr.  =        -0.01224342  see jH, gK, PRB 81, 115126


--------------------------------------------------------------------------------------------------------




--------------------------------------- Iteration      1(   6)  ---------------------------------------


    POTLOK:  cpu time    0.1341: real time    0.1345
    SETDIJ:  cpu time    1.1078: real time    1.1104
    TRIAL :  cpu time   24.1770: real time   24.2371
    CORREC:  cpu time   25.0666: real time   25.1298
    CHARGE:  cpu time    0.0430: real time    0.0431
    --------------------------------------------
      LOOP:  cpu time   50.5322: real time   50.6641

 eigenvalue-minimisations  :     0
 total energy-change (2. order) : 0.4794772E+02  (-0.2979510E+02)
 number of electron      63.9999986 magnetization       8.1487668
 augmentation part       20.8111067 magnetization       6.0424048

 Free energy of the ion-electron system (eV)
  ---------------------------------------------------
  alpha Z        PSCENC =       159.04390683
  Ewald energy   TEWEN  =     -4036.88862147
  -Hartree energ DENC   =     -2196.52453543
  -exchange      EXHF   =       188.75931653
  -V(xc)+E(xc)   XCENC  =       208.45040775
  PAW double counting   =      6568.73305753    -6760.99716616
  entropy T*S    EENTRO =        -0.00207169
  eigenvalues    EBANDS =     -1285.66687503
  atomic energy  EATOM  =      7122.98826804
  ---------------------------------------------------
  free energy    TOTEN  =       -32.10635602 eV

  energy without entropy =      -32.10428433  energy(sigma->0) =      -32.10532018
  exchange ACFDT corr.  =        -0.00204083  see jH, gK, PRB 81, 115126


--------------------------------------------------------------------------------------------------------




--------------------------------------- Iteration      1(   7)  ---------------------------------------


    POTLOK:  cpu time    0.1375: real time    0.1378
    SETDIJ:  cpu time    1.1106: real time    1.1132
    TRIAL :  cpu time   23.9047: real time   23.9621
    CORREC:  cpu time   25.0934: real time   25.1535
    CHARGE:  cpu time    0.0420: real time    0.0421
    --------------------------------------------
      LOOP:  cpu time   50.2897: real time   50.4149

 eigenvalue-minimisations  :     0
 total energy-change (2. order) :-0.2994726E+02  (-0.4285366E+01)
 number of electron      63.9999987 magnetization       8.0208330
 augmentation part       20.4876056 magnetization       5.9300730

 Free energy of the ion-electron system (eV)
  ---------------------------------------------------
  alpha Z        PSCENC =       159.04390683
  Ewald energy   TEWEN  =     -4036.88862147
  -Hartree energ DENC   =     -2407.20786367
  -exchange      EXHF   =       188.02451330
  -V(xc)+E(xc)   XCENC  =       211.23527198
  PAW double counting   =      7268.03251247    -7499.94443795
  entropy T*S    EENTRO =        -0.00474029
  eigenvalues    EBANDS =     -1067.33508904
  atomic energy  EATOM  =      7122.98826804
  ---------------------------------------------------
  free energy    TOTEN  =       -62.05361120 eV

  energy without entropy =      -62.04887091  energy(sigma->0) =      -62.05124106
  exchange ACFDT corr.  =        -0.02113496  see jH, gK, PRB 81, 115126


--------------------------------------------------------------------------------------------------------




--------------------------------------- Iteration      1(   8)  ---------------------------------------


    POTLOK:  cpu time    0.1351: real time    0.1354
    SETDIJ:  cpu time    1.1150: real time    1.1177
    TRIAL :  cpu time   23.6613: real time   23.7185
    CORREC:  cpu time   25.1990: real time   25.2593
    CHARGE:  cpu time    0.0416: real time    0.0417
    --------------------------------------------
      LOOP:  cpu time   50.1532: real time   50.2792

 eigenvalue-minimisations  :     0
 total energy-change (2. order) :-0.4272476E+01  (-0.1699341E+01)
 number of electron      63.9999987 magnetization       7.9999997
 augmentation part       20.2981551 magnetization       5.7493146

 Free energy of the ion-electron system (eV)
  ---------------------------------------------------
  alpha Z        PSCENC =       159.04390683
  Ewald energy   TEWEN  =     -4036.88862147
  -Hartree energ DENC   =     -2388.56246239
  -exchange      EXHF   =       186.13088838
  -V(xc)+E(xc)   XCENC  =       209.21683320
  PAW double counting   =      7329.54115633    -7550.75580692
  entropy T*S    EENTRO =        -0.00663705
  eigenvalues    EBANDS =     -1097.03550923
  atomic energy  EATOM  =      7122.98826804
  ---------------------------------------------------
  free energy    TOTEN  =       -66.32608752 eV

  energy without entropy =      -66.31945046  energy(sigma->0) =      -66.32276899
  exchange ACFDT corr.  =        -0.03818209  see jH, gK, PRB 81, 115126


--------------------------------------------------------------------------------------------------------




--------------------------------------- Iteration      1(   9)  ---------------------------------------


    POTLOK:  cpu time    0.1353: real time    0.1356
    SETDIJ:  cpu time    1.1290: real time    1.1317
    TRIAL :  cpu time   23.8032: real time   23.8603
    CORREC:  cpu time   25.1708: real time   25.2315
    CHARGE:  cpu time    0.0426: real time    0.0427
    --------------------------------------------
      LOOP:  cpu time   50.2838: real time   50.4087

 eigenvalue-minimisations  :     0
 total energy-change (2. order) :-0.1623705E+01  (-0.9194164E+00)
 number of electron      63.9999988 magnetization       7.9999996
 augmentation part       20.4725819 magnetization       5.6112927

 Free energy of the ion-electron system (eV)
  ---------------------------------------------------
  alpha Z        PSCENC =       159.04390683
  Ewald energy   TEWEN  =     -4036.88862147
  -Hartree energ DENC   =     -2381.32313556
  -exchange      EXHF   =       185.68563613
  -V(xc)+E(xc)   XCENC  =       208.58569480
  PAW double counting   =      7226.47775806    -7438.66337097
  entropy T*S    EENTRO =        -0.00389472
  eigenvalues    EBANDS =     -1113.84929135
  atomic energy  EATOM  =      7122.98826804
  ---------------------------------------------------
  free energy    TOTEN  =       -67.94979254 eV

  energy without entropy =      -67.94589782  energy(sigma->0) =      -67.94784518
  exchange ACFDT corr.  =        -0.05782686  see jH, gK, PRB 81, 115126


--------------------------------------------------------------------------------------------------------




--------------------------------------- Iteration      1(  10)  ---------------------------------------


    POTLOK:  cpu time    0.1362: real time    0.1365
    SETDIJ:  cpu time    1.1122: real time    1.1148
    TRIAL :  cpu time   23.7301: real time   23.7869
    CORREC:  cpu time   25.0778: real time   25.1378
    CHARGE:  cpu time    0.0416: real time    0.0417
    --------------------------------------------
      LOOP:  cpu time   50.0999: real time   50.2249

 eigenvalue-minimisations  :     0
 total energy-change (2. order) :-0.9226131E+00  (-0.3335540E+00)
 number of electron      63.9999988 magnetization       7.9999996
 augmentation part       20.5039504 magnetization       5.5526910

 Free energy of the ion-electron system (eV)
  ---------------------------------------------------
  alpha Z        PSCENC =       159.04390683
  Ewald energy   TEWEN  =     -4036.88862147
  -Hartree energ DENC   =     -2413.39520981
  -exchange      EXHF   =       185.95999955
  -V(xc)+E(xc)   XCENC  =       209.34020417
  PAW double counting   =      7210.48854906    -7425.68982716
  entropy T*S    EENTRO =        -0.00454373
  eigenvalues    EBANDS =     -1080.71578013
  atomic energy  EATOM  =      7122.98826804
  ---------------------------------------------------
  free energy    TOTEN  =       -68.87240563 eV

  energy without entropy =      -68.86786190  energy(sigma->0) =      -68.87013376
  exchange ACFDT corr.  =        -0.09189850  see jH, gK, PRB 81, 115126


--------------------------------------------------------------------------------------------------------




--------------------------------------- Iteration      1(  11)  ---------------------------------------


    POTLOK:  cpu time    0.1356: real time    0.1359
    SETDIJ:  cpu time    1.1125: real time    1.1151
    TRIAL :  cpu time   23.7553: real time   23.8156
    CORREC:  cpu time   25.1646: real time   25.2258
    CHARGE:  cpu time    0.0429: real time    0.0430
    --------------------------------------------
      LOOP:  cpu time   50.2120: real time   50.3424

 eigenvalue-minimisations  :     0
 total energy-change (2. order) :-0.3270492E+00  (-0.1581804E+00)
 number of electron      63.9999989 magnetization       7.9999995
 augmentation part       20.4601458 magnetization       5.5197771

 Free energy of the ion-electron system (eV)
  ---------------------------------------------------
  alpha Z        PSCENC =       159.04390683
  Ewald energy   TEWEN  =     -4036.88862147
  -Hartree energ DENC   =     -2418.06660325
  -exchange      EXHF   =       185.75843691
  -V(xc)+E(xc)   XCENC  =       209.34960303
  PAW double counting   =      7161.60658545    -7377.61602961
  entropy T*S    EENTRO =        -0.00334370
  eigenvalues    EBANDS =     -1075.37045703
  atomic energy  EATOM  =      7122.98826804
  ---------------------------------------------------
  free energy    TOTEN  =       -69.19945483 eV

  energy without entropy =      -69.19611113  energy(sigma->0) =      -69.19778298
  exchange ACFDT corr.  =        -0.10380108  see jH, gK, PRB 81, 115126


--------------------------------------------------------------------------------------------------------




--------------------------------------- Iteration      1(  12)  ---------------------------------------


    POTLOK:  cpu time    0.1363: real time    0.1366
    SETDIJ:  cpu time    1.1153: real time    1.1179
    TRIAL :  cpu time   23.7967: real time   23.8557
    CORREC:  cpu time   25.3102: real time   25.3719
    CHARGE:  cpu time    0.0423: real time    0.0424
    --------------------------------------------
      LOOP:  cpu time   50.4036: real time   50.5311

 eigenvalue-minimisations  :     0
 total energy-change (2. order) :-0.1606508E+00  (-0.1703546E+00)
 number of electron      63.9999990 magnetization       7.9999994
 augmentation part       20.4731627 magnetization       5.4793698

 Free energy of the ion-electron system (eV)
  ---------------------------------------------------
  alpha Z        PSCENC =       159.04390683
  Ewald energy   TEWEN  =     -4036.88862147
  -Hartree energ DENC   =     -2411.53603234
  -exchange      EXHF   =       185.51504414
  -V(xc)+E(xc)   XCENC  =       209.10281175
  PAW double counting   =      7094.68417529    -7309.51746315
  entropy T*S    EENTRO =        -0.00154840
  eigenvalues    EBANDS =     -1082.74885107
  atomic energy  EATOM  =      7122.98826804
  ---------------------------------------------------
  free energy    TOTEN  =       -69.36010568 eV

  energy without entropy =      -69.35855728  energy(sigma->0) =      -69.35933148
  exchange ACFDT corr.  =        -0.09368843  see jH, gK, PRB 81, 115126


--------------------------------------------------------------------------------------------------------




--------------------------------------- Iteration      1(  13)  ---------------------------------------


    POTLOK:  cpu time    0.1387: real time    0.1390
    SETDIJ:  cpu time    1.1185: real time    1.1212
    TRIAL :  cpu time   23.7889: real time   23.8464
    CORREC:  cpu time   25.1871: real time   25.2473
    CHARGE:  cpu time    0.0421: real time    0.0422
    --------------------------------------------
      LOOP:  cpu time   50.2762: real time   50.4027

 eigenvalue-minimisations  :     0
 total energy-change (2. order) :-0.1550900E+00  (-0.2164383E+00)
 number of electron      63.9999991 magnetization       7.9999992
 augmentation part       20.5050035 magnetization       5.4137639

 Free energy of the ion-electron system (eV)
  ---------------------------------------------------
  alpha Z        PSCENC =       159.04390683
  Ewald energy   TEWEN  =     -4036.88862147
  -Hartree energ DENC   =     -2416.14275258
  -exchange      EXHF   =       185.66647662
  -V(xc)+E(xc)   XCENC  =       209.19719169
  PAW double counting   =      7061.47952413    -7276.30283221
  entropy T*S    EENTRO =        -0.00101613
  eigenvalues    EBANDS =     -1078.55480832
  atomic energy  EATOM  =      7122.98826804
  ---------------------------------------------------
  free energy    TOTEN  =       -69.51519566 eV

  energy without entropy =      -69.51417953  energy(sigma->0) =      -69.51468760
  exchange ACFDT corr.  =        -0.08601795  see jH, gK, PRB 81, 115126


--------------------------------------------------------------------------------------------------------




--------------------------------------- Iteration      1(  14)  ---------------------------------------


    POTLOK:  cpu time    0.1353: real time    0.1356
    SETDIJ:  cpu time    1.1201: real time    1.1227
    TRIAL :  cpu time   23.9077: real time   23.9649
    CORREC:  cpu time   25.0275: real time   25.0876
    CHARGE:  cpu time    0.0415: real time    0.0416
    --------------------------------------------
      LOOP:  cpu time   50.2352: real time   50.3586

 eigenvalue-minimisations  :     0
 total energy-change (2. order) :-0.2971562E+00  (-0.2713566E+00)
 number of electron      63.9999993 magnetization       7.9999991
 augmentation part       20.5078718 magnetization       5.3307517

 Free energy of the ion-electron system (eV)
  ---------------------------------------------------
  alpha Z        PSCENC =       159.04390683
  Ewald energy   TEWEN  =     -4036.88862147
  -Hartree energ DENC   =     -2423.53109979
  -exchange      EXHF   =       186.18923589
  -V(xc)+E(xc)   XCENC  =       209.39028086
  PAW double counting   =      7063.53974392    -7278.76204477
  entropy T*S    EENTRO =        -0.00033914
  eigenvalues    EBANDS =     -1071.78100525
  atomic energy  EATOM  =      7122.98826804
  ---------------------------------------------------
  free energy    TOTEN  =       -69.81235188 eV

  energy without entropy =      -69.81201274  energy(sigma->0) =      -69.81218231
  exchange ACFDT corr.  =        -0.05914151  see jH, gK, PRB 81, 115126


--------------------------------------------------------------------------------------------------------




--------------------------------------- Iteration      1(  15)  ---------------------------------------


    POTLOK:  cpu time    0.1360: real time    0.1364
    SETDIJ:  cpu time    1.1180: real time    1.1206
    TRIAL :  cpu time   23.7958: real time   23.8532
    CORREC:  cpu time   25.2412: real time   25.3016
    CHARGE:  cpu time    0.0419: real time    0.0420
    --------------------------------------------
      LOOP:  cpu time   50.3342: real time   50.4604

 eigenvalue-minimisations  :     0
 total energy-change (2. order) :-0.2656659E+00  (-0.8602804E-01)
 number of electron      63.9999993 magnetization       7.9999991
 augmentation part       20.4833521 magnetization       5.2966206

 Free energy of the ion-electron system (eV)
  ---------------------------------------------------
  alpha Z        PSCENC =       159.04390683
  Ewald energy   TEWEN  =     -4036.88862147
  -Hartree energ DENC   =     -2425.11348858
  -exchange      EXHF   =       186.62157920
  -V(xc)+E(xc)   XCENC  =       209.38247527
  PAW double counting   =      7065.68645979    -7280.55859940
  entropy T*S    EENTRO =        -0.00000000
  eigenvalues    EBANDS =     -1071.23965835
  atomic energy  EATOM  =      7122.98826804
  ---------------------------------------------------
  free energy    TOTEN  =       -70.07801781 eV

  energy without entropy =      -70.07801781  energy(sigma->0) =      -70.07801781
  exchange ACFDT corr.  =        -0.00156690  see jH, gK, PRB 81, 115126


--------------------------------------------------------------------------------------------------------




--------------------------------------- Iteration      1(  16)  ---------------------------------------


    POTLOK:  cpu time    0.1347: real time    0.1350
    SETDIJ:  cpu time    1.1168: real time    1.1194
    TRIAL :  cpu time   23.7388: real time   23.7957
    CORREC:  cpu time   25.1185: real time   25.1796
    CHARGE:  cpu time    0.0415: real time    0.0416
    --------------------------------------------
      LOOP:  cpu time   50.1547: real time   50.2949

 eigenvalue-minimisations  :     0
 total energy-change (2. order) :-0.5307015E-01  (-0.1100801E+00)
 number of electron      63.9999993 magnetization       7.9999991
 augmentation part       20.4562453 magnetization       5.2714305

 Free energy of the ion-electron system (eV)
  ---------------------------------------------------
  alpha Z        PSCENC =       159.04390683
  Ewald energy   TEWEN  =     -4036.88862147
  -Hartree energ DENC   =     -2420.36591739
  -exchange      EXHF   =       186.57279985
  -V(xc)+E(xc)   XCENC  =       209.23648570
  PAW double counting   =      7056.82463347    -7270.96440636
  entropy T*S    EENTRO =        -0.00000000
  eigenvalues    EBANDS =     -1076.57823662
  atomic energy  EATOM  =      7122.98826804
  ---------------------------------------------------
  free energy    TOTEN  =       -70.13108795 eV

  energy without entropy =      -70.13108795  energy(sigma->0) =      -70.13108795
  exchange ACFDT corr.  =        -0.00000000  see jH, gK, PRB 81, 115126


--------------------------------------------------------------------------------------------------------




--------------------------------------- Iteration      1(  17)  ---------------------------------------


    POTLOK:  cpu time    0.1378: real time    0.1382
    SETDIJ:  cpu time    1.1156: real time    1.1183
    TRIAL :  cpu time   23.8346: real time   23.8922
    CORREC:  cpu time   25.0576: real time   25.1203
    CHARGE:  cpu time    0.0416: real time    0.0417
    --------------------------------------------
      LOOP:  cpu time   50.1939: real time   50.3181

 eigenvalue-minimisations  :     0
 total energy-change (2. order) :-0.1093990E+00  (-0.1047108E+00)
 number of electron      63.9999992 magnetization       7.9999991
 augmentation part       20.4726335 magnetization       5.2763112

 Free energy of the ion-electron system (eV)
  ---------------------------------------------------
  alpha Z        PSCENC =       159.04390683
  Ewald energy   TEWEN  =     -4036.88862147
  -Hartree energ DENC   =     -2414.40035408
  -exchange      EXHF   =       186.53882578
  -V(xc)+E(xc)   XCENC  =       209.07000944
  PAW double counting   =      7048.20695956    -7261.58097685
  entropy T*S    EENTRO =        -0.00000000
  eigenvalues    EBANDS =     -1083.21850420
  atomic energy  EATOM  =      7122.98826804
  ---------------------------------------------------
  free energy    TOTEN  =       -70.24048694 eV

  energy without entropy =      -70.24048694  energy(sigma->0) =      -70.24048694
  exchange ACFDT corr.  =        -0.00000000  see jH, gK, PRB 81, 115126


--------------------------------------------------------------------------------------------------------




--------------------------------------- Iteration      1(  18)  ---------------------------------------


    POTLOK:  cpu time    0.1367: real time    0.1370
    SETDIJ:  cpu time    1.1108: real time    1.1135
    TRIAL :  cpu time   23.8940: real time   23.9513
    CORREC:  cpu time   25.1289: real time   25.1905
    CHARGE:  cpu time    0.0432: real time    0.0433
    --------------------------------------------
      LOOP:  cpu time   50.3181: real time   50.4429

 eigenvalue-minimisations  :     0
 total energy-change (2. order) :-0.1047791E+00  (-0.1043740E+00)
 number of electron      63.9999992 magnetization       7.9999991
 augmentation part       20.5164196 magnetization       5.3034681

 Free energy of the ion-electron system (eV)
  ---------------------------------------------------
  alpha Z        PSCENC =       159.04390683
  Ewald energy   TEWEN  =     -4036.88862147
  -Hartree energ DENC   =     -2416.50700852
  -exchange      EXHF   =       186.77397502
  -V(xc)+E(xc)   XCENC  =       209.16091431
  PAW double counting   =      7064.36261865    -7278.06839902
  entropy T*S    EENTRO =        -0.00000000
  eigenvalues    EBANDS =     -1081.21091986
  atomic energy  EATOM  =      7122.98826804
  ---------------------------------------------------
  free energy    TOTEN  =       -70.34526602 eV

  energy without entropy =      -70.34526602  energy(sigma->0) =      -70.34526602
  exchange ACFDT corr.  =        -0.00000000  see jH, gK, PRB 81, 115126


--------------------------------------------------------------------------------------------------------




--------------------------------------- Iteration      1(  19)  ---------------------------------------


    POTLOK:  cpu time    0.1373: real time    0.1376
    SETDIJ:  cpu time    1.1173: real time    1.1200
    TRIAL :  cpu time   23.7000: real time   23.7566
    CORREC:  cpu time   25.0748: real time   25.1347
    CHARGE:  cpu time    0.0421: real time    0.0422
    --------------------------------------------
      LOOP:  cpu time   50.0750: real time   50.1984

 eigenvalue-minimisations  :     0
 total energy-change (2. order) :-0.1044428E+00  (-0.8619910E-01)
 number of electron      63.9999992 magnetization       7.9999991
 augmentation part       20.5343799 magnetization       5.3308282

 Free energy of the ion-electron system (eV)
  ---------------------------------------------------
  alpha Z        PSCENC =       159.04390683
  Ewald energy   TEWEN  =     -4036.88862147
  -Hartree energ DENC   =     -2424.04707292
  -exchange      EXHF   =       187.20742786
  -V(xc)+E(xc)   XCENC  =       209.43258666
  PAW double counting   =      7101.42792601    -7316.18966584
  entropy T*S    EENTRO =        -0.00000000
  eigenvalues    EBANDS =     -1073.42446396
  atomic energy  EATOM  =      7122.98826804
  ---------------------------------------------------
  free energy    TOTEN  =       -70.44970879 eV

  energy without entropy =      -70.44970879  energy(sigma->0) =      -70.44970879
  exchange ACFDT corr.  =        -0.00000000  see jH, gK, PRB 81, 115126


--------------------------------------------------------------------------------------------------------




--------------------------------------- Iteration      1(  20)  ---------------------------------------


    POTLOK:  cpu time    0.1352: real time    0.1355
    SETDIJ:  cpu time    1.1116: real time    1.1142
    TRIAL :  cpu time   23.7204: real time   23.7775
    CORREC:  cpu time   25.1195: real time   25.1822
    CHARGE:  cpu time    0.0430: real time    0.0431
    --------------------------------------------
      LOOP:  cpu time   50.1310: real time   50.2597

 eigenvalue-minimisations  :     0
 total energy-change (2. order) :-0.8624139E-01  (-0.5631191E-01)
 number of electron      63.9999992 magnetization       7.9999992
 augmentation part       20.5165227 magnetization       5.3456147

 Free energy of the ion-electron system (eV)
  ---------------------------------------------------
  alpha Z        PSCENC =       159.04390683
  Ewald energy   TEWEN  =     -4036.88862147
  -Hartree energ DENC   =     -2426.69507111
  -exchange      EXHF   =       187.49086318
  -V(xc)+E(xc)   XCENC  =       209.56487706
  PAW double counting   =      7129.01481251    -7344.32274289
  entropy T*S    EENTRO =        -0.00000000
  eigenvalues    EBANDS =     -1070.73224233
  atomic energy  EATOM  =      7122.98826804
  ---------------------------------------------------
  free energy    TOTEN  =       -70.53595018 eV

  energy without entropy =      -70.53595018  energy(sigma->0) =      -70.53595018
  exchange ACFDT corr.  =        -0.00000000  see jH, gK, PRB 81, 115126


--------------------------------------------------------------------------------------------------------




--------------------------------------- Iteration      1(  21)  ---------------------------------------


    POTLOK:  cpu time    0.1372: real time    0.1375
    SETDIJ:  cpu time    1.1154: real time    1.1181
    TRIAL :  cpu time   23.7304: real time   23.7872
    CORREC:  cpu time   25.1440: real time   25.2043
    CHARGE:  cpu time    0.0414: real time    0.0415
    --------------------------------------------
      LOOP:  cpu time   50.1693: real time   50.2954

 eigenvalue-minimisations  :     0
 total energy-change (2. order) :-0.5629341E-01  (-0.4262458E-01)
 number of electron      63.9999991 magnetization       7.9999992
 augmentation part       20.5019372 magnetization       5.3603586

 Free energy of the ion-electron system (eV)
  ---------------------------------------------------
  alpha Z        PSCENC =       159.04390683
  Ewald energy   TEWEN  =     -4036.88862147
  -Hartree energ DENC   =     -2422.19047529
  -exchange      EXHF   =       187.49730888
  -V(xc)+E(xc)   XCENC  =       209.47484079
  PAW double counting   =      7132.03885329    -7347.09918207
  entropy T*S    EENTRO =        -0.00000000
  eigenvalues    EBANDS =     -1075.45714259
  atomic energy  EATOM  =      7122.98826804
  ---------------------------------------------------
  free energy    TOTEN  =       -70.59224359 eV

  energy without entropy =      -70.59224359  energy(sigma->0) =      -70.59224359
  exchange ACFDT corr.  =        -0.00000000  see jH, gK, PRB 81, 115126


--------------------------------------------------------------------------------------------------------




--------------------------------------- Iteration      1(  22)  ---------------------------------------


    POTLOK:  cpu time    0.1363: real time    0.1366
    SETDIJ:  cpu time    1.1079: real time    1.1106
    TRIAL :  cpu time   23.7601: real time   23.8175
    CORREC:  cpu time   25.1474: real time   25.2075
    CHARGE:  cpu time    0.0419: real time    0.0420
    --------------------------------------------
      LOOP:  cpu time   50.1973: real time   50.3211

 eigenvalue-minimisations  :     0
 total energy-change (2. order) :-0.4269904E-01  (-0.3919074E-01)
 number of electron      63.9999991 magnetization       7.9999992
 augmentation part       20.5124859 magnetization       5.3792571

 Free energy of the ion-electron system (eV)
  ---------------------------------------------------
  alpha Z        PSCENC =       159.04390683
  Ewald energy   TEWEN  =     -4036.88862147
  -Hartree energ DENC   =     -2417.92646325
  -exchange      EXHF   =       187.43507502
  -V(xc)+E(xc)   XCENC  =       209.38489532
  PAW double counting   =      7129.98750230    -7344.88805688
  entropy T*S    EENTRO =        -0.00000000
  eigenvalues    EBANDS =     -1079.77144852
  atomic energy  EATOM  =      7122.98826804
  ---------------------------------------------------
  free energy    TOTEN  =       -70.63494262 eV

  energy without entropy =      -70.63494262  energy(sigma->0) =      -70.63494262
  exchange ACFDT corr.  =        -0.00000000  see jH, gK, PRB 81, 115126


--------------------------------------------------------------------------------------------------------




--------------------------------------- Iteration      1(  23)  ---------------------------------------


    POTLOK:  cpu time    0.1360: real time    0.1363
    SETDIJ:  cpu time    1.1142: real time    1.1169
    TRIAL :  cpu time   23.7956: real time   23.8525
    CORREC:  cpu time   25.0589: real time   25.1191
    CHARGE:  cpu time    0.0420: real time    0.0421
    --------------------------------------------
      LOOP:  cpu time   50.1594: real time   50.2828

 eigenvalue-minimisations  :     0
 total energy-change (2. order) :-0.3930597E-01  (-0.3264590E-01)
 number of electron      63.9999991 magnetization       7.9999993
 augmentation part       20.5287823 magnetization       5.3904198

 Free energy of the ion-electron system (eV)
  ---------------------------------------------------
  alpha Z        PSCENC =       159.04390683
  Ewald energy   TEWEN  =     -4036.88862147
  -Hartree energ DENC   =     -2418.76511704
  -exchange      EXHF   =       187.44027890
  -V(xc)+E(xc)   XCENC  =       209.43336718
  PAW double counting   =      7135.36290615    -7350.63956470
  entropy T*S    EENTRO =        -0.00000000
  eigenvalues    EBANDS =     -1078.64967249
  atomic energy  EATOM  =      7122.98826804
  ---------------------------------------------------
  free energy    TOTEN  =       -70.67424859 eV

  energy without entropy =      -70.67424859  energy(sigma->0) =      -70.67424859
  exchange ACFDT corr.  =        -0.00000000  see jH, gK, PRB 81, 115126


--------------------------------------------------------------------------------------------------------




--------------------------------------- Iteration      1(  24)  ---------------------------------------


    POTLOK:  cpu time    0.1348: real time    0.1351
    SETDIJ:  cpu time    1.1427: real time    1.1454
    TRIAL :  cpu time   23.8322: real time   23.8927
    CORREC:  cpu time   25.1810: real time   25.2412
    CHARGE:  cpu time    0.0418: real time    0.0419
    --------------------------------------------
      LOOP:  cpu time   50.3398: real time   50.4649

 eigenvalue-minimisations  :     0
 total energy-change (2. order) :-0.3270987E-01  (-0.2669631E-01)
 number of electron      63.9999990 magnetization       7.9999993
 augmentation part       20.5224499 magnetization       5.3859225

 Free energy of the ion-electron system (eV)
  ---------------------------------------------------
  alpha Z        PSCENC =       159.04390683
  Ewald energy   TEWEN  =     -4036.88862147
  -Hartree energ DENC   =     -2422.09308483
  -exchange      EXHF   =       187.46713912
  -V(xc)+E(xc)   XCENC  =       209.53281060
  PAW double counting   =      7139.77290082    -7355.43753280
  entropy T*S    EENTRO =        -0.00000000
  eigenvalues    EBANDS =     -1075.09274476
  atomic energy  EATOM  =      7122.98826804
  ---------------------------------------------------
  free energy    TOTEN  =       -70.70695846 eV

[...]
     37      10.5627      0.00000
     38      10.6997      0.00000
     39      10.9268      0.00000
     40      11.0709      0.00000
     41      12.7717      0.00000
     42      12.8421      0.00000
     43      13.2954      0.00000
     44      13.3178      0.00000
     45      13.9617      0.00000

 k-point    38 :      -0.1667    0.2500    0.5000
  band No.  band energies     occupation 
      1     -49.6585      1.00000
      2     -49.6448      1.00000
      3     -49.6381      1.00000
      4     -49.6199      1.00000
      5     -49.6038      1.00000
      6     -49.5683      1.00000
      7     -43.9548      1.00000
      8     -43.9401      1.00000
      9     -43.7346      1.00000
     10     -43.7332      1.00000
     11     -15.6979      1.00000
     12     -15.4656      1.00000
     13      -9.0320      1.00000
     14      -8.8891      1.00000
     15      -1.3441      1.00000
     16      -1.0804      1.00000
     17      -0.6275      1.00000
     18      -0.5144      1.00000
     19      -0.2282      1.00000
     20      -0.0583      1.00000
     21       0.8918      1.00000
     22       0.9694      1.00000
     23       1.4447      1.00000
     24       1.5397      1.00000
     25       2.1235      1.00000
     26       2.3760      1.00000
     27       3.4144      1.00000
     28       3.8760      1.00000
     29       7.4050      0.00000
     30       7.8430      0.00000
     31       7.8600      0.00000
     32       8.1265      0.00000
     33       8.4425      0.00000
     34       8.6672      0.00000
     35       8.7550      0.00000
     36       9.0697      0.00000
     37      11.0237      0.00000
     38      11.2546      0.00000
     39      11.5388      0.00000
     40      11.5760      0.00000
     41      11.6299      0.00000
     42      12.2822      0.00000
     43      12.7633      0.00000
     44      13.2081      0.00000
     45      13.8176      0.00000

 k-point    39 :      -0.0000    0.5000    0.5000
  band No.  band energies     occupation 
      1     -49.6412      1.00000
      2     -49.6412      1.00000
      3     -49.6353      1.00000
      4     -49.6353      1.00000
      5     -49.5903      1.00000
      6     -49.5903      1.00000
      7     -43.9481      1.00000
      8     -43.9481      1.00000
      9     -43.7336      1.00000
     10     -43.7336      1.00000
     11     -15.5674      1.00000
     12     -15.5674      1.00000
     13      -9.0734      1.00000
     14      -9.0734      1.00000
     15      -0.7411      1.00000
     16      -0.7411      1.00000
     17      -0.2694      1.00000
     18      -0.2694      1.00000
     19      -0.1023      1.00000
     20      -0.1023      1.00000
     21       0.0611      1.00000
     22       0.0611      1.00000
     23       1.8898      1.00000
     24       1.8898      1.00000
     25       2.1875      1.00000
     26       2.1875      1.00000
     27       3.5093      1.00000
     28       3.5093      1.00000
     29       7.7943      0.00000
     30       7.7943      0.00000
     31       8.0485      0.00000
     32       8.0485      0.00000
     33       8.3035      0.00000
     34       8.3035      0.00000
     35       8.8994      0.00000
     36       8.8994      0.00000
     37      10.6892      0.00000
     38      10.6899      0.00000
     39      11.7839      0.00000
     40      11.7841      0.00000
     41      12.5334      0.00000
     42      12.5359      0.00000
     43      12.9627      0.00000
     44      12.9682      0.00000
     45      13.7060      0.00000

 k-point    40 :       0.1667    0.5000    0.5000
  band No.  band energies     occupation 
      1     -49.6415      1.00000
      2     -49.6415      1.00000
      3     -49.6352      1.00000
      4     -49.6352      1.00000
      5     -49.5902      1.00000
      6     -49.5902      1.00000
      7     -43.9475      1.00000
      8     -43.9475      1.00000
      9     -43.7339      1.00000
     10     -43.7339      1.00000
     11     -15.5803      1.00000
     12     -15.5803      1.00000
     13      -8.9826      1.00000
     14      -8.9825      1.00000
     15      -0.9592      1.00000
     16      -0.9580      1.00000
     17      -0.6584      1.00000
     18      -0.6584      1.00000
     19      -0.2243      1.00000
     20      -0.2241      1.00000
     21       0.8437      1.00000
     22       0.8445      1.00000
     23       1.4269      1.00000
     24       1.4290      1.00000
     25       2.3983      1.00000
     26       2.4005      1.00000
     27       3.6493      1.00000
     28       3.6516      1.00000
     29       7.7436      0.00000
     30       7.7455      0.00000
     31       8.0317      0.00000
     32       8.0341      0.00000
     33       8.1279      0.00000
     34       8.1313      0.00000
     35       8.9292      0.00000
     36       8.9305      0.00000
     37      11.0768      0.00000
     38      11.0790      0.00000
     39      11.4737      0.00000
     40      11.4747      0.00000
     41      12.0588      0.00000
     42      12.0611      0.00000
     43      12.6215      0.00000
     44      12.6228      0.00000
     45      14.4412      0.00000

 k-point    41 :       0.3333    0.5000    0.5000
  band No.  band energies     occupation 
      1     -49.6420      1.00000
      2     -49.6420      1.00000
      3     -49.6349      1.00000
      4     -49.6349      1.00000
      5     -49.5900      1.00000
      6     -49.5900      1.00000
      7     -43.9462      1.00000
      8     -43.9462      1.00000
      9     -43.7344      1.00000
     10     -43.7344      1.00000
     11     -15.6058      1.00000
     12     -15.6058      1.00000
     13      -8.7860      1.00000
     14      -8.7859      1.00000
     15      -1.5138      1.00000
     16      -1.5129      1.00000
     17      -0.9960      1.00000
     18      -0.9959      1.00000
     19      -0.1490      1.00000
     20      -0.1489      1.00000
     21       1.0014      1.00000
     22       1.0020      1.00000
     23       1.8241      1.00000
     24       1.8245      1.00000
     25       2.6400      1.00000
     26       2.6410      1.00000
     27       3.7086      1.00000
     28       3.7098      1.00000
     29       7.4190      0.00000
     30       7.4218      0.00000
     31       7.7787      0.00000
     32       7.7821      0.00000
     33       8.2248      0.00000
     34       8.2276      0.00000
     35       8.9626      0.00000
     36       8.9636      0.00000
     37      10.1499      0.00000
     38      10.1504      0.00000
     39      10.5944      0.00000
     40      10.5964      0.00000
     41      12.6751      0.00000
     42      12.6754      0.00000
     43      13.5550      0.00000
     44      13.5691      0.00000
     45      14.2860      0.00000

 k-point    42 :       0.5000    0.5000    0.5000
  band No.  band energies     occupation 
      1     -49.6423      1.00000
      2     -49.6423      1.00000
      3     -49.6348      1.00000
      4     -49.6348      1.00000
      5     -49.5900      1.00000
      6     -49.5899      1.00000
      7     -43.9455      1.00000
      8     -43.9455      1.00000
      9     -43.7347      1.00000
     10     -43.7346      1.00000
     11     -15.6185      1.00000
     12     -15.6185      1.00000
     13      -8.6787      1.00000
     14      -8.6786      1.00000
     15      -1.8202      1.00000
     16      -1.8202      1.00000
     17      -1.1018      1.00000
     18      -1.1018      1.00000
     19      -0.1104      1.00000
     20      -0.1104      1.00000
     21       0.9338      1.00000
     22       0.9338      1.00000
     23       2.2525      1.00000
     24       2.2525      1.00000
     25       2.7995      1.00000
     26       2.7995      1.00000
     27       3.6691      1.00000
     28       3.6691      1.00000
     29       7.1650      0.00000
     30       7.1650      0.00000
     31       7.6389      0.00000
     32       7.6389      0.00000
     33       8.5409      0.00000
     34       8.5409      0.00000
     35       8.5839      0.00000
     36       8.5839      0.00000
     37       9.8849      0.00000
     38       9.8849      0.00000
     39      10.3079      0.00000
     40      10.3080      0.00000
     41      12.7093      0.00000
     42      12.7095      0.00000
     43      13.1189      0.00000
     44      13.1196      0.00000
     45      15.6590      0.00000


--------------------------------------------------------------------------------------------------------


 soft charge-density along one line, spin component           1
         0         1         2         3         4         5         6         7         8         9
 total charge-density along one line
 
 soft charge-density along one line, spin component           2
         0         1         2         3         4         5         6         7         8         9
 total charge-density along one line
 
 pseudopotential strength for first ion, spin component:           1
-35.097   4.761  -0.000   0.000  -0.000
  4.761 -11.358  -0.001   0.000   0.000
 -0.000  -0.001   0.035   0.000   0.000
  0.000   0.000   0.000   0.035  -0.000
 -0.000   0.000   0.000  -0.000   0.024
 pseudopotential strength for first ion, spin component:           2
-35.098   4.760  -0.000   0.000  -0.000
  4.760 -11.357  -0.001  -0.000   0.000
 -0.000  -0.001   0.035   0.000   0.000
  0.000  -0.000   0.000   0.034  -0.000
 -0.000   0.000   0.000  -0.000   0.023
 total augmentation occupancy for first ion, spin component:           1
  1.999  -0.028   0.001  -0.000   0.000
 -0.028   0.701  -0.002  -0.001   0.001
  0.001  -0.002   0.018  -0.000  -0.000
 -0.000  -0.001  -0.000   0.021   0.000
  0.000   0.001  -0.000   0.000   0.052
 total augmentation occupancy for first ion, spin component:           2
  0.000  -0.000  -0.000  -0.000  -0.000
 -0.000  -0.005  -0.001  -0.005  -0.000
 -0.000  -0.001   0.000   0.000  -0.000
 -0.000  -0.005   0.000  -0.000  -0.000
 -0.000  -0.000  -0.000  -0.000  -0.000


------------------------ aborting loop because EDIFF is reached ----------------------------------------





 total charge

# of ion       s       p       d       tot
------------------------------------------
    1        2.021   0.065   0.000   2.085
    2        2.021   0.065   0.000   2.085
    3        2.019   0.062   0.000   2.081
    4        2.019   0.062   0.000   2.081
    5        0.260   6.260   5.932  12.452
    6        0.260   6.260   5.932  12.452
    7        1.307   2.461   0.000   3.768
    8        1.307   2.461   0.000   3.768
    9        1.553   3.537   0.000   5.090
   10        1.553   3.537   0.000   5.090
--------------------------------------------------
tot         14.319  24.771  11.864  50.953



 magnetization (x)

# of ion       s       p       d       tot
------------------------------------------
    1       -0.000  -0.000   0.000  -0.000
    2       -0.000  -0.000   0.000  -0.000
    3        0.001   0.003   0.000   0.004
    4        0.001   0.003   0.000   0.004
    5        0.029   0.022   3.538   3.589
    6        0.029   0.022   3.538   3.589
    7        0.016   0.092   0.000   0.108
    8        0.016   0.092   0.000   0.108
    9        0.008   0.118   0.000   0.126
   10        0.008   0.118   0.000   0.126
--------------------------------------------------
tot          0.108   0.472   7.076   7.656
 
    FORLOC:  cpu time    0.0032: real time    0.0032
    FORHF :  cpu time   59.1307: real time   59.2723
    FORNL :  cpu time    0.0352: real time    0.0353
    STRESS:  cpu time    0.6060: real time    0.6074
    FORCOR:  cpu time    0.1373: real time    0.1376
    OFIELD:  cpu time    0.0005: real time    0.0005

  FORCE on cell =-STRESS in cart. coord.  units (eV):
  Direction    XX          YY          ZZ          XY          YZ          ZX
  --------------------------------------------------------------------------------------
  Alpha Z   164.20171   164.20171   164.20171
  Ewald   -1661.90226  -724.94337 -1686.98695     4.01699     0.00000    -0.00000
  Hartree   596.32006  1303.11741   505.62937     3.18260     0.00001    -0.00000
  E(xc)    -256.63966  -256.38836  -256.44408     0.00090    -0.00000    -0.00000
  Local      55.90167 -1571.96256   188.71346    -7.11558    -0.00004    -0.00000
  n-local   148.99248   153.55226   152.23880     0.01364    -0.19506    -0.07231
  augment   308.40119   299.19815   297.99357    -0.05394    -0.00000     0.00000
  Kinetic   875.83012   860.61627   861.49126    -0.08027    -0.70548    -0.81054
  Fock     -231.06894  -227.36072  -226.79302     0.01898    -0.00818    -0.00070
  -------------------------------------------------------------------------------------
  Total       0.03637     0.03079     0.04410    -0.01668     0.00000     0.00000
  in kB       0.48796     0.41314     0.59172    -0.22383     0.00000     0.00000
  external pressure =        0.50 kB  Pullay stress =        0.00 kB


 VOLUME and BASIS-vectors are now :
 -----------------------------------------------------------------------------
  energy-cutoff  :      520.00
  volume of cell :      119.42
      direct lattice vectors                 reciprocal lattice vectors
     3.887618139 -0.019054644  0.000000000     0.257220733 -0.001260227  0.000000000
     0.027169466  5.545470592  0.000000000     0.000883829  0.180323017  0.000000000
     0.000000000  0.000000000  5.539175780     0.000000000  0.000000000  0.180532274

  length of vectors
     3.887664836  5.545537149  5.539175780     0.257223820  0.180325183  0.180532274


 FORCES acting on ions:
    Electron-Ion                     Ewald-Force                    Non-Local-Force
 -----------------------------------------------------------------------------------------------
   0.366E+00 0.623E+01 0.738E+02   -.346E+00 -.633E+01 -.738E+02   -.202E-01 0.939E-01 0.102E-01
   0.366E+00 0.623E+01 -.738E+02   -.346E+00 -.633E+01 0.738E+02   -.202E-01 0.939E-01 -.102E-01
   -.501E-01 0.432E+01 0.120E+02   0.600E-01 -.464E+01 -.118E+02   -.153E-01 0.323E+00 -.154E+00
   -.501E-01 0.432E+01 -.120E+02   0.600E-01 -.464E+01 0.118E+02   -.153E-01 0.323E+00 0.154E+00
   0.231E+00 -.173E+02 0.881E+02   -.199E+00 0.185E+02 -.893E+02   -.194E-01 -.112E+01 0.115E+01
   0.231E+00 -.173E+02 -.881E+02   -.199E+00 0.185E+02 0.893E+02   -.194E-01 -.112E+01 -.115E+01
   -.249E+00 -.270E+02 -.153E+03   0.244E+00 0.276E+02 0.154E+03   0.110E-01 -.599E+00 -.112E+01
   -.249E+00 -.270E+02 0.153E+03   0.244E+00 0.276E+02 -.154E+03   0.110E-01 -.599E+00 0.112E+01
   -.215E+00 0.336E+02 0.274E+03   0.242E+00 -.352E+02 -.283E+03   -.218E-01 0.141E+01 0.790E+01
   -.215E+00 0.336E+02 -.274E+03   0.242E+00 -.352E+02 0.283E+03   -.218E-01 0.141E+01 -.790E+01
 -----------------------------------------------------------------------------------------------
   0.164E+00 -.320E+00 0.997E-04   0.608E-14 0.711E-14 -.568E-13   -.131E+00 0.214E+00 0.000E+00
 
 
 POSITION                                       TOTAL-FORCE (eV/Angst)
 -----------------------------------------------------------------------------------
      0.43376      4.02745      3.95560         0.001311     -0.006867     -0.004945
      0.42018      1.25471      1.58357         0.001311     -0.006867      0.004945
      2.37356      2.40947      3.02408        -0.003930      0.013205     -0.005462
      2.38714      5.18221      2.51509        -0.003930      0.013205      0.005462
      2.35473      0.13366      5.30721         0.003761      0.012246     -0.014246
      2.36832      2.90639      0.23197         0.003761      0.012246      0.014246
      0.43113      4.09643      1.33276         0.000810     -0.018853      0.009421
      0.41755      1.32369      4.20641         0.000810     -0.018853     -0.009421
      2.37638      4.06544      4.15445        -0.001952      0.000270      0.021328
      2.36280      1.29270      1.38473        -0.001952      0.000270     -0.021328
 -----------------------------------------------------------------------------------
    total drift:                                0.057532     -0.009027      0.000100


--------------------------------------------------------------------------------------------------------



  FREE ENERGIE OF THE ION-ELECTRON SYSTEM (eV)
  ---------------------------------------------------
  free  energy   TOTEN  =       -70.87263927 eV

  energy  without entropy=      -70.87263927  energy(sigma->0) =      -70.87263927
 
 d Force = 0.3619360E-03[ 0.308E-03, 0.416E-03]  d Energy = 0.3826723E-03-0.207E-04
 d Force = 0.1983815E+00[ 0.198E+00, 0.199E+00]  d Ewald  =-0.1659053E+00 0.364E+00


--------------------------------------------------------------------------------------------------------


    POTLOK:  cpu time    1.2678: real time    1.2708


--------------------------------------------------------------------------------------------------------


 Conjugate gradient step on ions:
 trial-energy change:   -0.000383  1 .order   -0.000374   -0.000437   -0.000311
  (g-gl).g = 0.292E-03      g.g   = 0.321E-03  gl.gl    = 0.753E-03
 g(Force)  = 0.292E-03   g(Stress)= 0.286E-04 ortho     = 0.321E-04
 gamma     =   0.38732
 trial     =   1.31277
 opt step  =   4.54444  (harmonic =   4.54444) maximal distance =0.00785764
 next E    =   -70.873013   (d E  =  -0.00076)


--------------------------------------------------------------------------------------------------------


  
 reached required accuracy - stopping structural energy minimisation
 writing wavefunctions
     LOOP+:  cpu time  493.1991: real time  494.4128
    4ORBIT:  cpu time    0.0000: real time    0.0000



 total charge

# of ion       s       p       d       tot
------------------------------------------
    1        2.021   0.065   0.000   2.085
    2        2.021   0.065   0.000   2.085
    3        2.019   0.062   0.000   2.081
    4        2.019   0.062   0.000   2.081
    5        0.260   6.260   5.932  12.452
    6        0.260   6.260   5.932  12.452
    7        1.307   2.461   0.000   3.768
    8        1.307   2.461   0.000   3.768
    9        1.553   3.537   0.000   5.090
   10        1.553   3.537   0.000   5.090
--------------------------------------------------
tot         14.319  24.771  11.864  50.953



 magnetization (x)

# of ion       s       p       d       tot
------------------------------------------
    1       -0.000  -0.000   0.000  -0.000
    2       -0.000  -0.000   0.000  -0.000
    3        0.001   0.003   0.000   0.004
    4        0.001   0.003   0.000   0.004
    5        0.029   0.022   3.538   3.589
    6        0.029   0.022   3.538   3.589
    7        0.016   0.092   0.000   0.108
    8        0.016   0.092   0.000   0.108
    9        0.008   0.118   0.000   0.126
   10        0.008   0.118   0.000   0.126
--------------------------------------------------
tot          0.108   0.472   7.076   7.656
 

 total amount of memory used by VASP MPI-rank0   217996. kBytes
=======================================================================

   base      :      30000. kBytes
   nonl-proj :      81530. kBytes
   fftplans  :       1902. kBytes
   grid      :       9109. kBytes
   one-center:        311. kBytes
   HF        :        259. kBytes
   nonlr-proj:       7354. kBytes
   wavefun   :      69309. kBytes
   fock_wrk  :      18222. kBytes
 
  
  
 General timing and accounting informations for this job:
 ========================================================
  
                  Total CPU time used (sec):     5816.970
                            User time (sec):     5812.054
                          System time (sec):        4.916
                         Elapsed time (sec):     5835.063
  
                   Maximum memory used (kb):      531432.
                   Average memory used (kb):          N/A
  
                          Minor page faults:      1044130
                          Major page faults:            6
                 Voluntary context switches:        63930
