 120 120   0   0
  0.1228332E+02  0.1173587E-08  0.1121847E-08  0.1119562E-08  0.5000000E-15
  1.000000000000000E-004
  CAR 
 unknown system                          
     16.73254166    -54.73410361  301      4.40454535      1.00000000
    -54.734  0.0000E+00  0.0000E+00  0.0000E+00  0.0000E+00
    -54.496  0.0000E+00  0.0000E+00  0.0000E+00  0.0000E+00
    -54.258  0.0000E+00  0.0000E+00  0.0000E+00  0.0000E+00
    -54.019  0.0000E+00  0.0000E+00  0.0000E+00  0.0000E+00
    -53.781  0.0000E+00  0.0000E+00  0.0000E+00  0.0000E+00
    -53.543  0.0000E+00  0.0000E+00  0.0000E+00  0.0000E+00
    -53.305  0.0000E+00  0.0000E+00  0.0000E+00  0.0000E+00
    -53.067  0.0000E+00  0.0000E+00  0.0000E+00  0.0000E+00
    -52.828  0.0000E+00  0.0000E+00  0.0000E+00  0.0000E+00
    -52.590  0.0000E+00  0.0000E+00  0.0000E+00  0.0000E+00
    -52.352  0.0000E+00  0.0000E+00  0.0000E+00  0.0000E+00
    -52.114  0.0000E+00  0.0000E+00  0.0000E+00  0.0000E+00
    -51.875  0.0000E+00  0.0000E+00  0.0000E+00  0.0000E+00
    -51.637  0.1784E-03  0.0000E+00  0.4250E-04  0.0000E+00
    -51.399  0.9726E+02  0.0000E+00  0.2317E+02  0.0000E+00
    -51.161  0.3491E+01  0.0000E+00  0.2400E+02  0.0000E+00
    -50.923  0.0000E+00  0.0000E+00  0.2400E+02  0.0000E+00
    -50.684  0.0000E+00  0.0000E+00  0.2400E+02  0.0000E+00
    -50.446  0.1581E-09  0.0000E+00  0.2400E+02  0.0000E+00
    -50.208  0.3996E+02  0.0000E+00  0.3352E+02  0.0000E+00
    -49.970  0.1325E+03  0.0000E+00  0.6508E+02  0.0000E+00
    -49.731  0.2907E+02  0.0000E+00  0.7200E+02  0.0000E+00
    -49.493  0.0000E+00  0.0000E+00  0.7200E+02  0.0000E+00
    -49.255  0.0000E+00  0.0000E+00  0.7200E+02  0.0000E+00
    -49.017  0.0000E+00  0.0000E+00  0.7200E+02  0.0000E+00
    -48.779  0.0000E+00  0.0000E+00  0.7200E+02  0.0000E+00
    -48.540  0.0000E+00  0.0000E+00  0.7200E+02  0.0000E+00
    -48.302  0.0000E+00  0.0000E+00  0.7200E+02  0.0000E+00
    -48.064  0.0000E+00  0.0000E+00  0.7200E+02  0.0000E+00
    -47.826  0.0000E+00  0.0000E+00  0.7200E+02  0.0000E+00
    -47.587  0.0000E+00  0.0000E+00  0.7200E+02  0.0000E+00
    -47.349  0.0000E+00  0.0000E+00  0.7200E+02  0.0000E+00
    -47.111  0.0000E+00  0.0000E+00  0.7200E+02  0.0000E+00
    -46.873  0.0000E+00  0.4913E-01  0.7200E+02  0.1170E-01
    -46.635  0.0000E+00  0.1006E+03  0.7200E+02  0.2397E+02
    -46.396  0.0000E+00  0.9212E+02  0.7200E+02  0.4591E+02
    -46.158  0.0000E+00  0.1095E+03  0.7200E+02  0.7200E+02
    -45.920  0.0000E+00  0.0000E+00  0.7200E+02  0.7200E+02
    -45.682  0.0000E+00  0.0000E+00  0.7200E+02  0.7200E+02
    -45.443  0.0000E+00  0.0000E+00  0.7200E+02  0.7200E+02
    -45.205  0.0000E+00  0.0000E+00  0.7200E+02  0.7200E+02
    -44.967  0.0000E+00  0.0000E+00  0.7200E+02  0.7200E+02
    -44.729  0.0000E+00  0.0000E+00  0.7200E+02  0.7200E+02
    -44.491  0.0000E+00  0.0000E+00  0.7200E+02  0.7200E+02
    -44.252  0.0000E+00  0.0000E+00  0.7200E+02  0.7200E+02
    -44.014  0.0000E+00  0.0000E+00  0.7200E+02  0.7200E+02
    -43.776  0.0000E+00  0.0000E+00  0.7200E+02  0.7200E+02
    -43.538  0.0000E+00  0.0000E+00  0.7200E+02  0.7200E+02
    -43.299  0.0000E+00  0.0000E+00  0.7200E+02  0.7200E+02
    -43.061  0.0000E+00  0.0000E+00  0.7200E+02  0.7200E+02
    -42.823  0.0000E+00  0.0000E+00  0.7200E+02  0.7200E+02
    -42.585  0.0000E+00  0.0000E+00  0.7200E+02  0.7200E+02
    -42.347  0.0000E+00  0.0000E+00  0.7200E+02  0.7200E+02
    -42.108  0.0000E+00  0.0000E+00  0.7200E+02  0.7200E+02
    -41.870  0.0000E+00  0.0000E+00  0.7200E+02  0.7200E+02
    -41.632  0.0000E+00  0.0000E+00  0.7200E+02  0.7200E+02
    -41.394  0.0000E+00  0.0000E+00  0.7200E+02  0.7200E+02
    -41.155  0.0000E+00  0.0000E+00  0.7200E+02  0.7200E+02
    -40.917  0.0000E+00  0.0000E+00  0.7200E+02  0.7200E+02
    -40.679  0.1893E-03  0.5679E-04  0.7200E+02  0.7200E+02
    -40.441  0.9847E+02  0.9679E+02  0.9546E+02  0.9506E+02
    -40.203  0.1028E+03  0.1045E+03  0.1200E+03  0.1200E+03
    -39.964  0.2025E+00  0.2028E+00  0.1200E+03  0.1200E+03
    -39.726  0.0000E+00  0.0000E+00  0.1200E+03  0.1200E+03
    -39.488  0.0000E+00  0.0000E+00  0.1200E+03  0.1200E+03
    -39.250  0.0000E+00  0.0000E+00  0.1200E+03  0.1200E+03
    -39.011  0.0000E+00  0.0000E+00  0.1200E+03  0.1200E+03
    -38.773  0.0000E+00  0.0000E+00  0.1200E+03  0.1200E+03
    -38.535  0.0000E+00  0.0000E+00  0.1200E+03  0.1200E+03
    -38.297  0.0000E+00  0.0000E+00  0.1200E+03  0.1200E+03
    -38.059  0.0000E+00  0.0000E+00  0.1200E+03  0.1200E+03
    -37.820  0.0000E+00  0.0000E+00  0.1200E+03  0.1200E+03
    -37.582  0.0000E+00  0.0000E+00  0.1200E+03  0.1200E+03
    -37.344  0.0000E+00  0.0000E+00  0.1200E+03  0.1200E+03
    -37.106  0.0000E+00  0.0000E+00  0.1200E+03  0.1200E+03
    -36.867  0.0000E+00  0.0000E+00  0.1200E+03  0.1200E+03
    -36.629  0.0000E+00  0.0000E+00  0.1200E+03  0.1200E+03
    -36.391  0.0000E+00  0.0000E+00  0.1200E+03  0.1200E+03
    -36.153  0.0000E+00  0.0000E+00  0.1200E+03  0.1200E+03
    -35.915  0.0000E+00  0.0000E+00  0.1200E+03  0.1200E+03
    -35.676  0.0000E+00  0.0000E+00  0.1200E+03  0.1200E+03
    -35.438  0.0000E+00  0.0000E+00  0.1200E+03  0.1200E+03
    -35.200  0.0000E+00  0.0000E+00  0.1200E+03  0.1200E+03
    -34.962  0.0000E+00  0.0000E+00  0.1200E+03  0.1200E+03
    -34.723  0.0000E+00  0.0000E+00  0.1200E+03  0.1200E+03
    -34.485  0.0000E+00  0.0000E+00  0.1200E+03  0.1200E+03
    -34.247  0.0000E+00  0.0000E+00  0.1200E+03  0.1200E+03
    -34.009  0.0000E+00  0.0000E+00  0.1200E+03  0.1200E+03
    -33.771  0.0000E+00  0.0000E+00  0.1200E+03  0.1200E+03
    -33.532  0.0000E+00  0.0000E+00  0.1200E+03  0.1200E+03
    -33.294  0.0000E+00  0.0000E+00  0.1200E+03  0.1200E+03
    -33.056  0.0000E+00  0.0000E+00  0.1200E+03  0.1200E+03
    -32.818  0.0000E+00  0.0000E+00  0.1200E+03  0.1200E+03
    -32.579  0.0000E+00  0.0000E+00  0.1200E+03  0.1200E+03
    -32.341  0.0000E+00  0.0000E+00  0.1200E+03  0.1200E+03
    -32.103  0.0000E+00  0.0000E+00  0.1200E+03  0.1200E+03
    -31.865  0.0000E+00  0.0000E+00  0.1200E+03  0.1200E+03
    -31.627  0.0000E+00  0.0000E+00  0.1200E+03  0.1200E+03
    -31.388  0.0000E+00  0.0000E+00  0.1200E+03  0.1200E+03
    -31.150  0.0000E+00  0.0000E+00  0.1200E+03  0.1200E+03
    -30.912  0.0000E+00  0.0000E+00  0.1200E+03  0.1200E+03
    -30.674  0.0000E+00  0.0000E+00  0.1200E+03  0.1200E+03
    -30.435  0.0000E+00  0.0000E+00  0.1200E+03  0.1200E+03
    -30.197  0.0000E+00  0.0000E+00  0.1200E+03  0.1200E+03
    -29.959  0.0000E+00  0.0000E+00  0.1200E+03  0.1200E+03
    -29.721  0.0000E+00  0.0000E+00  0.1200E+03  0.1200E+03
    -29.483  0.0000E+00  0.0000E+00  0.1200E+03  0.1200E+03
    -29.244  0.0000E+00  0.0000E+00  0.1200E+03  0.1200E+03
    -29.006  0.0000E+00  0.0000E+00  0.1200E+03  0.1200E+03
    -28.768  0.0000E+00  0.0000E+00  0.1200E+03  0.1200E+03
    -28.530  0.0000E+00  0.0000E+00  0.1200E+03  0.1200E+03
    -28.291  0.0000E+00  0.0000E+00  0.1200E+03  0.1200E+03
    -28.053  0.0000E+00  0.0000E+00  0.1200E+03  0.1200E+03
    -27.815  0.0000E+00  0.0000E+00  0.1200E+03  0.1200E+03
    -27.577  0.0000E+00  0.0000E+00  0.1200E+03  0.1200E+03
    -27.339  0.0000E+00  0.0000E+00  0.1200E+03  0.1200E+03
    -27.100  0.0000E+00  0.0000E+00  0.1200E+03  0.1200E+03
    -26.862  0.0000E+00  0.0000E+00  0.1200E+03  0.1200E+03
    -26.624  0.0000E+00  0.0000E+00  0.1200E+03  0.1200E+03
    -26.386  0.0000E+00  0.0000E+00  0.1200E+03  0.1200E+03
    -26.147  0.0000E+00  0.0000E+00  0.1200E+03  0.1200E+03
    -25.909  0.0000E+00  0.0000E+00  0.1200E+03  0.1200E+03
    -25.671  0.0000E+00  0.0000E+00  0.1200E+03  0.1200E+03
    -25.433  0.0000E+00  0.0000E+00  0.1200E+03  0.1200E+03
    -25.195  0.0000E+00  0.0000E+00  0.1200E+03  0.1200E+03
    -24.956  0.0000E+00  0.0000E+00  0.1200E+03  0.1200E+03
    -24.718  0.0000E+00  0.0000E+00  0.1200E+03  0.1200E+03
    -24.480  0.0000E+00  0.0000E+00  0.1200E+03  0.1200E+03
    -24.242  0.0000E+00  0.0000E+00  0.1200E+03  0.1200E+03
    -24.003  0.0000E+00  0.0000E+00  0.1200E+03  0.1200E+03
    -23.765  0.0000E+00  0.0000E+00  0.1200E+03  0.1200E+03
    -23.527  0.0000E+00  0.0000E+00  0.1200E+03  0.1200E+03
    -23.289  0.0000E+00  0.0000E+00  0.1200E+03  0.1200E+03
    -23.051  0.0000E+00  0.0000E+00  0.1200E+03  0.1200E+03
    -22.812  0.0000E+00  0.0000E+00  0.1200E+03  0.1200E+03
    -22.574  0.0000E+00  0.0000E+00  0.1200E+03  0.1200E+03
    -22.336  0.0000E+00  0.0000E+00  0.1200E+03  0.1200E+03
    -22.098  0.0000E+00  0.0000E+00  0.1200E+03  0.1200E+03
    -21.859  0.0000E+00  0.0000E+00  0.1200E+03  0.1200E+03
    -21.621  0.0000E+00  0.0000E+00  0.1200E+03  0.1200E+03
    -21.383  0.0000E+00  0.0000E+00  0.1200E+03  0.1200E+03
    -21.145  0.0000E+00  0.0000E+00  0.1200E+03  0.1200E+03
    -20.907  0.0000E+00  0.0000E+00  0.1200E+03  0.1200E+03
    -20.668  0.0000E+00  0.0000E+00  0.1200E+03  0.1200E+03
    -20.430  0.0000E+00  0.0000E+00  0.1200E+03  0.1200E+03
    -20.192  0.0000E+00  0.0000E+00  0.1200E+03  0.1200E+03
    -19.954  0.0000E+00  0.0000E+00  0.1200E+03  0.1200E+03
    -19.715  0.0000E+00  0.0000E+00  0.1200E+03  0.1200E+03
    -19.477  0.0000E+00  0.0000E+00  0.1200E+03  0.1200E+03
    -19.239  0.0000E+00  0.0000E+00  0.1200E+03  0.1200E+03
    -19.001  0.0000E+00  0.0000E+00  0.1200E+03  0.1200E+03
    -18.763  0.0000E+00  0.0000E+00  0.1200E+03  0.1200E+03
    -18.524  0.0000E+00  0.0000E+00  0.1200E+03  0.1200E+03
    -18.286  0.0000E+00  0.0000E+00  0.1200E+03  0.1200E+03
    -18.048  0.0000E+00  0.0000E+00  0.1200E+03  0.1200E+03
    -17.810  0.0000E+00  0.0000E+00  0.1200E+03  0.1200E+03
    -17.571  0.0000E+00  0.0000E+00  0.1200E+03  0.1200E+03
    -17.333  0.0000E+00  0.0000E+00  0.1200E+03  0.1200E+03
    -17.095  0.0000E+00  0.0000E+00  0.1200E+03  0.1200E+03
    -16.857  0.0000E+00  0.0000E+00  0.1200E+03  0.1200E+03
    -16.619  0.0000E+00  0.0000E+00  0.1200E+03  0.1200E+03
    -16.380  0.0000E+00  0.0000E+00  0.1200E+03  0.1200E+03
    -16.142  0.0000E+00  0.0000E+00  0.1200E+03  0.1200E+03
    -15.904  0.0000E+00  0.0000E+00  0.1200E+03  0.1200E+03
    -15.666  0.0000E+00  0.0000E+00  0.1200E+03  0.1200E+03
    -15.427  0.0000E+00  0.0000E+00  0.1200E+03  0.1200E+03
    -15.189  0.0000E+00  0.0000E+00  0.1200E+03  0.1200E+03
    -14.951  0.0000E+00  0.0000E+00  0.1200E+03  0.1200E+03
    -14.713  0.0000E+00  0.0000E+00  0.1200E+03  0.1200E+03
    -14.475  0.0000E+00  0.0000E+00  0.1200E+03  0.1200E+03
    -14.236  0.0000E+00  0.0000E+00  0.1200E+03  0.1200E+03
    -13.998  0.0000E+00  0.0000E+00  0.1200E+03  0.1200E+03
    -13.760  0.1206E-08  0.0000E+00  0.1200E+03  0.1200E+03
    -13.522  0.8724E+01  0.1899E-15  0.1221E+03  0.1200E+03
    -13.283  0.5996E+02  0.3143E+00  0.1364E+03  0.1201E+03
    -13.045  0.3206E+02  0.6695E+02  0.1440E+03  0.1360E+03
    -12.807  0.2857E-03  0.3348E+02  0.1440E+03  0.1440E+03
    -12.569  0.0000E+00  0.3616E-04  0.1440E+03  0.1440E+03
    -12.331  0.0000E+00  0.0000E+00  0.1440E+03  0.1440E+03
    -12.092  0.0000E+00  0.0000E+00  0.1440E+03  0.1440E+03
    -11.854  0.0000E+00  0.0000E+00  0.1440E+03  0.1440E+03
    -11.616  0.0000E+00  0.0000E+00  0.1440E+03  0.1440E+03
    -11.378  0.0000E+00  0.0000E+00  0.1440E+03  0.1440E+03
    -11.139  0.0000E+00  0.0000E+00  0.1440E+03  0.1440E+03
    -10.901  0.0000E+00  0.0000E+00  0.1440E+03  0.1440E+03
    -10.663  0.0000E+00  0.0000E+00  0.1440E+03  0.1440E+03
    -10.425  0.0000E+00  0.0000E+00  0.1440E+03  0.1440E+03
    -10.187  0.0000E+00  0.0000E+00  0.1440E+03  0.1440E+03
     -9.948  0.0000E+00  0.0000E+00  0.1440E+03  0.1440E+03
     -9.710  0.0000E+00  0.0000E+00  0.1440E+03  0.1440E+03
     -9.472  0.0000E+00  0.0000E+00  0.1440E+03  0.1440E+03
     -9.234  0.0000E+00  0.0000E+00  0.1440E+03  0.1440E+03
     -8.995  0.0000E+00  0.0000E+00  0.1440E+03  0.1440E+03
     -8.757  0.0000E+00  0.0000E+00  0.1440E+03  0.1440E+03
     -8.519  0.0000E+00  0.0000E+00  0.1440E+03  0.1440E+03
     -8.281  0.0000E+00  0.0000E+00  0.1440E+03  0.1440E+03
     -8.043  0.0000E+00  0.0000E+00  0.1440E+03  0.1440E+03
     -7.804  0.1161E-01  0.2417E-15  0.1440E+03  0.1440E+03
     -7.566  0.1839E+02  0.1305E+00  0.1484E+03  0.1440E+03
     -7.328  0.4811E+02  0.2892E+02  0.1598E+03  0.1509E+03
     -7.090  0.3336E+02  0.4936E+02  0.1678E+03  0.1627E+03
     -6.851  0.8674E+00  0.2168E+02  0.1680E+03  0.1678E+03
     -6.613  0.0000E+00  0.6621E+00  0.1680E+03  0.1680E+03
     -6.375  0.0000E+00  0.0000E+00  0.1680E+03  0.1680E+03
     -6.137  0.0000E+00  0.0000E+00  0.1680E+03  0.1680E+03
     -5.899  0.0000E+00  0.0000E+00  0.1680E+03  0.1680E+03
     -5.660  0.0000E+00  0.0000E+00  0.1680E+03  0.1680E+03
     -5.422  0.0000E+00  0.0000E+00  0.1680E+03  0.1680E+03
     -5.184  0.0000E+00  0.0000E+00  0.1680E+03  0.1680E+03
     -4.946  0.0000E+00  0.0000E+00  0.1680E+03  0.1680E+03
     -4.707  0.0000E+00  0.0000E+00  0.1680E+03  0.1680E+03
     -4.469  0.0000E+00  0.0000E+00  0.1680E+03  0.1680E+03
     -4.231  0.0000E+00  0.0000E+00  0.1680E+03  0.1680E+03
     -3.993  0.0000E+00  0.0000E+00  0.1680E+03  0.1680E+03
     -3.755  0.0000E+00  0.0000E+00  0.1680E+03  0.1680E+03
     -3.516  0.0000E+00  0.0000E+00  0.1680E+03  0.1680E+03
     -3.278  0.0000E+00  0.0000E+00  0.1680E+03  0.1680E+03
     -3.040  0.0000E+00  0.0000E+00  0.1680E+03  0.1680E+03
     -2.802  0.0000E+00  0.0000E+00  0.1680E+03  0.1680E+03
     -2.563  0.0000E+00  0.0000E+00  0.1680E+03  0.1680E+03
     -2.325  0.0000E+00  0.0000E+00  0.1680E+03  0.1680E+03
     -2.087  0.2358E-05  0.0000E+00  0.1680E+03  0.1680E+03
     -1.849  0.8018E+01  0.0000E+00  0.1699E+03  0.1680E+03
     -1.611  0.5827E+02  0.0000E+00  0.1838E+03  0.1680E+03
     -1.372  0.4149E+02  0.0000E+00  0.1937E+03  0.1680E+03
     -1.134  0.3253E+02  0.0000E+00  0.2014E+03  0.1680E+03
     -0.896  0.5393E+02  0.2466E-08  0.2143E+03  0.1680E+03
     -0.658  0.5335E+02  0.1797E+01  0.2270E+03  0.1684E+03
     -0.419  0.6697E+02  0.1725E+02  0.2429E+03  0.1725E+03
     -0.181  0.5434E+02  0.3877E+02  0.2559E+03  0.1818E+03
      0.057  0.3443E+02  0.3512E+02  0.2641E+03  0.1901E+03
      0.295  0.5511E+02  0.2281E+02  0.2772E+03  0.1956E+03
      0.533  0.4769E+02  0.4865E+02  0.2886E+03  0.2072E+03
      0.772  0.3247E+02  0.4855E+02  0.2963E+03  0.2187E+03
      1.010  0.4988E+02  0.6843E+02  0.3082E+03  0.2350E+03
      1.248  0.4899E+02  0.2615E+02  0.3199E+03  0.2413E+03
      1.486  0.5435E+02  0.2296E+02  0.3328E+03  0.2467E+03
      1.725  0.6191E+02  0.3811E+02  0.3476E+03  0.2558E+03
      1.963  0.3408E+02  0.4599E+02  0.3557E+03  0.2668E+03
      2.201  0.2432E+02  0.2951E+02  0.3615E+03  0.2738E+03
      2.439  0.1363E+02  0.3578E+02  0.3647E+03  0.2823E+03
      2.677  0.3760E+02  0.2537E+02  0.3737E+03  0.2884E+03
      2.916  0.3866E+02  0.4570E+02  0.3829E+03  0.2992E+03
      3.154  0.3033E+02  0.4176E+02  0.3901E+03  0.3092E+03
      3.392  0.4379E+02  0.1453E+02  0.4005E+03  0.3127E+03
      3.630  0.5345E+02  0.3057E+02  0.4133E+03  0.3199E+03
      3.869  0.4730E+02  0.5702E+02  0.4245E+03  0.3335E+03
      4.107  0.2926E+02  0.1041E+02  0.4315E+03  0.3360E+03
      4.345  0.2061E+01  0.8452E-05  0.4320E+03  0.3360E+03
      4.583  0.0000E+00  0.0000E+00  0.4320E+03  0.3360E+03
      4.821  0.0000E+00  0.0000E+00  0.4320E+03  0.3360E+03
      5.060  0.0000E+00  0.0000E+00  0.4320E+03  0.3360E+03
      5.298  0.0000E+00  0.0000E+00  0.4320E+03  0.3360E+03
      5.536  0.0000E+00  0.0000E+00  0.4320E+03  0.3360E+03
      5.774  0.0000E+00  0.0000E+00  0.4320E+03  0.3360E+03
      6.013  0.0000E+00  0.3908E-02  0.4320E+03  0.3360E+03
      6.251  0.0000E+00  0.1903E+01  0.4320E+03  0.3365E+03
      6.489  0.0000E+00  0.1352E+02  0.4320E+03  0.3397E+03
      6.727  0.0000E+00  0.2693E+02  0.4320E+03  0.3461E+03
      6.965  0.0000E+00  0.2512E+02  0.4320E+03  0.3521E+03
      7.204  0.8735E-05  0.5754E+02  0.4320E+03  0.3658E+03
      7.442  0.1552E+00  0.7574E+02  0.4320E+03  0.3838E+03
      7.680  0.7335E+00  0.2942E+02  0.4322E+03  0.3908E+03
      7.918  0.1494E+01  0.4122E+02  0.4326E+03  0.4007E+03
      8.157  0.4818E+01  0.7790E+02  0.4337E+03  0.4192E+03
      8.395  0.7071E+01  0.5030E+02  0.4354E+03  0.4312E+03
      8.633  0.1573E+02  0.3802E+01  0.4391E+03  0.4321E+03
      8.871  0.2390E+02  0.1139E+01  0.4448E+03  0.4324E+03
      9.109  0.1973E+02  0.4485E+01  0.4495E+03  0.4334E+03
      9.348  0.1941E+02  0.1068E+02  0.4542E+03  0.4360E+03
      9.586  0.1988E+02  0.2094E+02  0.4589E+03  0.4410E+03
      9.824  0.2442E+02  0.2879E+02  0.4647E+03  0.4478E+03
     10.062  0.2205E+02  0.3013E+02  0.4700E+03  0.4550E+03
     10.301  0.1787E+02  0.3009E+02  0.4742E+03  0.4622E+03
     10.539  0.2468E+02  0.2580E+02  0.4801E+03  0.4683E+03
     10.777  0.1507E+02  0.2592E+02  0.4837E+03  0.4745E+03
     11.015  0.2731E+02  0.2436E+02  0.4902E+03  0.4803E+03
     11.253  0.4547E+02  0.1026E+02  0.5010E+03  0.4827E+03
     11.492  0.4867E+02  0.2579E+02  0.5126E+03  0.4889E+03
     11.730  0.3531E+02  0.3030E+02  0.5210E+03  0.4961E+03
     11.968  0.2028E+02  0.5664E+02  0.5259E+03  0.5096E+03
     12.206  0.2081E+02  0.4446E+02  0.5308E+03  0.5202E+03
     12.445  0.2999E+02  0.2683E+02  0.5380E+03  0.5266E+03
     12.683  0.3254E+02  0.2373E+02  0.5457E+03  0.5322E+03
     12.921  0.1862E+02  0.2758E+02  0.5502E+03  0.5388E+03
     13.159  0.7641E+01  0.3301E+02  0.5520E+03  0.5467E+03
     13.397  0.9320E-01  0.1831E+02  0.5520E+03  0.5510E+03
     13.636  0.0000E+00  0.4093E+01  0.5520E+03  0.5520E+03
     13.874  0.0000E+00  0.4331E-05  0.5520E+03  0.5520E+03
     14.112  0.0000E+00  0.0000E+00  0.5520E+03  0.5520E+03
     14.350  0.0000E+00  0.0000E+00  0.5520E+03  0.5520E+03
     14.589  0.0000E+00  0.0000E+00  0.5520E+03  0.5520E+03
     14.827  0.0000E+00  0.0000E+00  0.5520E+03  0.5520E+03
     15.065  0.0000E+00  0.0000E+00  0.5520E+03  0.5520E+03
     15.303  0.0000E+00  0.0000E+00  0.5520E+03  0.5520E+03
     15.541  0.0000E+00  0.0000E+00  0.5520E+03  0.5520E+03
     15.780  0.0000E+00  0.0000E+00  0.5520E+03  0.5520E+03
     16.018  0.0000E+00  0.0000E+00  0.5520E+03  0.5520E+03
     16.256  0.0000E+00  0.0000E+00  0.5520E+03  0.5520E+03
     16.494  0.0000E+00  0.0000E+00  0.5520E+03  0.5520E+03
     16.733  0.0000E+00  0.0000E+00  0.5520E+03  0.5520E+03
