<?xml version="1.0" encoding="ISO-8859-1"?>
<modeling>
 <generator>
  <i name="program" type="string">vasp </i>
  <i name="version" type="string">5.4.4.18Apr17-6-g9f103f2a35  </i>
  <i name="subversion" type="string">(build Oct 25 2017 14:42:18) complex            parallel </i>
  <i name="platform" type="string">LinuxIFC </i>
  <i name="date" type="string">2021 04 16 </i>
  <i name="time" type="string">15:11:01 </i>
 </generator>
 <incar>
  <i type="string" name="PREC">accurate</i>
  <i type="string" name="ALGO"> normal</i>
  <i type="logical" name="ADDGRID"> T  </i>
  <i type="int" name="ISPIN">     2</i>
  <i type="int" name="ICHARG">     1</i>
  <i type="int" name="NELM">   200</i>
  <i type="int" name="NELMIN">     8</i>
  <i name="EDIFF">      0.00000100</i>
  <i type="int" name="ISIF">     3</i>
  <i type="int" name="ISYM">     0</i>
  <i name="ENCUT">    650.00000000</i>
  <v name="MAGMOM">      0.60000000      0.60000000      0.60000000      0.60000000      0.60000000      0.60000000      0.60000000      0.60000000      0.60000000      0.60000000      0.60000000      0.60000000      0.60000000      0.60000000      0.60000000      0.60000000      0.60000000      0.60000000      0.60000000      0.60000000
      0.60000000      0.60000000      0.60000000      0.60000000      0.60000000      0.60000000      0.60000000      0.60000000      0.60000000      0.60000000      0.60000000      0.60000000      0.60000000      0.60000000      0.60000000      0.60000000      0.60000000      0.60000000      0.60000000      0.60000000
      0.60000000      0.60000000      0.60000000      0.60000000      0.60000000      0.60000000      0.60000000      0.60000000      0.60000000      0.60000000      0.60000000      0.60000000      0.60000000      0.60000000      0.60000000      0.60000000      0.60000000      0.60000000      0.60000000      0.60000000
      0.60000000      0.60000000      0.60000000      0.60000000      0.60000000      0.60000000      0.60000000      0.60000000      0.60000000      0.60000000      0.60000000      0.60000000      0.60000000      0.60000000      0.60000000      0.60000000      0.60000000      0.60000000      0.60000000      0.60000000
      0.60000000      0.60000000      0.60000000      0.60000000      0.60000000      0.60000000      0.60000000      0.60000000      0.60000000      0.60000000      0.60000000      0.60000000      0.60000000      0.60000000      0.60000000      0.60000000      5.00000000      5.00000000      5.00000000      5.00000000
      5.00000000      5.00000000      5.00000000      5.00000000      5.00000000      5.00000000      5.00000000      5.00000000      5.00000000      5.00000000      5.00000000      5.00000000      5.00000000      5.00000000      5.00000000      5.00000000      5.00000000      5.00000000      5.00000000      5.00000000
</v>
  <i type="logical" name="LREAL"> F  </i>
  <i type="int" name="ISMEAR">     0</i>
  <i name="SIGMA">      0.05000000</i>
  <i type="int" name="NWRITE">     1</i>
  <i type="int" name="LMAXMIX">     4</i>
  <i type="logical" name="LWAVE"> F  </i>
  <i type="logical" name="LASPH"> T  </i>
  <v type="int" name="KPOINT_BSE">    -1     0     0     0</v>
  <i type="int" name="NELM">   200</i>
  <i type="string" name="GGA"> pe</i>
  <i type="logical" name="LDAU"> T  </i>
  <v type="int" name="LDAUTYPE">     2</v>
  <v type="int" name="LDAUL">    -1    -1    -1     2</v>
  <v name="LDAUU">      0.00000000      0.00000000      0.00000000      4.00000000</v>
  <v name="LDAUJ">      0.00000000      0.00000000      0.00000000      0.00000000</v>
  <i type="logical" name="LASPH"> T  </i>
 </incar>
 <structure name="primitive_cell" >
  <crystal>
   <varray name="basis" >
    <v>      11.73572724      -0.05744286       0.00000000 </v>
    <v>       0.05480788      11.21833490       0.00000000 </v>
    <v>       0.00000000       0.00000000      11.19562010 </v>
   </varray>
   <i name="volume">   1473.99817718 </i>
   <varray name="rec_basis" >
    <v>       0.08520785      -0.00041629       0.00000000 </v>
    <v>       0.00043630       0.08913766       0.00000000 </v>
    <v>       0.00000000       0.00000000       0.08932064 </v>
   </varray>
  </crystal>
  <varray name="positions" >
   <v>       0.03541706       0.36277547       0.35648149 </v>
   <v>      -0.13124269       0.36769238       0.37376509 </v>
   <v>       0.20209064       0.36769238       0.37376509 </v>
   <v>       0.03457542       0.37011947       0.12029448 </v>
   <v>      -0.13123875       0.21898060       0.27246215 </v>
   <v>       0.20209458       0.21898060       0.27246215 </v>
   <v>      -0.13123875       0.46898060       0.22753785 </v>
   <v>       0.20209458       0.46898060       0.22753785 </v>
   <v>       0.03542751       0.12011947       0.37970552 </v>
   <v>       0.03542751      -0.37988053       0.37970552 </v>
   <v>      -0.13123946       0.26225309      -0.48003463 </v>
   <v>       0.20209387       0.26225309      -0.48003463 </v>
   <v>      -0.13123946      -0.48774691       0.48003463 </v>
   <v>       0.20209387      -0.48774691       0.48003463 </v>
   <v>       0.03542751       0.37011947      -0.37970552 </v>
   <v>       0.03541706       0.11277547       0.14351851 </v>
   <v>       0.03541706      -0.38722453       0.14351851 </v>
   <v>       0.36875039       0.36277547       0.35648149 </v>
   <v>      -0.29791628       0.36277547       0.35648149 </v>
   <v>      -0.13124269       0.11769238       0.12623491 </v>
   <v>       0.20209064       0.11769238       0.12623491 </v>
   <v>       0.03541706       0.11277547      -0.35648149 </v>
   <v>       0.03541706      -0.38722453      -0.35648149 </v>
   <v>      -0.13124269      -0.38230762       0.12623491 </v>
   <v>       0.20209064      -0.38230762       0.12623491 </v>
   <v>      -0.13123946       0.26225309       0.01996537 </v>
   <v>       0.20209387       0.26225309       0.01996537 </v>
   <v>      -0.13124269       0.11769238      -0.37376509 </v>
   <v>       0.20209064       0.11769238      -0.37376509 </v>
   <v>      -0.13123875      -0.28101940       0.27246215 </v>
   <v>       0.20209458      -0.28101940       0.27246215 </v>
   <v>      -0.13124269      -0.38230762      -0.37376509 </v>
   <v>       0.20209064      -0.38230762      -0.37376509 </v>
   <v>      -0.13123946       0.01225309       0.48003463 </v>
   <v>       0.20209387       0.01225309       0.48003463 </v>
   <v>      -0.29790582       0.37011947       0.12029448 </v>
   <v>       0.36876084       0.37011947       0.12029448 </v>
   <v>      -0.13123875       0.46898060      -0.27246215 </v>
   <v>       0.20209458       0.46898060      -0.27246215 </v>
   <v>      -0.29790582       0.12011947       0.37970552 </v>
   <v>       0.36876084       0.12011947       0.37970552 </v>
   <v>      -0.29790582      -0.37988053       0.37970552 </v>
   <v>       0.36876084      -0.37988053       0.37970552 </v>
   <v>      -0.29790582       0.37011947      -0.37970552 </v>
   <v>       0.36876084       0.37011947      -0.37970552 </v>
   <v>      -0.13123946      -0.48774691      -0.01996537 </v>
   <v>       0.20209387      -0.48774691      -0.01996537 </v>
   <v>      -0.13123875      -0.03101940       0.22753785 </v>
   <v>       0.20209458      -0.03101940       0.22753785 </v>
   <v>      -0.13123946      -0.23774691      -0.48003463 </v>
   <v>       0.20209387      -0.23774691      -0.48003463 </v>
   <v>      -0.13123875       0.21898060      -0.22753785 </v>
   <v>       0.20209458       0.21898060      -0.22753785 </v>
   <v>       0.36875039      -0.38722453       0.14351851 </v>
   <v>      -0.29791628       0.11277547       0.14351851 </v>
   <v>       0.36875039       0.11277547       0.14351851 </v>
   <v>      -0.29791628      -0.38722453       0.14351851 </v>
   <v>       0.03541706       0.36277547      -0.14351851 </v>
   <v>       0.03541706      -0.13722453       0.35648149 </v>
   <v>      -0.13124269       0.36769238      -0.12623491 </v>
   <v>       0.20209064       0.36769238      -0.12623491 </v>
   <v>       0.36875039      -0.38722453      -0.35648149 </v>
   <v>      -0.29791628       0.11277547      -0.35648149 </v>
   <v>       0.36875039       0.11277547      -0.35648149 </v>
   <v>      -0.29791628      -0.38722453      -0.35648149 </v>
   <v>      -0.46457602       0.36769238       0.37376509 </v>
   <v>      -0.13124269      -0.13230762       0.37376509 </v>
   <v>       0.20209064      -0.13230762       0.37376509 </v>
   <v>       0.03542751       0.12011947      -0.12029448 </v>
   <v>       0.03542751      -0.37988053      -0.12029448 </v>
   <v>      -0.13123946       0.01225309      -0.01996537 </v>
   <v>       0.20209387       0.01225309      -0.01996537 </v>
   <v>       0.03542751      -0.12988053       0.12029448 </v>
   <v>      -0.46457208       0.21898060       0.27246215 </v>
   <v>      -0.46457208       0.46898060       0.22753785 </v>
   <v>      -0.13123946      -0.23774691       0.01996537 </v>
   <v>       0.20209387      -0.23774691       0.01996537 </v>
   <v>      -0.46457280       0.26225309      -0.48003463 </v>
   <v>      -0.46457280      -0.48774691       0.48003463 </v>
   <v>       0.03542751      -0.12988053      -0.37970552 </v>
   <v>      -0.13123875      -0.03101940      -0.27246215 </v>
   <v>       0.20209458      -0.03101940      -0.27246215 </v>
   <v>      -0.13123875      -0.28101940      -0.22753785 </v>
   <v>       0.20209458      -0.28101940      -0.22753785 </v>
   <v>       0.36875039       0.36277547      -0.14351851 </v>
   <v>      -0.29791628       0.36277547      -0.14351851 </v>
   <v>       0.36875039      -0.13722453       0.35648149 </v>
   <v>      -0.29791628      -0.13722453       0.35648149 </v>
   <v>      -0.46457602       0.11769238       0.12623491 </v>
   <v>      -0.46457602      -0.38230762       0.12623491 </v>
   <v>      -0.46457280       0.26225309       0.01996537 </v>
   <v>      -0.46457602       0.11769238      -0.37376509 </v>
   <v>      -0.29790582       0.12011947      -0.12029448 </v>
   <v>       0.36876084       0.12011947      -0.12029448 </v>
   <v>      -0.46457208      -0.28101940       0.27246215 </v>
   <v>      -0.46457602      -0.38230762      -0.37376509 </v>
   <v>      -0.46457280       0.01225309       0.48003463 </v>
   <v>      -0.29790582      -0.37988053      -0.12029448 </v>
   <v>       0.36876084      -0.37988053      -0.12029448 </v>
   <v>      -0.29790582      -0.12988053       0.12029448 </v>
   <v>       0.36876084      -0.12988053       0.12029448 </v>
   <v>      -0.46457208       0.46898060      -0.27246215 </v>
   <v>      -0.29790582      -0.12988053      -0.37970552 </v>
   <v>       0.36876084      -0.12988053      -0.37970552 </v>
   <v>      -0.46457280      -0.48774691      -0.01996537 </v>
   <v>      -0.46457208      -0.03101940       0.22753785 </v>
   <v>      -0.46457280      -0.23774691      -0.48003463 </v>
   <v>      -0.46457208       0.21898060      -0.22753785 </v>
   <v>       0.03541706      -0.13722453      -0.14351851 </v>
   <v>      -0.46457602       0.36769238      -0.12623491 </v>
   <v>      -0.13124269      -0.13230762      -0.12623491 </v>
   <v>       0.20209064      -0.13230762      -0.12623491 </v>
   <v>      -0.46457602      -0.13230762       0.37376509 </v>
   <v>      -0.46457280       0.01225309      -0.01996537 </v>
   <v>      -0.46457280      -0.23774691       0.01996537 </v>
   <v>      -0.46457208      -0.03101940      -0.27246215 </v>
   <v>      -0.46457208      -0.28101940      -0.22753785 </v>
   <v>       0.36875039      -0.13722453      -0.14351851 </v>
   <v>      -0.29791628      -0.13722453      -0.14351851 </v>
   <v>      -0.46457602      -0.13230762      -0.12623491 </v>
  </varray>
 </structure>
 <varray name="primitive_index" >
  <v type="int" >        1 </v>
  <v type="int" >       51 </v>
  <v type="int" >       49 </v>
  <v type="int" >       73 </v>
  <v type="int" >       27 </v>
  <v type="int" >       25 </v>
  <v type="int" >       39 </v>
  <v type="int" >       37 </v>
  <v type="int" >       85 </v>
  <v type="int" >       88 </v>
  <v type="int" >      117 </v>
  <v type="int" >      115 </v>
  <v type="int" >      102 </v>
  <v type="int" >      100 </v>
  <v type="int" >       79 </v>
  <v type="int" >       13 </v>
  <v type="int" >       16 </v>
  <v type="int" >        2 </v>
  <v type="int" >        3 </v>
  <v type="int" >       63 </v>
  <v type="int" >       61 </v>
  <v type="int" >       19 </v>
  <v type="int" >       22 </v>
  <v type="int" >       66 </v>
  <v type="int" >       64 </v>
  <v type="int" >      111 </v>
  <v type="int" >      109 </v>
  <v type="int" >       69 </v>
  <v type="int" >       67 </v>
  <v type="int" >       30 </v>
  <v type="int" >       28 </v>
  <v type="int" >       72 </v>
  <v type="int" >       70 </v>
  <v type="int" >       99 </v>
  <v type="int" >       97 </v>
  <v type="int" >       75 </v>
  <v type="int" >       74 </v>
  <v type="int" >       45 </v>
  <v type="int" >       43 </v>
  <v type="int" >       87 </v>
  <v type="int" >       86 </v>
  <v type="int" >       90 </v>
  <v type="int" >       89 </v>
  <v type="int" >       81 </v>
  <v type="int" >       80 </v>
  <v type="int" >      108 </v>
  <v type="int" >      106 </v>
  <v type="int" >       42 </v>
  <v type="int" >       40 </v>
  <v type="int" >      120 </v>
  <v type="int" >      118 </v>
  <v type="int" >       33 </v>
  <v type="int" >       31 </v>
  <v type="int" >       17 </v>
  <v type="int" >       15 </v>
  <v type="int" >       14 </v>
  <v type="int" >       18 </v>
  <v type="int" >        7 </v>
  <v type="int" >        4 </v>
  <v type="int" >       57 </v>
  <v type="int" >       55 </v>
  <v type="int" >       23 </v>
  <v type="int" >       21 </v>
  <v type="int" >       20 </v>
  <v type="int" >       24 </v>
  <v type="int" >       50 </v>
  <v type="int" >       54 </v>
  <v type="int" >       52 </v>
  <v type="int" >       91 </v>
  <v type="int" >       94 </v>
  <v type="int" >      105 </v>
  <v type="int" >      103 </v>
  <v type="int" >       76 </v>
  <v type="int" >       26 </v>
  <v type="int" >       38 </v>
  <v type="int" >      114 </v>
  <v type="int" >      112 </v>
  <v type="int" >      116 </v>
  <v type="int" >      101 </v>
  <v type="int" >       82 </v>
  <v type="int" >       48 </v>
  <v type="int" >       46 </v>
  <v type="int" >       36 </v>
  <v type="int" >       34 </v>
  <v type="int" >        8 </v>
  <v type="int" >        9 </v>
  <v type="int" >        5 </v>
  <v type="int" >        6 </v>
  <v type="int" >       62 </v>
  <v type="int" >       65 </v>
  <v type="int" >      110 </v>
  <v type="int" >       68 </v>
  <v type="int" >       93 </v>
  <v type="int" >       92 </v>
  <v type="int" >       29 </v>
  <v type="int" >       71 </v>
  <v type="int" >       98 </v>
  <v type="int" >       96 </v>
  <v type="int" >       95 </v>
  <v type="int" >       78 </v>
  <v type="int" >       77 </v>
  <v type="int" >       44 </v>
  <v type="int" >       84 </v>
  <v type="int" >       83 </v>
  <v type="int" >      107 </v>
  <v type="int" >       41 </v>
  <v type="int" >      119 </v>
  <v type="int" >       32 </v>
  <v type="int" >       10 </v>
  <v type="int" >       56 </v>
  <v type="int" >       60 </v>
  <v type="int" >       58 </v>
  <v type="int" >       53 </v>
  <v type="int" >      104 </v>
  <v type="int" >      113 </v>
  <v type="int" >       47 </v>
  <v type="int" >       35 </v>
  <v type="int" >       11 </v>
  <v type="int" >       12 </v>
  <v type="int" >       59 </v>
 </varray>
 <kpoints>
  <generation param="Gamma">
   <v type="int" name="divisions">       3        3        3 </v>
   <v name="usershift">      0.00000000       0.00000000       0.00000000 </v>
   <v name="genvec1">      0.33333333       0.00000000       0.00000000 </v>
   <v name="genvec2">     -0.00000000       0.33333333       0.00000000 </v>
   <v name="genvec3">      0.00000000       0.00000000       0.33333333 </v>
   <v name="shift">      0.00000000       0.00000000       0.00000000 </v>
  </generation>
  <varray name="kpointlist" >
   <v>       0.00000000       0.00000000       0.00000000 </v>
   <v>       0.33333333       0.00000000       0.00000000 </v>
   <v>       0.00000000       0.33333333       0.00000000 </v>
   <v>       0.33333333       0.33333333       0.00000000 </v>
   <v>      -0.33333333       0.33333333       0.00000000 </v>
   <v>       0.00000000       0.00000000       0.33333333 </v>
   <v>       0.33333333       0.00000000       0.33333333 </v>
   <v>      -0.33333333       0.00000000       0.33333333 </v>
   <v>       0.00000000       0.33333333       0.33333333 </v>
   <v>       0.33333333       0.33333333       0.33333333 </v>
   <v>      -0.33333333       0.33333333       0.33333333 </v>
   <v>      -0.00000000      -0.33333333       0.33333333 </v>
   <v>       0.33333333      -0.33333333       0.33333333 </v>
   <v>      -0.33333333      -0.33333333       0.33333333 </v>
  </varray>
  <varray name="weights" >
   <v>       0.03703704 </v>
   <v>       0.07407407 </v>
   <v>       0.07407407 </v>
   <v>       0.07407407 </v>
   <v>       0.07407407 </v>
   <v>       0.07407407 </v>
   <v>       0.07407407 </v>
   <v>       0.07407407 </v>
   <v>       0.07407407 </v>
   <v>       0.07407407 </v>
   <v>       0.07407407 </v>
   <v>       0.07407407 </v>
   <v>       0.07407407 </v>
   <v>       0.07407407 </v>
  </varray>
 </kpoints>
 <parameters>
  <separator name="general" >
   <i type="string" name="SYSTEM">unknown system</i>
   <i type="logical" name="LCOMPAT"> F  </i>
  </separator>
  <separator name="electronic" >
   <i type="string" name="PREC">accura</i>
   <i name="ENMAX">    650.00000000</i>
   <i name="ENAUG">    628.94500000</i>
   <i name="EDIFF">      0.00000100</i>
   <i type="int" name="IALGO">    38</i>
   <i type="int" name="IWAVPR">    10</i>
   <i type="int" name="NBANDS">   552</i>
   <i name="NELECT">    768.00000000</i>
   <i type="int" name="TURBO">     0</i>
   <i type="int" name="IRESTART">     0</i>
   <i type="int" name="NREBOOT">     0</i>
   <i type="int" name="NMIN">     0</i>
   <i name="EREF">      0.00000000</i>
   <separator name="electronic smearing" >
    <i type="int" name="ISMEAR">     0</i>
    <i name="SIGMA">      0.05000000</i>
    <i name="KSPACING">      0.50000000</i>
    <i type="logical" name="KGAMMA"> T  </i>
   </separator>
   <separator name="electronic projectors" >
    <i type="logical" name="LREAL"> F  </i>
    <v name="ROPT">      0.00000000      0.00000000      0.00000000      0.00000000</v>
    <i type="int" name="LMAXPAW">  -100</i>
    <i type="int" name="LMAXMIX">     4</i>
    <i type="logical" name="NLSPLINE"> F  </i>
   </separator>
   <separator name="electronic startup" >
    <i type="int" name="ISTART">     0</i>
    <i type="int" name="ICHARG">     1</i>
    <i type="int" name="INIWAV">     1</i>
   </separator>
   <separator name="electronic spin" >
    <i type="int" name="ISPIN">     2</i>
    <i type="logical" name="LNONCOLLINEAR"> F  </i>
    <v name="MAGMOM">      0.60000000      0.60000000      0.60000000      0.60000000      0.60000000      0.60000000      0.60000000      0.60000000      0.60000000      0.60000000      0.60000000      0.60000000      0.60000000      0.60000000      0.60000000      0.60000000      0.60000000      0.60000000      0.60000000      0.60000000
      0.60000000      0.60000000      0.60000000      0.60000000      0.60000000      0.60000000      0.60000000      0.60000000      0.60000000      0.60000000      0.60000000      0.60000000      0.60000000      0.60000000      0.60000000      0.60000000      0.60000000      0.60000000      0.60000000      0.60000000
      0.60000000      0.60000000      0.60000000      0.60000000      0.60000000      0.60000000      0.60000000      0.60000000      0.60000000      0.60000000      0.60000000      0.60000000      0.60000000      0.60000000      0.60000000      0.60000000      0.60000000      0.60000000      0.60000000      0.60000000
      0.60000000      0.60000000      0.60000000      0.60000000      0.60000000      0.60000000      0.60000000      0.60000000      0.60000000      0.60000000      0.60000000      0.60000000      0.60000000      0.60000000      0.60000000      0.60000000      0.60000000      0.60000000      0.60000000      0.60000000
      0.60000000      0.60000000      0.60000000      0.60000000      0.60000000      0.60000000      0.60000000      0.60000000      0.60000000      0.60000000      0.60000000      0.60000000      0.60000000      0.60000000      0.60000000      0.60000000      5.00000000      5.00000000      5.00000000      5.00000000
      5.00000000      5.00000000      5.00000000      5.00000000      5.00000000      5.00000000      5.00000000      5.00000000      5.00000000      5.00000000      5.00000000      5.00000000      5.00000000      5.00000000      5.00000000      5.00000000      5.00000000      5.00000000      5.00000000      5.00000000
</v>
    <i name="NUPDOWN">     -1.00000000</i>
    <i type="logical" name="LSORBIT"> F  </i>
    <v name="SAXIS">      0.00000000      0.00000000      1.00000000</v>
    <i type="logical" name="LSPIRAL"> F  </i>
    <v name="QSPIRAL">      0.00000000      0.00000000      0.00000000</v>
    <i type="logical" name="LZEROZ"> F  </i>
   </separator>
   <separator name="electronic exchange-correlation" >
    <i type="logical" name="LASPH"> T  </i>
    <i type="logical" name="LMETAGGA"> F  </i>
   </separator>
   <separator name="electronic convergence" >
    <i type="int" name="NELM">   200</i>
    <i type="int" name="NELMDL">     0</i>
    <i type="int" name="NELMIN">     8</i>
    <i name="ENINI">    650.00000000</i>
    <separator name="electronic convergence detail" >
     <i type="logical" name="LDIAG"> T  </i>
     <i type="logical" name="LSUBROT"> F  </i>
     <i name="WEIMIN">      0.00000000</i>
     <i name="EBREAK">      0.00000000</i>
     <i name="DEPER">      0.30000000</i>
     <i type="int" name="NRMM">     4</i>
     <i name="TIME">      0.40000000</i>
    </separator>
   </separator>
   <separator name="electronic mixer" >
    <i name="AMIX">      0.40000000</i>
    <i name="BMIX">      1.00000000</i>
    <i name="AMIN">      0.10000000</i>
    <i name="AMIX_MAG">      1.60000000</i>
    <i name="BMIX_MAG">      1.00000000</i>
    <separator name="electronic mixer details" >
     <i type="int" name="IMIX">     4</i>
     <i type="logical" name="MIXFIRST"> F  </i>
     <i type="int" name="MAXMIX">   -45</i>
     <i name="WC">    100.00000000</i>
     <i type="int" name="INIMIX">     1</i>
     <i type="int" name="MIXPRE">     1</i>
     <i type="int" name="MREMOVE">     5</i>
    </separator>
   </separator>
   <separator name="electronic dipolcorrection" >
    <i type="logical" name="LDIPOL"> F  </i>
    <i type="logical" name="LMONO"> F  </i>
    <i type="int" name="IDIPOL">     0</i>
    <i name="EPSILON">      1.00000000</i>
    <v name="DIPOL">   -100.00000000   -100.00000000   -100.00000000</v>
    <i name="EFIELD">      0.00000000</i>
   </separator>
  </separator>
  <separator name="grids" >
   <i type="int" name="NGX">    98</i>
   <i type="int" name="NGY">    96</i>
   <i type="int" name="NGZ">    96</i>
   <i type="int" name="NGXF">   196</i>
   <i type="int" name="NGYF">   192</i>
   <i type="int" name="NGZF">   192</i>
   <i type="logical" name="ADDGRID"> T  </i>
  </separator>
  <separator name="ionic" >
   <i type="int" name="NSW">     0</i>
   <i type="int" name="IBRION">    -1</i>
   <i type="int" name="MDALGO">     0</i>
   <i type="int" name="ISIF">     3</i>
   <i name="PSTRESS">      0.00000000</i>
   <i name="EDIFFG">      0.00001000</i>
   <i type="int" name="NFREE">     0</i>
   <i name="POTIM">      0.50000000</i>
   <i name="SMASS">     -3.00000000</i>
   <i name="SCALEE">      1.00000000</i>
  </separator>
  <separator name="ionic md" >
   <i name="TEBEG">      0.00010000</i>
   <i name="TEEND">      0.00010000</i>
   <i type="int" name="NBLOCK">     1</i>
   <i type="int" name="KBLOCK">     1</i>
   <i type="int" name="NPACO">   256</i>
   <i name="APACO">     16.00000000</i>
  </separator>
  <separator name="symmetry" >
   <i type="int" name="ISYM">     0</i>
   <i name="SYMPREC">      0.00001000</i>
  </separator>
  <separator name="dos" >
   <i type="int" name="LORBIT">     0</i>
   <v name="RWIGS">     -1.00000000     -1.00000000     -1.00000000     -1.00000000</v>
   <i type="int" name="NEDOS">   301</i>
   <i name="EMIN">     10.00000000</i>
   <i name="EMAX">    -10.00000000</i>
   <i name="EFERMI">      0.00000000</i>
  </separator>
  <separator name="writing" >
   <i type="int" name="NWRITE">     1</i>
   <i type="logical" name="LWAVE"> F  </i>
   <i type="logical" name="LDOWNSAMPLE"> F  </i>
   <i type="logical" name="LCHARG"> T  </i>
   <i type="logical" name="LPARD"> F  </i>
   <i type="logical" name="LVTOT"> F  </i>
   <i type="logical" name="LVHAR"> F  </i>
   <i type="logical" name="LELF"> F  </i>
   <i type="logical" name="LOPTICS"> F  </i>
   <v name="STM">      0.00000000      0.00000000      0.00000000      0.00000000      0.00000000      0.00000000      0.00000000</v>
  </separator>
  <separator name="performance" >
   <i type="int" name="NPAR">     4</i>
   <i type="int" name="NSIM">     4</i>
   <i type="int" name="NBLK">    -1</i>
   <i type="logical" name="LPLANE"> T  </i>
   <i type="logical" name="LSCALAPACK"> T  </i>
   <i type="logical" name="LSCAAWARE"> F  </i>
   <i type="logical" name="LSCALU"> F  </i>
   <i type="logical" name="LASYNC"> F  </i>
   <i type="logical" name="LORBITALREAL"> F  </i>
  </separator>
  <separator name="miscellaneous" >
   <i type="int" name="IDIOT">     3</i>
   <i type="int" name="ISPECIAL">     0</i>
   <i type="logical" name="LMUSIC"> F  </i>
   <v name="POMASS">      7.01000000     16.00000000     32.06600000     55.84700000</v>
   <v name="DARWINR">      0.00000000      0.00000000      0.00000000      0.00000000</v>
   <v name="DARWINV">      1.00000000      1.00000000      1.00000000      1.00000000</v>
   <i type="logical" name="LCORR"> T  </i>
  </separator>
  <i type="logical" name="GGA_COMPAT"> T  </i>
  <i type="logical" name="LBERRY"> F  </i>
  <i type="int" name="ICORELEVEL">     0</i>
  <i type="logical" name="LDAU"> T  </i>
  <v type="int" name="LDAUTYPE">     2</v>
  <v type="int" name="LDAUL">    -1</v>
  <v name="LDAUU">      0.00000000</v>
  <v name="LDAUJ">      0.00000000</v>
  <i type="int" name="LDAUPRINT">     0</i>
  <i type="int" name="I_CONSTRAINED_M">     0</i>
  <separator name="electronic exchange-correlation" >
   <i type="string" name="GGA">PE</i>
   <i type="int" name="VOSKOWN">     0</i>
   <i type="logical" name="LHFCALC"> F  </i>
   <i type="string" name="PRECFOCK"></i>
   <i type="logical" name="LSYMGRAD"> F  </i>
   <i type="logical" name="LHFONE"> F  </i>
   <i type="logical" name="LRHFCALC"> F  </i>
   <i type="logical" name="LTHOMAS"> F  </i>
   <i type="logical" name="LMODELHF"> F  </i>
   <i name="ENCUT4O">     -1.00000000</i>
   <i type="int" name="EXXOEP">     0</i>
   <i type="int" name="FOURORBIT">     0</i>
   <i name="AEXX">      0.00000000</i>
   <i name="HFALPHA">      0.00000000</i>
   <i name="MCALPHA">      0.00000000</i>
   <i name="ALDAX">      1.00000000</i>
   <i name="AGGAX">      1.00000000</i>
   <i name="ALDAC">      1.00000000</i>
   <i name="AGGAC">      1.00000000</i>
   <i type="int" name="NKREDX">     1</i>
   <i type="int" name="NKREDY">     1</i>
   <i type="int" name="NKREDZ">     1</i>
   <i type="logical" name="SHIFTRED"> F  </i>
   <i type="logical" name="ODDONLY"> F  </i>
   <i type="logical" name="EVENONLY"> F  </i>
   <i type="int" name="LMAXFOCK">     0</i>
   <i type="int" name="NMAXFOCKAE">     0</i>
   <i type="logical" name="LFOCKAEDFT"> F  </i>
   <i name="HFSCREEN">      0.00000000</i>
   <i name="HFSCREENC">      0.00000000</i>
   <i type="int" name="NBANDSGWLOW">     0</i>
  </separator>
  <separator name="vdW DFT" >
   <i type="logical" name="LUSE_VDW"> F  </i>
   <i name="Zab_VDW">     -0.84910000</i>
   <i name="PARAM1">      0.12340000</i>
   <i name="PARAM2">      1.00000000</i>
   <i name="PARAM3">      0.00000000</i>
  </separator>
  <separator name="model GW" >
   <i type="int" name="MODEL_GW">     0</i>
   <i name="MODEL_EPS0">      7.36999089</i>
   <i name="MODEL_ALPHA">      1.00000000</i>
  </separator>
  <separator name="linear response parameters" >
   <i type="logical" name="LEPSILON"> F  </i>
   <i type="logical" name="LRPA"> F  </i>
   <i type="logical" name="LNABLA"> F  </i>
   <i type="logical" name="LVEL"> F  </i>
   <i type="int" name="KINTER">     0</i>
   <i name="CSHIFT">      0.10000000</i>
   <i name="OMEGAMAX">     -1.00000000</i>
   <i name="DEG_THRESHOLD">      0.00200000</i>
   <i name="RTIME">     -0.10000000</i>
   <i name="WPLASMAI">      0.00000000</i>
   <v name="DFIELD">      0.00000000      0.00000000      0.00000000</v>
   <v name="WPLASMA">      0.00000000      0.00000000      0.00000000      0.00000000      0.00000000      0.00000000      0.00000000      0.00000000      0.00000000</v>
  </separator>
  <separator name="orbital magnetization" >
   <i type="logical" name="NUCIND"> F  </i>
   <v name="MAGPOS">      0.00000000      0.00000000      0.00000000</v>
   <i type="logical" name="LNICSALL"> T  </i>
   <i type="logical" name="ORBITALMAG"> F  </i>
   <i type="logical" name="LMAGBLOCH"> F  </i>
   <i type="logical" name="LCHIMAG"> F  </i>
   <i type="logical" name="LGAUGE"> T  </i>
   <i type="int" name="MAGATOM">     0</i>
   <v name="MAGDIPOL">      0.00000000      0.00000000      0.00000000</v>
   <v name="AVECCONST">      0.00000000      0.00000000      0.00000000</v>
  </separator>
  <separator name="response functions" >
   <i type="logical" name="LADDER"> F  </i>
   <i type="logical" name="LRPAFORCE"> F  </i>
   <i type="logical" name="LFXC"> F  </i>
   <i type="logical" name="LHARTREE"> T  </i>
   <i type="int" name="IBSE">     0</i>
   <v type="int" name="KPOINT">    -1     0     0     0</v>
   <i type="logical" name="LTCTE"> F  </i>
   <i type="logical" name="LTETE"> F  </i>
   <i type="logical" name="LTRIPLET"> F  </i>
   <i type="logical" name="LFXCEPS"> F  </i>
   <i type="logical" name="LFXHEG"> F  </i>
   <i type="int" name="NATURALO">     2</i>
   <i type="logical" name="L2ORDER"> F  </i>
   <i type="logical" name="LMP2LT"> F  </i>
   <i type="logical" name="LUSEW"> F  </i>
   <i name="ENCUTGW">     -2.00000000</i>
   <i name="ENCUTGWSOFT">     -2.00000000</i>
   <i name="ENCUTLF">     -1.00000000</i>
   <i type="int" name="LMAXMP2">    -1</i>
   <i name="SCISSOR">      0.00000000</i>
   <i type="int" name="NOMEGA">     0</i>
   <i type="int" name="NOMEGAR">     0</i>
   <i type="int" name="NBANDSGW">    -1</i>
   <i type="int" name="NBANDSO">    -1</i>
   <i type="int" name="NBANDSV">    -1</i>
   <i type="int" name="NELM">   200</i>
   <i type="int" name="NELMHF">     1</i>
   <i type="int" name="DIM">     3</i>
   <i type="int" name="ANTIRES">     0</i>
   <i name="OMEGAMAX">    -30.00000000</i>
   <i name="OMEGAMIN">    -30.00000000</i>
   <i name="OMEGATL">   -200.00000000</i>
   <i type="int" name="OMEGAGRID">   140</i>
   <i name="CSHIFT">     -0.10000000</i>
   <i type="logical" name="SELFENERGY"> F  </i>
   <i type="logical" name="LSPECTRAL"> F  </i>
   <i type="logical" name="LSPECTRALGW"> F  </i>
   <i type="logical" name="LSINGLES"> F  </i>
   <i type="logical" name="LFERMIGW"> F  </i>
   <i type="logical" name="ODDONLYGW"> F  </i>
   <i type="logical" name="EVENONLYGW"> F  </i>
   <i type="int" name="NKREDLFX">     1</i>
   <i type="int" name="NKREDLFY">     1</i>
   <i type="int" name="NKREDLFZ">     1</i>
   <i type="int" name="MAXMEM">  2800</i>
   <i type="int" name="TELESCOPE">     0</i>
   <i type="int" name="TAUPAR">     1</i>
   <i type="int" name="OMEGAPAR">    -1</i>
   <i name="LAMBDA">      1.00000000</i>
  </separator>
  <separator name="External order field" >
   <i name="OFIELD_KAPPA">      0.00000000</i>
   <v name="OFIELD_K">      0.00000000      0.00000000      0.00000000</v>
   <i name="OFIELD_Q6_NEAR">      0.00000000</i>
   <i name="OFIELD_Q6_FAR">      0.00000000</i>
   <i name="OFIELD_A">      0.00000000</i>
  </separator>
 </parameters>
 <atominfo>
  <atoms>     120 </atoms>
  <types>       4 </types>
  <array name="atoms" >
   <dimension dim="1">ion</dimension>
   <field type="string">element</field>
   <field type="int">atomtype</field>
   <set>
    <rc><c>Li</c><c>   1</c></rc>
    <rc><c>Li</c><c>   1</c></rc>
    <rc><c>Li</c><c>   1</c></rc>
    <rc><c>Li</c><c>   1</c></rc>
    <rc><c>Li</c><c>   1</c></rc>
    <rc><c>Li</c><c>   1</c></rc>
    <rc><c>Li</c><c>   1</c></rc>
    <rc><c>Li</c><c>   1</c></rc>
    <rc><c>Li</c><c>   1</c></rc>
    <rc><c>Li</c><c>   1</c></rc>
    <rc><c>Li</c><c>   1</c></rc>
    <rc><c>Li</c><c>   1</c></rc>
    <rc><c>Li</c><c>   1</c></rc>
    <rc><c>Li</c><c>   1</c></rc>
    <rc><c>Li</c><c>   1</c></rc>
    <rc><c>Li</c><c>   1</c></rc>
    <rc><c>Li</c><c>   1</c></rc>
    <rc><c>Li</c><c>   1</c></rc>
    <rc><c>Li</c><c>   1</c></rc>
    <rc><c>Li</c><c>   1</c></rc>
    <rc><c>Li</c><c>   1</c></rc>
    <rc><c>Li</c><c>   1</c></rc>
    <rc><c>Li</c><c>   1</c></rc>
    <rc><c>Li</c><c>   1</c></rc>
    <rc><c>Li</c><c>   1</c></rc>
    <rc><c>Li</c><c>   1</c></rc>
    <rc><c>Li</c><c>   1</c></rc>
    <rc><c>Li</c><c>   1</c></rc>
    <rc><c>Li</c><c>   1</c></rc>
    <rc><c>Li</c><c>   1</c></rc>
    <rc><c>Li</c><c>   1</c></rc>
    <rc><c>Li</c><c>   1</c></rc>
    <rc><c>Li</c><c>   1</c></rc>
    <rc><c>Li</c><c>   1</c></rc>
    <rc><c>Li</c><c>   1</c></rc>
    <rc><c>Li</c><c>   1</c></rc>
    <rc><c>Li</c><c>   1</c></rc>
    <rc><c>Li</c><c>   1</c></rc>
    <rc><c>Li</c><c>   1</c></rc>
    <rc><c>Li</c><c>   1</c></rc>
    <rc><c>Li</c><c>   1</c></rc>
    <rc><c>Li</c><c>   1</c></rc>
    <rc><c>Li</c><c>   1</c></rc>
    <rc><c>Li</c><c>   1</c></rc>
    <rc><c>Li</c><c>   1</c></rc>
    <rc><c>Li</c><c>   1</c></rc>
    <rc><c>Li</c><c>   1</c></rc>
    <rc><c>Li</c><c>   1</c></rc>
    <rc><c>O </c><c>   2</c></rc>
    <rc><c>O </c><c>   2</c></rc>
    <rc><c>O </c><c>   2</c></rc>
    <rc><c>O </c><c>   2</c></rc>
    <rc><c>O </c><c>   2</c></rc>
    <rc><c>O </c><c>   2</c></rc>
    <rc><c>O </c><c>   2</c></rc>
    <rc><c>O </c><c>   2</c></rc>
    <rc><c>O </c><c>   2</c></rc>
    <rc><c>O </c><c>   2</c></rc>
    <rc><c>O </c><c>   2</c></rc>
    <rc><c>O </c><c>   2</c></rc>
    <rc><c>O </c><c>   2</c></rc>
    <rc><c>O </c><c>   2</c></rc>
    <rc><c>O </c><c>   2</c></rc>
    <rc><c>O </c><c>   2</c></rc>
    <rc><c>O </c><c>   2</c></rc>
    <rc><c>O </c><c>   2</c></rc>
    <rc><c>O </c><c>   2</c></rc>
    <rc><c>O </c><c>   2</c></rc>
    <rc><c>O </c><c>   2</c></rc>
    <rc><c>O </c><c>   2</c></rc>
    <rc><c>O </c><c>   2</c></rc>
    <rc><c>O </c><c>   2</c></rc>
    <rc><c>S </c><c>   3</c></rc>
    <rc><c>S </c><c>   3</c></rc>
    <rc><c>S </c><c>   3</c></rc>
    <rc><c>S </c><c>   3</c></rc>
    <rc><c>S </c><c>   3</c></rc>
    <rc><c>S </c><c>   3</c></rc>
    <rc><c>S </c><c>   3</c></rc>
    <rc><c>S </c><c>   3</c></rc>
    <rc><c>S </c><c>   3</c></rc>
    <rc><c>S </c><c>   3</c></rc>
    <rc><c>S </c><c>   3</c></rc>
    <rc><c>S </c><c>   3</c></rc>
    <rc><c>S </c><c>   3</c></rc>
    <rc><c>S </c><c>   3</c></rc>
    <rc><c>S </c><c>   3</c></rc>
    <rc><c>S </c><c>   3</c></rc>
    <rc><c>S </c><c>   3</c></rc>
    <rc><c>S </c><c>   3</c></rc>
    <rc><c>S </c><c>   3</c></rc>
    <rc><c>S </c><c>   3</c></rc>
    <rc><c>S </c><c>   3</c></rc>
    <rc><c>S </c><c>   3</c></rc>
    <rc><c>S </c><c>   3</c></rc>
    <rc><c>S </c><c>   3</c></rc>
    <rc><c>Fe</c><c>   4</c></rc>
    <rc><c>Fe</c><c>   4</c></rc>
    <rc><c>Fe</c><c>   4</c></rc>
    <rc><c>Fe</c><c>   4</c></rc>
    <rc><c>Fe</c><c>   4</c></rc>
    <rc><c>Fe</c><c>   4</c></rc>
    <rc><c>Fe</c><c>   4</c></rc>
    <rc><c>Fe</c><c>   4</c></rc>
    <rc><c>Fe</c><c>   4</c></rc>
    <rc><c>Fe</c><c>   4</c></rc>
    <rc><c>Fe</c><c>   4</c></rc>
    <rc><c>Fe</c><c>   4</c></rc>
    <rc><c>Fe</c><c>   4</c></rc>
    <rc><c>Fe</c><c>   4</c></rc>
    <rc><c>Fe</c><c>   4</c></rc>
    <rc><c>Fe</c><c>   4</c></rc>
    <rc><c>Fe</c><c>   4</c></rc>
    <rc><c>Fe</c><c>   4</c></rc>
    <rc><c>Fe</c><c>   4</c></rc>
    <rc><c>Fe</c><c>   4</c></rc>
    <rc><c>Fe</c><c>   4</c></rc>
    <rc><c>Fe</c><c>   4</c></rc>
    <rc><c>Fe</c><c>   4</c></rc>
    <rc><c>Fe</c><c>   4</c></rc>
   </set>
  </array>
  <array name="atomtypes" >
   <dimension dim="1">type</dimension>
   <field type="int">atomspertype</field>
   <field type="string">element</field>
   <field>mass</field>
   <field>valence</field>
   <field type="string">pseudopotential</field>
   <set>
    <rc><c>  48</c><c>Li</c><c>      7.01000000</c><c>      3.00000000</c><c>  PAW_PBE Li_sv 10Sep2004               </c></rc>
    <rc><c>  24</c><c>O </c><c>     16.00000000</c><c>      6.00000000</c><c>  PAW_PBE O 08Apr2002                   </c></rc>
    <rc><c>  24</c><c>S </c><c>     32.06600000</c><c>      6.00000000</c><c>  PAW_PBE S 06Sep2000                   </c></rc>
    <rc><c>  24</c><c>Fe</c><c>     55.84700000</c><c>     14.00000000</c><c>  PAW_PBE Fe_pv 02Aug2007               </c></rc>
   </set>
  </array>
 </atominfo>
 <structure name="initialpos" >
  <crystal>
   <varray name="basis" >
    <v>      11.73572724      -0.05744286       0.00000000 </v>
    <v>       0.05480788      11.21833490       0.00000000 </v>
    <v>       0.00000000       0.00000000      11.19562010 </v>
   </varray>
   <i name="volume">   1473.99817718 </i>
   <varray name="rec_basis" >
    <v>       0.08520785      -0.00041629       0.00000000 </v>
    <v>       0.00043630       0.08913766       0.00000000 </v>
    <v>       0.00000000       0.00000000       0.08932064 </v>
   </varray>
  </crystal>
  <varray name="positions" >
   <v>       0.03541706       0.36277547       0.35648149 </v>
   <v>       0.36875039       0.36277547       0.35648149 </v>
   <v>       0.70208372       0.36277547       0.35648149 </v>
   <v>       0.03541706       0.86277547       0.35648149 </v>
   <v>       0.36875039       0.86277547       0.35648149 </v>
   <v>       0.70208372       0.86277547       0.35648149 </v>
   <v>       0.03541706       0.36277547       0.85648149 </v>
   <v>       0.36875039       0.36277547       0.85648149 </v>
   <v>       0.70208372       0.36277547       0.85648149 </v>
   <v>       0.03541706       0.86277547       0.85648149 </v>
   <v>       0.36875039       0.86277547       0.85648149 </v>
   <v>       0.70208372       0.86277547       0.85648149 </v>
   <v>       0.03541706       0.11277547       0.14351851 </v>
   <v>       0.36875039       0.11277547       0.14351851 </v>
   <v>       0.70208372       0.11277547       0.14351851 </v>
   <v>       0.03541706       0.61277547       0.14351851 </v>
   <v>       0.36875039       0.61277547       0.14351851 </v>
   <v>       0.70208372       0.61277547       0.14351851 </v>
   <v>       0.03541706       0.11277547       0.64351851 </v>
   <v>       0.36875039       0.11277547       0.64351851 </v>
   <v>       0.70208372       0.11277547       0.64351851 </v>
   <v>       0.03541706       0.61277547       0.64351851 </v>
   <v>       0.36875039       0.61277547       0.64351851 </v>
   <v>       0.70208372       0.61277547       0.64351851 </v>
   <v>       0.20209458       0.21898060       0.27246215 </v>
   <v>       0.53542792       0.21898060       0.27246215 </v>
   <v>       0.86876125       0.21898060       0.27246215 </v>
   <v>       0.20209458       0.71898060       0.27246215 </v>
   <v>       0.53542792       0.71898060       0.27246215 </v>
   <v>       0.86876125       0.71898060       0.27246215 </v>
   <v>       0.20209458       0.21898060       0.77246215 </v>
   <v>       0.53542792       0.21898060       0.77246215 </v>
   <v>       0.86876125       0.21898060       0.77246215 </v>
   <v>       0.20209458       0.71898060       0.77246215 </v>
   <v>       0.53542792       0.71898060       0.77246215 </v>
   <v>       0.86876125       0.71898060       0.77246215 </v>
   <v>       0.20209458       0.46898060       0.22753785 </v>
   <v>       0.53542792       0.46898060       0.22753785 </v>
   <v>       0.86876125       0.46898060       0.22753785 </v>
   <v>       0.20209458       0.96898060       0.22753785 </v>
   <v>       0.53542792       0.96898060       0.22753785 </v>
   <v>       0.86876125       0.96898060       0.22753785 </v>
   <v>       0.20209458       0.46898060       0.72753785 </v>
   <v>       0.53542792       0.46898060       0.72753785 </v>
   <v>       0.86876125       0.46898060       0.72753785 </v>
   <v>       0.20209458       0.96898060       0.72753785 </v>
   <v>       0.53542792       0.96898060       0.72753785 </v>
   <v>       0.86876125       0.96898060       0.72753785 </v>
   <v>       0.20209064       0.36769237       0.37376509 </v>
   <v>       0.53542398       0.36769237       0.37376509 </v>
   <v>       0.86875731       0.36769237       0.37376509 </v>
   <v>       0.20209064       0.86769237       0.37376509 </v>
   <v>       0.53542398       0.86769237       0.37376509 </v>
   <v>       0.86875731       0.86769237       0.37376509 </v>
   <v>       0.20209064       0.36769237       0.87376509 </v>
   <v>       0.53542398       0.36769237       0.87376509 </v>
   <v>       0.86875731       0.36769237       0.87376509 </v>
   <v>       0.20209064       0.86769237       0.87376509 </v>
   <v>       0.53542398       0.86769237       0.87376509 </v>
   <v>       0.86875731       0.86769237       0.87376509 </v>
   <v>       0.20209064       0.11769237       0.12623491 </v>
   <v>       0.53542398       0.11769237       0.12623491 </v>
   <v>       0.86875731       0.11769237       0.12623491 </v>
   <v>       0.20209064       0.61769237       0.12623491 </v>
   <v>       0.53542398       0.61769237       0.12623491 </v>
   <v>       0.86875731       0.61769237       0.12623491 </v>
   <v>       0.20209064       0.11769237       0.62623491 </v>
   <v>       0.53542398       0.11769237       0.62623491 </v>
   <v>       0.86875731       0.11769237       0.62623491 </v>
   <v>       0.20209064       0.61769237       0.62623491 </v>
   <v>       0.53542398       0.61769237       0.62623491 </v>
   <v>       0.86875731       0.61769237       0.62623491 </v>
   <v>       0.03457542       0.37011947       0.12029448 </v>
   <v>       0.36876084       0.37011947       0.12029448 </v>
   <v>       0.70209418       0.37011947       0.12029448 </v>
   <v>       0.03542751       0.87011947       0.12029448 </v>
   <v>       0.36876084       0.87011947       0.12029448 </v>
   <v>       0.70209418       0.87011947       0.12029448 </v>
   <v>       0.03542751       0.37011947       0.62029448 </v>
   <v>       0.36876084       0.37011947       0.62029448 </v>
   <v>       0.70209418       0.37011947       0.62029448 </v>
   <v>       0.03542751       0.87011947       0.62029448 </v>
   <v>       0.36876084       0.87011947       0.62029448 </v>
   <v>       0.70209418       0.87011947       0.62029448 </v>
   <v>       0.03542751       0.12011947       0.37970552 </v>
   <v>       0.36876084       0.12011947       0.37970552 </v>
   <v>       0.70209418       0.12011947       0.37970552 </v>
   <v>       0.03542751       0.62011947       0.37970552 </v>
   <v>       0.36876084       0.62011947       0.37970552 </v>
   <v>       0.70209418       0.62011947       0.37970552 </v>
   <v>       0.03542751       0.12011947       0.87970552 </v>
   <v>       0.36876084       0.12011947       0.87970552 </v>
   <v>       0.70209418       0.12011947       0.87970552 </v>
   <v>       0.03542751       0.62011947       0.87970552 </v>
   <v>       0.36876084       0.62011947       0.87970552 </v>
   <v>       0.70209418       0.62011947       0.87970552 </v>
   <v>       0.20209387       0.01225309       0.48003463 </v>
   <v>       0.53542720       0.01225309       0.48003463 </v>
   <v>       0.86876054       0.01225309       0.48003463 </v>
   <v>       0.20209387       0.51225309       0.48003463 </v>
   <v>       0.53542720       0.51225309       0.48003463 </v>
   <v>       0.86876054       0.51225309       0.48003463 </v>
   <v>       0.20209387       0.01225309       0.98003463 </v>
   <v>       0.53542720       0.01225309       0.98003463 </v>
   <v>       0.86876054       0.01225309       0.98003463 </v>
   <v>       0.20209387       0.51225309       0.98003463 </v>
   <v>       0.53542720       0.51225309       0.98003463 </v>
   <v>       0.86876054       0.51225309       0.98003463 </v>
   <v>       0.20209387       0.26225309       0.01996537 </v>
   <v>       0.53542720       0.26225309       0.01996537 </v>
   <v>       0.86876054       0.26225309       0.01996537 </v>
   <v>       0.20209387       0.76225309       0.01996537 </v>
   <v>       0.53542720       0.76225309       0.01996537 </v>
   <v>       0.86876054       0.76225309       0.01996537 </v>
   <v>       0.20209387       0.26225309       0.51996537 </v>
   <v>       0.53542720       0.26225309       0.51996537 </v>
   <v>       0.86876054       0.26225309       0.51996537 </v>
   <v>       0.20209387       0.76225309       0.51996537 </v>
   <v>       0.53542720       0.76225309       0.51996537 </v>
   <v>       0.86876054       0.76225309       0.51996537 </v>
  </varray>
 </structure>
 <calculation>
  <scstep>
   <time name="dav">  216.50  221.27</time>
   <time name="total">  218.41  223.26</time>
   <energy>
    <i name="alphaZ">   1915.67052055 </i>
    <i name="ewald"> -48532.24482366 </i>
    <i name="hartreedc"> -28983.31393608 </i>
    <i name="XCdc">   3297.26494282 </i>
    <i name="pawpsdc">  81710.32686745 </i>
    <i name="pawaedc"> -84426.12035439 </i>
    <i name="eentropy">     -0.01841483 </i>
    <i name="bandstr">   -670.16335694 </i>
    <i name="atom">  85731.96378919 </i>
    <i name="e_fr_energy">  10043.36523411 </i>
    <i name="e_wo_entrp">  10043.38364894 </i>
    <i name="e_0_energy">  10043.37444153 </i>
   </energy>
  </scstep>
  <scstep>
   <time name="dav">  209.12  213.62</time>
   <time name="total">  209.12  213.62</time>
   <energy>
    <i name="e_fr_energy">   1037.05567416 </i>
    <i name="e_wo_entrp">   1037.10793417 </i>
    <i name="e_0_energy">   1037.08180416 </i>
   </energy>
  </scstep>
  <scstep>
   <time name="dav">  230.74  235.50</time>
   <time name="total">  230.74  235.50</time>
   <energy>
    <i name="e_fr_energy">   -399.75269978 </i>
    <i name="e_wo_entrp">   -399.75269978 </i>
    <i name="e_0_energy">   -399.75269978 </i>
   </energy>
  </scstep>
  <scstep>
   <time name="dav">  260.23  265.30</time>
   <time name="total">  260.23  265.30</time>
   <energy>
    <i name="e_fr_energy">   -590.31899561 </i>
    <i name="e_wo_entrp">   -590.31899561 </i>
    <i name="e_0_energy">   -590.31899561 </i>
   </energy>
  </scstep>
  <scstep>
   <time name="dav">  329.60  336.42</time>
   <time name="total">  335.17  342.11</time>
   <energy>
    <i name="e_fr_energy">   -615.44281721 </i>
    <i name="e_wo_entrp">   -615.44281721 </i>
    <i name="e_0_energy">   -615.44281721 </i>
   </energy>
  </scstep>
  <scstep>
   <time name="dav">  267.88  273.83</time>
   <time name="total">  275.45  281.49</time>
   <energy>
    <i name="e_fr_energy">   -616.38687670 </i>
    <i name="e_wo_entrp">   -616.38687670 </i>
    <i name="e_0_energy">   -616.38687670 </i>
   </energy>
  </scstep>
  <scstep>
   <time name="dav">  302.86  309.57</time>
   <time name="total">  310.28  317.20</time>
   <energy>
    <i name="e_fr_energy">   -616.43529495 </i>
    <i name="e_wo_entrp">   -616.43529495 </i>
    <i name="e_0_energy">   -616.43529495 </i>
   </energy>
  </scstep>
  <scstep>
   <time name="dav">  292.25  298.67</time>
   <time name="total">  299.68  306.23</time>
   <energy>
    <i name="e_fr_energy">   -616.43548180 </i>
    <i name="e_wo_entrp">   -616.43548180 </i>
    <i name="e_0_energy">   -616.43548180 </i>
   </energy>
  </scstep>
  <scstep>
   <time name="dav">  303.03  309.34</time>
   <time name="total">  310.64  317.06</time>
   <energy>
    <i name="e_fr_energy">   -616.43483059 </i>
    <i name="e_wo_entrp">   -616.43483059 </i>
    <i name="e_0_energy">   -616.43483059 </i>
   </energy>
  </scstep>
  <scstep>
   <time name="dav">  299.34  305.52</time>
   <time name="total">  306.81  313.24</time>
   <energy>
    <i name="e_fr_energy">   -616.43463258 </i>
    <i name="e_wo_entrp">   -616.43463258 </i>
    <i name="e_0_energy">   -616.43463258 </i>
   </energy>
  </scstep>
  <scstep>
   <time name="dav">  320.13  327.00</time>
   <time name="total">  327.62  334.64</time>
   <energy>
    <i name="e_fr_energy">   -616.43266438 </i>
    <i name="e_wo_entrp">   -616.43266438 </i>
    <i name="e_0_energy">   -616.43266438 </i>
   </energy>
  </scstep>
  <scstep>
   <time name="dav">  232.81  238.25</time>
   <time name="total">  240.37  245.97</time>
   <energy>
    <i name="e_fr_energy">   -616.43243605 </i>
    <i name="e_wo_entrp">   -616.43243605 </i>
    <i name="e_0_energy">   -616.43243605 </i>
   </energy>
  </scstep>
  <scstep>
   <time name="dav">  279.14  284.44</time>
   <time name="total">  286.61  292.10</time>
   <energy>
    <i name="e_fr_energy">   -616.43227583 </i>
    <i name="e_wo_entrp">   -616.43227583 </i>
    <i name="e_0_energy">   -616.43227583 </i>
   </energy>
  </scstep>
  <scstep>
   <time name="dav">  279.02  285.17</time>
   <time name="total">  286.54  292.88</time>
   <energy>
    <i name="e_fr_energy">   -616.43225078 </i>
    <i name="e_wo_entrp">   -616.43225078 </i>
    <i name="e_0_energy">   -616.43225078 </i>
   </energy>
  </scstep>
  <scstep>
   <time name="dav">  223.47  228.30</time>
   <time name="total">  231.04  236.00</time>
   <energy>
    <i name="e_fr_energy">   -616.43221254 </i>
    <i name="e_wo_entrp">   -616.43221254 </i>
    <i name="e_0_energy">   -616.43221254 </i>
   </energy>
  </scstep>
  <scstep>
   <time name="dav">  247.75  253.17</time>
   <time name="total">  255.33  260.86</time>
   <energy>
    <i name="e_fr_energy">   -616.43219316 </i>
    <i name="e_wo_entrp">   -616.43219316 </i>
    <i name="e_0_energy">   -616.43219316 </i>
   </energy>
  </scstep>
  <scstep>
   <time name="dav">  268.95  274.44</time>
   <time name="total">  276.43  282.13</time>
   <energy>
    <i name="e_fr_energy">   -616.43219650 </i>
    <i name="e_wo_entrp">   -616.43219650 </i>
    <i name="e_0_energy">   -616.43219650 </i>
   </energy>
  </scstep>
  <scstep>
   <time name="dav">  177.06  180.97</time>
   <time name="total">  179.00  182.98</time>
   <energy>
    <i name="alphaZ">   1915.67052055 </i>
    <i name="ewald"> -48532.24482366 </i>
    <i name="hartreedc"> -28983.41383707 </i>
    <i name="XCdc">   3297.27369935 </i>
    <i name="pawpsdc">  81708.24551041 </i>
    <i name="pawaedc"> -84424.00696200 </i>
    <i name="eentropy">     -0.00000000 </i>
    <i name="bandstr"> -11329.92009391 </i>
    <i name="atom">  85731.96378919 </i>
    <i name="e_fr_energy">   -616.43219713 </i>
    <i name="e_wo_entrp">   -616.43219713 </i>
    <i name="e_0_energy">   -616.43219713 </i>
   </energy>
  </scstep>
  <structure>
   <crystal>
    <varray name="basis" >
     <v>      11.73572724      -0.05744286       0.00000000 </v>
     <v>       0.05480788      11.21833490       0.00000000 </v>
     <v>       0.00000000       0.00000000      11.19562010 </v>
    </varray>
    <i name="volume">   1473.99817718 </i>
    <varray name="rec_basis" >
     <v>       0.08520785      -0.00041629       0.00000000 </v>
     <v>       0.00043630       0.08913766       0.00000000 </v>
     <v>       0.00000000       0.00000000       0.08932064 </v>
    </varray>
   </crystal>
   <varray name="positions" >
    <v>       0.03541706       0.36277547       0.35648149 </v>
    <v>       0.36875039       0.36277547       0.35648149 </v>
    <v>       0.70208372       0.36277547       0.35648149 </v>
    <v>       0.03541706       0.86277547       0.35648149 </v>
    <v>       0.36875039       0.86277547       0.35648149 </v>
    <v>       0.70208372       0.86277547       0.35648149 </v>
    <v>       0.03541706       0.36277547       0.85648149 </v>
    <v>       0.36875039       0.36277547       0.85648149 </v>
    <v>       0.70208372       0.36277547       0.85648149 </v>
    <v>       0.03541706       0.86277547       0.85648149 </v>
    <v>       0.36875039       0.86277547       0.85648149 </v>
    <v>       0.70208372       0.86277547       0.85648149 </v>
    <v>       0.03541706       0.11277547       0.14351851 </v>
    <v>       0.36875039       0.11277547       0.14351851 </v>
    <v>       0.70208372       0.11277547       0.14351851 </v>
    <v>       0.03541706       0.61277547       0.14351851 </v>
    <v>       0.36875039       0.61277547       0.14351851 </v>
    <v>       0.70208372       0.61277547       0.14351851 </v>
    <v>       0.03541706       0.11277547       0.64351851 </v>
    <v>       0.36875039       0.11277547       0.64351851 </v>
    <v>       0.70208372       0.11277547       0.64351851 </v>
    <v>       0.03541706       0.61277547       0.64351851 </v>
    <v>       0.36875039       0.61277547       0.64351851 </v>
    <v>       0.70208372       0.61277547       0.64351851 </v>
    <v>       0.20209458       0.21898060       0.27246215 </v>
    <v>       0.53542792       0.21898060       0.27246215 </v>
    <v>       0.86876125       0.21898060       0.27246215 </v>
    <v>       0.20209458       0.71898060       0.27246215 </v>
    <v>       0.53542792       0.71898060       0.27246215 </v>
    <v>       0.86876125       0.71898060       0.27246215 </v>
    <v>       0.20209458       0.21898060       0.77246215 </v>
    <v>       0.53542792       0.21898060       0.77246215 </v>
    <v>       0.86876125       0.21898060       0.77246215 </v>
    <v>       0.20209458       0.71898060       0.77246215 </v>
    <v>       0.53542792       0.71898060       0.77246215 </v>
    <v>       0.86876125       0.71898060       0.77246215 </v>
    <v>       0.20209458       0.46898060       0.22753785 </v>
    <v>       0.53542792       0.46898060       0.22753785 </v>
    <v>       0.86876125       0.46898060       0.22753785 </v>
    <v>       0.20209458       0.96898060       0.22753785 </v>
    <v>       0.53542792       0.96898060       0.22753785 </v>
    <v>       0.86876125       0.96898060       0.22753785 </v>
    <v>       0.20209458       0.46898060       0.72753785 </v>
    <v>       0.53542792       0.46898060       0.72753785 </v>
    <v>       0.86876125       0.46898060       0.72753785 </v>
    <v>       0.20209458       0.96898060       0.72753785 </v>
    <v>       0.53542792       0.96898060       0.72753785 </v>
    <v>       0.86876125       0.96898060       0.72753785 </v>
    <v>       0.20209064       0.36769237       0.37376509 </v>
    <v>       0.53542398       0.36769237       0.37376509 </v>
    <v>       0.86875731       0.36769237       0.37376509 </v>
    <v>       0.20209064       0.86769237       0.37376509 </v>
    <v>       0.53542398       0.86769237       0.37376509 </v>
    <v>       0.86875731       0.86769237       0.37376509 </v>
    <v>       0.20209064       0.36769237       0.87376509 </v>
    <v>       0.53542398       0.36769237       0.87376509 </v>
    <v>       0.86875731       0.36769237       0.87376509 </v>
    <v>       0.20209064       0.86769237       0.87376509 </v>
    <v>       0.53542398       0.86769237       0.87376509 </v>
    <v>       0.86875731       0.86769237       0.87376509 </v>
    <v>       0.20209064       0.11769237       0.12623491 </v>
    <v>       0.53542398       0.11769237       0.12623491 </v>
    <v>       0.86875731       0.11769237       0.12623491 </v>
    <v>       0.20209064       0.61769237       0.12623491 </v>
    <v>       0.53542398       0.61769237       0.12623491 </v>
    <v>       0.86875731       0.61769237       0.12623491 </v>
    <v>       0.20209064       0.11769237       0.62623491 </v>
    <v>       0.53542398       0.11769237       0.62623491 </v>
    <v>       0.86875731       0.11769237       0.62623491 </v>
    <v>       0.20209064       0.61769237       0.62623491 </v>
    <v>       0.53542398       0.61769237       0.62623491 </v>
    <v>       0.86875731       0.61769237       0.62623491 </v>
    <v>       0.03457542       0.37011947       0.12029448 </v>
    <v>       0.36876084       0.37011947       0.12029448 </v>
    <v>       0.70209418       0.37011947       0.12029448 </v>
    <v>       0.03542751       0.87011947       0.12029448 </v>
    <v>       0.36876084       0.87011947       0.12029448 </v>
    <v>       0.70209418       0.87011947       0.12029448 </v>
    <v>       0.03542751       0.37011947       0.62029448 </v>
    <v>       0.36876084       0.37011947       0.62029448 </v>
    <v>       0.70209418       0.37011947       0.62029448 </v>
    <v>       0.03542751       0.87011947       0.62029448 </v>
    <v>       0.36876084       0.87011947       0.62029448 </v>
    <v>       0.70209418       0.87011947       0.62029448 </v>
    <v>       0.03542751       0.12011947       0.37970552 </v>
    <v>       0.36876084       0.12011947       0.37970552 </v>
    <v>       0.70209418       0.12011947       0.37970552 </v>
    <v>       0.03542751       0.62011947       0.37970552 </v>
    <v>       0.36876084       0.62011947       0.37970552 </v>
    <v>       0.70209418       0.62011947       0.37970552 </v>
    <v>       0.03542751       0.12011947       0.87970552 </v>
    <v>       0.36876084       0.12011947       0.87970552 </v>
    <v>       0.70209418       0.12011947       0.87970552 </v>
    <v>       0.03542751       0.62011947       0.87970552 </v>
    <v>       0.36876084       0.62011947       0.87970552 </v>
    <v>       0.70209418       0.62011947       0.87970552 </v>
    <v>       0.20209387       0.01225309       0.48003463 </v>
    <v>       0.53542720       0.01225309       0.48003463 </v>
    <v>       0.86876054       0.01225309       0.48003463 </v>
    <v>       0.20209387       0.51225309       0.48003463 </v>
    <v>       0.53542720       0.51225309       0.48003463 </v>
    <v>       0.86876054       0.51225309       0.48003463 </v>
    <v>       0.20209387       0.01225309       0.98003463 </v>
    <v>       0.53542720       0.01225309       0.98003463 </v>
    <v>       0.86876054       0.01225309       0.98003463 </v>
    <v>       0.20209387       0.51225309       0.98003463 </v>
    <v>       0.53542720       0.51225309       0.98003463 </v>
    <v>       0.86876054       0.51225309       0.98003463 </v>
    <v>       0.20209387       0.26225309       0.01996537 </v>
    <v>       0.53542720       0.26225309       0.01996537 </v>
    <v>       0.86876054       0.26225309       0.01996537 </v>
    <v>       0.20209387       0.76225309       0.01996537 </v>
    <v>       0.53542720       0.76225309       0.01996537 </v>
    <v>       0.86876054       0.76225309       0.01996537 </v>
    <v>       0.20209387       0.26225309       0.51996537 </v>
    <v>       0.53542720       0.26225309       0.51996537 </v>
    <v>       0.86876054       0.26225309       0.51996537 </v>
    <v>       0.20209387       0.76225309       0.51996537 </v>
    <v>       0.53542720       0.76225309       0.51996537 </v>
    <v>       0.86876054       0.76225309       0.51996537 </v>
   </varray>
  </structure>
  <varray name="forces" >
   <v>      -0.00343258      -0.00003574      -0.00011795 </v>
   <v>       0.00260321      -0.00011480       0.00041774 </v>
   <v>       0.00033289       0.00002155      -0.00063987 </v>
   <v>       0.00002143      -0.00004961      -0.00012508 </v>
   <v>       0.00207489      -0.00004198      -0.00000551 </v>
   <v>      -0.00020056      -0.00004321      -0.00020972 </v>
   <v>      -0.00259124      -0.00003592      -0.00013013 </v>
   <v>       0.00314099      -0.00005818      -0.00053046 </v>
   <v>       0.00086124      -0.00003921       0.00032127 </v>
   <v>      -0.00005111      -0.00005561      -0.00012511 </v>
   <v>       0.00211419      -0.00003113      -0.00018889 </v>
   <v>      -0.00015682      -0.00005690      -0.00002204 </v>
   <v>      -0.00270832      -0.00004940       0.00012150 </v>
   <v>       0.00295728      -0.00049157       0.00032438 </v>
   <v>       0.00068708       0.00040175      -0.00011142 </v>
   <v>      -0.00337197      -0.00002102       0.00012190 </v>
   <v>       0.00281548       0.00037448       0.00025194 </v>
   <v>       0.00053373      -0.00047410      -0.00003587 </v>
   <v>       0.00002909      -0.00005262       0.00012102 </v>
   <v>       0.00208590      -0.00012397      -0.00003724 </v>
   <v>      -0.00019039       0.00003313       0.00025208 </v>
   <v>       0.00000145      -0.00005015       0.00012345 </v>
   <v>       0.00208453       0.00000318      -0.00002651 </v>
   <v>      -0.00018724      -0.00009227       0.00024375 </v>
   <v>       0.00098429      -0.00200531       0.00239996 </v>
   <v>       0.00071794       0.00009334      -0.00004760 </v>
   <v>       0.00092008       0.00217238      -0.00250654 </v>
   <v>      -0.00037798       0.00054119       0.00060051 </v>
   <v>       0.00023858       0.00009470      -0.00004285 </v>
   <v>      -0.00044738      -0.00035577      -0.00070639 </v>
   <v>      -0.00048409      -0.00073788      -0.00075953 </v>
   <v>       0.00040032       0.00009229      -0.00005233 </v>
   <v>      -0.00054152       0.00092000       0.00066162 </v>
   <v>      -0.00046204       0.00014794      -0.00016581 </v>
   <v>       0.00042395       0.00009305      -0.00005161 </v>
   <v>      -0.00052387       0.00004349       0.00007663 </v>
   <v>      -0.00320050      -0.00104309      -0.00130215 </v>
   <v>       0.00134081       0.00008414       0.00003977 </v>
   <v>      -0.00347150       0.00140143       0.00154953 </v>
   <v>      -0.00041766      -0.00048975       0.00058812 </v>
   <v>       0.00026249       0.00009027       0.00004239 </v>
   <v>      -0.00047492       0.00068470      -0.00048749 </v>
   <v>      -0.00045846       0.00067020      -0.00072991 </v>
   <v>       0.00033323       0.00008820       0.00005000 </v>
   <v>      -0.00053014      -0.00047431       0.00081685 </v>
   <v>      -0.00038230       0.00011305      -0.00000063 </v>
   <v>       0.00023308       0.00009365       0.00004660 </v>
   <v>      -0.00044932       0.00007817       0.00008905 </v>
   <v>      -0.00210279      -0.00028653      -0.00624536 </v>
   <v>      -0.00121297       0.00000039       0.00018977 </v>
   <v>      -0.00233274       0.00021463       0.00657118 </v>
   <v>       0.00028657      -0.00004872      -0.00006047 </v>
   <v>      -0.00054621       0.00000146       0.00019526 </v>
   <v>       0.00005501      -0.00005909       0.00035115 </v>
   <v>      -0.00302912      -0.00025104       0.00792418 </v>
   <v>      -0.00155476      -0.00001824       0.00020063 </v>
   <v>      -0.00326240       0.00019261      -0.00771624 </v>
   <v>       0.00047094      -0.00002921       0.00054124 </v>
   <v>      -0.00090357      -0.00002301       0.00021028 </v>
   <v>       0.00023529      -0.00004559      -0.00027926 </v>
   <v>      -0.00235443       0.00807846       0.00001015 </v>
   <v>      -0.00137131      -0.00000679      -0.00018832 </v>
   <v>      -0.00267516      -0.00817025      -0.00028445 </v>
   <v>      -0.00277497      -0.00747411      -0.00043356 </v>
   <v>      -0.00145004      -0.00000205      -0.00019455 </v>
   <v>      -0.00293999       0.00748027       0.00018720 </v>
   <v>       0.00035508       0.00025733      -0.00013158 </v>
   <v>      -0.00066357      -0.00001895      -0.00021096 </v>
   <v>       0.00011391      -0.00029219      -0.00009000 </v>
   <v>       0.00034477      -0.00033634      -0.00014357 </v>
   <v>      -0.00067628      -0.00001968      -0.00020731 </v>
   <v>       0.00011334       0.00029306      -0.00008474 </v>
   <v>       0.06144083      -0.00019608       0.00009513 </v>
   <v>      -0.00717344      -0.00028919      -0.00004465 </v>
   <v>      -0.00722237       0.00020517      -0.00015846 </v>
   <v>       0.00118174      -0.00007756      -0.00009618 </v>
   <v>      -0.00108545      -0.00004230      -0.00008543 </v>
   <v>      -0.00106147      -0.00010030      -0.00011156 </v>
   <v>       0.00098955      -0.00007966      -0.00009943 </v>
   <v>      -0.00098831      -0.00005416       0.00008437 </v>
   <v>      -0.00096647      -0.00008641      -0.00028371 </v>
   <v>       0.00007943      -0.00008200      -0.00009843 </v>
   <v>      -0.00030611      -0.00006864       0.00003236 </v>
   <v>      -0.00028388      -0.00008338      -0.00022922 </v>
   <v>       0.00115098      -0.00006198       0.00008660 </v>
   <v>      -0.00067605       0.00029195      -0.00036316 </v>
   <v>      -0.00065370      -0.00043319       0.00056425 </v>
   <v>       0.00115186      -0.00007558       0.00008501 </v>
   <v>      -0.00067662      -0.00041375      -0.00034844 </v>
   <v>      -0.00065212       0.00027324       0.00055167 </v>
   <v>       0.00259440      -0.00007808       0.00010728 </v>
   <v>      -0.00113364       0.00069245       0.00065508 </v>
   <v>      -0.00111763      -0.00083286      -0.00045756 </v>
   <v>       0.00259875      -0.00009167       0.00010391 </v>
   <v>      -0.00114020      -0.00089189       0.00077508 </v>
   <v>      -0.00111166       0.00075914      -0.00058171 </v>
   <v>      -0.00039542      -0.00001272       0.00001621 </v>
   <v>       0.00035518       0.00006130       0.00005925 </v>
   <v>      -0.00063479       0.00011907       0.00005827 </v>
   <v>      -0.00046363       0.00123765       0.00089305 </v>
   <v>       0.00052068       0.00005598       0.00006058 </v>
   <v>      -0.00071524      -0.00113552      -0.00081722 </v>
   <v>      -0.00069724      -0.00138766      -0.00166245 </v>
   <v>       0.00091052       0.00004954       0.00004593 </v>
   <v>      -0.00090777       0.00150016       0.00177988 </v>
   <v>       0.00081016       0.00342611      -0.00290935 </v>
   <v>       0.00180943       0.00004079       0.00005438 </v>
   <v>       0.00050133      -0.00331080       0.00300734 </v>
   <v>      -0.01012776       0.00403796       0.00287610 </v>
   <v>       0.00196907       0.00006111      -0.00005027 </v>
   <v>      -0.01085607      -0.00417379      -0.00329308 </v>
   <v>      -0.00069420       0.00161926      -0.00124268 </v>
   <v>       0.00080016       0.00005112      -0.00005558 </v>
   <v>      -0.00093560      -0.00150728       0.00113397 </v>
   <v>      -0.00051929      -0.00082456       0.00094795 </v>
   <v>       0.00053653       0.00005023      -0.00004463 </v>
   <v>      -0.00074317       0.00094134      -0.00107766 </v>
   <v>      -0.00036233       0.00012138      -0.00008989 </v>
   <v>       0.00029013       0.00005174      -0.00004521 </v>
   <v>      -0.00059991      -0.00000488      -0.00003982 </v>
  </varray>
  <varray name="stress" >
   <v>      -0.16261011       0.01870243       0.01039501 </v>
   <v>       0.01797328      -0.16150731       0.00052088 </v>
   <v>       0.01040138       0.00052067      -0.17071993 </v>
  </varray>
  <energy>
   <i name="e_fr_energy">   -616.43219713 </i>
   <i name="e_wo_entrp">   -616.43219713 </i>
   <i name="e_0_energy">     -0.00000000 </i>
  </energy>
  <time name="totalsc"> 5210.51 5319.16</time>
  <eigenvalues>
   <array>
    <dimension dim="1">band</dimension>
    <dimension dim="2">kpoint</dimension>
    <dimension dim="3">spin</dimension>
    <field>eigene</field>
    <field>occ</field>
    <set>
     <set comment="spin 1">
      <set comment="kpoint 1">
       <r>  -51.4856    1.0000 </r>
       <r>  -51.4825    1.0000 </r>
       <r>  -51.4820    1.0000 </r>
       <r>  -51.4820    1.0000 </r>
       <r>  -51.4815    1.0000 </r>
       <r>  -51.4791    1.0000 </r>
       <r>  -51.4704    1.0000 </r>
       <r>  -51.4688    1.0000 </r>
       <r>  -51.4669    1.0000 </r>
       <r>  -51.4669    1.0000 </r>
       <r>  -51.4664    1.0000 </r>
       <r>  -51.4663    1.0000 </r>
       <r>  -51.4663    1.0000 </r>
       <r>  -51.4663    1.0000 </r>
       <r>  -51.4659    1.0000 </r>
       <r>  -51.4658    1.0000 </r>
       <r>  -51.4639    1.0000 </r>
       <r>  -51.4623    1.0000 </r>
       <r>  -51.4537    1.0000 </r>
       <r>  -51.4513    1.0000 </r>
       <r>  -51.4508    1.0000 </r>
       <r>  -51.4508    1.0000 </r>
       <r>  -51.4503    1.0000 </r>
       <r>  -51.4472    1.0000 </r>
       <r>  -50.2068    1.0000 </r>
       <r>  -50.2031    1.0000 </r>
       <r>  -50.2019    1.0000 </r>
       <r>  -50.2014    1.0000 </r>
       <r>  -50.2013    1.0000 </r>
       <r>  -50.2007    1.0000 </r>
       <r>  -50.2006    1.0000 </r>
       <r>  -50.1992    1.0000 </r>
       <r>  -50.1992    1.0000 </r>
       <r>  -50.1991    1.0000 </r>
       <r>  -50.1986    1.0000 </r>
       <r>  -50.1986    1.0000 </r>
       <r>  -50.1986    1.0000 </r>
       <r>  -50.1985    1.0000 </r>
       <r>  -50.1980    1.0000 </r>
       <r>  -50.1979    1.0000 </r>
       <r>  -50.1979    1.0000 </r>
       <r>  -50.1966    1.0000 </r>
       <r>  -50.1964    1.0000 </r>
       <r>  -50.1959    1.0000 </r>
       <r>  -50.1958    1.0000 </r>
       <r>  -50.1953    1.0000 </r>
       <r>  -50.1941    1.0000 </r>
       <r>  -50.1903    1.0000 </r>
       <r>  -50.0101    1.0000 </r>
       <r>  -50.0072    1.0000 </r>
       <r>  -50.0068    1.0000 </r>
       <r>  -50.0068    1.0000 </r>
       <r>  -50.0064    1.0000 </r>
       <r>  -50.0041    1.0000 </r>
       <r>  -49.9944    1.0000 </r>
       <r>  -49.9926    1.0000 </r>
       <r>  -49.9910    1.0000 </r>
       <r>  -49.9910    1.0000 </r>
       <r>  -49.9906    1.0000 </r>
       <r>  -49.9905    1.0000 </r>
       <r>  -49.9905    1.0000 </r>
       <r>  -49.9905    1.0000 </r>
       <r>  -49.9901    1.0000 </r>
       <r>  -49.9901    1.0000 </r>
       <r>  -49.9885    1.0000 </r>
       <r>  -49.9867    1.0000 </r>
       <r>  -49.9767    1.0000 </r>
       <r>  -49.9745    1.0000 </r>
       <r>  -49.9740    1.0000 </r>
       <r>  -49.9740    1.0000 </r>
       <r>  -49.9736    1.0000 </r>
       <r>  -49.9707    1.0000 </r>
       <r>  -40.5259    1.0000 </r>
       <r>  -40.5233    1.0000 </r>
       <r>  -40.5213    1.0000 </r>
       <r>  -40.5208    1.0000 </r>
       <r>  -40.5200    1.0000 </r>
       <r>  -40.5185    1.0000 </r>
       <r>  -40.5172    1.0000 </r>
       <r>  -40.5147    1.0000 </r>
       <r>  -40.5141    1.0000 </r>
       <r>  -40.5140    1.0000 </r>
       <r>  -40.5128    1.0000 </r>
       <r>  -40.5127    1.0000 </r>
       <r>  -40.5126    1.0000 </r>
       <r>  -40.5124    1.0000 </r>
       <r>  -40.5119    1.0000 </r>
       <r>  -40.5116    1.0000 </r>
       <r>  -40.5107    1.0000 </r>
       <r>  -40.5084    1.0000 </r>
       <r>  -40.5068    1.0000 </r>
       <r>  -40.5050    1.0000 </r>
       <r>  -40.5041    1.0000 </r>
       <r>  -40.5040    1.0000 </r>
       <r>  -40.5034    1.0000 </r>
       <r>  -40.4999    1.0000 </r>
       <r>  -40.3063    1.0000 </r>
       <r>  -40.3062    1.0000 </r>
       <r>  -40.3059    1.0000 </r>
       <r>  -40.3056    1.0000 </r>
       <r>  -40.3053    1.0000 </r>
       <r>  -40.3049    1.0000 </r>
       <r>  -40.3049    1.0000 </r>
       <r>  -40.3048    1.0000 </r>
       <r>  -40.3047    1.0000 </r>
       <r>  -40.3046    1.0000 </r>
       <r>  -40.3044    1.0000 </r>
       <r>  -40.3044    1.0000 </r>
       <r>  -40.3043    1.0000 </r>
       <r>  -40.3042    1.0000 </r>
       <r>  -40.3042    1.0000 </r>
       <r>  -40.3041    1.0000 </r>
       <r>  -40.3040    1.0000 </r>
       <r>  -40.3037    1.0000 </r>
       <r>  -40.3036    1.0000 </r>
       <r>  -40.3031    1.0000 </r>
       <r>  -40.3031    1.0000 </r>
       <r>  -40.3027    1.0000 </r>
       <r>  -40.3022    1.0000 </r>
       <r>  -40.3021    1.0000 </r>
       <r>  -13.5436    1.0000 </r>
       <r>  -13.5415    1.0000 </r>
       <r>  -13.5133    1.0000 </r>
       <r>  -13.5118    1.0000 </r>
       <r>  -13.5106    1.0000 </r>
       <r>  -13.4889    1.0000 </r>
       <r>  -13.3759    1.0000 </r>
       <r>  -13.3755    1.0000 </r>
       <r>  -13.3740    1.0000 </r>
       <r>  -13.3738    1.0000 </r>
       <r>  -13.3737    1.0000 </r>
       <r>  -13.3735    1.0000 </r>
       <r>  -13.3720    1.0000 </r>
       <r>  -13.3717    1.0000 </r>
       <r>  -13.3404    1.0000 </r>
       <r>  -13.3404    1.0000 </r>
       <r>  -13.3368    1.0000 </r>
       <r>  -13.3368    1.0000 </r>
       <r>  -13.2396    1.0000 </r>
       <r>  -13.2375    1.0000 </r>
       <r>  -13.2030    1.0000 </r>
       <r>  -13.2009    1.0000 </r>
       <r>  -13.1973    1.0000 </r>
       <r>  -13.1649    1.0000 </r>
       <r>   -7.7341    1.0000 </r>
       <r>   -7.6692    1.0000 </r>
       <r>   -7.5822    1.0000 </r>
       <r>   -7.5821    1.0000 </r>
       <r>   -7.5403    1.0000 </r>
       <r>   -7.5403    1.0000 </r>
       <r>   -7.5308    1.0000 </r>
       <r>   -7.5293    1.0000 </r>
       <r>   -7.4082    1.0000 </r>
       <r>   -7.3748    1.0000 </r>
       <r>   -7.3731    1.0000 </r>
       <r>   -7.3525    1.0000 </r>
       <r>   -7.3518    1.0000 </r>
       <r>   -7.3509    1.0000 </r>
       <r>   -7.3503    1.0000 </r>
       <r>   -7.3435    1.0000 </r>
       <r>   -7.3430    1.0000 </r>
       <r>   -7.3420    1.0000 </r>
       <r>   -7.3414    1.0000 </r>
       <r>   -7.3151    1.0000 </r>
       <r>   -7.3137    1.0000 </r>
       <r>   -7.2337    1.0000 </r>
       <r>   -7.1165    1.0000 </r>
       <r>   -7.1150    1.0000 </r>
       <r>   -1.9249    1.0000 </r>
       <r>   -1.9145    1.0000 </r>
       <r>   -1.8864    1.0000 </r>
       <r>   -1.8456    1.0000 </r>
       <r>   -1.8436    1.0000 </r>
       <r>   -1.8003    1.0000 </r>
       <r>   -1.7984    1.0000 </r>
       <r>   -1.7923    1.0000 </r>
       <r>   -1.7913    1.0000 </r>
       <r>   -1.7904    1.0000 </r>
       <r>   -1.7786    1.0000 </r>
       <r>   -1.7766    1.0000 </r>
       <r>   -1.5320    1.0000 </r>
       <r>   -1.5320    1.0000 </r>
       <r>   -1.5146    1.0000 </r>
       <r>   -1.5146    1.0000 </r>
       <r>   -1.4885    1.0000 </r>
       <r>   -1.4882    1.0000 </r>
       <r>   -1.4866    1.0000 </r>
       <r>   -1.4864    1.0000 </r>
       <r>   -1.4740    1.0000 </r>
       <r>   -1.4738    1.0000 </r>
       <r>   -1.4721    1.0000 </r>
       <r>   -1.4719    1.0000 </r>
       <r>   -1.4347    1.0000 </r>
       <r>   -1.4330    1.0000 </r>
       <r>   -1.3253    1.0000 </r>
       <r>   -1.3234    1.0000 </r>
       <r>   -1.2049    1.0000 </r>
       <r>   -1.1835    1.0000 </r>
       <r>   -1.1567    1.0000 </r>
       <r>   -1.1566    1.0000 </r>
       <r>   -1.1554    1.0000 </r>
       <r>   -1.1552    1.0000 </r>
       <r>   -1.0795    1.0000 </r>
       <r>   -1.0795    1.0000 </r>
       <r>   -1.0582    1.0000 </r>
       <r>   -1.0579    1.0000 </r>
       <r>   -1.0578    1.0000 </r>
       <r>   -1.0576    1.0000 </r>
       <r>   -0.9977    1.0000 </r>
       <r>   -0.9968    1.0000 </r>
       <r>   -0.9795    1.0000 </r>
       <r>   -0.9795    1.0000 </r>
       <r>   -0.9377    1.0000 </r>
       <r>   -0.9377    1.0000 </r>
       <r>   -0.9375    1.0000 </r>
       <r>   -0.9375    1.0000 </r>
       <r>   -0.9181    1.0000 </r>
       <r>   -0.9180    1.0000 </r>
       <r>   -0.9165    1.0000 </r>
       <r>   -0.9163    1.0000 </r>
       <r>   -0.9080    1.0000 </r>
       <r>   -0.9068    1.0000 </r>
       <r>   -0.8207    1.0000 </r>
       <r>   -0.8207    1.0000 </r>
       <r>   -0.8180    1.0000 </r>
       <r>   -0.8180    1.0000 </r>
       <r>   -0.6978    1.0000 </r>
       <r>   -0.6676    1.0000 </r>
       <r>   -0.6391    1.0000 </r>
       <r>   -0.6022    1.0000 </r>
       <r>   -0.5697    1.0000 </r>
       <r>   -0.5060    1.0000 </r>
       <r>   -0.5051    1.0000 </r>
       <r>   -0.5049    1.0000 </r>
       <r>   -0.5047    1.0000 </r>
       <r>   -0.5045    1.0000 </r>
       <r>   -0.4616    1.0000 </r>
       <r>   -0.4616    1.0000 </r>
       <r>   -0.4597    1.0000 </r>
       <r>   -0.4582    1.0000 </r>
       <r>   -0.4001    1.0000 </r>
       <r>   -0.3985    1.0000 </r>
       <r>   -0.3981    1.0000 </r>
       <r>   -0.3979    1.0000 </r>
       <r>   -0.3977    1.0000 </r>
       <r>   -0.3975    1.0000 </r>
       <r>   -0.2857    1.0000 </r>
       <r>   -0.2856    1.0000 </r>
       <r>   -0.2824    1.0000 </r>
       <r>   -0.2818    1.0000 </r>
       <r>   -0.2795    1.0000 </r>
       <r>   -0.2793    1.0000 </r>
       <r>   -0.1798    1.0000 </r>
       <r>   -0.1760    1.0000 </r>
       <r>   -0.1464    1.0000 </r>
       <r>   -0.1460    1.0000 </r>
       <r>   -0.1333    1.0000 </r>
       <r>   -0.1324    1.0000 </r>
       <r>   -0.0911    1.0000 </r>
       <r>   -0.0904    1.0000 </r>
       <r>   -0.0023    1.0000 </r>
       <r>    0.0235    1.0000 </r>
       <r>    0.0859    1.0000 </r>
       <r>    0.0859    1.0000 </r>
       <r>    0.0919    1.0000 </r>
       <r>    0.0919    1.0000 </r>
       <r>    0.1631    1.0000 </r>
       <r>    0.2035    1.0000 </r>
       <r>    0.2053    1.0000 </r>
       <r>    0.2139    1.0000 </r>
       <r>    0.2142    1.0000 </r>
       <r>    0.2266    1.0000 </r>
       <r>    0.2274    1.0000 </r>
       <r>    0.2413    1.0000 </r>
       <r>    0.2634    1.0000 </r>
       <r>    0.2634    1.0000 </r>
       <r>    0.2779    1.0000 </r>
       <r>    0.2785    1.0000 </r>
       <r>    0.2786    1.0000 </r>
       <r>    0.2792    1.0000 </r>
       <r>    0.3585    1.0000 </r>
       <r>    0.3732    1.0000 </r>
       <r>    0.3736    1.0000 </r>
       <r>    0.3740    1.0000 </r>
       <r>    0.3744    1.0000 </r>
       <r>    0.4226    1.0000 </r>
       <r>    0.4239    1.0000 </r>
       <r>    0.4865    1.0000 </r>
       <r>    0.5397    1.0000 </r>
       <r>    0.5645    1.0000 </r>
       <r>    0.5648    1.0000 </r>
       <r>    0.6029    1.0000 </r>
       <r>    0.6033    1.0000 </r>
       <r>    0.6393    1.0000 </r>
       <r>    0.6880    1.0000 </r>
       <r>    0.6881    1.0000 </r>
       <r>    0.7932    1.0000 </r>
       <r>    0.7939    1.0000 </r>
       <r>    0.7972    1.0000 </r>
       <r>    0.7977    1.0000 </r>
       <r>    0.8225    1.0000 </r>
       <r>    0.8228    1.0000 </r>
       <r>    0.8234    1.0000 </r>
       <r>    0.8236    1.0000 </r>
       <r>    0.8430    1.0000 </r>
       <r>    0.8754    1.0000 </r>
       <r>    0.8757    1.0000 </r>
       <r>    0.8785    1.0000 </r>
       <r>    0.8796    1.0000 </r>
       <r>    0.9233    1.0000 </r>
       <r>    0.9235    1.0000 </r>
       <r>    0.9237    1.0000 </r>
       <r>    0.9239    1.0000 </r>
       <r>    0.9570    1.0000 </r>
       <r>    1.1230    1.0000 </r>
       <r>    1.1230    1.0000 </r>
       <r>    1.1639    1.0000 </r>
       <r>    1.1639    1.0000 </r>
       <r>    1.2467    1.0000 </r>
       <r>    1.2480    1.0000 </r>
       <r>    1.3191    1.0000 </r>
       <r>    1.3197    1.0000 </r>
       <r>    1.3726    1.0000 </r>
       <r>    1.4353    1.0000 </r>
       <r>    1.4358    1.0000 </r>
       <r>    1.4364    1.0000 </r>
       <r>    1.4368    1.0000 </r>
[...]
       <r>   -39.9643     0.2028   120.0000 </r>
       <r>   -39.7261     0.0000   120.0000 </r>
       <r>   -39.4879     0.0000   120.0000 </r>
       <r>   -39.2497     0.0000   120.0000 </r>
       <r>   -39.0114     0.0000   120.0000 </r>
       <r>   -38.7732     0.0000   120.0000 </r>
       <r>   -38.5350     0.0000   120.0000 </r>
       <r>   -38.2968     0.0000   120.0000 </r>
       <r>   -38.0586     0.0000   120.0000 </r>
       <r>   -37.8203     0.0000   120.0000 </r>
       <r>   -37.5821     0.0000   120.0000 </r>
       <r>   -37.3439     0.0000   120.0000 </r>
       <r>   -37.1057     0.0000   120.0000 </r>
       <r>   -36.8674     0.0000   120.0000 </r>
       <r>   -36.6292     0.0000   120.0000 </r>
       <r>   -36.3910     0.0000   120.0000 </r>
       <r>   -36.1528     0.0000   120.0000 </r>
       <r>   -35.9146     0.0000   120.0000 </r>
       <r>   -35.6763     0.0000   120.0000 </r>
       <r>   -35.4381     0.0000   120.0000 </r>
       <r>   -35.1999     0.0000   120.0000 </r>
       <r>   -34.9617     0.0000   120.0000 </r>
       <r>   -34.7234     0.0000   120.0000 </r>
       <r>   -34.4852     0.0000   120.0000 </r>
       <r>   -34.2470     0.0000   120.0000 </r>
       <r>   -34.0088     0.0000   120.0000 </r>
       <r>   -33.7706     0.0000   120.0000 </r>
       <r>   -33.5323     0.0000   120.0000 </r>
       <r>   -33.2941     0.0000   120.0000 </r>
       <r>   -33.0559     0.0000   120.0000 </r>
       <r>   -32.8177     0.0000   120.0000 </r>
       <r>   -32.5794     0.0000   120.0000 </r>
       <r>   -32.3412     0.0000   120.0000 </r>
       <r>   -32.1030     0.0000   120.0000 </r>
       <r>   -31.8648     0.0000   120.0000 </r>
       <r>   -31.6266     0.0000   120.0000 </r>
       <r>   -31.3883     0.0000   120.0000 </r>
       <r>   -31.1501     0.0000   120.0000 </r>
       <r>   -30.9119     0.0000   120.0000 </r>
       <r>   -30.6737     0.0000   120.0000 </r>
       <r>   -30.4354     0.0000   120.0000 </r>
       <r>   -30.1972     0.0000   120.0000 </r>
       <r>   -29.9590     0.0000   120.0000 </r>
       <r>   -29.7208     0.0000   120.0000 </r>
       <r>   -29.4826     0.0000   120.0000 </r>
       <r>   -29.2443     0.0000   120.0000 </r>
       <r>   -29.0061     0.0000   120.0000 </r>
       <r>   -28.7679     0.0000   120.0000 </r>
       <r>   -28.5297     0.0000   120.0000 </r>
       <r>   -28.2914     0.0000   120.0000 </r>
       <r>   -28.0532     0.0000   120.0000 </r>
       <r>   -27.8150     0.0000   120.0000 </r>
       <r>   -27.5768     0.0000   120.0000 </r>
       <r>   -27.3386     0.0000   120.0000 </r>
       <r>   -27.1003     0.0000   120.0000 </r>
       <r>   -26.8621     0.0000   120.0000 </r>
       <r>   -26.6239     0.0000   120.0000 </r>
       <r>   -26.3857     0.0000   120.0000 </r>
       <r>   -26.1474     0.0000   120.0000 </r>
       <r>   -25.9092     0.0000   120.0000 </r>
       <r>   -25.6710     0.0000   120.0000 </r>
       <r>   -25.4328     0.0000   120.0000 </r>
       <r>   -25.1946     0.0000   120.0000 </r>
       <r>   -24.9563     0.0000   120.0000 </r>
       <r>   -24.7181     0.0000   120.0000 </r>
       <r>   -24.4799     0.0000   120.0000 </r>
       <r>   -24.2417     0.0000   120.0000 </r>
       <r>   -24.0034     0.0000   120.0000 </r>
       <r>   -23.7652     0.0000   120.0000 </r>
       <r>   -23.5270     0.0000   120.0000 </r>
       <r>   -23.2888     0.0000   120.0000 </r>
       <r>   -23.0506     0.0000   120.0000 </r>
       <r>   -22.8123     0.0000   120.0000 </r>
       <r>   -22.5741     0.0000   120.0000 </r>
       <r>   -22.3359     0.0000   120.0000 </r>
       <r>   -22.0977     0.0000   120.0000 </r>
       <r>   -21.8594     0.0000   120.0000 </r>
       <r>   -21.6212     0.0000   120.0000 </r>
       <r>   -21.3830     0.0000   120.0000 </r>
       <r>   -21.1448     0.0000   120.0000 </r>
       <r>   -20.9066     0.0000   120.0000 </r>
       <r>   -20.6683     0.0000   120.0000 </r>
       <r>   -20.4301     0.0000   120.0000 </r>
       <r>   -20.1919     0.0000   120.0000 </r>
       <r>   -19.9537     0.0000   120.0000 </r>
       <r>   -19.7154     0.0000   120.0000 </r>
       <r>   -19.4772     0.0000   120.0000 </r>
       <r>   -19.2390     0.0000   120.0000 </r>
       <r>   -19.0008     0.0000   120.0000 </r>
       <r>   -18.7626     0.0000   120.0000 </r>
       <r>   -18.5243     0.0000   120.0000 </r>
       <r>   -18.2861     0.0000   120.0000 </r>
       <r>   -18.0479     0.0000   120.0000 </r>
       <r>   -17.8097     0.0000   120.0000 </r>
       <r>   -17.5714     0.0000   120.0000 </r>
       <r>   -17.3332     0.0000   120.0000 </r>
       <r>   -17.0950     0.0000   120.0000 </r>
       <r>   -16.8568     0.0000   120.0000 </r>
       <r>   -16.6186     0.0000   120.0000 </r>
       <r>   -16.3803     0.0000   120.0000 </r>
       <r>   -16.1421     0.0000   120.0000 </r>
       <r>   -15.9039     0.0000   120.0000 </r>
       <r>   -15.6657     0.0000   120.0000 </r>
       <r>   -15.4274     0.0000   120.0000 </r>
       <r>   -15.1892     0.0000   120.0000 </r>
       <r>   -14.9510     0.0000   120.0000 </r>
       <r>   -14.7128     0.0000   120.0000 </r>
       <r>   -14.4746     0.0000   120.0000 </r>
       <r>   -14.2363     0.0000   120.0000 </r>
       <r>   -13.9981     0.0000   120.0000 </r>
       <r>   -13.7599     0.0000   120.0000 </r>
       <r>   -13.5217     0.0000   120.0000 </r>
       <r>   -13.2834     0.3143   120.0749 </r>
       <r>   -13.0452    66.9498   136.0238 </r>
       <r>   -12.8070    33.4822   144.0000 </r>
       <r>   -12.5688     0.0000   144.0000 </r>
       <r>   -12.3306     0.0000   144.0000 </r>
       <r>   -12.0923     0.0000   144.0000 </r>
       <r>   -11.8541     0.0000   144.0000 </r>
       <r>   -11.6159     0.0000   144.0000 </r>
       <r>   -11.3777     0.0000   144.0000 </r>
       <r>   -11.1394     0.0000   144.0000 </r>
       <r>   -10.9012     0.0000   144.0000 </r>
       <r>   -10.6630     0.0000   144.0000 </r>
       <r>   -10.4248     0.0000   144.0000 </r>
       <r>   -10.1866     0.0000   144.0000 </r>
       <r>    -9.9483     0.0000   144.0000 </r>
       <r>    -9.7101     0.0000   144.0000 </r>
       <r>    -9.4719     0.0000   144.0000 </r>
       <r>    -9.2337     0.0000   144.0000 </r>
       <r>    -8.9955     0.0000   144.0000 </r>
       <r>    -8.7572     0.0000   144.0000 </r>
       <r>    -8.5190     0.0000   144.0000 </r>
       <r>    -8.2808     0.0000   144.0000 </r>
       <r>    -8.0426     0.0000   144.0000 </r>
       <r>    -7.8043     0.0000   144.0000 </r>
       <r>    -7.5661     0.1305   144.0311 </r>
       <r>    -7.3279    28.9178   150.9199 </r>
       <r>    -7.0897    49.3598   162.6785 </r>
       <r>    -6.8515    21.6761   167.8423 </r>
       <r>    -6.6132     0.6621   168.0000 </r>
       <r>    -6.3750     0.0000   168.0000 </r>
       <r>    -6.1368     0.0000   168.0000 </r>
       <r>    -5.8986     0.0000   168.0000 </r>
       <r>    -5.6603     0.0000   168.0000 </r>
       <r>    -5.4221     0.0000   168.0000 </r>
       <r>    -5.1839     0.0000   168.0000 </r>
       <r>    -4.9457     0.0000   168.0000 </r>
       <r>    -4.7075     0.0000   168.0000 </r>
       <r>    -4.4692     0.0000   168.0000 </r>
       <r>    -4.2310     0.0000   168.0000 </r>
       <r>    -3.9928     0.0000   168.0000 </r>
       <r>    -3.7546     0.0000   168.0000 </r>
       <r>    -3.5163     0.0000   168.0000 </r>
       <r>    -3.2781     0.0000   168.0000 </r>
       <r>    -3.0399     0.0000   168.0000 </r>
       <r>    -2.8017     0.0000   168.0000 </r>
       <r>    -2.5635     0.0000   168.0000 </r>
       <r>    -2.3252     0.0000   168.0000 </r>
       <r>    -2.0870     0.0000   168.0000 </r>
       <r>    -1.8488     0.0000   168.0000 </r>
       <r>    -1.6106     0.0000   168.0000 </r>
       <r>    -1.3723     0.0000   168.0000 </r>
       <r>    -1.1341     0.0000   168.0000 </r>
       <r>    -0.8959     0.0000   168.0000 </r>
       <r>    -0.6577     1.7968   168.4280 </r>
       <r>    -0.4195    17.2506   172.5375 </r>
       <r>    -0.1812    38.7723   181.7739 </r>
       <r>     0.0570    35.1180   190.1398 </r>
       <r>     0.2952    22.8082   195.5732 </r>
       <r>     0.5334    48.6545   207.1638 </r>
       <r>     0.7717    48.5486   218.7292 </r>
       <r>     1.0099    68.4313   235.0310 </r>
       <r>     1.2481    26.1516   241.2609 </r>
       <r>     1.4863    22.9558   246.7295 </r>
       <r>     1.7245    38.1128   255.8088 </r>
       <r>     1.9628    45.9866   266.7639 </r>
       <r>     2.2010    29.5053   273.7927 </r>
       <r>     2.4392    35.7808   282.3165 </r>
       <r>     2.6774    25.3686   288.3599 </r>
       <r>     2.9157    45.7041   299.2476 </r>
       <r>     3.1539    41.7589   309.1955 </r>
       <r>     3.3921    14.5260   312.6559 </r>
       <r>     3.6303    30.5661   319.9374 </r>
       <r>     3.8685    57.0215   333.5212 </r>
       <r>     4.1068    10.4053   336.0000 </r>
       <r>     4.3450     0.0000   336.0000 </r>
       <r>     4.5832     0.0000   336.0000 </r>
       <r>     4.8214     0.0000   336.0000 </r>
       <r>     5.0597     0.0000   336.0000 </r>
       <r>     5.2979     0.0000   336.0000 </r>
       <r>     5.5361     0.0000   336.0000 </r>
       <r>     5.7743     0.0000   336.0000 </r>
       <r>     6.0125     0.0039   336.0009 </r>
       <r>     6.2508     1.9031   336.4543 </r>
       <r>     6.4890    13.5186   339.6747 </r>
       <r>     6.7272    26.9298   346.0900 </r>
       <r>     6.9654    25.1249   352.0753 </r>
       <r>     7.2037    57.5447   365.7837 </r>
       <r>     7.4419    75.7353   383.8255 </r>
       <r>     7.6801    29.4210   390.8343 </r>
       <r>     7.9183    41.2205   400.6539 </r>
       <r>     8.1565    77.8977   419.2109 </r>
       <r>     8.3948    50.2965   431.1926 </r>
       <r>     8.6330     3.8024   432.0984 </r>
       <r>     8.8712     1.1389   432.3698 </r>
       <r>     9.1094     4.4847   433.4381 </r>
       <r>     9.3477    10.6777   435.9818 </r>
       <r>     9.5859    20.9402   440.9702 </r>
       <r>     9.8241    28.7872   447.8279 </r>
       <r>    10.0623    30.1252   455.0044 </r>
       <r>    10.3005    30.0893   462.1724 </r>
       <r>    10.5388    25.7975   468.3179 </r>
       <r>    10.7770    25.9168   474.4919 </r>
       <r>    11.0152    24.3638   480.2959 </r>
       <r>    11.2534    10.2636   482.7409 </r>
       <r>    11.4917    25.7896   488.8846 </r>
       <r>    11.7299    30.3024   496.1033 </r>
       <r>    11.9681    56.6352   509.5950 </r>
       <r>    12.2063    44.4564   520.1855 </r>
       <r>    12.4445    26.8258   526.5760 </r>
       <r>    12.6828    23.7294   532.2289 </r>
       <r>    12.9210    27.5839   538.8000 </r>
       <r>    13.1592    33.0053   546.6626 </r>
       <r>    13.3974    18.3119   551.0249 </r>
       <r>    13.6357     4.0932   552.0000 </r>
       <r>    13.8739     0.0000   552.0000 </r>
       <r>    14.1121     0.0000   552.0000 </r>
       <r>    14.3503     0.0000   552.0000 </r>
       <r>    14.5885     0.0000   552.0000 </r>
       <r>    14.8268     0.0000   552.0000 </r>
       <r>    15.0650     0.0000   552.0000 </r>
       <r>    15.3032     0.0000   552.0000 </r>
       <r>    15.5414     0.0000   552.0000 </r>
       <r>    15.7797     0.0000   552.0000 </r>
       <r>    16.0179     0.0000   552.0000 </r>
       <r>    16.2561     0.0000   552.0000 </r>
       <r>    16.4943     0.0000   552.0000 </r>
       <r>    16.7325     0.0000   552.0000 </r>
      </set>
     </set>
    </array>
   </total>
  </dos>
 </calculation>
 <structure name="finalpos" >
  <crystal>
   <varray name="basis" >
    <v>      11.73572724      -0.05744286       0.00000000 </v>
    <v>       0.05480788      11.21833490       0.00000000 </v>
    <v>       0.00000000       0.00000000      11.19562010 </v>
   </varray>
   <i name="volume">   1473.99817718 </i>
   <varray name="rec_basis" >
    <v>       0.08520785      -0.00041629       0.00000000 </v>
    <v>       0.00043630       0.08913766       0.00000000 </v>
    <v>       0.00000000       0.00000000       0.08932064 </v>
   </varray>
  </crystal>
  <varray name="positions" >
   <v>       0.03541706       0.36277547       0.35648149 </v>
   <v>       0.36875039       0.36277547       0.35648149 </v>
   <v>       0.70208372       0.36277547       0.35648149 </v>
   <v>       0.03541706       0.86277547       0.35648149 </v>
   <v>       0.36875039       0.86277547       0.35648149 </v>
   <v>       0.70208372       0.86277547       0.35648149 </v>
   <v>       0.03541706       0.36277547       0.85648149 </v>
   <v>       0.36875039       0.36277547       0.85648149 </v>
   <v>       0.70208372       0.36277547       0.85648149 </v>
   <v>       0.03541706       0.86277547       0.85648149 </v>
   <v>       0.36875039       0.86277547       0.85648149 </v>
   <v>       0.70208372       0.86277547       0.85648149 </v>
   <v>       0.03541706       0.11277547       0.14351851 </v>
   <v>       0.36875039       0.11277547       0.14351851 </v>
   <v>       0.70208372       0.11277547       0.14351851 </v>
   <v>       0.03541706       0.61277547       0.14351851 </v>
   <v>       0.36875039       0.61277547       0.14351851 </v>
   <v>       0.70208372       0.61277547       0.14351851 </v>
   <v>       0.03541706       0.11277547       0.64351851 </v>
   <v>       0.36875039       0.11277547       0.64351851 </v>
   <v>       0.70208372       0.11277547       0.64351851 </v>
   <v>       0.03541706       0.61277547       0.64351851 </v>
   <v>       0.36875039       0.61277547       0.64351851 </v>
   <v>       0.70208372       0.61277547       0.64351851 </v>
   <v>       0.20209458       0.21898060       0.27246215 </v>
   <v>       0.53542792       0.21898060       0.27246215 </v>
   <v>       0.86876125       0.21898060       0.27246215 </v>
   <v>       0.20209458       0.71898060       0.27246215 </v>
   <v>       0.53542792       0.71898060       0.27246215 </v>
   <v>       0.86876125       0.71898060       0.27246215 </v>
   <v>       0.20209458       0.21898060       0.77246215 </v>
   <v>       0.53542792       0.21898060       0.77246215 </v>
   <v>       0.86876125       0.21898060       0.77246215 </v>
   <v>       0.20209458       0.71898060       0.77246215 </v>
   <v>       0.53542792       0.71898060       0.77246215 </v>
   <v>       0.86876125       0.71898060       0.77246215 </v>
   <v>       0.20209458       0.46898060       0.22753785 </v>
   <v>       0.53542792       0.46898060       0.22753785 </v>
   <v>       0.86876125       0.46898060       0.22753785 </v>
   <v>       0.20209458       0.96898060       0.22753785 </v>
   <v>       0.53542792       0.96898060       0.22753785 </v>
   <v>       0.86876125       0.96898060       0.22753785 </v>
   <v>       0.20209458       0.46898060       0.72753785 </v>
   <v>       0.53542792       0.46898060       0.72753785 </v>
   <v>       0.86876125       0.46898060       0.72753785 </v>
   <v>       0.20209458       0.96898060       0.72753785 </v>
   <v>       0.53542792       0.96898060       0.72753785 </v>
   <v>       0.86876125       0.96898060       0.72753785 </v>
   <v>       0.20209064       0.36769237       0.37376509 </v>
   <v>       0.53542398       0.36769237       0.37376509 </v>
   <v>       0.86875731       0.36769237       0.37376509 </v>
   <v>       0.20209064       0.86769237       0.37376509 </v>
   <v>       0.53542398       0.86769237       0.37376509 </v>
   <v>       0.86875731       0.86769237       0.37376509 </v>
   <v>       0.20209064       0.36769237       0.87376509 </v>
   <v>       0.53542398       0.36769237       0.87376509 </v>
   <v>       0.86875731       0.36769237       0.87376509 </v>
   <v>       0.20209064       0.86769237       0.87376509 </v>
   <v>       0.53542398       0.86769237       0.87376509 </v>
   <v>       0.86875731       0.86769237       0.87376509 </v>
   <v>       0.20209064       0.11769237       0.12623491 </v>
   <v>       0.53542398       0.11769237       0.12623491 </v>
   <v>       0.86875731       0.11769237       0.12623491 </v>
   <v>       0.20209064       0.61769237       0.12623491 </v>
   <v>       0.53542398       0.61769237       0.12623491 </v>
   <v>       0.86875731       0.61769237       0.12623491 </v>
   <v>       0.20209064       0.11769237       0.62623491 </v>
   <v>       0.53542398       0.11769237       0.62623491 </v>
   <v>       0.86875731       0.11769237       0.62623491 </v>
   <v>       0.20209064       0.61769237       0.62623491 </v>
   <v>       0.53542398       0.61769237       0.62623491 </v>
   <v>       0.86875731       0.61769237       0.62623491 </v>
   <v>       0.03457542       0.37011947       0.12029448 </v>
   <v>       0.36876084       0.37011947       0.12029448 </v>
   <v>       0.70209418       0.37011947       0.12029448 </v>
   <v>       0.03542751       0.87011947       0.12029448 </v>
   <v>       0.36876084       0.87011947       0.12029448 </v>
   <v>       0.70209418       0.87011947       0.12029448 </v>
   <v>       0.03542751       0.37011947       0.62029448 </v>
   <v>       0.36876084       0.37011947       0.62029448 </v>
   <v>       0.70209418       0.37011947       0.62029448 </v>
   <v>       0.03542751       0.87011947       0.62029448 </v>
   <v>       0.36876084       0.87011947       0.62029448 </v>
   <v>       0.70209418       0.87011947       0.62029448 </v>
   <v>       0.03542751       0.12011947       0.37970552 </v>
   <v>       0.36876084       0.12011947       0.37970552 </v>
   <v>       0.70209418       0.12011947       0.37970552 </v>
   <v>       0.03542751       0.62011947       0.37970552 </v>
   <v>       0.36876084       0.62011947       0.37970552 </v>
   <v>       0.70209418       0.62011947       0.37970552 </v>
   <v>       0.03542751       0.12011947       0.87970552 </v>
   <v>       0.36876084       0.12011947       0.87970552 </v>
   <v>       0.70209418       0.12011947       0.87970552 </v>
   <v>       0.03542751       0.62011947       0.87970552 </v>
   <v>       0.36876084       0.62011947       0.87970552 </v>
   <v>       0.70209418       0.62011947       0.87970552 </v>
   <v>       0.20209387       0.01225309       0.48003463 </v>
   <v>       0.53542720       0.01225309       0.48003463 </v>
   <v>       0.86876054       0.01225309       0.48003463 </v>
   <v>       0.20209387       0.51225309       0.48003463 </v>
   <v>       0.53542720       0.51225309       0.48003463 </v>
   <v>       0.86876054       0.51225309       0.48003463 </v>
   <v>       0.20209387       0.01225309       0.98003463 </v>
   <v>       0.53542720       0.01225309       0.98003463 </v>
   <v>       0.86876054       0.01225309       0.98003463 </v>
   <v>       0.20209387       0.51225309       0.98003463 </v>
   <v>       0.53542720       0.51225309       0.98003463 </v>
   <v>       0.86876054       0.51225309       0.98003463 </v>
   <v>       0.20209387       0.26225309       0.01996537 </v>
   <v>       0.53542720       0.26225309       0.01996537 </v>
   <v>       0.86876054       0.26225309       0.01996537 </v>
   <v>       0.20209387       0.76225309       0.01996537 </v>
   <v>       0.53542720       0.76225309       0.01996537 </v>
   <v>       0.86876054       0.76225309       0.01996537 </v>
   <v>       0.20209387       0.26225309       0.51996537 </v>
   <v>       0.53542720       0.26225309       0.51996537 </v>
   <v>       0.86876054       0.26225309       0.51996537 </v>
   <v>       0.20209387       0.76225309       0.51996537 </v>
   <v>       0.53542720       0.76225309       0.51996537 </v>
   <v>       0.86876054       0.76225309       0.51996537 </v>
  </varray>
 </structure>
</modeling>
