 108 108   0   0
  0.1367340E+02  0.1151037E-08  0.1132740E-08  0.1132740E-08  0.5000000E-15
  1.000000000000000E-004
  CAR 
 unknown system                          
     17.82384806    -54.65665467  301      5.29076113      1.00000000
    -54.657  0.0000E+00  0.0000E+00  0.0000E+00  0.0000E+00
    -54.415  0.0000E+00  0.0000E+00  0.0000E+00  0.0000E+00
    -54.173  0.0000E+00  0.0000E+00  0.0000E+00  0.0000E+00
    -53.932  0.0000E+00  0.0000E+00  0.0000E+00  0.0000E+00
    -53.690  0.0000E+00  0.0000E+00  0.0000E+00  0.0000E+00
    -53.449  0.0000E+00  0.0000E+00  0.0000E+00  0.0000E+00
    -53.207  0.0000E+00  0.0000E+00  0.0000E+00  0.0000E+00
    -52.965  0.0000E+00  0.0000E+00  0.0000E+00  0.0000E+00
    -52.724  0.0000E+00  0.0000E+00  0.0000E+00  0.0000E+00
    -52.482  0.0000E+00  0.0000E+00  0.0000E+00  0.0000E+00
    -52.241  0.0000E+00  0.0000E+00  0.0000E+00  0.0000E+00
    -51.999  0.0000E+00  0.0000E+00  0.0000E+00  0.0000E+00
    -51.757  0.0000E+00  0.0000E+00  0.0000E+00  0.0000E+00
    -51.516  0.4231E-03  0.0000E+00  0.1022E-03  0.0000E+00
    -51.274  0.9844E+02  0.0000E+00  0.2378E+02  0.0000E+00
    -51.033  0.4360E+02  0.0000E+00  0.3432E+02  0.0000E+00
    -50.791  0.6965E+01  0.0000E+00  0.3600E+02  0.0000E+00
    -50.549  0.0000E+00  0.0000E+00  0.3600E+02  0.0000E+00
    -50.308  0.2023E-03  0.0000E+00  0.3600E+02  0.0000E+00
    -50.066  0.9800E+02  0.0000E+00  0.5968E+02  0.0000E+00
    -49.825  0.5102E+02  0.0000E+00  0.7200E+02  0.0000E+00
    -49.583  0.1240E+03  0.0000E+00  0.1020E+03  0.0000E+00
    -49.341  0.2503E+02  0.0000E+00  0.1080E+03  0.0000E+00
    -49.100  0.0000E+00  0.0000E+00  0.1080E+03  0.0000E+00
    -48.858  0.0000E+00  0.0000E+00  0.1080E+03  0.0000E+00
    -48.617  0.0000E+00  0.0000E+00  0.1080E+03  0.0000E+00
    -48.375  0.0000E+00  0.0000E+00  0.1080E+03  0.0000E+00
    -48.133  0.0000E+00  0.0000E+00  0.1080E+03  0.0000E+00
    -47.892  0.0000E+00  0.0000E+00  0.1080E+03  0.0000E+00
    -47.650  0.0000E+00  0.0000E+00  0.1080E+03  0.0000E+00
    -47.409  0.0000E+00  0.0000E+00  0.1080E+03  0.0000E+00
    -47.167  0.0000E+00  0.0000E+00  0.1080E+03  0.0000E+00
    -46.925  0.0000E+00  0.0000E+00  0.1080E+03  0.0000E+00
    -46.684  0.0000E+00  0.1455E+01  0.1080E+03  0.3514E+00
    -46.442  0.0000E+00  0.9791E+02  0.1080E+03  0.2401E+02
    -46.201  0.0000E+00  0.1760E+03  0.1080E+03  0.6654E+02
    -45.959  0.0000E+00  0.8347E+02  0.1080E+03  0.8670E+02
    -45.717  0.0000E+00  0.8814E+02  0.1080E+03  0.1080E+03
    -45.476  0.0000E+00  0.3302E-03  0.1080E+03  0.1080E+03
    -45.234  0.0000E+00  0.0000E+00  0.1080E+03  0.1080E+03
    -44.993  0.0000E+00  0.0000E+00  0.1080E+03  0.1080E+03
    -44.751  0.0000E+00  0.0000E+00  0.1080E+03  0.1080E+03
    -44.509  0.0000E+00  0.0000E+00  0.1080E+03  0.1080E+03
    -44.268  0.0000E+00  0.0000E+00  0.1080E+03  0.1080E+03
    -44.026  0.0000E+00  0.0000E+00  0.1080E+03  0.1080E+03
    -43.785  0.0000E+00  0.0000E+00  0.1080E+03  0.1080E+03
    -43.543  0.0000E+00  0.0000E+00  0.1080E+03  0.1080E+03
    -43.301  0.0000E+00  0.0000E+00  0.1080E+03  0.1080E+03
    -43.060  0.0000E+00  0.0000E+00  0.1080E+03  0.1080E+03
    -42.818  0.0000E+00  0.0000E+00  0.1080E+03  0.1080E+03
    -42.577  0.0000E+00  0.0000E+00  0.1080E+03  0.1080E+03
    -42.335  0.0000E+00  0.0000E+00  0.1080E+03  0.1080E+03
    -42.093  0.0000E+00  0.0000E+00  0.1080E+03  0.1080E+03
    -41.852  0.0000E+00  0.0000E+00  0.1080E+03  0.1080E+03
    -41.610  0.0000E+00  0.0000E+00  0.1080E+03  0.1080E+03
    -41.369  0.0000E+00  0.0000E+00  0.1080E+03  0.1080E+03
    -41.127  0.0000E+00  0.0000E+00  0.1080E+03  0.1080E+03
    -40.885  0.0000E+00  0.0000E+00  0.1080E+03  0.1080E+03
    -40.644  0.0000E+00  0.0000E+00  0.1080E+03  0.1080E+03
    -40.402  0.4172E-12  0.8125E-12  0.1080E+03  0.1080E+03
    -40.161  0.1738E+02  0.1964E+02  0.1122E+03  0.1127E+03
    -39.919  0.8196E+02  0.7970E+02  0.1320E+03  0.1320E+03
    -39.677  0.0000E+00  0.0000E+00  0.1320E+03  0.1320E+03
    -39.436  0.0000E+00  0.0000E+00  0.1320E+03  0.1320E+03
    -39.194  0.0000E+00  0.0000E+00  0.1320E+03  0.1320E+03
    -38.953  0.0000E+00  0.0000E+00  0.1320E+03  0.1320E+03
    -38.711  0.0000E+00  0.0000E+00  0.1320E+03  0.1320E+03
    -38.469  0.0000E+00  0.0000E+00  0.1320E+03  0.1320E+03
    -38.228  0.0000E+00  0.0000E+00  0.1320E+03  0.1320E+03
    -37.986  0.0000E+00  0.0000E+00  0.1320E+03  0.1320E+03
    -37.745  0.0000E+00  0.0000E+00  0.1320E+03  0.1320E+03
    -37.503  0.0000E+00  0.0000E+00  0.1320E+03  0.1320E+03
    -37.261  0.0000E+00  0.0000E+00  0.1320E+03  0.1320E+03
    -37.020  0.0000E+00  0.0000E+00  0.1320E+03  0.1320E+03
    -36.778  0.0000E+00  0.0000E+00  0.1320E+03  0.1320E+03
    -36.537  0.0000E+00  0.0000E+00  0.1320E+03  0.1320E+03
    -36.295  0.0000E+00  0.0000E+00  0.1320E+03  0.1320E+03
    -36.053  0.0000E+00  0.0000E+00  0.1320E+03  0.1320E+03
    -35.812  0.0000E+00  0.0000E+00  0.1320E+03  0.1320E+03
    -35.570  0.0000E+00  0.0000E+00  0.1320E+03  0.1320E+03
    -35.329  0.0000E+00  0.0000E+00  0.1320E+03  0.1320E+03
    -35.087  0.0000E+00  0.0000E+00  0.1320E+03  0.1320E+03
    -34.845  0.0000E+00  0.0000E+00  0.1320E+03  0.1320E+03
    -34.604  0.0000E+00  0.0000E+00  0.1320E+03  0.1320E+03
    -34.362  0.0000E+00  0.0000E+00  0.1320E+03  0.1320E+03
    -34.121  0.0000E+00  0.0000E+00  0.1320E+03  0.1320E+03
    -33.879  0.0000E+00  0.0000E+00  0.1320E+03  0.1320E+03
    -33.637  0.0000E+00  0.0000E+00  0.1320E+03  0.1320E+03
    -33.396  0.0000E+00  0.0000E+00  0.1320E+03  0.1320E+03
    -33.154  0.0000E+00  0.0000E+00  0.1320E+03  0.1320E+03
    -32.913  0.0000E+00  0.0000E+00  0.1320E+03  0.1320E+03
    -32.671  0.0000E+00  0.0000E+00  0.1320E+03  0.1320E+03
    -32.429  0.0000E+00  0.0000E+00  0.1320E+03  0.1320E+03
    -32.188  0.0000E+00  0.0000E+00  0.1320E+03  0.1320E+03
    -31.946  0.0000E+00  0.0000E+00  0.1320E+03  0.1320E+03
    -31.704  0.0000E+00  0.0000E+00  0.1320E+03  0.1320E+03
    -31.463  0.0000E+00  0.0000E+00  0.1320E+03  0.1320E+03
    -31.221  0.0000E+00  0.0000E+00  0.1320E+03  0.1320E+03
    -30.980  0.0000E+00  0.0000E+00  0.1320E+03  0.1320E+03
    -30.738  0.0000E+00  0.0000E+00  0.1320E+03  0.1320E+03
    -30.496  0.0000E+00  0.0000E+00  0.1320E+03  0.1320E+03
    -30.255  0.0000E+00  0.0000E+00  0.1320E+03  0.1320E+03
    -30.013  0.0000E+00  0.0000E+00  0.1320E+03  0.1320E+03
    -29.772  0.0000E+00  0.0000E+00  0.1320E+03  0.1320E+03
    -29.530  0.0000E+00  0.0000E+00  0.1320E+03  0.1320E+03
    -29.288  0.0000E+00  0.0000E+00  0.1320E+03  0.1320E+03
    -29.047  0.0000E+00  0.0000E+00  0.1320E+03  0.1320E+03
    -28.805  0.0000E+00  0.0000E+00  0.1320E+03  0.1320E+03
    -28.564  0.0000E+00  0.0000E+00  0.1320E+03  0.1320E+03
    -28.322  0.0000E+00  0.0000E+00  0.1320E+03  0.1320E+03
    -28.080  0.0000E+00  0.0000E+00  0.1320E+03  0.1320E+03
    -27.839  0.0000E+00  0.0000E+00  0.1320E+03  0.1320E+03
    -27.597  0.0000E+00  0.0000E+00  0.1320E+03  0.1320E+03
    -27.356  0.0000E+00  0.0000E+00  0.1320E+03  0.1320E+03
    -27.114  0.0000E+00  0.0000E+00  0.1320E+03  0.1320E+03
    -26.872  0.0000E+00  0.0000E+00  0.1320E+03  0.1320E+03
    -26.631  0.0000E+00  0.0000E+00  0.1320E+03  0.1320E+03
    -26.389  0.0000E+00  0.0000E+00  0.1320E+03  0.1320E+03
    -26.148  0.0000E+00  0.0000E+00  0.1320E+03  0.1320E+03
    -25.906  0.0000E+00  0.0000E+00  0.1320E+03  0.1320E+03
    -25.664  0.0000E+00  0.0000E+00  0.1320E+03  0.1320E+03
    -25.423  0.0000E+00  0.0000E+00  0.1320E+03  0.1320E+03
    -25.181  0.0000E+00  0.0000E+00  0.1320E+03  0.1320E+03
    -24.940  0.0000E+00  0.0000E+00  0.1320E+03  0.1320E+03
    -24.698  0.0000E+00  0.0000E+00  0.1320E+03  0.1320E+03
    -24.456  0.0000E+00  0.0000E+00  0.1320E+03  0.1320E+03
    -24.215  0.0000E+00  0.0000E+00  0.1320E+03  0.1320E+03
    -23.973  0.0000E+00  0.0000E+00  0.1320E+03  0.1320E+03
    -23.732  0.0000E+00  0.0000E+00  0.1320E+03  0.1320E+03
    -23.490  0.0000E+00  0.0000E+00  0.1320E+03  0.1320E+03
    -23.248  0.0000E+00  0.0000E+00  0.1320E+03  0.1320E+03
    -23.007  0.0000E+00  0.0000E+00  0.1320E+03  0.1320E+03
    -22.765  0.0000E+00  0.0000E+00  0.1320E+03  0.1320E+03
    -22.524  0.0000E+00  0.0000E+00  0.1320E+03  0.1320E+03
    -22.282  0.0000E+00  0.0000E+00  0.1320E+03  0.1320E+03
    -22.040  0.0000E+00  0.0000E+00  0.1320E+03  0.1320E+03
    -21.799  0.0000E+00  0.0000E+00  0.1320E+03  0.1320E+03
    -21.557  0.0000E+00  0.0000E+00  0.1320E+03  0.1320E+03
    -21.316  0.0000E+00  0.0000E+00  0.1320E+03  0.1320E+03
    -21.074  0.0000E+00  0.0000E+00  0.1320E+03  0.1320E+03
    -20.832  0.0000E+00  0.0000E+00  0.1320E+03  0.1320E+03
    -20.591  0.0000E+00  0.0000E+00  0.1320E+03  0.1320E+03
    -20.349  0.0000E+00  0.0000E+00  0.1320E+03  0.1320E+03
    -20.108  0.0000E+00  0.0000E+00  0.1320E+03  0.1320E+03
    -19.866  0.0000E+00  0.0000E+00  0.1320E+03  0.1320E+03
    -19.624  0.0000E+00  0.0000E+00  0.1320E+03  0.1320E+03
    -19.383  0.0000E+00  0.0000E+00  0.1320E+03  0.1320E+03
    -19.141  0.0000E+00  0.0000E+00  0.1320E+03  0.1320E+03
    -18.900  0.0000E+00  0.0000E+00  0.1320E+03  0.1320E+03
    -18.658  0.0000E+00  0.0000E+00  0.1320E+03  0.1320E+03
    -18.416  0.0000E+00  0.0000E+00  0.1320E+03  0.1320E+03
    -18.175  0.0000E+00  0.0000E+00  0.1320E+03  0.1320E+03
    -17.933  0.0000E+00  0.0000E+00  0.1320E+03  0.1320E+03
    -17.692  0.0000E+00  0.0000E+00  0.1320E+03  0.1320E+03
    -17.450  0.0000E+00  0.0000E+00  0.1320E+03  0.1320E+03
    -17.208  0.0000E+00  0.0000E+00  0.1320E+03  0.1320E+03
    -16.967  0.0000E+00  0.0000E+00  0.1320E+03  0.1320E+03
    -16.725  0.0000E+00  0.0000E+00  0.1320E+03  0.1320E+03
    -16.484  0.0000E+00  0.0000E+00  0.1320E+03  0.1320E+03
    -16.242  0.0000E+00  0.0000E+00  0.1320E+03  0.1320E+03
    -16.000  0.0000E+00  0.0000E+00  0.1320E+03  0.1320E+03
    -15.759  0.0000E+00  0.0000E+00  0.1320E+03  0.1320E+03
    -15.517  0.0000E+00  0.0000E+00  0.1320E+03  0.1320E+03
    -15.276  0.0000E+00  0.0000E+00  0.1320E+03  0.1320E+03
    -15.034  0.0000E+00  0.0000E+00  0.1320E+03  0.1320E+03
    -14.792  0.0000E+00  0.0000E+00  0.1320E+03  0.1320E+03
    -14.551  0.0000E+00  0.0000E+00  0.1320E+03  0.1320E+03
    -14.309  0.0000E+00  0.0000E+00  0.1320E+03  0.1320E+03
    -14.068  0.0000E+00  0.0000E+00  0.1320E+03  0.1320E+03
    -13.826  0.1479E-11  0.0000E+00  0.1320E+03  0.1320E+03
    -13.584  0.2322E+01  0.0000E+00  0.1326E+03  0.1320E+03
    -13.343  0.5792E+02  0.1682E-05  0.1466E+03  0.1320E+03
    -13.101  0.3896E+02  0.1898E+02  0.1560E+03  0.1366E+03
    -12.860  0.1398E+00  0.7629E+02  0.1560E+03  0.1550E+03
    -12.618  0.0000E+00  0.4068E+01  0.1560E+03  0.1560E+03
    -12.376  0.0000E+00  0.0000E+00  0.1560E+03  0.1560E+03
    -12.135  0.0000E+00  0.0000E+00  0.1560E+03  0.1560E+03
    -11.893  0.0000E+00  0.0000E+00  0.1560E+03  0.1560E+03
    -11.652  0.0000E+00  0.0000E+00  0.1560E+03  0.1560E+03
    -11.410  0.0000E+00  0.0000E+00  0.1560E+03  0.1560E+03
    -11.168  0.0000E+00  0.0000E+00  0.1560E+03  0.1560E+03
    -10.927  0.0000E+00  0.0000E+00  0.1560E+03  0.1560E+03
    -10.685  0.0000E+00  0.0000E+00  0.1560E+03  0.1560E+03
    -10.444  0.0000E+00  0.0000E+00  0.1560E+03  0.1560E+03
    -10.202  0.0000E+00  0.0000E+00  0.1560E+03  0.1560E+03
     -9.960  0.0000E+00  0.0000E+00  0.1560E+03  0.1560E+03
     -9.719  0.0000E+00  0.0000E+00  0.1560E+03  0.1560E+03
     -9.477  0.0000E+00  0.0000E+00  0.1560E+03  0.1560E+03
     -9.236  0.0000E+00  0.0000E+00  0.1560E+03  0.1560E+03
     -8.994  0.0000E+00  0.0000E+00  0.1560E+03  0.1560E+03
     -8.752  0.0000E+00  0.0000E+00  0.1560E+03  0.1560E+03
     -8.511  0.0000E+00  0.0000E+00  0.1560E+03  0.1560E+03
     -8.269  0.0000E+00  0.0000E+00  0.1560E+03  0.1560E+03
     -8.028  0.0000E+00  0.0000E+00  0.1560E+03  0.1560E+03
     -7.786  0.3144E-13  0.0000E+00  0.1560E+03  0.1560E+03
     -7.544  0.2207E+00  0.4255E-16  0.1561E+03  0.1560E+03
     -7.303  0.2236E+02  0.6623E-01  0.1615E+03  0.1560E+03
     -7.061  0.4720E+02  0.2448E+02  0.1729E+03  0.1619E+03
     -6.820  0.2931E+02  0.4658E+02  0.1799E+03  0.1732E+03
     -6.578  0.2466E+00  0.2671E+02  0.1800E+03  0.1796E+03
     -6.336  0.0000E+00  0.1499E+01  0.1800E+03  0.1800E+03
     -6.095  0.0000E+00  0.0000E+00  0.1800E+03  0.1800E+03
     -5.853  0.0000E+00  0.0000E+00  0.1800E+03  0.1800E+03
     -5.612  0.0000E+00  0.0000E+00  0.1800E+03  0.1800E+03
     -5.370  0.0000E+00  0.0000E+00  0.1800E+03  0.1800E+03
     -5.128  0.0000E+00  0.0000E+00  0.1800E+03  0.1800E+03
     -4.887  0.0000E+00  0.0000E+00  0.1800E+03  0.1800E+03
     -4.645  0.0000E+00  0.0000E+00  0.1800E+03  0.1800E+03
     -4.404  0.0000E+00  0.0000E+00  0.1800E+03  0.1800E+03
     -4.162  0.0000E+00  0.0000E+00  0.1800E+03  0.1800E+03
     -3.920  0.0000E+00  0.0000E+00  0.1800E+03  0.1800E+03
     -3.679  0.0000E+00  0.0000E+00  0.1800E+03  0.1800E+03
     -3.437  0.0000E+00  0.0000E+00  0.1800E+03  0.1800E+03
     -3.195  0.0000E+00  0.0000E+00  0.1800E+03  0.1800E+03
     -2.954  0.0000E+00  0.0000E+00  0.1800E+03  0.1800E+03
     -2.712  0.0000E+00  0.0000E+00  0.1800E+03  0.1800E+03
     -2.471  0.0000E+00  0.0000E+00  0.1800E+03  0.1800E+03
     -2.229  0.1405E-01  0.0000E+00  0.1800E+03  0.1800E+03
     -1.987  0.2715E+02  0.0000E+00  0.1866E+03  0.1800E+03
     -1.746  0.5019E+02  0.0000E+00  0.1987E+03  0.1800E+03
     -1.504  0.1584E+02  0.0000E+00  0.2025E+03  0.1800E+03
     -1.263  0.1901E+02  0.0000E+00  0.2071E+03  0.1800E+03
     -1.021  0.5905E+02  0.1530E-03  0.2214E+03  0.1800E+03
     -0.779  0.7335E+02  0.1899E+01  0.2391E+03  0.1805E+03
     -0.538  0.6479E+02  0.9993E+01  0.2547E+03  0.1829E+03
     -0.296  0.6332E+02  0.2037E+02  0.2700E+03  0.1878E+03
     -0.055  0.6205E+02  0.3415E+02  0.2850E+03  0.1960E+03
      0.187  0.5482E+02  0.2516E+02  0.2983E+03  0.2021E+03
      0.429  0.1066E+03  0.3705E+02  0.3240E+03  0.2111E+03
      0.670  0.5268E+02  0.3616E+02  0.3368E+03  0.2198E+03
      0.912  0.4683E+02  0.5712E+02  0.3481E+03  0.2336E+03
      1.153  0.5304E+02  0.5599E+02  0.3609E+03  0.2471E+03
      1.395  0.6424E+02  0.1981E+02  0.3764E+03  0.2519E+03
      1.637  0.5400E+02  0.2520E+02  0.3895E+03  0.2580E+03
      1.878  0.5842E+02  0.4737E+02  0.4036E+03  0.2695E+03
      2.120  0.4841E+02  0.3570E+02  0.4153E+03  0.2781E+03
      2.361  0.2756E+02  0.3019E+02  0.4219E+03  0.2854E+03
      2.603  0.3524E+02  0.3337E+02  0.4305E+03  0.2934E+03
      2.845  0.3380E+02  0.4466E+02  0.4386E+03  0.3042E+03
      3.086  0.3660E+02  0.3815E+02  0.4475E+03  0.3134E+03
      3.328  0.3371E+02  0.5952E+02  0.4556E+03  0.3278E+03
      3.569  0.2570E+02  0.2802E+02  0.4618E+03  0.3346E+03
      3.811  0.4116E+02  0.9326E+01  0.4718E+03  0.3368E+03
      4.053  0.4597E+02  0.1086E+02  0.4829E+03  0.3395E+03
      4.294  0.3579E+02  0.4074E+02  0.4915E+03  0.3493E+03
      4.536  0.3622E+02  0.2264E+02  0.5003E+03  0.3548E+03
      4.777  0.1546E+02  0.1998E+02  0.5040E+03  0.3596E+03
      5.019  0.1281E-01  0.1603E+01  0.5040E+03  0.3600E+03
      5.261  0.0000E+00  0.2022E-04  0.5040E+03  0.3600E+03
      5.502  0.0000E+00  0.0000E+00  0.5040E+03  0.3600E+03
      5.744  0.0000E+00  0.0000E+00  0.5040E+03  0.3600E+03
      5.985  0.0000E+00  0.2137E-07  0.5040E+03  0.3600E+03
      6.227  0.0000E+00  0.3149E+00  0.5040E+03  0.3601E+03
      6.469  0.0000E+00  0.3672E+01  0.5040E+03  0.3610E+03
      6.710  0.4504E-02  0.9736E+01  0.5040E+03  0.3633E+03
      6.952  0.1488E+00  0.3267E+02  0.5040E+03  0.3712E+03
      7.193  0.3146E+00  0.7768E+02  0.5041E+03  0.3900E+03
      7.435  0.7609E+00  0.6514E+02  0.5043E+03  0.4057E+03
      7.677  0.2528E+01  0.5156E+02  0.5049E+03  0.4182E+03
      7.918  0.2204E+01  0.8550E+02  0.5054E+03  0.4388E+03
      8.160  0.2115E+01  0.7835E+02  0.5060E+03  0.4578E+03
      8.401  0.5337E+01  0.5283E+02  0.5072E+03  0.4705E+03
      8.643  0.7894E+01  0.7291E+02  0.5091E+03  0.4881E+03
      8.885  0.1649E+02  0.4514E+02  0.5131E+03  0.4990E+03
      9.126  0.1349E+02  0.2216E+02  0.5164E+03  0.5044E+03
      9.368  0.1855E+02  0.4839E+01  0.5209E+03  0.5056E+03
      9.609  0.1987E+02  0.6618E+01  0.5257E+03  0.5072E+03
      9.851  0.1784E+02  0.1157E+02  0.5300E+03  0.5100E+03
     10.093  0.1800E+02  0.1440E+02  0.5343E+03  0.5134E+03
     10.334  0.1978E+02  0.1813E+02  0.5391E+03  0.5178E+03
     10.576  0.2426E+02  0.3196E+02  0.5450E+03  0.5255E+03
     10.817  0.2126E+02  0.2820E+02  0.5501E+03  0.5324E+03
     11.059  0.2851E+02  0.2194E+02  0.5570E+03  0.5377E+03
     11.301  0.2881E+02  0.2482E+02  0.5640E+03  0.5437E+03
     11.542  0.2219E+02  0.2210E+02  0.5693E+03  0.5490E+03
     11.784  0.2723E+02  0.2152E+02  0.5759E+03  0.5542E+03
     12.025  0.3938E+02  0.1859E+02  0.5854E+03  0.5587E+03
     12.267  0.3439E+02  0.3062E+02  0.5937E+03  0.5661E+03
     12.509  0.2810E+02  0.4275E+02  0.6005E+03  0.5764E+03
     12.750  0.2535E+02  0.3530E+02  0.6066E+03  0.5849E+03
     12.992  0.2865E+02  0.2853E+02  0.6136E+03  0.5918E+03
     13.233  0.2534E+02  0.2735E+02  0.6197E+03  0.5984E+03
     13.475  0.2165E+02  0.3668E+02  0.6249E+03  0.6073E+03
     13.717  0.1795E+02  0.2944E+02  0.6292E+03  0.6144E+03
     13.958  0.2936E+01  0.2308E+02  0.6300E+03  0.6200E+03
     14.200  0.1801E+00  0.2364E+02  0.6300E+03  0.6257E+03
     14.441  0.0000E+00  0.1641E+02  0.6300E+03  0.6297E+03
     14.683  0.0000E+00  0.1396E+01  0.6300E+03  0.6300E+03
     14.925  0.0000E+00  0.2100E-05  0.6300E+03  0.6300E+03
     15.166  0.0000E+00  0.0000E+00  0.6300E+03  0.6300E+03
     15.408  0.0000E+00  0.0000E+00  0.6300E+03  0.6300E+03
     15.649  0.0000E+00  0.0000E+00  0.6300E+03  0.6300E+03
     15.891  0.0000E+00  0.0000E+00  0.6300E+03  0.6300E+03
     16.133  0.0000E+00  0.0000E+00  0.6300E+03  0.6300E+03
     16.374  0.0000E+00  0.0000E+00  0.6300E+03  0.6300E+03
     16.616  0.0000E+00  0.0000E+00  0.6300E+03  0.6300E+03
     16.857  0.0000E+00  0.0000E+00  0.6300E+03  0.6300E+03
     17.099  0.0000E+00  0.0000E+00  0.6300E+03  0.6300E+03
     17.341  0.0000E+00  0.0000E+00  0.6300E+03  0.6300E+03
     17.582  0.0000E+00  0.0000E+00  0.6300E+03  0.6300E+03
     17.824  0.0000E+00  0.0000E+00  0.6300E+03  0.6300E+03
