<?xml version="1.0" encoding="ISO-8859-1"?>
<modeling>
 <generator>
  <i name="program" type="string">vasp </i>
  <i name="version" type="string">5.4.4.18Apr17-6-g9f103f2a35  </i>
  <i name="subversion" type="string">(build Oct 25 2017 14:42:18) complex            parallel </i>
  <i name="platform" type="string">LinuxIFC </i>
  <i name="date" type="string">2021 06 02 </i>
  <i name="time" type="string">17:01:55 </i>
 </generator>
 <incar>
  <i type="string" name="PREC">accurate</i>
  <i type="string" name="ALGO"> normal</i>
  <i type="logical" name="ADDGRID"> T  </i>
  <i type="int" name="ISPIN">     2</i>
  <i type="int" name="ICHARG">     1</i>
  <i type="int" name="NELM">   200</i>
  <i type="int" name="NELMIN">     8</i>
  <i name="EDIFF">      0.00000100</i>
  <i type="int" name="ISYM">     0</i>
  <i name="ENCUT">    650.00000000</i>
  <v name="MAGMOM">      0.60000000      0.60000000      0.60000000      0.60000000      0.60000000      0.60000000      0.60000000      0.60000000      0.60000000      0.60000000      0.60000000      0.60000000      0.60000000      0.60000000      0.60000000      0.60000000      0.60000000      0.60000000      0.60000000      0.60000000
      0.60000000      0.60000000      0.60000000      0.60000000      0.60000000      0.60000000      0.60000000      0.60000000      0.60000000      0.60000000      0.60000000      0.60000000      0.60000000      0.60000000      0.60000000      0.60000000      0.60000000      0.60000000      0.60000000      0.60000000
      0.60000000      0.60000000      0.60000000      0.60000000      0.60000000      0.60000000      0.60000000      0.60000000      0.60000000      0.60000000      0.60000000      0.60000000      0.60000000      0.60000000      0.60000000      0.60000000      5.00000000      5.00000000      5.00000000      5.00000000
      5.00000000      5.00000000      5.00000000      5.00000000      5.00000000      5.00000000      5.00000000      5.00000000      5.00000000      5.00000000      5.00000000      5.00000000      5.00000000      5.00000000      5.00000000      5.00000000      5.00000000      5.00000000      5.00000000      5.00000000
      5.00000000      5.00000000      5.00000000      5.00000000      5.00000000      5.00000000      5.00000000      5.00000000</v>
  <i type="logical" name="LREAL"> F  </i>
  <i type="int" name="ISMEAR">     0</i>
  <i name="SIGMA">      0.05000000</i>
  <i type="int" name="NWRITE">     1</i>
  <i type="int" name="LMAXMIX">     4</i>
  <i type="logical" name="LWAVE"> F  </i>
  <i type="logical" name="LASPH"> T  </i>
  <v type="int" name="KPOINT_BSE">    -1     0     0     0</v>
  <i type="int" name="NELM">   200</i>
  <i type="string" name="GGA"> pe</i>
  <i type="logical" name="LDAU"> T  </i>
  <v type="int" name="LDAUTYPE">     2</v>
  <v type="int" name="LDAUL">    -1    -1    -1     2</v>
  <v name="LDAUU">      0.00000000      0.00000000      0.00000000      4.00000000</v>
  <v name="LDAUJ">      0.00000000      0.00000000      0.00000000      0.00000000</v>
  <i type="logical" name="LASPH"> T  </i>
 </incar>
 <structure name="primitive_cell" >
  <crystal>
   <varray name="basis" >
    <v>      11.11223374       0.00000000      -0.00029034 </v>
    <v>       0.00000000      11.11745194       0.00000000 </v>
    <v>      -2.77510898       0.00000000      10.19872221 </v>
   </varray>
   <i name="volume">   1259.93837498 </i>
   <varray name="rec_basis" >
    <v>       0.08999155       0.00000000       0.02448702 </v>
    <v>       0.00000000       0.08994867       0.00000000 </v>
    <v>       0.00000256       0.00000000       0.09805220 </v>
   </varray>
  </crystal>
  <varray name="positions" >
   <v>       0.28894970       0.46933910       0.15583616 </v>
   <v>       0.17529533      -0.40661825       0.19749617 </v>
   <v>       0.42345029       0.34530995       0.19749407 </v>
   <v>       0.37560721      -0.40565694      -0.00000412 </v>
   <v>       0.12439279       0.34434306       0.00000412 </v>
   <v>      -0.46151602       0.46936404       0.15397331 </v>
   <v>       0.03848398       0.46936404       0.15397331 </v>
   <v>       0.28861657       0.21935690       0.15447525 </v>
   <v>       0.28861657      -0.28064310       0.15447525 </v>
   <v>       0.21868463       0.34523395       0.37102476 </v>
   <v>       0.46681660      -0.40655103       0.37102399 </v>
   <v>       0.23507288      -0.41767349       0.39367237 </v>
   <v>       0.46175575       0.35634799       0.39367694 </v>
   <v>       0.21138343       0.46935690      -0.15447525 </v>
   <v>       0.04646972       0.21934976       0.18586770 </v>
   <v>       0.04646972      -0.28065024       0.18586770 </v>
   <v>      -0.45353028       0.21934976       0.18586770 </v>
   <v>      -0.45353028      -0.28065024       0.18586770 </v>
   <v>       0.32470467       0.34338175      -0.19749617 </v>
   <v>       0.07654971      -0.40469005      -0.19749407 </v>
   <v>       0.21105030       0.21933910      -0.15583616 </v>
   <v>       0.21105030      -0.28066090      -0.15583616 </v>
   <v>      -0.07654971       0.34530995       0.19749407 </v>
   <v>      -0.32470467      -0.40661825       0.19749617 </v>
   <v>       0.17529533       0.09338175       0.19749617 </v>
   <v>       0.42345029      -0.15469005       0.19749407 </v>
   <v>       0.45353028       0.46934976      -0.18586770 </v>
   <v>      -0.04646972       0.46934976      -0.18586770 </v>
   <v>      -0.37560721       0.34434306       0.00000412 </v>
   <v>      -0.12439279      -0.40565694      -0.00000412 </v>
   <v>       0.37560721       0.09434306      -0.00000412 </v>
   <v>       0.12439279      -0.15565694       0.00000412 </v>
   <v>       0.46591669       0.09344897       0.37102399 </v>
   <v>      -0.03318340      -0.40655103       0.37102399 </v>
   <v>      -0.28131537       0.34523395       0.37102476 </v>
   <v>       0.21868463      -0.15476605       0.37102476 </v>
   <v>       0.46151602       0.21936404      -0.15397331 </v>
   <v>       0.46151602      -0.28063596      -0.15397331 </v>
   <v>      -0.03848398       0.21936404      -0.15397331 </v>
   <v>      -0.03848398      -0.28063596      -0.15397331 </v>
   <v>       0.26492712       0.33232651      -0.39367237 </v>
   <v>      -0.46175575      -0.39365201      -0.39367694 </v>
   <v>      -0.03824425       0.35634799       0.39367694 </v>
   <v>      -0.26492712      -0.41767349       0.39367237 </v>
   <v>       0.23507288       0.08232651       0.39367237 </v>
   <v>       0.46175575      -0.14365201       0.39367694 </v>
   <v>       0.28131537      -0.40476605      -0.37102476 </v>
   <v>      -0.46681660       0.34344897      -0.37102399 </v>
   <v>      -0.21105030       0.46933910       0.15583616 </v>
   <v>       0.28894970      -0.03066090       0.15583616 </v>
   <v>       0.32470467      -0.15661825      -0.19749617 </v>
   <v>       0.07654971       0.09530995      -0.19749407 </v>
   <v>      -0.42345029      -0.40469005      -0.19749407 </v>
   <v>      -0.17529533       0.34338175      -0.19749617 </v>
   <v>       0.03318340       0.34344897      -0.37102399 </v>
   <v>      -0.07654971      -0.15469005       0.19749407 </v>
   <v>      -0.32470467       0.09338175       0.19749617 </v>
   <v>       0.03824425      -0.39365201      -0.39367694 </v>
   <v>      -0.37560721      -0.15565694       0.00000412 </v>
   <v>      -0.12439279       0.09434306      -0.00000412 </v>
   <v>      -0.21138343       0.21935690       0.15447525 </v>
   <v>      -0.21138343      -0.28064310       0.15447525 </v>
   <v>      -0.46151602      -0.03063596       0.15397331 </v>
   <v>       0.03848398      -0.03063596       0.15397331 </v>
   <v>       0.26492712      -0.16767349      -0.39367237 </v>
   <v>      -0.46175575       0.10634799      -0.39367694 </v>
   <v>      -0.03318340       0.09344897       0.37102399 </v>
   <v>      -0.28131537      -0.15476605       0.37102476 </v>
   <v>      -0.23507288       0.33232651      -0.39367237 </v>
   <v>      -0.28861657       0.46935690      -0.15447525 </v>
   <v>       0.21138343      -0.03064310      -0.15447525 </v>
   <v>      -0.21868463      -0.40476605      -0.37102476 </v>
   <v>       0.28131537       0.09523395      -0.37102476 </v>
   <v>      -0.46681660      -0.15655103      -0.37102399 </v>
   <v>      -0.03824425      -0.14365201       0.39367694 </v>
   <v>      -0.26492712       0.08232651       0.39367237 </v>
   <v>      -0.42345029       0.09530995      -0.19749407 </v>
   <v>      -0.17529533      -0.15661825      -0.19749617 </v>
   <v>       0.03318340      -0.15655103      -0.37102399 </v>
   <v>      -0.28894970       0.21933910      -0.15583616 </v>
   <v>      -0.28894970      -0.28066090      -0.15583616 </v>
   <v>       0.03824425       0.10634799      -0.39367694 </v>
   <v>       0.45353028      -0.03065024      -0.18586770 </v>
   <v>      -0.04646972      -0.03065024      -0.18586770 </v>
   <v>      -0.23507288      -0.16767349      -0.39367237 </v>
   <v>      -0.21868463       0.09523395      -0.37102476 </v>
   <v>      -0.21105030      -0.03066090       0.15583616 </v>
   <v>      -0.28861657      -0.03064310      -0.15447525 </v>
  </varray>
 </structure>
 <varray name="primitive_index" >
  <v type="int" >        1 </v>
  <v type="int" >       27 </v>
  <v type="int" >       29 </v>
  <v type="int" >       55 </v>
  <v type="int" >       49 </v>
  <v type="int" >       74 </v>
  <v type="int" >       73 </v>
  <v type="int" >       77 </v>
  <v type="int" >       79 </v>
  <v type="int" >       33 </v>
  <v type="int" >       39 </v>
  <v type="int" >       67 </v>
  <v type="int" >       69 </v>
  <v type="int" >       81 </v>
  <v type="int" >        5 </v>
  <v type="int" >        7 </v>
  <v type="int" >        6 </v>
  <v type="int" >        8 </v>
  <v type="int" >       21 </v>
  <v type="int" >       19 </v>
  <v type="int" >       13 </v>
  <v type="int" >       15 </v>
  <v type="int" >       30 </v>
  <v type="int" >       28 </v>
  <v type="int" >       25 </v>
  <v type="int" >       31 </v>
  <v type="int" >        9 </v>
  <v type="int" >       10 </v>
  <v type="int" >       50 </v>
  <v type="int" >       56 </v>
  <v type="int" >       53 </v>
  <v type="int" >       51 </v>
  <v type="int" >       37 </v>
  <v type="int" >       40 </v>
  <v type="int" >       34 </v>
  <v type="int" >       35 </v>
  <v type="int" >       85 </v>
  <v type="int" >       87 </v>
  <v type="int" >       86 </v>
  <v type="int" >       88 </v>
  <v type="int" >       61 </v>
  <v type="int" >       60 </v>
  <v type="int" >       70 </v>
  <v type="int" >       68 </v>
  <v type="int" >       65 </v>
  <v type="int" >       71 </v>
  <v type="int" >       47 </v>
  <v type="int" >       42 </v>
  <v type="int" >        2 </v>
  <v type="int" >        3 </v>
  <v type="int" >       23 </v>
  <v type="int" >       17 </v>
  <v type="int" >       20 </v>
  <v type="int" >       22 </v>
  <v type="int" >       41 </v>
  <v type="int" >       32 </v>
  <v type="int" >       26 </v>
  <v type="int" >       59 </v>
  <v type="int" >       52 </v>
  <v type="int" >       54 </v>
  <v type="int" >       78 </v>
  <v type="int" >       80 </v>
  <v type="int" >       76 </v>
  <v type="int" >       75 </v>
  <v type="int" >       63 </v>
  <v type="int" >       58 </v>
  <v type="int" >       38 </v>
  <v type="int" >       36 </v>
  <v type="int" >       62 </v>
  <v type="int" >       82 </v>
  <v type="int" >       83 </v>
  <v type="int" >       48 </v>
  <v type="int" >       45 </v>
  <v type="int" >       44 </v>
  <v type="int" >       72 </v>
  <v type="int" >       66 </v>
  <v type="int" >       18 </v>
  <v type="int" >       24 </v>
  <v type="int" >       43 </v>
  <v type="int" >       14 </v>
  <v type="int" >       16 </v>
  <v type="int" >       57 </v>
  <v type="int" >       11 </v>
  <v type="int" >       12 </v>
  <v type="int" >       64 </v>
  <v type="int" >       46 </v>
  <v type="int" >        4 </v>
  <v type="int" >       84 </v>
 </varray>
 <kpoints>
  <generation param="Gamma">
   <v type="int" name="divisions">       3        3        3 </v>
   <v name="usershift">      0.00000000       0.00000000       0.00000000 </v>
   <v name="genvec1">      0.33333333       0.00000000       0.00000000 </v>
   <v name="genvec2">      0.00000000       0.33333333       0.00000000 </v>
   <v name="genvec3">      0.00000000       0.00000000       0.33333333 </v>
   <v name="shift">      0.00000000       0.00000000       0.00000000 </v>
  </generation>
  <varray name="kpointlist" >
   <v>       0.00000000       0.00000000       0.00000000 </v>
   <v>       0.33333333       0.00000000       0.00000000 </v>
   <v>       0.00000000       0.33333333       0.00000000 </v>
   <v>       0.33333333       0.33333333       0.00000000 </v>
   <v>      -0.33333333       0.33333333      -0.00000000 </v>
   <v>       0.00000000       0.00000000       0.33333333 </v>
   <v>       0.33333333       0.00000000       0.33333333 </v>
   <v>      -0.33333333       0.00000000       0.33333333 </v>
   <v>       0.00000000       0.33333333       0.33333333 </v>
   <v>       0.33333333       0.33333333       0.33333333 </v>
   <v>      -0.33333333       0.33333333       0.33333333 </v>
   <v>       0.00000000      -0.33333333       0.33333333 </v>
   <v>       0.33333333      -0.33333333       0.33333333 </v>
   <v>      -0.33333333      -0.33333333       0.33333333 </v>
  </varray>
  <varray name="weights" >
   <v>       0.03703704 </v>
   <v>       0.07407407 </v>
   <v>       0.07407407 </v>
   <v>       0.07407407 </v>
   <v>       0.07407407 </v>
   <v>       0.07407407 </v>
   <v>       0.07407407 </v>
   <v>       0.07407407 </v>
   <v>       0.07407407 </v>
   <v>       0.07407407 </v>
   <v>       0.07407407 </v>
   <v>       0.07407407 </v>
   <v>       0.07407407 </v>
   <v>       0.07407407 </v>
  </varray>
 </kpoints>
 <parameters>
  <separator name="general" >
   <i type="string" name="SYSTEM">unknown system</i>
   <i type="logical" name="LCOMPAT"> F  </i>
  </separator>
  <separator name="electronic" >
   <i type="string" name="PREC">accura</i>
   <i name="ENMAX">    650.00000000</i>
   <i name="ENAUG">    628.94500000</i>
   <i name="EDIFF">      0.00000100</i>
   <i type="int" name="IALGO">    38</i>
   <i type="int" name="IWAVPR">    10</i>
   <i type="int" name="NBANDS">   538</i>
   <i name="NELECT">    736.00000000</i>
   <i type="int" name="TURBO">     0</i>
   <i type="int" name="IRESTART">     0</i>
   <i type="int" name="NREBOOT">     0</i>
   <i type="int" name="NMIN">     0</i>
   <i name="EREF">      0.00000000</i>
   <separator name="electronic smearing" >
    <i type="int" name="ISMEAR">     0</i>
    <i name="SIGMA">      0.05000000</i>
    <i name="KSPACING">      0.50000000</i>
    <i type="logical" name="KGAMMA"> T  </i>
   </separator>
   <separator name="electronic projectors" >
    <i type="logical" name="LREAL"> F  </i>
    <v name="ROPT">      0.00000000      0.00000000      0.00000000      0.00000000</v>
    <i type="int" name="LMAXPAW">  -100</i>
    <i type="int" name="LMAXMIX">     4</i>
    <i type="logical" name="NLSPLINE"> F  </i>
   </separator>
   <separator name="electronic startup" >
    <i type="int" name="ISTART">     0</i>
    <i type="int" name="ICHARG">     1</i>
    <i type="int" name="INIWAV">     1</i>
   </separator>
   <separator name="electronic spin" >
    <i type="int" name="ISPIN">     2</i>
    <i type="logical" name="LNONCOLLINEAR"> F  </i>
    <v name="MAGMOM">      0.60000000      0.60000000      0.60000000      0.60000000      0.60000000      0.60000000      0.60000000      0.60000000      0.60000000      0.60000000      0.60000000      0.60000000      0.60000000      0.60000000      0.60000000      0.60000000      0.60000000      0.60000000      0.60000000      0.60000000
      0.60000000      0.60000000      0.60000000      0.60000000      0.60000000      0.60000000      0.60000000      0.60000000      0.60000000      0.60000000      0.60000000      0.60000000      0.60000000      0.60000000      0.60000000      0.60000000      0.60000000      0.60000000      0.60000000      0.60000000
      0.60000000      0.60000000      0.60000000      0.60000000      0.60000000      0.60000000      0.60000000      0.60000000      0.60000000      0.60000000      0.60000000      0.60000000      0.60000000      0.60000000      0.60000000      0.60000000      5.00000000      5.00000000      5.00000000      5.00000000
      5.00000000      5.00000000      5.00000000      5.00000000      5.00000000      5.00000000      5.00000000      5.00000000      5.00000000      5.00000000      5.00000000      5.00000000      5.00000000      5.00000000      5.00000000      5.00000000      5.00000000      5.00000000      5.00000000      5.00000000
      5.00000000      5.00000000      5.00000000      5.00000000      5.00000000      5.00000000      5.00000000      5.00000000</v>
    <i name="NUPDOWN">     -1.00000000</i>
    <i type="logical" name="LSORBIT"> F  </i>
    <v name="SAXIS">      0.00000000      0.00000000      1.00000000</v>
    <i type="logical" name="LSPIRAL"> F  </i>
    <v name="QSPIRAL">      0.00000000      0.00000000      0.00000000</v>
    <i type="logical" name="LZEROZ"> F  </i>
   </separator>
   <separator name="electronic exchange-correlation" >
    <i type="logical" name="LASPH"> T  </i>
    <i type="logical" name="LMETAGGA"> F  </i>
   </separator>
   <separator name="electronic convergence" >
    <i type="int" name="NELM">   200</i>
    <i type="int" name="NELMDL">     0</i>
    <i type="int" name="NELMIN">     8</i>
    <i name="ENINI">    650.00000000</i>
    <separator name="electronic convergence detail" >
     <i type="logical" name="LDIAG"> T  </i>
     <i type="logical" name="LSUBROT"> F  </i>
     <i name="WEIMIN">      0.00000000</i>
     <i name="EBREAK">      0.00000000</i>
     <i name="DEPER">      0.30000000</i>
     <i type="int" name="NRMM">     4</i>
     <i name="TIME">      0.40000000</i>
    </separator>
   </separator>
   <separator name="electronic mixer" >
    <i name="AMIX">      0.40000000</i>
    <i name="BMIX">      1.00000000</i>
    <i name="AMIN">      0.10000000</i>
    <i name="AMIX_MAG">      1.60000000</i>
    <i name="BMIX_MAG">      1.00000000</i>
    <separator name="electronic mixer details" >
     <i type="int" name="IMIX">     4</i>
     <i type="logical" name="MIXFIRST"> F  </i>
     <i type="int" name="MAXMIX">   -45</i>
     <i name="WC">    100.00000000</i>
     <i type="int" name="INIMIX">     1</i>
     <i type="int" name="MIXPRE">     1</i>
     <i type="int" name="MREMOVE">     5</i>
    </separator>
   </separator>
   <separator name="electronic dipolcorrection" >
    <i type="logical" name="LDIPOL"> F  </i>
    <i type="logical" name="LMONO"> F  </i>
    <i type="int" name="IDIPOL">     0</i>
    <i name="EPSILON">      1.00000000</i>
    <v name="DIPOL">   -100.00000000   -100.00000000   -100.00000000</v>
    <i name="EFIELD">      0.00000000</i>
   </separator>
  </separator>
  <separator name="grids" >
   <i type="int" name="NGX">    96</i>
   <i type="int" name="NGY">    96</i>
   <i type="int" name="NGZ">    90</i>
   <i type="int" name="NGXF">   192</i>
   <i type="int" name="NGYF">   192</i>
   <i type="int" name="NGZF">   180</i>
   <i type="logical" name="ADDGRID"> T  </i>
  </separator>
  <separator name="ionic" >
   <i type="int" name="NSW">     0</i>
   <i type="int" name="IBRION">    -1</i>
   <i type="int" name="MDALGO">     0</i>
   <i type="int" name="ISIF">     2</i>
   <i name="PSTRESS">      0.00000000</i>
   <i name="EDIFFG">      0.00001000</i>
   <i type="int" name="NFREE">     0</i>
   <i name="POTIM">      0.50000000</i>
   <i name="SMASS">     -3.00000000</i>
   <i name="SCALEE">      1.00000000</i>
  </separator>
  <separator name="ionic md" >
   <i name="TEBEG">      0.00010000</i>
   <i name="TEEND">      0.00010000</i>
   <i type="int" name="NBLOCK">     1</i>
   <i type="int" name="KBLOCK">     1</i>
   <i type="int" name="NPACO">   256</i>
   <i name="APACO">     16.00000000</i>
  </separator>
  <separator name="symmetry" >
   <i type="int" name="ISYM">     0</i>
   <i name="SYMPREC">      0.00001000</i>
  </separator>
  <separator name="dos" >
   <i type="int" name="LORBIT">     0</i>
   <v name="RWIGS">     -1.00000000     -1.00000000     -1.00000000     -1.00000000</v>
   <i type="int" name="NEDOS">   301</i>
   <i name="EMIN">     10.00000000</i>
   <i name="EMAX">    -10.00000000</i>
   <i name="EFERMI">      0.00000000</i>
  </separator>
  <separator name="writing" >
   <i type="int" name="NWRITE">     1</i>
   <i type="logical" name="LWAVE"> F  </i>
   <i type="logical" name="LDOWNSAMPLE"> F  </i>
   <i type="logical" name="LCHARG"> T  </i>
   <i type="logical" name="LPARD"> F  </i>
   <i type="logical" name="LVTOT"> F  </i>
   <i type="logical" name="LVHAR"> F  </i>
   <i type="logical" name="LELF"> F  </i>
   <i type="logical" name="LOPTICS"> F  </i>
   <v name="STM">      0.00000000      0.00000000      0.00000000      0.00000000      0.00000000      0.00000000      0.00000000</v>
  </separator>
  <separator name="performance" >
   <i type="int" name="NPAR">     2</i>
   <i type="int" name="NSIM">     4</i>
   <i type="int" name="NBLK">    -1</i>
   <i type="logical" name="LPLANE"> T  </i>
   <i type="logical" name="LSCALAPACK"> T  </i>
   <i type="logical" name="LSCAAWARE"> F  </i>
   <i type="logical" name="LSCALU"> F  </i>
   <i type="logical" name="LASYNC"> F  </i>
   <i type="logical" name="LORBITALREAL"> F  </i>
  </separator>
  <separator name="miscellaneous" >
   <i type="int" name="IDIOT">     3</i>
   <i type="int" name="ISPECIAL">     0</i>
   <i type="logical" name="LMUSIC"> F  </i>
   <v name="POMASS">      7.01000000     16.00000000     32.06600000     55.84700000</v>
   <v name="DARWINR">      0.00000000      0.00000000      0.00000000      0.00000000</v>
   <v name="DARWINV">      1.00000000      1.00000000      1.00000000      1.00000000</v>
   <i type="logical" name="LCORR"> T  </i>
  </separator>
  <i type="logical" name="GGA_COMPAT"> T  </i>
  <i type="logical" name="LBERRY"> F  </i>
  <i type="int" name="ICORELEVEL">     0</i>
  <i type="logical" name="LDAU"> T  </i>
  <v type="int" name="LDAUTYPE">     2</v>
  <v type="int" name="LDAUL">    -1</v>
  <v name="LDAUU">      0.00000000</v>
  <v name="LDAUJ">      0.00000000</v>
  <i type="int" name="LDAUPRINT">     0</i>
  <i type="int" name="I_CONSTRAINED_M">     0</i>
  <separator name="electronic exchange-correlation" >
   <i type="string" name="GGA">PE</i>
   <i type="int" name="VOSKOWN">     0</i>
   <i type="logical" name="LHFCALC"> F  </i>
   <i type="string" name="PRECFOCK"></i>
   <i type="logical" name="LSYMGRAD"> F  </i>
   <i type="logical" name="LHFONE"> F  </i>
   <i type="logical" name="LRHFCALC"> F  </i>
   <i type="logical" name="LTHOMAS"> F  </i>
   <i type="logical" name="LMODELHF"> F  </i>
   <i name="ENCUT4O">     -1.00000000</i>
   <i type="int" name="EXXOEP">     0</i>
   <i type="int" name="FOURORBIT">     0</i>
   <i name="AEXX">      0.00000000</i>
   <i name="HFALPHA">      0.00000000</i>
   <i name="MCALPHA">      0.00000000</i>
   <i name="ALDAX">      1.00000000</i>
   <i name="AGGAX">      1.00000000</i>
   <i name="ALDAC">      1.00000000</i>
   <i name="AGGAC">      1.00000000</i>
   <i type="int" name="NKREDX">     1</i>
   <i type="int" name="NKREDY">     1</i>
   <i type="int" name="NKREDZ">     1</i>
   <i type="logical" name="SHIFTRED"> F  </i>
   <i type="logical" name="ODDONLY"> F  </i>
   <i type="logical" name="EVENONLY"> F  </i>
   <i type="int" name="LMAXFOCK">     0</i>
   <i type="int" name="NMAXFOCKAE">     0</i>
   <i type="logical" name="LFOCKAEDFT"> F  </i>
   <i name="HFSCREEN">      0.00000000</i>
   <i name="HFSCREENC">      0.00000000</i>
   <i type="int" name="NBANDSGWLOW">     0</i>
  </separator>
  <separator name="vdW DFT" >
   <i type="logical" name="LUSE_VDW"> F  </i>
   <i name="Zab_VDW">     -0.84910000</i>
   <i name="PARAM1">      0.12340000</i>
   <i name="PARAM2">      1.00000000</i>
   <i name="PARAM3">      0.00000000</i>
  </separator>
  <separator name="model GW" >
   <i type="int" name="MODEL_GW">     0</i>
   <i name="MODEL_EPS0">      8.59048892</i>
   <i name="MODEL_ALPHA">      1.00000000</i>
  </separator>
  <separator name="linear response parameters" >
   <i type="logical" name="LEPSILON"> F  </i>
   <i type="logical" name="LRPA"> F  </i>
   <i type="logical" name="LNABLA"> F  </i>
   <i type="logical" name="LVEL"> F  </i>
   <i type="int" name="KINTER">     0</i>
   <i name="CSHIFT">      0.10000000</i>
   <i name="OMEGAMAX">     -1.00000000</i>
   <i name="DEG_THRESHOLD">      0.00200000</i>
   <i name="RTIME">     -0.10000000</i>
   <i name="WPLASMAI">      0.00000000</i>
   <v name="DFIELD">      0.00000000      0.00000000      0.00000000</v>
   <v name="WPLASMA">      0.00000000      0.00000000      0.00000000      0.00000000      0.00000000      0.00000000      0.00000000      0.00000000      0.00000000</v>
  </separator>
  <separator name="orbital magnetization" >
   <i type="logical" name="NUCIND"> F  </i>
   <v name="MAGPOS">      0.00000000      0.00000000      0.00000000</v>
   <i type="logical" name="LNICSALL"> T  </i>
   <i type="logical" name="ORBITALMAG"> F  </i>
   <i type="logical" name="LMAGBLOCH"> F  </i>
   <i type="logical" name="LCHIMAG"> F  </i>
   <i type="logical" name="LGAUGE"> T  </i>
   <i type="int" name="MAGATOM">     0</i>
   <v name="MAGDIPOL">      0.00000000      0.00000000      0.00000000</v>
   <v name="AVECCONST">      0.00000000      0.00000000      0.00000000</v>
  </separator>
  <separator name="response functions" >
   <i type="logical" name="LADDER"> F  </i>
   <i type="logical" name="LRPAFORCE"> F  </i>
   <i type="logical" name="LFXC"> F  </i>
   <i type="logical" name="LHARTREE"> T  </i>
   <i type="int" name="IBSE">     0</i>
   <v type="int" name="KPOINT">    -1     0     0     0</v>
   <i type="logical" name="LTCTE"> F  </i>
   <i type="logical" name="LTETE"> F  </i>
   <i type="logical" name="LTRIPLET"> F  </i>
   <i type="logical" name="LFXCEPS"> F  </i>
   <i type="logical" name="LFXHEG"> F  </i>
   <i type="int" name="NATURALO">     2</i>
   <i type="logical" name="L2ORDER"> F  </i>
   <i type="logical" name="LMP2LT"> F  </i>
   <i type="logical" name="LUSEW"> F  </i>
   <i name="ENCUTGW">     -2.00000000</i>
   <i name="ENCUTGWSOFT">     -2.00000000</i>
   <i name="ENCUTLF">     -1.00000000</i>
   <i type="int" name="LMAXMP2">    -1</i>
   <i name="SCISSOR">      0.00000000</i>
   <i type="int" name="NOMEGA">     0</i>
   <i type="int" name="NOMEGAR">     0</i>
   <i type="int" name="NBANDSGW">    -1</i>
   <i type="int" name="NBANDSO">    -1</i>
   <i type="int" name="NBANDSV">    -1</i>
   <i type="int" name="NELM">   200</i>
   <i type="int" name="NELMHF">     1</i>
   <i type="int" name="DIM">     3</i>
   <i type="int" name="ANTIRES">     0</i>
   <i name="OMEGAMAX">    -30.00000000</i>
   <i name="OMEGAMIN">    -30.00000000</i>
   <i name="OMEGATL">   -200.00000000</i>
   <i type="int" name="OMEGAGRID">   140</i>
   <i name="CSHIFT">     -0.10000000</i>
   <i type="logical" name="SELFENERGY"> F  </i>
   <i type="logical" name="LSPECTRAL"> F  </i>
   <i type="logical" name="LSPECTRALGW"> F  </i>
   <i type="logical" name="LSINGLES"> F  </i>
   <i type="logical" name="LFERMIGW"> F  </i>
   <i type="logical" name="ODDONLYGW"> F  </i>
   <i type="logical" name="EVENONLYGW"> F  </i>
   <i type="int" name="NKREDLFX">     1</i>
   <i type="int" name="NKREDLFY">     1</i>
   <i type="int" name="NKREDLFZ">     1</i>
   <i type="int" name="MAXMEM">  2800</i>
   <i type="int" name="TELESCOPE">     0</i>
   <i type="int" name="TAUPAR">     1</i>
   <i type="int" name="OMEGAPAR">    -1</i>
   <i name="LAMBDA">      1.00000000</i>
  </separator>
  <separator name="External order field" >
   <i name="OFIELD_KAPPA">      0.00000000</i>
   <v name="OFIELD_K">      0.00000000      0.00000000      0.00000000</v>
   <i name="OFIELD_Q6_NEAR">      0.00000000</i>
   <i name="OFIELD_Q6_FAR">      0.00000000</i>
   <i name="OFIELD_A">      0.00000000</i>
  </separator>
 </parameters>
 <atominfo>
  <atoms>      88 </atoms>
  <types>       4 </types>
  <array name="atoms" >
   <dimension dim="1">ion</dimension>
   <field type="string">element</field>
   <field type="int">atomtype</field>
   <set>
    <rc><c>Li</c><c>   1</c></rc>
    <rc><c>Li</c><c>   1</c></rc>
    <rc><c>Li</c><c>   1</c></rc>
    <rc><c>Li</c><c>   1</c></rc>
    <rc><c>Li</c><c>   1</c></rc>
    <rc><c>Li</c><c>   1</c></rc>
    <rc><c>Li</c><c>   1</c></rc>
    <rc><c>Li</c><c>   1</c></rc>
    <rc><c>Li</c><c>   1</c></rc>
    <rc><c>Li</c><c>   1</c></rc>
    <rc><c>Li</c><c>   1</c></rc>
    <rc><c>Li</c><c>   1</c></rc>
    <rc><c>Li</c><c>   1</c></rc>
    <rc><c>Li</c><c>   1</c></rc>
    <rc><c>Li</c><c>   1</c></rc>
    <rc><c>Li</c><c>   1</c></rc>
    <rc><c>O </c><c>   2</c></rc>
    <rc><c>O </c><c>   2</c></rc>
    <rc><c>O </c><c>   2</c></rc>
    <rc><c>O </c><c>   2</c></rc>
    <rc><c>O </c><c>   2</c></rc>
    <rc><c>O </c><c>   2</c></rc>
    <rc><c>O </c><c>   2</c></rc>
    <rc><c>O </c><c>   2</c></rc>
    <rc><c>O </c><c>   2</c></rc>
    <rc><c>O </c><c>   2</c></rc>
    <rc><c>O </c><c>   2</c></rc>
    <rc><c>O </c><c>   2</c></rc>
    <rc><c>O </c><c>   2</c></rc>
    <rc><c>O </c><c>   2</c></rc>
    <rc><c>O </c><c>   2</c></rc>
    <rc><c>O </c><c>   2</c></rc>
    <rc><c>S </c><c>   3</c></rc>
    <rc><c>S </c><c>   3</c></rc>
    <rc><c>S </c><c>   3</c></rc>
    <rc><c>S </c><c>   3</c></rc>
    <rc><c>S </c><c>   3</c></rc>
    <rc><c>S </c><c>   3</c></rc>
    <rc><c>S </c><c>   3</c></rc>
    <rc><c>S </c><c>   3</c></rc>
    <rc><c>S </c><c>   3</c></rc>
    <rc><c>S </c><c>   3</c></rc>
    <rc><c>S </c><c>   3</c></rc>
    <rc><c>S </c><c>   3</c></rc>
    <rc><c>S </c><c>   3</c></rc>
    <rc><c>S </c><c>   3</c></rc>
    <rc><c>S </c><c>   3</c></rc>
    <rc><c>S </c><c>   3</c></rc>
    <rc><c>S </c><c>   3</c></rc>
    <rc><c>S </c><c>   3</c></rc>
    <rc><c>S </c><c>   3</c></rc>
    <rc><c>S </c><c>   3</c></rc>
    <rc><c>S </c><c>   3</c></rc>
    <rc><c>S </c><c>   3</c></rc>
    <rc><c>S </c><c>   3</c></rc>
    <rc><c>S </c><c>   3</c></rc>
    <rc><c>Fe</c><c>   4</c></rc>
    <rc><c>Fe</c><c>   4</c></rc>
    <rc><c>Fe</c><c>   4</c></rc>
    <rc><c>Fe</c><c>   4</c></rc>
    <rc><c>Fe</c><c>   4</c></rc>
    <rc><c>Fe</c><c>   4</c></rc>
    <rc><c>Fe</c><c>   4</c></rc>
    <rc><c>Fe</c><c>   4</c></rc>
    <rc><c>Fe</c><c>   4</c></rc>
    <rc><c>Fe</c><c>   4</c></rc>
    <rc><c>Fe</c><c>   4</c></rc>
    <rc><c>Fe</c><c>   4</c></rc>
    <rc><c>Fe</c><c>   4</c></rc>
    <rc><c>Fe</c><c>   4</c></rc>
    <rc><c>Fe</c><c>   4</c></rc>
    <rc><c>Fe</c><c>   4</c></rc>
    <rc><c>Fe</c><c>   4</c></rc>
    <rc><c>Fe</c><c>   4</c></rc>
    <rc><c>Fe</c><c>   4</c></rc>
    <rc><c>Fe</c><c>   4</c></rc>
    <rc><c>Fe</c><c>   4</c></rc>
    <rc><c>Fe</c><c>   4</c></rc>
    <rc><c>Fe</c><c>   4</c></rc>
    <rc><c>Fe</c><c>   4</c></rc>
    <rc><c>Fe</c><c>   4</c></rc>
    <rc><c>Fe</c><c>   4</c></rc>
    <rc><c>Fe</c><c>   4</c></rc>
    <rc><c>Fe</c><c>   4</c></rc>
    <rc><c>Fe</c><c>   4</c></rc>
    <rc><c>Fe</c><c>   4</c></rc>
    <rc><c>Fe</c><c>   4</c></rc>
    <rc><c>Fe</c><c>   4</c></rc>
   </set>
  </array>
  <array name="atomtypes" >
   <dimension dim="1">type</dimension>
   <field type="int">atomspertype</field>
   <field type="string">element</field>
   <field>mass</field>
   <field>valence</field>
   <field type="string">pseudopotential</field>
   <set>
    <rc><c>  16</c><c>Li</c><c>      7.01000000</c><c>      3.00000000</c><c>  PAW_PBE Li_sv 10Sep2004               </c></rc>
    <rc><c>  16</c><c>O </c><c>     16.00000000</c><c>      6.00000000</c><c>  PAW_PBE O 08Apr2002                   </c></rc>
    <rc><c>  24</c><c>S </c><c>     32.06600000</c><c>      6.00000000</c><c>  PAW_PBE S 06Sep2000                   </c></rc>
    <rc><c>  32</c><c>Fe</c><c>     55.84700000</c><c>     14.00000000</c><c>  PAW_PBE Fe_pv 02Aug2007               </c></rc>
   </set>
  </array>
 </atominfo>
 <structure name="initialpos" >
  <crystal>
   <varray name="basis" >
    <v>      11.11223374       0.00000000      -0.00029034 </v>
    <v>       0.00000000      11.11745194       0.00000000 </v>
    <v>      -2.77510898       0.00000000      10.19872221 </v>
   </varray>
   <i name="volume">   1259.93837498 </i>
   <varray name="rec_basis" >
    <v>       0.08999155       0.00000000       0.02448702 </v>
    <v>       0.00000000       0.08994867       0.00000000 </v>
    <v>       0.00000256       0.00000000       0.09805220 </v>
   </varray>
  </crystal>
  <varray name="positions" >
   <v>       0.28894969       0.46933910       0.15583616 </v>
   <v>       0.78894969       0.46933910       0.15583616 </v>
   <v>       0.28894969       0.96933910       0.15583616 </v>
   <v>       0.78894969       0.96933910       0.15583616 </v>
   <v>       0.04646972       0.21934976       0.18586770 </v>
   <v>       0.54646972       0.21934976       0.18586770 </v>
   <v>       0.04646972       0.71934976       0.18586770 </v>
   <v>       0.54646972       0.71934976       0.18586770 </v>
   <v>       0.45353028       0.46934976       0.81413230 </v>
   <v>       0.95353028       0.46934976       0.81413230 </v>
   <v>       0.45353028       0.96934976       0.81413230 </v>
   <v>       0.95353028       0.96934976       0.81413230 </v>
   <v>       0.21105031       0.21933910       0.84416384 </v>
   <v>       0.71105031       0.21933910       0.84416384 </v>
   <v>       0.21105031       0.71933910       0.84416384 </v>
   <v>       0.71105031       0.71933910       0.84416384 </v>
   <v>       0.07654971       0.09530995       0.80250593 </v>
   <v>       0.57654971       0.09530995       0.80250593 </v>
   <v>       0.07654971       0.59530995       0.80250593 </v>
   <v>       0.57654971       0.59530995       0.80250593 </v>
   <v>       0.32470466       0.34338175       0.80250383 </v>
   <v>       0.82470466       0.34338175       0.80250383 </v>
   <v>       0.32470466       0.84338175       0.80250383 </v>
   <v>       0.82470466       0.84338175       0.80250383 </v>
   <v>       0.17529534       0.09338175       0.19749617 </v>
   <v>       0.67529534       0.09338175       0.19749617 </v>
   <v>       0.17529534       0.59338175       0.19749617 </v>
   <v>       0.67529534       0.59338175       0.19749617 </v>
   <v>       0.42345029       0.34530995       0.19749407 </v>
   <v>       0.92345029       0.34530995       0.19749407 </v>
   <v>       0.42345029       0.84530995       0.19749407 </v>
   <v>       0.92345029       0.84530995       0.19749407 </v>
   <v>       0.21868463       0.34523395       0.37102476 </v>
   <v>       0.71868463       0.34523395       0.37102476 </v>
   <v>       0.21868463       0.84523395       0.37102476 </v>
   <v>       0.71868463       0.84523395       0.37102476 </v>
   <v>       0.46591669       0.09344897       0.37102399 </v>
   <v>       0.96681660       0.09344897       0.37102399 </v>
   <v>       0.46681660       0.59344897       0.37102399 </v>
   <v>       0.96681660       0.59344897       0.37102399 </v>
   <v>       0.03318340       0.34344897       0.62897601 </v>
   <v>       0.53318340       0.34344897       0.62897601 </v>
   <v>       0.03318340       0.84344897       0.62897601 </v>
   <v>       0.53318340       0.84344897       0.62897601 </v>
   <v>       0.28131537       0.09523395       0.62897524 </v>
   <v>       0.78131537       0.09523395       0.62897524 </v>
   <v>       0.28131537       0.59523395       0.62897524 </v>
   <v>       0.78131537       0.59523395       0.62897524 </v>
   <v>       0.12439279       0.34434306       0.00000412 </v>
   <v>       0.62439279       0.34434306       0.00000412 </v>
   <v>       0.12439279       0.84434306       0.00000412 </v>
   <v>       0.62439279       0.84434306       0.00000412 </v>
   <v>       0.37560721       0.09434306       0.99999588 </v>
   <v>       0.87560721       0.09434306       0.99999588 </v>
   <v>       0.37560721       0.59434306       0.99999588 </v>
   <v>       0.87560721       0.59434306       0.99999588 </v>
   <v>       0.03824426       0.10634799       0.60632306 </v>
   <v>       0.53824426       0.10634799       0.60632306 </v>
   <v>       0.03824426       0.60634799       0.60632306 </v>
   <v>       0.53824426       0.60634799       0.60632306 </v>
   <v>       0.26492712       0.33232651       0.60632763 </v>
   <v>       0.76492712       0.33232651       0.60632763 </v>
   <v>       0.26492712       0.83232651       0.60632763 </v>
   <v>       0.76492712       0.83232651       0.60632763 </v>
   <v>       0.23507288       0.08232651       0.39367237 </v>
   <v>       0.73507288       0.08232651       0.39367237 </v>
   <v>       0.23507288       0.58232651       0.39367237 </v>
   <v>       0.73507288       0.58232651       0.39367237 </v>
   <v>       0.46175574       0.35634799       0.39367694 </v>
   <v>       0.96175574       0.35634799       0.39367694 </v>
   <v>       0.46175574       0.85634799       0.39367694 </v>
   <v>       0.96175574       0.85634799       0.39367694 </v>
   <v>       0.03848398       0.46936404       0.15397331 </v>
   <v>       0.53848398       0.46936404       0.15397331 </v>
   <v>       0.03848398       0.96936404       0.15397331 </v>
   <v>       0.53848398       0.96936404       0.15397331 </v>
   <v>       0.28861657       0.21935690       0.15447525 </v>
   <v>       0.78861657       0.21935690       0.15447525 </v>
   <v>       0.28861657       0.71935690       0.15447525 </v>
   <v>       0.78861657       0.71935690       0.15447525 </v>
   <v>       0.21138343       0.46935690       0.84552475 </v>
   <v>       0.71138343       0.46935690       0.84552475 </v>
   <v>       0.21138343       0.96935690       0.84552475 </v>
   <v>       0.71138343       0.96935690       0.84552475 </v>
   <v>       0.46151602       0.21936404       0.84602669 </v>
   <v>       0.96151602       0.21936404       0.84602669 </v>
   <v>       0.46151602       0.71936404       0.84602669 </v>
   <v>       0.96151602       0.71936404       0.84602669 </v>
  </varray>
 </structure>
 <calculation>
  <scstep>
   <time name="dav">  316.26  319.52</time>
   <time name="total">  319.55  322.91</time>
   <energy>
    <i name="alphaZ">   2314.49656628 </i>
    <i name="ewald"> -57722.75193224 </i>
    <i name="hartreedc"> -30349.14805432 </i>
    <i name="XCdc">   3229.30187555 </i>
    <i name="pawpsdc">  92679.89207989 </i>
    <i name="pawaedc"> -95535.38516353 </i>
    <i name="eentropy">     -0.01852161 </i>
    <i name="bandstr">    349.79057208 </i>
    <i name="atom">  95443.47970955 </i>
    <i name="e_fr_energy">  10409.65713166 </i>
    <i name="e_wo_entrp">  10409.67565326 </i>
    <i name="e_0_energy">  10409.66639246 </i>
   </energy>
  </scstep>
  <scstep>
   <time name="dav">  310.10  312.98</time>
   <time name="total">  310.11  312.98</time>
   <energy>
    <i name="e_fr_energy">   1177.48219171 </i>
    <i name="e_wo_entrp">   1177.54806665 </i>
    <i name="e_0_energy">   1177.51512918 </i>
   </energy>
  </scstep>
  <scstep>
   <time name="dav">  327.40  330.85</time>
   <time name="total">  327.41  330.86</time>
   <energy>
    <i name="e_fr_energy">   -308.10900246 </i>
    <i name="e_wo_entrp">   -308.10900246 </i>
    <i name="e_0_energy">   -308.10900246 </i>
   </energy>
  </scstep>
  <scstep>
   <time name="dav">  348.20  351.97</time>
   <time name="total">  348.21  351.97</time>
   <energy>
    <i name="e_fr_energy">   -476.30126302 </i>
    <i name="e_wo_entrp">   -476.30126302 </i>
    <i name="e_0_energy">   -476.30126302 </i>
   </energy>
  </scstep>
  <scstep>
   <time name="dav">  465.11  469.57</time>
   <time name="total">  474.37  478.92</time>
   <energy>
    <i name="e_fr_energy">   -488.73476980 </i>
    <i name="e_wo_entrp">   -488.73476980 </i>
    <i name="e_0_energy">   -488.73476980 </i>
   </energy>
  </scstep>
  <scstep>
   <time name="dav">  402.42  406.80</time>
   <time name="total">  415.07  419.59</time>
   <energy>
    <i name="e_fr_energy">   -489.20062546 </i>
    <i name="e_wo_entrp">   -489.20062546 </i>
    <i name="e_0_energy">   -489.20062546 </i>
   </energy>
  </scstep>
  <scstep>
   <time name="dav">  437.53  441.83</time>
   <time name="total">  450.27  454.61</time>
   <energy>
    <i name="e_fr_energy">   -489.21728668 </i>
    <i name="e_wo_entrp">   -489.21728668 </i>
    <i name="e_0_energy">   -489.21728668 </i>
   </energy>
  </scstep>
  <scstep>
   <time name="dav">  409.34  413.70</time>
   <time name="total">  421.88  426.42</time>
   <energy>
    <i name="e_fr_energy">   -489.21680981 </i>
    <i name="e_wo_entrp">   -489.21680981 </i>
    <i name="e_0_energy">   -489.21680981 </i>
   </energy>
  </scstep>
  <scstep>
   <time name="dav">  448.43  452.78</time>
   <time name="total">  461.15  465.59</time>
   <energy>
    <i name="e_fr_energy">   -489.21643474 </i>
    <i name="e_wo_entrp">   -489.21643474 </i>
    <i name="e_0_energy">   -489.21643474 </i>
   </energy>
  </scstep>
  <scstep>
   <time name="dav">  431.19  435.59</time>
   <time name="total">  443.99  448.43</time>
   <energy>
    <i name="e_fr_energy">   -489.21591349 </i>
    <i name="e_wo_entrp">   -489.21591349 </i>
    <i name="e_0_energy">   -489.21591349 </i>
   </energy>
  </scstep>
  <scstep>
   <time name="dav">  403.98  407.71</time>
   <time name="total">  416.49  420.45</time>
   <energy>
    <i name="e_fr_energy">   -489.21529964 </i>
    <i name="e_wo_entrp">   -489.21529964 </i>
    <i name="e_0_energy">   -489.21529964 </i>
   </energy>
  </scstep>
  <scstep>
   <time name="dav">  371.49  375.19</time>
   <time name="total">  384.15  388.00</time>
   <energy>
    <i name="e_fr_energy">   -489.21526690 </i>
    <i name="e_wo_entrp">   -489.21526690 </i>
    <i name="e_0_energy">   -489.21526690 </i>
   </energy>
  </scstep>
  <scstep>
   <time name="dav">  381.03  384.54</time>
   <time name="total">  393.72  397.37</time>
   <energy>
    <i name="e_fr_energy">   -489.21527361 </i>
    <i name="e_wo_entrp">   -489.21527361 </i>
    <i name="e_0_energy">   -489.21527361 </i>
   </energy>
  </scstep>
  <scstep>
   <time name="dav">  250.00  252.36</time>
   <time name="total">  253.35  255.72</time>
   <energy>
    <i name="alphaZ">   2314.49656628 </i>
    <i name="ewald"> -57722.75193224 </i>
    <i name="hartreedc"> -30349.01751792 </i>
    <i name="XCdc">   3229.27802009 </i>
    <i name="pawpsdc">  92663.42751706 </i>
    <i name="pawaedc"> -95518.77688817 </i>
    <i name="eentropy">     -0.00000000 </i>
    <i name="bandstr"> -10549.35074854 </i>
    <i name="atom">  95443.47970955 </i>
    <i name="e_fr_energy">   -489.21527390 </i>
    <i name="e_wo_entrp">   -489.21527390 </i>
    <i name="e_0_energy">   -489.21527390 </i>
   </energy>
  </scstep>
  <structure>
   <crystal>
    <varray name="basis" >
     <v>      11.11223374       0.00000000      -0.00029034 </v>
     <v>       0.00000000      11.11745194       0.00000000 </v>
     <v>      -2.77510898       0.00000000      10.19872221 </v>
    </varray>
    <i name="volume">   1259.93837498 </i>
    <varray name="rec_basis" >
     <v>       0.08999155       0.00000000       0.02448702 </v>
     <v>       0.00000000       0.08994867       0.00000000 </v>
     <v>       0.00000256       0.00000000       0.09805220 </v>
    </varray>
   </crystal>
   <varray name="positions" >
    <v>       0.28894969       0.46933910       0.15583616 </v>
    <v>       0.78894969       0.46933910       0.15583616 </v>
    <v>       0.28894969       0.96933910       0.15583616 </v>
    <v>       0.78894969       0.96933910       0.15583616 </v>
    <v>       0.04646972       0.21934976       0.18586770 </v>
    <v>       0.54646972       0.21934976       0.18586770 </v>
    <v>       0.04646972       0.71934976       0.18586770 </v>
    <v>       0.54646972       0.71934976       0.18586770 </v>
    <v>       0.45353028       0.46934976       0.81413230 </v>
    <v>       0.95353028       0.46934976       0.81413230 </v>
    <v>       0.45353028       0.96934976       0.81413230 </v>
    <v>       0.95353028       0.96934976       0.81413230 </v>
    <v>       0.21105031       0.21933910       0.84416384 </v>
    <v>       0.71105031       0.21933910       0.84416384 </v>
    <v>       0.21105031       0.71933910       0.84416384 </v>
    <v>       0.71105031       0.71933910       0.84416384 </v>
    <v>       0.07654971       0.09530995       0.80250593 </v>
    <v>       0.57654971       0.09530995       0.80250593 </v>
    <v>       0.07654971       0.59530995       0.80250593 </v>
    <v>       0.57654971       0.59530995       0.80250593 </v>
    <v>       0.32470466       0.34338175       0.80250383 </v>
    <v>       0.82470466       0.34338175       0.80250383 </v>
    <v>       0.32470466       0.84338175       0.80250383 </v>
    <v>       0.82470466       0.84338175       0.80250383 </v>
    <v>       0.17529534       0.09338175       0.19749617 </v>
    <v>       0.67529534       0.09338175       0.19749617 </v>
    <v>       0.17529534       0.59338175       0.19749617 </v>
    <v>       0.67529534       0.59338175       0.19749617 </v>
    <v>       0.42345029       0.34530995       0.19749407 </v>
    <v>       0.92345029       0.34530995       0.19749407 </v>
    <v>       0.42345029       0.84530995       0.19749407 </v>
    <v>       0.92345029       0.84530995       0.19749407 </v>
    <v>       0.21868463       0.34523395       0.37102476 </v>
    <v>       0.71868463       0.34523395       0.37102476 </v>
    <v>       0.21868463       0.84523395       0.37102476 </v>
    <v>       0.71868463       0.84523395       0.37102476 </v>
    <v>       0.46591669       0.09344897       0.37102399 </v>
    <v>       0.96681660       0.09344897       0.37102399 </v>
    <v>       0.46681660       0.59344897       0.37102399 </v>
    <v>       0.96681660       0.59344897       0.37102399 </v>
    <v>       0.03318340       0.34344897       0.62897601 </v>
    <v>       0.53318340       0.34344897       0.62897601 </v>
    <v>       0.03318340       0.84344897       0.62897601 </v>
    <v>       0.53318340       0.84344897       0.62897601 </v>
    <v>       0.28131537       0.09523395       0.62897524 </v>
    <v>       0.78131537       0.09523395       0.62897524 </v>
    <v>       0.28131537       0.59523395       0.62897524 </v>
    <v>       0.78131537       0.59523395       0.62897524 </v>
    <v>       0.12439279       0.34434306       0.00000412 </v>
    <v>       0.62439279       0.34434306       0.00000412 </v>
    <v>       0.12439279       0.84434306       0.00000412 </v>
    <v>       0.62439279       0.84434306       0.00000412 </v>
    <v>       0.37560721       0.09434306       0.99999588 </v>
    <v>       0.87560721       0.09434306       0.99999588 </v>
    <v>       0.37560721       0.59434306       0.99999588 </v>
    <v>       0.87560721       0.59434306       0.99999588 </v>
    <v>       0.03824426       0.10634799       0.60632306 </v>
    <v>       0.53824426       0.10634799       0.60632306 </v>
    <v>       0.03824426       0.60634799       0.60632306 </v>
    <v>       0.53824426       0.60634799       0.60632306 </v>
    <v>       0.26492712       0.33232651       0.60632763 </v>
    <v>       0.76492712       0.33232651       0.60632763 </v>
    <v>       0.26492712       0.83232651       0.60632763 </v>
    <v>       0.76492712       0.83232651       0.60632763 </v>
    <v>       0.23507288       0.08232651       0.39367237 </v>
    <v>       0.73507288       0.08232651       0.39367237 </v>
    <v>       0.23507288       0.58232651       0.39367237 </v>
    <v>       0.73507288       0.58232651       0.39367237 </v>
    <v>       0.46175574       0.35634799       0.39367694 </v>
    <v>       0.96175574       0.35634799       0.39367694 </v>
    <v>       0.46175574       0.85634799       0.39367694 </v>
    <v>       0.96175574       0.85634799       0.39367694 </v>
    <v>       0.03848398       0.46936404       0.15397331 </v>
    <v>       0.53848398       0.46936404       0.15397331 </v>
    <v>       0.03848398       0.96936404       0.15397331 </v>
    <v>       0.53848398       0.96936404       0.15397331 </v>
    <v>       0.28861657       0.21935690       0.15447525 </v>
    <v>       0.78861657       0.21935690       0.15447525 </v>
    <v>       0.28861657       0.71935690       0.15447525 </v>
    <v>       0.78861657       0.71935690       0.15447525 </v>
    <v>       0.21138343       0.46935690       0.84552475 </v>
    <v>       0.71138343       0.46935690       0.84552475 </v>
    <v>       0.21138343       0.96935690       0.84552475 </v>
    <v>       0.71138343       0.96935690       0.84552475 </v>
    <v>       0.46151602       0.21936404       0.84602669 </v>
    <v>       0.96151602       0.21936404       0.84602669 </v>
    <v>       0.46151602       0.71936404       0.84602669 </v>
    <v>       0.96151602       0.71936404       0.84602669 </v>
   </varray>
  </structure>
  <varray name="forces" >
   <v>      -0.00019222      -0.00006808       0.00016050 </v>
   <v>       0.00027624       0.00013605      -0.00018715 </v>
   <v>      -0.00085995       0.00099952       0.00118775 </v>
   <v>       0.00087345      -0.00054832      -0.00018174 </v>
   <v>       0.00099516      -0.00055528       0.00022938 </v>
   <v>      -0.00162516       0.00076495      -0.00084281 </v>
   <v>       0.00036133       0.00020387       0.00036342 </v>
   <v>      -0.00039645      -0.00019309      -0.00018583 </v>
   <v>      -0.00022091       0.00004451      -0.00011799 </v>
   <v>       0.00031791      -0.00001845       0.00010309 </v>
   <v>      -0.00048630       0.00031957      -0.00039289 </v>
   <v>       0.00062555      -0.00048773       0.00051066 </v>
   <v>       0.00024010      -0.00020386      -0.00036395 </v>
   <v>      -0.00027805       0.00018224       0.00023890 </v>
   <v>      -0.00002703       0.00010593       0.00003133 </v>
   <v>      -0.00003758      -0.00006792      -0.00002560 </v>
   <v>      -0.00197466       0.00027485      -0.00014139 </v>
   <v>       0.00122087      -0.00017673      -0.00013782 </v>
   <v>      -0.00001611       0.00003343      -0.00019699 </v>
   <v>       0.00041226      -0.00004566       0.00003719 </v>
   <v>      -0.00002055       0.00043653       0.00029001 </v>
   <v>      -0.00015368      -0.00043354      -0.00041315 </v>
   <v>       0.00018161      -0.00047282       0.00028521 </v>
   <v>      -0.00042334       0.00053274      -0.00039512 </v>
   <v>      -0.00941668      -0.00032932      -0.00795547 </v>
   <v>      -0.00885882      -0.00060839       0.00745760 </v>
   <v>       0.00016028      -0.00000749      -0.00054388 </v>
   <v>       0.00026510       0.00017063       0.00055959 </v>
   <v>       0.00179206       0.00041187       0.00043124 </v>
   <v>      -0.00120032      -0.00040839      -0.00002337 </v>
   <v>       0.00208700       0.00055566      -0.00015983 </v>
   <v>      -0.00136792      -0.00034662       0.00008513 </v>
   <v>      -0.00158138       0.00311628       0.00035699 </v>
   <v>      -0.00155981      -0.00292410      -0.00008414 </v>
   <v>      -0.00233180      -0.00382506       0.00027732 </v>
   <v>      -0.00226403       0.00306920      -0.00012380 </v>
   <v>       0.03731392       0.00269838       0.00199498 </v>
   <v>      -0.00302403       0.00020161       0.00014154 </v>
   <v>       0.00082171       0.00020677       0.00031091 </v>
   <v>      -0.00095662       0.00012079       0.00020751 </v>
   <v>      -0.00082530       0.00015775      -0.00031440 </v>
   <v>       0.00094783       0.00014345      -0.00007358 </v>
   <v>      -0.00082475       0.00013220      -0.00036035 </v>
   <v>       0.00095850       0.00045168      -0.00022698 </v>
   <v>      -0.00429764      -0.00011000       0.00524614 </v>
   <v>      -0.00428118      -0.00042751      -0.00562052 </v>
   <v>       0.00010094      -0.00015538       0.00035457 </v>
   <v>       0.00003704      -0.00008547      -0.00057149 </v>
   <v>      -0.00014606       0.00016206      -0.00054751 </v>
   <v>       0.00015010      -0.00030925       0.00052240 </v>
   <v>      -0.00004671      -0.00032009      -0.00036380 </v>
   <v>       0.00007145       0.00023617       0.00068233 </v>
   <v>       0.00123058      -0.00017072       0.00034985 </v>
   <v>      -0.00107555       0.00008473      -0.00052752 </v>
   <v>       0.00019382       0.00000956       0.00001997 </v>
   <v>      -0.00025636      -0.00000915      -0.00017547 </v>
   <v>       0.00201813       0.00005549       0.00027753 </v>
   <v>      -0.00294104       0.00019401      -0.00179252 </v>
   <v>      -0.00001448       0.00003678       0.00016932 </v>
   <v>      -0.00051733      -0.00004339      -0.00005699 </v>
   <v>       0.00032757      -0.00086675      -0.00062756 </v>
   <v>       0.00021234       0.00077940       0.00068806 </v>
   <v>       0.00032133       0.00058154      -0.00089621 </v>
   <v>       0.00021632      -0.00069950       0.00093857 </v>
   <v>      -0.00557750      -0.00040960       0.00081165 </v>
   <v>       0.00651594      -0.00086713       0.00023541 </v>
   <v>      -0.00055545      -0.00007086      -0.00020149 </v>
   <v>      -0.00038887      -0.00011496       0.00002295 </v>
   <v>      -0.00167011       0.00015145      -0.00007637 </v>
   <v>       0.00142392      -0.00003853       0.00009047 </v>
   <v>      -0.00175707      -0.00093739      -0.00034536 </v>
   <v>       0.00175003       0.00004095      -0.00007124 </v>
   <v>       0.00067085       0.00003139       0.00045081 </v>
   <v>      -0.00067818       0.00004586      -0.00010638 </v>
   <v>       0.00220843       0.00160971       0.00077104 </v>
   <v>      -0.00227532      -0.00210231      -0.00211348 </v>
   <v>      -0.00216288      -0.00203342       0.00149039 </v>
   <v>       0.00195702       0.00180409      -0.00048256 </v>
   <v>      -0.00065879      -0.00002016       0.00026454 </v>
   <v>       0.00063390      -0.00007820      -0.00040188 </v>
   <v>       0.00005820      -0.00017173       0.00004748 </v>
   <v>      -0.00012272       0.00009542       0.00001325 </v>
   <v>       0.00056372       0.00032422      -0.00057361 </v>
   <v>      -0.00034415      -0.00022170       0.00037923 </v>
   <v>      -0.00082762      -0.00028696      -0.00066105 </v>
   <v>       0.00101117       0.00062327       0.00076510 </v>
   <v>      -0.00053638      -0.00002187      -0.00028772 </v>
   <v>       0.00053115      -0.00004368       0.00009763 </v>
  </varray>
  <varray name="stress" >
   <v>       2.22406315       0.00078725      -0.08384648 </v>
   <v>       0.00078148       1.93111583       0.00482593 </v>
   <v>      -0.08411759       0.00477295       0.56325620 </v>
  </varray>
  <energy>
   <i name="e_fr_energy">   -489.21527390 </i>
   <i name="e_wo_entrp">   -489.21527390 </i>
   <i name="e_0_energy">     -0.00000000 </i>
  </energy>
  <time name="totalsc"> 5955.90 6014.26</time>
  <eigenvalues>
   <array>
    <dimension dim="1">band</dimension>
    <dimension dim="2">kpoint</dimension>
    <dimension dim="3">spin</dimension>
    <field>eigene</field>
    <field>occ</field>
    <set>
     <set comment="spin 1">
      <set comment="kpoint 1">
       <r>  -51.0580    1.0000 </r>
       <r>  -51.0553    1.0000 </r>
       <r>  -51.0549    1.0000 </r>
       <r>  -51.0548    1.0000 </r>
       <r>  -51.0541    1.0000 </r>
       <r>  -51.0539    1.0000 </r>
       <r>  -51.0538    1.0000 </r>
       <r>  -51.0533    1.0000 </r>
       <r>  -51.0532    1.0000 </r>
       <r>  -51.0531    1.0000 </r>
       <r>  -51.0527    1.0000 </r>
       <r>  -51.0524    1.0000 </r>
       <r>  -51.0518    1.0000 </r>
       <r>  -51.0512    1.0000 </r>
       <r>  -51.0507    1.0000 </r>
       <r>  -51.0469    1.0000 </r>
       <r>  -51.0456    1.0000 </r>
       <r>  -51.0447    1.0000 </r>
       <r>  -51.0445    1.0000 </r>
       <r>  -51.0444    1.0000 </r>
       <r>  -51.0439    1.0000 </r>
       <r>  -51.0438    1.0000 </r>
       <r>  -51.0437    1.0000 </r>
       <r>  -51.0417    1.0000 </r>
       <r>  -51.0412    1.0000 </r>
       <r>  -51.0398    1.0000 </r>
       <r>  -51.0397    1.0000 </r>
       <r>  -51.0395    1.0000 </r>
       <r>  -51.0395    1.0000 </r>
       <r>  -51.0393    1.0000 </r>
       <r>  -51.0392    1.0000 </r>
       <r>  -51.0376    1.0000 </r>
       <r>  -49.7028    1.0000 </r>
       <r>  -49.7022    1.0000 </r>
       <r>  -49.7021    1.0000 </r>
       <r>  -49.7019    1.0000 </r>
       <r>  -49.7014    1.0000 </r>
       <r>  -49.7013    1.0000 </r>
       <r>  -49.7011    1.0000 </r>
       <r>  -49.6997    1.0000 </r>
       <r>  -49.6962    1.0000 </r>
       <r>  -49.6945    1.0000 </r>
       <r>  -49.6943    1.0000 </r>
       <r>  -49.6941    1.0000 </r>
       <r>  -49.6941    1.0000 </r>
       <r>  -49.6938    1.0000 </r>
       <r>  -49.6938    1.0000 </r>
       <r>  -49.6930    1.0000 </r>
       <r>  -49.6025    1.0000 </r>
       <r>  -49.5985    1.0000 </r>
       <r>  -49.5981    1.0000 </r>
       <r>  -49.5978    1.0000 </r>
       <r>  -49.5975    1.0000 </r>
       <r>  -49.5972    1.0000 </r>
       <r>  -49.5971    1.0000 </r>
       <r>  -49.5970    1.0000 </r>
       <r>  -49.5967    1.0000 </r>
       <r>  -49.5965    1.0000 </r>
       <r>  -49.5962    1.0000 </r>
       <r>  -49.5961    1.0000 </r>
       <r>  -49.5957    1.0000 </r>
       <r>  -49.5955    1.0000 </r>
       <r>  -49.5954    1.0000 </r>
       <r>  -49.5896    1.0000 </r>
       <r>  -49.5701    1.0000 </r>
       <r>  -49.5673    1.0000 </r>
       <r>  -49.5668    1.0000 </r>
       <r>  -49.5665    1.0000 </r>
       <r>  -49.5661    1.0000 </r>
       <r>  -49.5658    1.0000 </r>
       <r>  -49.5656    1.0000 </r>
       <r>  -49.5655    1.0000 </r>
       <r>  -49.5651    1.0000 </r>
       <r>  -49.5649    1.0000 </r>
       <r>  -49.5647    1.0000 </r>
       <r>  -49.5646    1.0000 </r>
       <r>  -49.5639    1.0000 </r>
       <r>  -49.5638    1.0000 </r>
       <r>  -49.5636    1.0000 </r>
       <r>  -49.5570    1.0000 </r>
       <r>  -49.5553    1.0000 </r>
       <r>  -49.5547    1.0000 </r>
       <r>  -49.5546    1.0000 </r>
       <r>  -49.5545    1.0000 </r>
       <r>  -49.5540    1.0000 </r>
       <r>  -49.5539    1.0000 </r>
       <r>  -49.5537    1.0000 </r>
       <r>  -49.5528    1.0000 </r>
       <r>  -49.5409    1.0000 </r>
       <r>  -49.5399    1.0000 </r>
       <r>  -49.5398    1.0000 </r>
       <r>  -49.5396    1.0000 </r>
       <r>  -49.5395    1.0000 </r>
       <r>  -49.5393    1.0000 </r>
       <r>  -49.5392    1.0000 </r>
       <r>  -49.5386    1.0000 </r>
       <r>  -39.8750    1.0000 </r>
       <r>  -39.8738    1.0000 </r>
       <r>  -39.8734    1.0000 </r>
       <r>  -39.8732    1.0000 </r>
       <r>  -39.8731    1.0000 </r>
       <r>  -39.8728    1.0000 </r>
       <r>  -39.8727    1.0000 </r>
       <r>  -39.8726    1.0000 </r>
       <r>  -39.8724    1.0000 </r>
       <r>  -39.8723    1.0000 </r>
       <r>  -39.8722    1.0000 </r>
       <r>  -39.8719    1.0000 </r>
       <r>  -39.8718    1.0000 </r>
       <r>  -39.8717    1.0000 </r>
       <r>  -39.8712    1.0000 </r>
       <r>  -39.8708    1.0000 </r>
       <r>  -13.2249    1.0000 </r>
       <r>  -13.2249    1.0000 </r>
       <r>  -13.2105    1.0000 </r>
       <r>  -13.1836    1.0000 </r>
       <r>  -13.1013    1.0000 </r>
       <r>  -13.0990    1.0000 </r>
       <r>  -13.0989    1.0000 </r>
       <r>  -13.0931    1.0000 </r>
       <r>  -13.0862    1.0000 </r>
       <r>  -13.0801    1.0000 </r>
       <r>  -13.0801    1.0000 </r>
       <r>  -13.0777    1.0000 </r>
       <r>  -12.9882    1.0000 </r>
       <r>  -12.9775    1.0000 </r>
       <r>  -12.9419    1.0000 </r>
       <r>  -12.9419    1.0000 </r>
       <r>   -7.6453    1.0000 </r>
       <r>   -7.4068    1.0000 </r>
       <r>   -7.3262    1.0000 </r>
       <r>   -7.3261    1.0000 </r>
       <r>   -7.3094    1.0000 </r>
       <r>   -7.3092    1.0000 </r>
       <r>   -7.3087    1.0000 </r>
       <r>   -7.3074    1.0000 </r>
       <r>   -7.1698    1.0000 </r>
       <r>   -7.1570    1.0000 </r>
       <r>   -7.1239    1.0000 </r>
       <r>   -7.1237    1.0000 </r>
       <r>   -7.0366    1.0000 </r>
       <r>   -7.0219    1.0000 </r>
       <r>   -7.0021    1.0000 </r>
       <r>   -7.0017    1.0000 </r>
       <r>   -6.9414    1.0000 </r>
       <r>   -6.9407    1.0000 </r>
       <r>   -6.8873    1.0000 </r>
       <r>   -6.8871    1.0000 </r>
       <r>   -6.8658    1.0000 </r>
       <r>   -6.8615    1.0000 </r>
       <r>   -6.8345    1.0000 </r>
       <r>   -6.8038    1.0000 </r>
       <r>   -1.9356    1.0000 </r>
       <r>   -1.9355    1.0000 </r>
       <r>   -1.9105    1.0000 </r>
       <r>   -1.8936    1.0000 </r>
       <r>   -1.6665    1.0000 </r>
       <r>   -1.6664    1.0000 </r>
       <r>   -1.6589    1.0000 </r>
       <r>   -1.6572    1.0000 </r>
       <r>   -1.5998    1.0000 </r>
       <r>   -1.5980    1.0000 </r>
       <r>   -1.5864    1.0000 </r>
       <r>   -1.5862    1.0000 </r>
       <r>   -1.2983    1.0000 </r>
       <r>   -1.1748    1.0000 </r>
       <r>   -1.1747    1.0000 </r>
       <r>   -1.1134    1.0000 </r>
       <r>   -1.1129    1.0000 </r>
       <r>   -1.1073    1.0000 </r>
       <r>   -1.0494    1.0000 </r>
       <r>   -0.9810    1.0000 </r>
       <r>   -0.9647    1.0000 </r>
       <r>   -0.9597    1.0000 </r>
       <r>   -0.9578    1.0000 </r>
       <r>   -0.9576    1.0000 </r>
       <r>   -0.9469    1.0000 </r>
       <r>   -0.9452    1.0000 </r>
       <r>   -0.9228    1.0000 </r>
       <r>   -0.8713    1.0000 </r>
       <r>   -0.8712    1.0000 </r>
       <r>   -0.8034    1.0000 </r>
       <r>   -0.8027    1.0000 </r>
       <r>   -0.8026    1.0000 </r>
       <r>   -0.7752    1.0000 </r>
       <r>   -0.7743    1.0000 </r>
       <r>   -0.7738    1.0000 </r>
       <r>   -0.7610    1.0000 </r>
       <r>   -0.7167    1.0000 </r>
       <r>   -0.7165    1.0000 </r>
       <r>   -0.7067    1.0000 </r>
       <r>   -0.7050    1.0000 </r>
       <r>   -0.6992    1.0000 </r>
       <r>   -0.6988    1.0000 </r>
       <r>   -0.6091    1.0000 </r>
       <r>   -0.6087    1.0000 </r>
       <r>   -0.5616    1.0000 </r>
       <r>   -0.5615    1.0000 </r>
       <r>   -0.5496    1.0000 </r>
       <r>   -0.5479    1.0000 </r>
       <r>   -0.4084    1.0000 </r>
       <r>   -0.4081    1.0000 </r>
       <r>   -0.3574    1.0000 </r>
       <r>   -0.3481    1.0000 </r>
       <r>   -0.3296    1.0000 </r>
       <r>   -0.3293    1.0000 </r>
       <r>   -0.2985    1.0000 </r>
       <r>   -0.2984    1.0000 </r>
       <r>   -0.2816    1.0000 </r>
       <r>   -0.2693    1.0000 </r>
       <r>   -0.2626    1.0000 </r>
       <r>   -0.2560    1.0000 </r>
       <r>   -0.2551    1.0000 </r>
       <r>   -0.2092    1.0000 </r>
       <r>   -0.2089    1.0000 </r>
       <r>   -0.1887    1.0000 </r>
       <r>   -0.1868    1.0000 </r>
       <r>   -0.1868    1.0000 </r>
       <r>   -0.1759    1.0000 </r>
       <r>   -0.1580    1.0000 </r>
       <r>   -0.1256    1.0000 </r>
       <r>   -0.1256    1.0000 </r>
       <r>   -0.1093    1.0000 </r>
       <r>   -0.0708    1.0000 </r>
       <r>   -0.0702    1.0000 </r>
       <r>   -0.0604    1.0000 </r>
       <r>   -0.0433    1.0000 </r>
       <r>   -0.0176    1.0000 </r>
       <r>   -0.0173    1.0000 </r>
       <r>   -0.0116    1.0000 </r>
       <r>    0.0016    1.0000 </r>
       <r>    0.0017    1.0000 </r>
       <r>    0.0461    1.0000 </r>
       <r>    0.0493    1.0000 </r>
       <r>    0.0495    1.0000 </r>
       <r>    0.0913    1.0000 </r>
       <r>    0.0932    1.0000 </r>
       <r>    0.1184    1.0000 </r>
       <r>    0.1185    1.0000 </r>
       <r>    0.1576    1.0000 </r>
       <r>    0.1627    1.0000 </r>
       <r>    0.1768    1.0000 </r>
       <r>    0.1792    1.0000 </r>
       <r>    0.1817    1.0000 </r>
       <r>    0.1821    1.0000 </r>
       <r>    0.1853    1.0000 </r>
       <r>    0.1893    1.0000 </r>
       <r>    0.1932    1.0000 </r>
       <r>    0.1941    1.0000 </r>
       <r>    0.2009    1.0000 </r>
       <r>    0.2010    1.0000 </r>
       <r>    0.2387    1.0000 </r>
       <r>    0.2510    1.0000 </r>
       <r>    0.2568    1.0000 </r>
       <r>    0.2572    1.0000 </r>
       <r>    0.2766    1.0000 </r>
       <r>    0.3373    1.0000 </r>
       <r>    0.3474    1.0000 </r>
       <r>    0.3588    1.0000 </r>
       <r>    0.3589    1.0000 </r>
       <r>    0.3604    1.0000 </r>
       <r>    0.3605    1.0000 </r>
       <r>    0.3881    1.0000 </r>
       <r>    0.4016    1.0000 </r>
       <r>    0.4524    1.0000 </r>
       <r>    0.4527    1.0000 </r>
       <r>    0.5787    1.0000 </r>
       <r>    0.5789    1.0000 </r>
       <r>    0.5843    1.0000 </r>
       <r>    0.6019    1.0000 </r>
       <r>    0.6020    1.0000 </r>
       <r>    0.6064    1.0000 </r>
       <r>    0.6078    1.0000 </r>
       <r>    0.6401    1.0000 </r>
       <r>    0.6512    1.0000 </r>
       <r>    0.6512    1.0000 </r>
       <r>    0.6623    1.0000 </r>
       <r>    0.6624    1.0000 </r>
       <r>    0.6654    1.0000 </r>
       <r>    0.6731    1.0000 </r>
       <r>    0.6748    1.0000 </r>
       <r>    0.6749    1.0000 </r>
       <r>    0.6966    1.0000 </r>
       <r>    0.7227    1.0000 </r>
       <r>    0.7833    1.0000 </r>
       <r>    0.8195    1.0000 </r>
       <r>    0.8296    1.0000 </r>
       <r>    0.8319    1.0000 </r>
       <r>    0.8324    1.0000 </r>
       <r>    0.8610    1.0000 </r>
       <r>    0.8613    1.0000 </r>
       <r>    0.9094    1.0000 </r>
       <r>    0.9402    1.0000 </r>
       <r>    0.9479    1.0000 </r>
       <r>    0.9482    1.0000 </r>
       <r>    0.9831    1.0000 </r>
       <r>    1.0260    1.0000 </r>
       <r>    1.0705    1.0000 </r>
       <r>    1.2693    1.0000 </r>
       <r>    1.2981    1.0000 </r>
       <r>    1.2983    1.0000 </r>
       <r>    1.3115    1.0000 </r>
       <r>    1.3327    1.0000 </r>
       <r>    1.3332    1.0000 </r>
       <r>    1.3380    1.0000 </r>
       <r>    1.3842    1.0000 </r>
       <r>    1.4054    1.0000 </r>
       <r>    1.4283    1.0000 </r>
       <r>    1.4669    1.0000 </r>
       <r>    1.4676    1.0000 </r>
       <r>    1.4680    1.0000 </r>
       <r>    1.4813    1.0000 </r>
       <r>    1.5109    1.0000 </r>
       <r>    1.5110    1.0000 </r>
       <r>    1.5407    1.0000 </r>
       <r>    1.5614    1.0000 </r>
       <r>    1.5769    1.0000 </r>
       <r>    1.6463    1.0000 </r>
       <r>    1.6555    1.0000 </r>
       <r>    1.7562    1.0000 </r>
       <r>    1.7565    1.0000 </r>
       <r>    1.7631    1.0000 </r>
       <r>    1.7785    1.0000 </r>
       <r>    1.8028    1.0000 </r>
       <r>    1.8029    1.0000 </r>
       <r>    1.8107    1.0000 </r>
       <r>    1.8232    1.0000 </r>
       <r>    1.8365    1.0000 </r>
       <r>    1.8366    1.0000 </r>
       <r>    1.8460    1.0000 </r>
       <r>    1.8468    1.0000 </r>
       <r>    1.8783    1.0000 </r>
       <r>    1.8899    1.0000 </r>
       <r>    1.9466    1.0000 </r>
       <r>    1.9934    1.0000 </r>
       <r>    1.9937    1.0000 </r>
       <r>    2.0062    1.0000 </r>
       <r>    2.0065    1.0000 </r>
       <r>    2.0100    1.0000 </r>
       <r>    2.0186    1.0000 </r>
       <r>    2.0202    1.0000 </r>
       <r>    2.0204    1.0000 </r>
       <r>    2.0394    1.0000 </r>
       <r>    2.0467    1.0000 </r>
       <r>    2.0470    1.0000 </r>
       <r>    2.0575    1.0000 </r>
       <r>    2.0687    1.0000 </r>
       <r>    2.0691    1.0000 </r>
       <r>    2.0918    1.0000 </r>
       <r>    2.1129    1.0000 </r>
       <r>    2.1907    1.0000 </r>
       <r>    2.1907    1.0000 </r>
       <r>    2.2470    1.0000 </r>
       <r>    2.2470    1.0000 </r>
       <r>    2.2706    1.0000 </r>
       <r>    2.2730    1.0000 </r>
       <r>    2.2845    1.0000 </r>
       <r>    2.4278    1.0000 </r>
       <r>    2.4663    1.0000 </r>
       <r>    2.4666    1.0000 </r>
       <r>    2.4774    1.0000 </r>
       <r>    2.5036    1.0000 </r>
       <r>    2.5274    1.0000 </r>
       <r>    2.5541    1.0000 </r>
       <r>    2.5922    1.0000 </r>
       <r>    2.6266    1.0000 </r>
       <r>    2.6267    1.0000 </r>
       <r>    2.6562    1.0000 </r>
       <r>    2.7383    1.0000 </r>
       <r>    2.7385    1.0000 </r>
       <r>    2.7609    1.0000 </r>
       <r>    2.7611    1.0000 </r>
       <r>    2.8338    1.0000 </r>
       <r>    2.8725    1.0000 </r>
       <r>    2.9263    1.0000 </r>
       <r>    2.9342    1.0000 </r>
       <r>    2.9345    1.0000 </r>
       <r>    2.9690    1.0000 </r>
       <r>    3.0275    1.0000 </r>
       <r>    3.0278    1.0000 </r>
       <r>    3.0616    1.0000 </r>
       <r>    3.0973    1.0000 </r>
       <r>    3.3080    1.0000 </r>
       <r>    3.3105    1.0000 </r>
       <r>    3.3480    1.0000 </r>
       <r>    3.3751    1.0000 </r>
       <r>    3.4216    1.0000 </r>
       <r>    3.4222    1.0000 </r>
       <r>    3.4406    1.0000 </r>
       <r>    3.4583    1.0000 </r>
       <r>    3.4597    1.0000 </r>
       <r>    3.5317    1.0000 </r>
       <r>    3.7486    1.0000 </r>
       <r>    3.8082    1.0000 </r>
       <r>    3.8091    1.0000 </r>
       <r>    3.8150    1.0000 </r>
       <r>    3.8155    1.0000 </r>
       <r>    3.8826    1.0000 </r>
       <r>    3.8826    1.0000 </r>
       <r>    3.9323    1.0000 </r>
       <r>    3.9353    1.0000 </r>
       <r>    3.9405    1.0000 </r>
       <r>    3.9407    1.0000 </r>
       <r>    4.0393    1.0000 </r>
       <r>    4.0394    1.0000 </r>
       <r>    4.0702    1.0000 </r>
       <r>    4.1387    1.0000 </r>
       <r>    4.1495    1.0000 </r>
       <r>    4.1513    1.0000 </r>
       <r>    4.3148    1.0000 </r>
       <r>    4.3181    1.0000 </r>
       <r>    4.3380    1.0000 </r>
       <r>    4.3583    1.0000 </r>
       <r>    4.3587    1.0000 </r>
       <r>    4.4284    1.0000 </r>
       <r>    4.4445    1.0000 </r>
       <r>    4.4461    1.0000 </r>
       <r>    4.4543    1.0000 </r>
       <r>    4.4565    1.0000 </r>
       <r>    4.4567    1.0000 </r>
       <r>    4.6362    1.0000 </r>
       <r>    4.6367    1.0000 </r>
       <r>    4.7319    1.0000 </r>
       <r>    4.7326    1.0000 </r>
       <r>    4.7640    1.0000 </r>
       <r>    4.7642    1.0000 </r>
       <r>    4.7693    1.0000 </r>
       <r>    4.7697    1.0000 </r>
       <r>    4.8101    1.0000 </r>
       <r>    4.8533    1.0000 </r>
       <r>    4.8539    1.0000 </r>
       <r>    4.8578    1.0000 </r>
       <r>    7.3436    0.0000 </r>
       <r>    8.1284    0.0000 </r>
       <r>    8.4450    0.0000 </r>
       <r>    8.6426    0.0000 </r>
       <r>    8.6429    0.0000 </r>
       <r>    8.8583    0.0000 </r>
       <r>    9.0844    0.0000 </r>
       <r>    9.0847    0.0000 </r>
       <r>    9.2612    0.0000 </r>
       <r>    9.2735    0.0000 </r>
       <r>    9.2886    0.0000 </r>
       <r>    9.2900    0.0000 </r>
       <r>    9.7266    0.0000 </r>
       <r>    9.7712    0.0000 </r>
       <r>    9.7725    0.0000 </r>
       <r>    9.7898    0.0000 </r>
       <r>    9.8542    0.0000 </r>
       <r>    9.8549    0.0000 </r>
       <r>    9.8590    0.0000 </r>
       <r>    9.8789    0.0000 </r>
       <r>    9.8893    0.0000 </r>
       <r>   10.0592    0.0000 </r>
       <r>   10.0818    0.0000 </r>
       <r>   10.1358    0.0000 </r>
       <r>   10.1368    0.0000 </r>
       <r>   10.3053    0.0000 </r>
       <r>   10.3066    0.0000 </r>
       <r>   10.4169    0.0000 </r>
       <r>   10.5262    0.0000 </r>
       <r>   10.5709    0.0000 </r>
       <r>   10.5719    0.0000 </r>
       <r>   10.5722    0.0000 </r>
       <r>   10.5784    0.0000 </r>
       <r>   10.5786    0.0000 </r>
       <r>   10.6757    0.0000 </r>
       <r>   10.9768    0.0000 </r>
       <r>   11.0181    0.0000 </r>
       <r>   11.0185    0.0000 </r>
       <r>   11.0398    0.0000 </r>
       <r>   11.0415    0.0000 </r>
       <r>   11.0787    0.0000 </r>
       <r>   11.1278    0.0000 </r>
       <r>   11.1779    0.0000 </r>
       <r>   11.1881    0.0000 </r>
       <r>   11.2290    0.0000 </r>
       <r>   11.2490    0.0000 </r>
       <r>   11.2493    0.0000 </r>
       <r>   11.2903    0.0000 </r>
       <r>   11.3103    0.0000 </r>
       <r>   11.4174    0.0000 </r>
       <r>   11.4176    0.0000 </r>
       <r>   11.4589    0.0000 </r>
       <r>   11.5205    0.0000 </r>
       <r>   11.5213    0.0000 </r>
       <r>   11.5308    0.0000 </r>
       <r>   11.5774    0.0000 </r>
       <r>   11.6801    0.0000 </r>
       <r>   11.6802    0.0000 </r>
       <r>   11.7951    0.0000 </r>
       <r>   11.7997    0.0000 </r>
       <r>   11.8155    0.0000 </r>
       <r>   11.8156    0.0000 </r>
       <r>   11.8825    0.0000 </r>
       <r>   11.9405    0.0000 </r>
       <r>   11.9756    0.0000 </r>
       <r>   11.9770    0.0000 </r>
       <r>   11.9821    0.0000 </r>
       <r>   12.0281    0.0000 </r>
       <r>   12.0286    0.0000 </r>
       <r>   12.0574    0.0000 </r>
       <r>   12.1617    0.0000 </r>
       <r>   12.2426    0.0000 </r>
       <r>   12.2573    0.0000 </r>
       <r>   12.2592    0.0000 </r>
       <r>   12.3152    0.0000 </r>
       <r>   12.3159    0.0000 </r>
       <r>   12.3214    0.0000 </r>
       <r>   12.3495    0.0000 </r>
       <r>   12.4608    0.0000 </r>
       <r>   12.4788    0.0000 </r>
       <r>   12.5158    0.0000 </r>
       <r>   12.5182    0.0000 </r>
       <r>   12.6150    0.0000 </r>
       <r>   12.6162    0.0000 </r>
       <r>   12.6604    0.0000 </r>
       <r>   12.6624    0.0000 </r>
       <r>   12.6634    0.0000 </r>
       <r>   12.6899    0.0000 </r>
       <r>   12.7470    0.0000 </r>
       <r>   12.8308    0.0000 </r>
       <r>   12.8722    0.0000 </r>
       <r>   12.8731    0.0000 </r>
       <r>   12.8742    0.0000 </r>
       <r>   13.1187    0.0000 </r>
       <r>   13.1208    0.0000 </r>
       <r>   13.2009    0.0000 </r>
       <r>   13.3812    0.0000 </r>
       <r>   13.4103    0.0000 </r>
       <r>   13.4113    0.0000 </r>
       <r>   13.4346    0.0000 </r>
       <r>   13.4382    0.0000 </r>
       <r>   13.4561    0.0000 </r>
       <r>   13.4958    0.0000 </r>
       <r>   13.5120    0.0000 </r>
       <r>   13.5451    0.0000 </r>
       <r>   13.5543    0.0000 </r>
      </set>
      <set comment="kpoint 2">
       <r>  -51.0580    1.0000 </r>
       <r>  -51.0552    1.0000 </r>
       <r>  -51.0549    1.0000 </r>
       <r>  -51.0548    1.0000 </r>
       <r>  -51.0542    1.0000 </r>
       <r>  -51.0541    1.0000 </r>
       <r>  -51.0539    1.0000 </r>
       <r>  -51.0535    1.0000 </r>
       <r>  -51.0533    1.0000 </r>
       <r>  -51.0528    1.0000 </r>
       <r>  -51.0525    1.0000 </r>
       <r>  -51.0521    1.0000 </r>
       <r>  -51.0517    1.0000 </r>
       <r>  -51.0514    1.0000 </r>
       <r>  -51.0509    1.0000 </r>
       <r>  -51.0470    1.0000 </r>
       <r>  -51.0455    1.0000 </r>
       <r>  -51.0447    1.0000 </r>
       <r>  -51.0445    1.0000 </r>
       <r>  -51.0444    1.0000 </r>
       <r>  -51.0439    1.0000 </r>
       <r>  -51.0438    1.0000 </r>
       <r>  -51.0437    1.0000 </r>
       <r>  -51.0417    1.0000 </r>
       <r>  -51.0412    1.0000 </r>
       <r>  -51.0398    1.0000 </r>
       <r>  -51.0397    1.0000 </r>
       <r>  -51.0395    1.0000 </r>
       <r>  -51.0395    1.0000 </r>
       <r>  -51.0393    1.0000 </r>
       <r>  -51.0392    1.0000 </r>
       <r>  -51.0376    1.0000 </r>
       <r>  -49.7028    1.0000 </r>
       <r>  -49.7022    1.0000 </r>
       <r>  -49.7021    1.0000 </r>
       <r>  -49.7019    1.0000 </r>
       <r>  -49.7014    1.0000 </r>
       <r>  -49.7013    1.0000 </r>
       <r>  -49.7011    1.0000 </r>
       <r>  -49.6997    1.0000 </r>
       <r>  -49.6962    1.0000 </r>
       <r>  -49.6945    1.0000 </r>
       <r>  -49.6943    1.0000 </r>
       <r>  -49.6941    1.0000 </r>
       <r>  -49.6941    1.0000 </r>
       <r>  -49.6938    1.0000 </r>
       <r>  -49.6938    1.0000 </r>
       <r>  -49.6930    1.0000 </r>
       <r>  -49.6025    1.0000 </r>
       <r>  -49.5985    1.0000 </r>
       <r>  -49.5981    1.0000 </r>
       <r>  -49.5978    1.0000 </r>
       <r>  -49.5975    1.0000 </r>
       <r>  -49.5971    1.0000 </r>
       <r>  -49.5971    1.0000 </r>
       <r>  -49.5969    1.0000 </r>
       <r>  -49.5967    1.0000 </r>
       <r>  -49.5965    1.0000 </r>
       <r>  -49.5962    1.0000 </r>
       <r>  -49.5961    1.0000 </r>
       <r>  -49.5958    1.0000 </r>
       <r>  -49.5955    1.0000 </r>
       <r>  -49.5954    1.0000 </r>
       <r>  -49.5896    1.0000 </r>
       <r>  -49.5701    1.0000 </r>
       <r>  -49.5673    1.0000 </r>
       <r>  -49.5668    1.0000 </r>
       <r>  -49.5666    1.0000 </r>
       <r>  -49.5660    1.0000 </r>
       <r>  -49.5658    1.0000 </r>
       <r>  -49.5656    1.0000 </r>
       <r>  -49.5654    1.0000 </r>
       <r>  -49.5651    1.0000 </r>
       <r>  -49.5650    1.0000 </r>
       <r>  -49.5647    1.0000 </r>
       <r>  -49.5646    1.0000 </r>
       <r>  -49.5639    1.0000 </r>
       <r>  -49.5638    1.0000 </r>
       <r>  -49.5636    1.0000 </r>
       <r>  -49.5570    1.0000 </r>
       <r>  -49.5553    1.0000 </r>
       <r>  -49.5547    1.0000 </r>
       <r>  -49.5546    1.0000 </r>
       <r>  -49.5545    1.0000 </r>
       <r>  -49.5540    1.0000 </r>
       <r>  -49.5539    1.0000 </r>
       <r>  -49.5537    1.0000 </r>
       <r>  -49.5528    1.0000 </r>
       <r>  -49.5409    1.0000 </r>
       <r>  -49.5399    1.0000 </r>
       <r>  -49.5398    1.0000 </r>
       <r>  -49.5396    1.0000 </r>
       <r>  -49.5395    1.0000 </r>
       <r>  -49.5393    1.0000 </r>
       <r>  -49.5392    1.0000 </r>
       <r>  -49.5386    1.0000 </r>
       <r>  -39.8750    1.0000 </r>
       <r>  -39.8738    1.0000 </r>
       <r>  -39.8734    1.0000 </r>
       <r>  -39.8732    1.0000 </r>
       <r>  -39.8731    1.0000 </r>
       <r>  -39.8729    1.0000 </r>
       <r>  -39.8727    1.0000 </r>
       <r>  -39.8726    1.0000 </r>
       <r>  -39.8723    1.0000 </r>
       <r>  -39.8723    1.0000 </r>
       <r>  -39.8721    1.0000 </r>
       <r>  -39.8719    1.0000 </r>
       <r>  -39.8718    1.0000 </r>
       <r>  -39.8717    1.0000 </r>
       <r>  -39.8712    1.0000 </r>
       <r>  -39.8708    1.0000 </r>
       <r>  -13.2075    1.0000 </r>
       <r>  -13.2075    1.0000 </r>
       <r>  -13.1951    1.0000 </r>
       <r>  -13.1702    1.0000 </r>
       <r>  -13.1591    1.0000 </r>
       <r>  -13.1591    1.0000 </r>
       <r>  -13.1534    1.0000 </r>
       <r>  -13.1333    1.0000 </r>
       <r>  -13.0419    1.0000 </r>
       <r>  -13.0301    1.0000 </r>
       <r>  -13.0170    1.0000 </r>
       <r>  -13.0169    1.0000 </r>
       <r>  -13.0024    1.0000 </r>
       <r>  -12.9916    1.0000 </r>
       <r>  -12.9624    1.0000 </r>
       <r>  -12.9624    1.0000 </r>
       <r>   -7.5968    1.0000 </r>
       <r>   -7.4683    1.0000 </r>
       <r>   -7.3783    1.0000 </r>
       <r>   -7.3198    1.0000 </r>
[...]
       <r>   -49.2843     0.0000     0.0000 </r>
       <r>   -49.0434     0.0000     0.0000 </r>
       <r>   -48.8025     0.0000     0.0000 </r>
       <r>   -48.5616     0.0000     0.0000 </r>
       <r>   -48.3208     0.0000     0.0000 </r>
       <r>   -48.0799     0.0000     0.0000 </r>
       <r>   -47.8390     0.0000     0.0000 </r>
       <r>   -47.5981     0.0000     0.0000 </r>
       <r>   -47.3572     0.0000     0.0000 </r>
       <r>   -47.1164     0.0000     0.0000 </r>
       <r>   -46.8755     0.0000     0.0000 </r>
       <r>   -46.6346     0.0000     0.0000 </r>
       <r>   -46.3937     0.3675     0.0885 </r>
       <r>   -46.1529   132.4364    31.9895 </r>
       <r>   -45.9120    60.1885    46.4876 </r>
       <r>   -45.6711   205.5498    96.0000 </r>
       <r>   -45.4302     0.0000    96.0000 </r>
       <r>   -45.1893     0.0000    96.0000 </r>
       <r>   -44.9485     0.0000    96.0000 </r>
       <r>   -44.7076     0.0000    96.0000 </r>
       <r>   -44.4667     0.0000    96.0000 </r>
       <r>   -44.2258     0.0000    96.0000 </r>
       <r>   -43.9850     0.0000    96.0000 </r>
       <r>   -43.7441     0.0000    96.0000 </r>
       <r>   -43.5032     0.0000    96.0000 </r>
       <r>   -43.2623     0.0000    96.0000 </r>
       <r>   -43.0214     0.0000    96.0000 </r>
       <r>   -42.7806     0.0000    96.0000 </r>
       <r>   -42.5397     0.0000    96.0000 </r>
       <r>   -42.2988     0.0000    96.0000 </r>
       <r>   -42.0579     0.0000    96.0000 </r>
       <r>   -41.8171     0.0000    96.0000 </r>
       <r>   -41.5762     0.0000    96.0000 </r>
       <r>   -41.3353     0.0000    96.0000 </r>
       <r>   -41.0944     0.0000    96.0000 </r>
       <r>   -40.8535     0.0000    96.0000 </r>
       <r>   -40.6127     0.0000    96.0000 </r>
       <r>   -40.3718     0.0000    96.0000 </r>
       <r>   -40.1309     0.0000    96.0000 </r>
       <r>   -39.8900    19.1146   100.6043 </r>
       <r>   -39.6492    47.3091   112.0000 </r>
       <r>   -39.4083     0.0000   112.0000 </r>
       <r>   -39.1674     0.0000   112.0000 </r>
       <r>   -38.9265     0.0000   112.0000 </r>
       <r>   -38.6856     0.0000   112.0000 </r>
       <r>   -38.4448     0.0000   112.0000 </r>
       <r>   -38.2039     0.0000   112.0000 </r>
       <r>   -37.9630     0.0000   112.0000 </r>
       <r>   -37.7221     0.0000   112.0000 </r>
       <r>   -37.4813     0.0000   112.0000 </r>
       <r>   -37.2404     0.0000   112.0000 </r>
       <r>   -36.9995     0.0000   112.0000 </r>
       <r>   -36.7586     0.0000   112.0000 </r>
       <r>   -36.5177     0.0000   112.0000 </r>
       <r>   -36.2769     0.0000   112.0000 </r>
       <r>   -36.0360     0.0000   112.0000 </r>
       <r>   -35.7951     0.0000   112.0000 </r>
       <r>   -35.5542     0.0000   112.0000 </r>
       <r>   -35.3134     0.0000   112.0000 </r>
       <r>   -35.0725     0.0000   112.0000 </r>
       <r>   -34.8316     0.0000   112.0000 </r>
       <r>   -34.5907     0.0000   112.0000 </r>
       <r>   -34.3498     0.0000   112.0000 </r>
       <r>   -34.1090     0.0000   112.0000 </r>
       <r>   -33.8681     0.0000   112.0000 </r>
       <r>   -33.6272     0.0000   112.0000 </r>
       <r>   -33.3863     0.0000   112.0000 </r>
       <r>   -33.1455     0.0000   112.0000 </r>
       <r>   -32.9046     0.0000   112.0000 </r>
       <r>   -32.6637     0.0000   112.0000 </r>
       <r>   -32.4228     0.0000   112.0000 </r>
       <r>   -32.1819     0.0000   112.0000 </r>
       <r>   -31.9411     0.0000   112.0000 </r>
       <r>   -31.7002     0.0000   112.0000 </r>
       <r>   -31.4593     0.0000   112.0000 </r>
       <r>   -31.2184     0.0000   112.0000 </r>
       <r>   -30.9776     0.0000   112.0000 </r>
       <r>   -30.7367     0.0000   112.0000 </r>
       <r>   -30.4958     0.0000   112.0000 </r>
       <r>   -30.2549     0.0000   112.0000 </r>
       <r>   -30.0140     0.0000   112.0000 </r>
       <r>   -29.7732     0.0000   112.0000 </r>
       <r>   -29.5323     0.0000   112.0000 </r>
       <r>   -29.2914     0.0000   112.0000 </r>
       <r>   -29.0505     0.0000   112.0000 </r>
       <r>   -28.8096     0.0000   112.0000 </r>
       <r>   -28.5688     0.0000   112.0000 </r>
       <r>   -28.3279     0.0000   112.0000 </r>
       <r>   -28.0870     0.0000   112.0000 </r>
       <r>   -27.8461     0.0000   112.0000 </r>
       <r>   -27.6053     0.0000   112.0000 </r>
       <r>   -27.3644     0.0000   112.0000 </r>
       <r>   -27.1235     0.0000   112.0000 </r>
       <r>   -26.8826     0.0000   112.0000 </r>
       <r>   -26.6417     0.0000   112.0000 </r>
       <r>   -26.4009     0.0000   112.0000 </r>
       <r>   -26.1600     0.0000   112.0000 </r>
       <r>   -25.9191     0.0000   112.0000 </r>
       <r>   -25.6782     0.0000   112.0000 </r>
       <r>   -25.4374     0.0000   112.0000 </r>
       <r>   -25.1965     0.0000   112.0000 </r>
       <r>   -24.9556     0.0000   112.0000 </r>
       <r>   -24.7147     0.0000   112.0000 </r>
       <r>   -24.4738     0.0000   112.0000 </r>
       <r>   -24.2330     0.0000   112.0000 </r>
       <r>   -23.9921     0.0000   112.0000 </r>
       <r>   -23.7512     0.0000   112.0000 </r>
       <r>   -23.5103     0.0000   112.0000 </r>
       <r>   -23.2695     0.0000   112.0000 </r>
       <r>   -23.0286     0.0000   112.0000 </r>
       <r>   -22.7877     0.0000   112.0000 </r>
       <r>   -22.5468     0.0000   112.0000 </r>
       <r>   -22.3059     0.0000   112.0000 </r>
       <r>   -22.0651     0.0000   112.0000 </r>
       <r>   -21.8242     0.0000   112.0000 </r>
       <r>   -21.5833     0.0000   112.0000 </r>
       <r>   -21.3424     0.0000   112.0000 </r>
       <r>   -21.1016     0.0000   112.0000 </r>
       <r>   -20.8607     0.0000   112.0000 </r>
       <r>   -20.6198     0.0000   112.0000 </r>
       <r>   -20.3789     0.0000   112.0000 </r>
       <r>   -20.1380     0.0000   112.0000 </r>
       <r>   -19.8972     0.0000   112.0000 </r>
       <r>   -19.6563     0.0000   112.0000 </r>
       <r>   -19.4154     0.0000   112.0000 </r>
       <r>   -19.1745     0.0000   112.0000 </r>
       <r>   -18.9337     0.0000   112.0000 </r>
       <r>   -18.6928     0.0000   112.0000 </r>
       <r>   -18.4519     0.0000   112.0000 </r>
       <r>   -18.2110     0.0000   112.0000 </r>
       <r>   -17.9701     0.0000   112.0000 </r>
       <r>   -17.7293     0.0000   112.0000 </r>
       <r>   -17.4884     0.0000   112.0000 </r>
       <r>   -17.2475     0.0000   112.0000 </r>
       <r>   -17.0066     0.0000   112.0000 </r>
       <r>   -16.7658     0.0000   112.0000 </r>
       <r>   -16.5249     0.0000   112.0000 </r>
       <r>   -16.2840     0.0000   112.0000 </r>
       <r>   -16.0431     0.0000   112.0000 </r>
       <r>   -15.8022     0.0000   112.0000 </r>
       <r>   -15.5614     0.0000   112.0000 </r>
       <r>   -15.3205     0.0000   112.0000 </r>
       <r>   -15.0796     0.0000   112.0000 </r>
       <r>   -14.8387     0.0000   112.0000 </r>
       <r>   -14.5979     0.0000   112.0000 </r>
       <r>   -14.3570     0.0000   112.0000 </r>
       <r>   -14.1161     0.0000   112.0000 </r>
       <r>   -13.8752     0.0000   112.0000 </r>
       <r>   -13.6343     0.0000   112.0000 </r>
       <r>   -13.3935     0.0000   112.0000 </r>
       <r>   -13.1526     0.0000   112.0000 </r>
       <r>   -12.9117     0.0163   112.0039 </r>
       <r>   -12.6708    44.4896   122.7205 </r>
       <r>   -12.4300    21.9178   128.0000 </r>
       <r>   -12.1891     0.0000   128.0000 </r>
       <r>   -11.9482     0.0000   128.0000 </r>
       <r>   -11.7073     0.0000   128.0000 </r>
       <r>   -11.4664     0.0000   128.0000 </r>
       <r>   -11.2256     0.0000   128.0000 </r>
       <r>   -10.9847     0.0000   128.0000 </r>
       <r>   -10.7438     0.0000   128.0000 </r>
       <r>   -10.5029     0.0000   128.0000 </r>
       <r>   -10.2621     0.0000   128.0000 </r>
       <r>   -10.0212     0.0000   128.0000 </r>
       <r>    -9.7803     0.0000   128.0000 </r>
       <r>    -9.5394     0.0000   128.0000 </r>
       <r>    -9.2985     0.0000   128.0000 </r>
       <r>    -9.0577     0.0000   128.0000 </r>
       <r>    -8.8168     0.0000   128.0000 </r>
       <r>    -8.5759     0.0000   128.0000 </r>
       <r>    -8.3350     0.0000   128.0000 </r>
       <r>    -8.0942     0.0000   128.0000 </r>
       <r>    -7.8533     0.0000   128.0000 </r>
       <r>    -7.6124     0.0000   128.0000 </r>
       <r>    -7.3715     0.6667   128.1606 </r>
       <r>    -7.1306    14.6751   131.6955 </r>
       <r>    -6.8898    29.3279   138.7599 </r>
       <r>    -6.6489    27.1322   145.2955 </r>
       <r>    -6.4080    27.8031   151.9926 </r>
       <r>    -6.1671     0.0306   152.0000 </r>
       <r>    -5.9263     0.0000   152.0000 </r>
       <r>    -5.6854     0.0000   152.0000 </r>
       <r>    -5.4445     0.0000   152.0000 </r>
       <r>    -5.2036     0.0000   152.0000 </r>
       <r>    -4.9627     0.0000   152.0000 </r>
       <r>    -4.7219     0.0000   152.0000 </r>
       <r>    -4.4810     0.0000   152.0000 </r>
       <r>    -4.2401     0.0000   152.0000 </r>
       <r>    -3.9992     0.0000   152.0000 </r>
       <r>    -3.7584     0.0000   152.0000 </r>
       <r>    -3.5175     0.0000   152.0000 </r>
       <r>    -3.2766     0.0000   152.0000 </r>
       <r>    -3.0357     0.0000   152.0000 </r>
       <r>    -2.7948     0.0000   152.0000 </r>
       <r>    -2.5540     0.0000   152.0000 </r>
       <r>    -2.3131     0.0000   152.0000 </r>
       <r>    -2.0722     0.0000   152.0000 </r>
       <r>    -1.8313     0.0000   152.0000 </r>
       <r>    -1.5905     0.0000   152.0000 </r>
       <r>    -1.3496     0.0000   152.0000 </r>
       <r>    -1.1087     0.0000   152.0000 </r>
       <r>    -0.8678     0.0000   152.0000 </r>
       <r>    -0.6269     0.0000   152.0000 </r>
       <r>    -0.3861     4.9317   153.1879 </r>
       <r>    -0.1452    20.2483   158.0653 </r>
       <r>     0.0957    12.3086   161.0302 </r>
       <r>     0.3366    18.9937   165.6054 </r>
       <r>     0.5774    29.7593   172.7737 </r>
       <r>     0.8183    39.5971   182.3118 </r>
       <r>     1.0592    37.2513   191.2848 </r>
       <r>     1.3001    30.4905   198.6293 </r>
       <r>     1.5410    20.9371   203.6726 </r>
       <r>     1.7818    28.6810   210.5812 </r>
       <r>     2.0227    37.6778   219.6569 </r>
       <r>     2.2636    26.5701   226.0571 </r>
       <r>     2.5045    27.1663   232.6008 </r>
       <r>     2.7453    31.8754   240.2789 </r>
       <r>     2.9862    44.8262   251.0765 </r>
       <r>     3.2271    45.3603   262.0028 </r>
       <r>     3.4680    30.6651   269.3894 </r>
       <r>     3.7089    11.8901   272.2534 </r>
       <r>     3.9497    19.0172   276.8342 </r>
       <r>     4.1906    51.6879   289.2847 </r>
       <r>     4.4315    45.7886   300.3142 </r>
       <r>     4.6724    15.2999   303.9996 </r>
       <r>     4.9132     0.0018   304.0000 </r>
       <r>     5.1541     0.0000   304.0000 </r>
       <r>     5.3950     0.0000   304.0000 </r>
       <r>     5.6359     0.0000   304.0000 </r>
       <r>     5.8768     0.0000   304.0000 </r>
       <r>     6.1176     0.0000   304.0000 </r>
       <r>     6.3585     0.4747   304.1143 </r>
       <r>     6.5994     4.2251   305.1321 </r>
       <r>     6.8403     8.1444   307.0939 </r>
       <r>     7.0811    20.4540   312.0208 </r>
       <r>     7.3220    44.9373   322.8452 </r>
       <r>     7.5629    54.3125   335.9279 </r>
       <r>     7.8038    62.7579   351.0449 </r>
       <r>     8.0447    66.4826   367.0591 </r>
       <r>     8.2855    70.7138   384.0925 </r>
       <r>     8.5264    58.2285   398.1184 </r>
       <r>     8.7673    58.9053   412.3074 </r>
       <r>     9.0082    46.3675   423.4763 </r>
       <r>     9.2490    28.7232   430.3951 </r>
       <r>     9.4899     8.4129   432.4216 </r>
       <r>     9.7308     3.2954   433.2154 </r>
       <r>     9.9717     8.5641   435.2783 </r>
       <r>    10.2126    18.9491   439.8427 </r>
       <r>    10.4534    17.9714   444.1716 </r>
       <r>    10.6943    17.5147   448.3905 </r>
       <r>    10.9352    27.4139   454.9939 </r>
       <r>    11.1761    18.9606   459.5611 </r>
       <r>    11.4169    24.1119   465.3691 </r>
       <r>    11.6578    14.2141   468.7930 </r>
       <r>    11.8987    13.9753   472.1593 </r>
       <r>    12.1396    16.5567   476.1475 </r>
       <r>    12.3805    37.6016   485.2048 </r>
       <r>    12.6213    32.3277   492.9919 </r>
       <r>    12.8622    28.9660   499.9691 </r>
       <r>    13.1031    20.1815   504.8304 </r>
       <r>    13.3440    22.7291   510.3054 </r>
       <r>    13.5848    27.3409   516.8912 </r>
       <r>    13.8257    23.7125   522.6030 </r>
       <r>    14.0666    26.0233   528.8715 </r>
       <r>    14.3075    18.7641   533.3913 </r>
       <r>    14.5484    15.9178   537.2256 </r>
       <r>    14.7892     3.2151   538.0000 </r>
       <r>    15.0301     0.0000   538.0000 </r>
       <r>    15.2710     0.0000   538.0000 </r>
       <r>    15.5119     0.0000   538.0000 </r>
       <r>    15.7527     0.0000   538.0000 </r>
       <r>    15.9936     0.0000   538.0000 </r>
       <r>    16.2345     0.0000   538.0000 </r>
       <r>    16.4754     0.0000   538.0000 </r>
       <r>    16.7163     0.0000   538.0000 </r>
       <r>    16.9571     0.0000   538.0000 </r>
       <r>    17.1980     0.0000   538.0000 </r>
       <r>    17.4389     0.0000   538.0000 </r>
       <r>    17.6798     0.0000   538.0000 </r>
       <r>    17.9206     0.0000   538.0000 </r>
      </set>
     </set>
    </array>
   </total>
  </dos>
 </calculation>
 <structure name="finalpos" >
  <crystal>
   <varray name="basis" >
    <v>      11.11223374       0.00000000      -0.00029034 </v>
    <v>       0.00000000      11.11745194       0.00000000 </v>
    <v>      -2.77510898       0.00000000      10.19872221 </v>
   </varray>
   <i name="volume">   1259.93837498 </i>
   <varray name="rec_basis" >
    <v>       0.08999155       0.00000000       0.02448702 </v>
    <v>       0.00000000       0.08994867       0.00000000 </v>
    <v>       0.00000256       0.00000000       0.09805220 </v>
   </varray>
  </crystal>
  <varray name="positions" >
   <v>       0.28894969       0.46933910       0.15583616 </v>
   <v>       0.78894969       0.46933910       0.15583616 </v>
   <v>       0.28894969       0.96933910       0.15583616 </v>
   <v>       0.78894969       0.96933910       0.15583616 </v>
   <v>       0.04646972       0.21934976       0.18586770 </v>
   <v>       0.54646972       0.21934976       0.18586770 </v>
   <v>       0.04646972       0.71934976       0.18586770 </v>
   <v>       0.54646972       0.71934976       0.18586770 </v>
   <v>       0.45353028       0.46934976       0.81413230 </v>
   <v>       0.95353028       0.46934976       0.81413230 </v>
   <v>       0.45353028       0.96934976       0.81413230 </v>
   <v>       0.95353028       0.96934976       0.81413230 </v>
   <v>       0.21105031       0.21933910       0.84416384 </v>
   <v>       0.71105031       0.21933910       0.84416384 </v>
   <v>       0.21105031       0.71933910       0.84416384 </v>
   <v>       0.71105031       0.71933910       0.84416384 </v>
   <v>       0.07654971       0.09530995       0.80250593 </v>
   <v>       0.57654971       0.09530995       0.80250593 </v>
   <v>       0.07654971       0.59530995       0.80250593 </v>
   <v>       0.57654971       0.59530995       0.80250593 </v>
   <v>       0.32470466       0.34338175       0.80250383 </v>
   <v>       0.82470466       0.34338175       0.80250383 </v>
   <v>       0.32470466       0.84338175       0.80250383 </v>
   <v>       0.82470466       0.84338175       0.80250383 </v>
   <v>       0.17529534       0.09338175       0.19749617 </v>
   <v>       0.67529534       0.09338175       0.19749617 </v>
   <v>       0.17529534       0.59338175       0.19749617 </v>
   <v>       0.67529534       0.59338175       0.19749617 </v>
   <v>       0.42345029       0.34530995       0.19749407 </v>
   <v>       0.92345029       0.34530995       0.19749407 </v>
   <v>       0.42345029       0.84530995       0.19749407 </v>
   <v>       0.92345029       0.84530995       0.19749407 </v>
   <v>       0.21868463       0.34523395       0.37102476 </v>
   <v>       0.71868463       0.34523395       0.37102476 </v>
   <v>       0.21868463       0.84523395       0.37102476 </v>
   <v>       0.71868463       0.84523395       0.37102476 </v>
   <v>       0.46591669       0.09344897       0.37102399 </v>
   <v>       0.96681660       0.09344897       0.37102399 </v>
   <v>       0.46681660       0.59344897       0.37102399 </v>
   <v>       0.96681660       0.59344897       0.37102399 </v>
   <v>       0.03318340       0.34344897       0.62897601 </v>
   <v>       0.53318340       0.34344897       0.62897601 </v>
   <v>       0.03318340       0.84344897       0.62897601 </v>
   <v>       0.53318340       0.84344897       0.62897601 </v>
   <v>       0.28131537       0.09523395       0.62897524 </v>
   <v>       0.78131537       0.09523395       0.62897524 </v>
   <v>       0.28131537       0.59523395       0.62897524 </v>
   <v>       0.78131537       0.59523395       0.62897524 </v>
   <v>       0.12439279       0.34434306       0.00000412 </v>
   <v>       0.62439279       0.34434306       0.00000412 </v>
   <v>       0.12439279       0.84434306       0.00000412 </v>
   <v>       0.62439279       0.84434306       0.00000412 </v>
   <v>       0.37560721       0.09434306       0.99999588 </v>
   <v>       0.87560721       0.09434306       0.99999588 </v>
   <v>       0.37560721       0.59434306       0.99999588 </v>
   <v>       0.87560721       0.59434306       0.99999588 </v>
   <v>       0.03824426       0.10634799       0.60632306 </v>
   <v>       0.53824426       0.10634799       0.60632306 </v>
   <v>       0.03824426       0.60634799       0.60632306 </v>
   <v>       0.53824426       0.60634799       0.60632306 </v>
   <v>       0.26492712       0.33232651       0.60632763 </v>
   <v>       0.76492712       0.33232651       0.60632763 </v>
   <v>       0.26492712       0.83232651       0.60632763 </v>
   <v>       0.76492712       0.83232651       0.60632763 </v>
   <v>       0.23507288       0.08232651       0.39367237 </v>
   <v>       0.73507288       0.08232651       0.39367237 </v>
   <v>       0.23507288       0.58232651       0.39367237 </v>
   <v>       0.73507288       0.58232651       0.39367237 </v>
   <v>       0.46175574       0.35634799       0.39367694 </v>
   <v>       0.96175574       0.35634799       0.39367694 </v>
   <v>       0.46175574       0.85634799       0.39367694 </v>
   <v>       0.96175574       0.85634799       0.39367694 </v>
   <v>       0.03848398       0.46936404       0.15397331 </v>
   <v>       0.53848398       0.46936404       0.15397331 </v>
   <v>       0.03848398       0.96936404       0.15397331 </v>
   <v>       0.53848398       0.96936404       0.15397331 </v>
   <v>       0.28861657       0.21935690       0.15447525 </v>
   <v>       0.78861657       0.21935690       0.15447525 </v>
   <v>       0.28861657       0.71935690       0.15447525 </v>
   <v>       0.78861657       0.71935690       0.15447525 </v>
   <v>       0.21138343       0.46935690       0.84552475 </v>
   <v>       0.71138343       0.46935690       0.84552475 </v>
   <v>       0.21138343       0.96935690       0.84552475 </v>
   <v>       0.71138343       0.96935690       0.84552475 </v>
   <v>       0.46151602       0.21936404       0.84602669 </v>
   <v>       0.96151602       0.21936404       0.84602669 </v>
   <v>       0.46151602       0.71936404       0.84602669 </v>
   <v>       0.96151602       0.71936404       0.84602669 </v>
  </varray>
 </structure>
</modeling>
