 160 160   0   0
  0.1215613E+02  0.1537564E-08  0.1124787E-08  0.1124760E-08  0.5000000E-15
  1.000000000000000E-004
  CAR 
 unknown system                          
     17.04913341    -54.78806667  301      4.89667373      1.00000000
    -54.788  0.0000E+00  0.0000E+00  0.0000E+00  0.0000E+00
    -54.549  0.0000E+00  0.0000E+00  0.0000E+00  0.0000E+00
    -54.309  0.0000E+00  0.0000E+00  0.0000E+00  0.0000E+00
    -54.070  0.0000E+00  0.0000E+00  0.0000E+00  0.0000E+00
    -53.830  0.0000E+00  0.0000E+00  0.0000E+00  0.0000E+00
    -53.591  0.0000E+00  0.0000E+00  0.0000E+00  0.0000E+00
    -53.351  0.0000E+00  0.0000E+00  0.0000E+00  0.0000E+00
    -53.112  0.0000E+00  0.0000E+00  0.0000E+00  0.0000E+00
    -52.872  0.0000E+00  0.0000E+00  0.0000E+00  0.0000E+00
    -52.633  0.0000E+00  0.0000E+00  0.0000E+00  0.0000E+00
    -52.393  0.0000E+00  0.0000E+00  0.0000E+00  0.0000E+00
    -52.154  0.0000E+00  0.0000E+00  0.0000E+00  0.0000E+00
    -51.915  0.0000E+00  0.0000E+00  0.0000E+00  0.0000E+00
    -51.675  0.4684E-03  0.0000E+00  0.1122E-03  0.0000E+00
    -51.436  0.8318E+02  0.0000E+00  0.1992E+02  0.0000E+00
    -51.196  0.5046E+02  0.0000E+00  0.3200E+02  0.0000E+00
    -50.957  0.0000E+00  0.0000E+00  0.3200E+02  0.0000E+00
    -50.717  0.0000E+00  0.0000E+00  0.3200E+02  0.0000E+00
    -50.478  0.7529E-13  0.0000E+00  0.3200E+02  0.0000E+00
    -50.238  0.8277E+01  0.0000E+00  0.3398E+02  0.0000E+00
    -49.999  0.1705E+03  0.0000E+00  0.7481E+02  0.0000E+00
    -49.759  0.8848E+02  0.0000E+00  0.9600E+02  0.0000E+00
    -49.520  0.0000E+00  0.0000E+00  0.9600E+02  0.0000E+00
    -49.281  0.0000E+00  0.0000E+00  0.9600E+02  0.0000E+00
    -49.041  0.0000E+00  0.0000E+00  0.9600E+02  0.0000E+00
    -48.802  0.0000E+00  0.0000E+00  0.9600E+02  0.0000E+00
    -48.562  0.0000E+00  0.0000E+00  0.9600E+02  0.0000E+00
    -48.323  0.0000E+00  0.0000E+00  0.9600E+02  0.0000E+00
    -48.083  0.0000E+00  0.0000E+00  0.9600E+02  0.0000E+00
    -47.844  0.0000E+00  0.0000E+00  0.9600E+02  0.0000E+00
    -47.604  0.0000E+00  0.0000E+00  0.9600E+02  0.0000E+00
    -47.365  0.0000E+00  0.0000E+00  0.9600E+02  0.0000E+00
    -47.125  0.0000E+00  0.0000E+00  0.9600E+02  0.0000E+00
    -46.886  0.0000E+00  0.2177E+00  0.9600E+02  0.5212E-01
    -46.647  0.0000E+00  0.1074E+03  0.9600E+02  0.2577E+02
    -46.407  0.0000E+00  0.1050E+03  0.9600E+02  0.5090E+02
    -46.168  0.0000E+00  0.1881E+03  0.9600E+02  0.9594E+02
    -45.928  0.0000E+00  0.2645E+00  0.9600E+02  0.9600E+02
    -45.689  0.0000E+00  0.0000E+00  0.9600E+02  0.9600E+02
    -45.449  0.0000E+00  0.0000E+00  0.9600E+02  0.9600E+02
    -45.210  0.0000E+00  0.0000E+00  0.9600E+02  0.9600E+02
    -44.970  0.0000E+00  0.0000E+00  0.9600E+02  0.9600E+02
    -44.731  0.0000E+00  0.0000E+00  0.9600E+02  0.9600E+02
    -44.491  0.0000E+00  0.0000E+00  0.9600E+02  0.9600E+02
    -44.252  0.0000E+00  0.0000E+00  0.9600E+02  0.9600E+02
    -44.012  0.0000E+00  0.0000E+00  0.9600E+02  0.9600E+02
    -43.773  0.0000E+00  0.0000E+00  0.9600E+02  0.9600E+02
    -43.534  0.0000E+00  0.0000E+00  0.9600E+02  0.9600E+02
    -43.294  0.0000E+00  0.0000E+00  0.9600E+02  0.9600E+02
    -43.055  0.0000E+00  0.0000E+00  0.9600E+02  0.9600E+02
    -42.815  0.0000E+00  0.0000E+00  0.9600E+02  0.9600E+02
    -42.576  0.0000E+00  0.0000E+00  0.9600E+02  0.9600E+02
    -42.336  0.0000E+00  0.0000E+00  0.9600E+02  0.9600E+02
    -42.097  0.0000E+00  0.0000E+00  0.9600E+02  0.9600E+02
    -41.857  0.0000E+00  0.0000E+00  0.9600E+02  0.9600E+02
    -41.618  0.0000E+00  0.0000E+00  0.9600E+02  0.9600E+02
    -41.378  0.0000E+00  0.0000E+00  0.9600E+02  0.9600E+02
    -41.139  0.0000E+00  0.0000E+00  0.9600E+02  0.9600E+02
    -40.900  0.0000E+00  0.0000E+00  0.9600E+02  0.9600E+02
    -40.660  0.3245E-14  0.6955E-15  0.9600E+02  0.9600E+02
    -40.421  0.3925E+01  0.3459E+01  0.9694E+02  0.9683E+02
    -40.181  0.1816E+03  0.1841E+03  0.1404E+03  0.1409E+03
    -39.942  0.8179E+02  0.7973E+02  0.1600E+03  0.1600E+03
    -39.702  0.0000E+00  0.0000E+00  0.1600E+03  0.1600E+03
    -39.463  0.0000E+00  0.0000E+00  0.1600E+03  0.1600E+03
    -39.223  0.0000E+00  0.0000E+00  0.1600E+03  0.1600E+03
    -38.984  0.0000E+00  0.0000E+00  0.1600E+03  0.1600E+03
    -38.744  0.0000E+00  0.0000E+00  0.1600E+03  0.1600E+03
    -38.505  0.0000E+00  0.0000E+00  0.1600E+03  0.1600E+03
    -38.266  0.0000E+00  0.0000E+00  0.1600E+03  0.1600E+03
    -38.026  0.0000E+00  0.0000E+00  0.1600E+03  0.1600E+03
    -37.787  0.0000E+00  0.0000E+00  0.1600E+03  0.1600E+03
    -37.547  0.0000E+00  0.0000E+00  0.1600E+03  0.1600E+03
    -37.308  0.0000E+00  0.0000E+00  0.1600E+03  0.1600E+03
    -37.068  0.0000E+00  0.0000E+00  0.1600E+03  0.1600E+03
    -36.829  0.0000E+00  0.0000E+00  0.1600E+03  0.1600E+03
    -36.589  0.0000E+00  0.0000E+00  0.1600E+03  0.1600E+03
    -36.350  0.0000E+00  0.0000E+00  0.1600E+03  0.1600E+03
    -36.110  0.0000E+00  0.0000E+00  0.1600E+03  0.1600E+03
    -35.871  0.0000E+00  0.0000E+00  0.1600E+03  0.1600E+03
    -35.631  0.0000E+00  0.0000E+00  0.1600E+03  0.1600E+03
    -35.392  0.0000E+00  0.0000E+00  0.1600E+03  0.1600E+03
    -35.153  0.0000E+00  0.0000E+00  0.1600E+03  0.1600E+03
    -34.913  0.0000E+00  0.0000E+00  0.1600E+03  0.1600E+03
    -34.674  0.0000E+00  0.0000E+00  0.1600E+03  0.1600E+03
    -34.434  0.0000E+00  0.0000E+00  0.1600E+03  0.1600E+03
    -34.195  0.0000E+00  0.0000E+00  0.1600E+03  0.1600E+03
    -33.955  0.0000E+00  0.0000E+00  0.1600E+03  0.1600E+03
    -33.716  0.0000E+00  0.0000E+00  0.1600E+03  0.1600E+03
    -33.476  0.0000E+00  0.0000E+00  0.1600E+03  0.1600E+03
    -33.237  0.0000E+00  0.0000E+00  0.1600E+03  0.1600E+03
    -32.997  0.0000E+00  0.0000E+00  0.1600E+03  0.1600E+03
    -32.758  0.0000E+00  0.0000E+00  0.1600E+03  0.1600E+03
    -32.519  0.0000E+00  0.0000E+00  0.1600E+03  0.1600E+03
    -32.279  0.0000E+00  0.0000E+00  0.1600E+03  0.1600E+03
    -32.040  0.0000E+00  0.0000E+00  0.1600E+03  0.1600E+03
    -31.800  0.0000E+00  0.0000E+00  0.1600E+03  0.1600E+03
    -31.561  0.0000E+00  0.0000E+00  0.1600E+03  0.1600E+03
    -31.321  0.0000E+00  0.0000E+00  0.1600E+03  0.1600E+03
    -31.082  0.0000E+00  0.0000E+00  0.1600E+03  0.1600E+03
    -30.842  0.0000E+00  0.0000E+00  0.1600E+03  0.1600E+03
    -30.603  0.0000E+00  0.0000E+00  0.1600E+03  0.1600E+03
    -30.363  0.0000E+00  0.0000E+00  0.1600E+03  0.1600E+03
    -30.124  0.0000E+00  0.0000E+00  0.1600E+03  0.1600E+03
    -29.885  0.0000E+00  0.0000E+00  0.1600E+03  0.1600E+03
    -29.645  0.0000E+00  0.0000E+00  0.1600E+03  0.1600E+03
    -29.406  0.0000E+00  0.0000E+00  0.1600E+03  0.1600E+03
    -29.166  0.0000E+00  0.0000E+00  0.1600E+03  0.1600E+03
    -28.927  0.0000E+00  0.0000E+00  0.1600E+03  0.1600E+03
    -28.687  0.0000E+00  0.0000E+00  0.1600E+03  0.1600E+03
    -28.448  0.0000E+00  0.0000E+00  0.1600E+03  0.1600E+03
    -28.208  0.0000E+00  0.0000E+00  0.1600E+03  0.1600E+03
    -27.969  0.0000E+00  0.0000E+00  0.1600E+03  0.1600E+03
    -27.729  0.0000E+00  0.0000E+00  0.1600E+03  0.1600E+03
    -27.490  0.0000E+00  0.0000E+00  0.1600E+03  0.1600E+03
    -27.250  0.0000E+00  0.0000E+00  0.1600E+03  0.1600E+03
    -27.011  0.0000E+00  0.0000E+00  0.1600E+03  0.1600E+03
    -26.772  0.0000E+00  0.0000E+00  0.1600E+03  0.1600E+03
    -26.532  0.0000E+00  0.0000E+00  0.1600E+03  0.1600E+03
    -26.293  0.0000E+00  0.0000E+00  0.1600E+03  0.1600E+03
    -26.053  0.0000E+00  0.0000E+00  0.1600E+03  0.1600E+03
    -25.814  0.0000E+00  0.0000E+00  0.1600E+03  0.1600E+03
    -25.574  0.0000E+00  0.0000E+00  0.1600E+03  0.1600E+03
    -25.335  0.0000E+00  0.0000E+00  0.1600E+03  0.1600E+03
    -25.095  0.0000E+00  0.0000E+00  0.1600E+03  0.1600E+03
    -24.856  0.0000E+00  0.0000E+00  0.1600E+03  0.1600E+03
    -24.616  0.0000E+00  0.0000E+00  0.1600E+03  0.1600E+03
    -24.377  0.0000E+00  0.0000E+00  0.1600E+03  0.1600E+03
    -24.138  0.0000E+00  0.0000E+00  0.1600E+03  0.1600E+03
    -23.898  0.0000E+00  0.0000E+00  0.1600E+03  0.1600E+03
    -23.659  0.0000E+00  0.0000E+00  0.1600E+03  0.1600E+03
    -23.419  0.0000E+00  0.0000E+00  0.1600E+03  0.1600E+03
    -23.180  0.0000E+00  0.0000E+00  0.1600E+03  0.1600E+03
    -22.940  0.0000E+00  0.0000E+00  0.1600E+03  0.1600E+03
    -22.701  0.0000E+00  0.0000E+00  0.1600E+03  0.1600E+03
    -22.461  0.0000E+00  0.0000E+00  0.1600E+03  0.1600E+03
    -22.222  0.0000E+00  0.0000E+00  0.1600E+03  0.1600E+03
    -21.982  0.0000E+00  0.0000E+00  0.1600E+03  0.1600E+03
    -21.743  0.0000E+00  0.0000E+00  0.1600E+03  0.1600E+03
    -21.503  0.0000E+00  0.0000E+00  0.1600E+03  0.1600E+03
    -21.264  0.0000E+00  0.0000E+00  0.1600E+03  0.1600E+03
    -21.025  0.0000E+00  0.0000E+00  0.1600E+03  0.1600E+03
    -20.785  0.0000E+00  0.0000E+00  0.1600E+03  0.1600E+03
    -20.546  0.0000E+00  0.0000E+00  0.1600E+03  0.1600E+03
    -20.306  0.0000E+00  0.0000E+00  0.1600E+03  0.1600E+03
    -20.067  0.0000E+00  0.0000E+00  0.1600E+03  0.1600E+03
    -19.827  0.0000E+00  0.0000E+00  0.1600E+03  0.1600E+03
    -19.588  0.0000E+00  0.0000E+00  0.1600E+03  0.1600E+03
    -19.348  0.0000E+00  0.0000E+00  0.1600E+03  0.1600E+03
    -19.109  0.0000E+00  0.0000E+00  0.1600E+03  0.1600E+03
    -18.869  0.0000E+00  0.0000E+00  0.1600E+03  0.1600E+03
    -18.630  0.0000E+00  0.0000E+00  0.1600E+03  0.1600E+03
    -18.391  0.0000E+00  0.0000E+00  0.1600E+03  0.1600E+03
    -18.151  0.0000E+00  0.0000E+00  0.1600E+03  0.1600E+03
    -17.912  0.0000E+00  0.0000E+00  0.1600E+03  0.1600E+03
    -17.672  0.0000E+00  0.0000E+00  0.1600E+03  0.1600E+03
    -17.433  0.0000E+00  0.0000E+00  0.1600E+03  0.1600E+03
    -17.193  0.0000E+00  0.0000E+00  0.1600E+03  0.1600E+03
    -16.954  0.0000E+00  0.0000E+00  0.1600E+03  0.1600E+03
    -16.714  0.0000E+00  0.0000E+00  0.1600E+03  0.1600E+03
    -16.475  0.0000E+00  0.0000E+00  0.1600E+03  0.1600E+03
    -16.235  0.0000E+00  0.0000E+00  0.1600E+03  0.1600E+03
    -15.996  0.0000E+00  0.0000E+00  0.1600E+03  0.1600E+03
    -15.757  0.0000E+00  0.0000E+00  0.1600E+03  0.1600E+03
    -15.517  0.0000E+00  0.0000E+00  0.1600E+03  0.1600E+03
    -15.278  0.0000E+00  0.0000E+00  0.1600E+03  0.1600E+03
    -15.038  0.0000E+00  0.0000E+00  0.1600E+03  0.1600E+03
    -14.799  0.0000E+00  0.0000E+00  0.1600E+03  0.1600E+03
    -14.559  0.0000E+00  0.0000E+00  0.1600E+03  0.1600E+03
    -14.320  0.0000E+00  0.0000E+00  0.1600E+03  0.1600E+03
    -14.080  0.0000E+00  0.0000E+00  0.1600E+03  0.1600E+03
    -13.841  0.0000E+00  0.0000E+00  0.1600E+03  0.1600E+03
    -13.601  0.1897E-01  0.0000E+00  0.1600E+03  0.1600E+03
    -13.362  0.5328E+02  0.2121E-05  0.1728E+03  0.1600E+03
    -13.122  0.7216E+02  0.2929E+02  0.1900E+03  0.1670E+03
    -12.883  0.8183E+01  0.9981E+02  0.1920E+03  0.1909E+03
    -12.644  0.0000E+00  0.4535E+01  0.1920E+03  0.1920E+03
    -12.404  0.0000E+00  0.0000E+00  0.1920E+03  0.1920E+03
    -12.165  0.0000E+00  0.0000E+00  0.1920E+03  0.1920E+03
    -11.925  0.0000E+00  0.0000E+00  0.1920E+03  0.1920E+03
    -11.686  0.0000E+00  0.0000E+00  0.1920E+03  0.1920E+03
    -11.446  0.0000E+00  0.0000E+00  0.1920E+03  0.1920E+03
    -11.207  0.0000E+00  0.0000E+00  0.1920E+03  0.1920E+03
    -10.967  0.0000E+00  0.0000E+00  0.1920E+03  0.1920E+03
    -10.728  0.0000E+00  0.0000E+00  0.1920E+03  0.1920E+03
    -10.488  0.0000E+00  0.0000E+00  0.1920E+03  0.1920E+03
    -10.249  0.0000E+00  0.0000E+00  0.1920E+03  0.1920E+03
    -10.010  0.0000E+00  0.0000E+00  0.1920E+03  0.1920E+03
     -9.770  0.0000E+00  0.0000E+00  0.1920E+03  0.1920E+03
     -9.531  0.0000E+00  0.0000E+00  0.1920E+03  0.1920E+03
     -9.291  0.0000E+00  0.0000E+00  0.1920E+03  0.1920E+03
     -9.052  0.0000E+00  0.0000E+00  0.1920E+03  0.1920E+03
     -8.812  0.0000E+00  0.0000E+00  0.1920E+03  0.1920E+03
     -8.573  0.0000E+00  0.0000E+00  0.1920E+03  0.1920E+03
     -8.333  0.0000E+00  0.0000E+00  0.1920E+03  0.1920E+03
     -8.094  0.0000E+00  0.0000E+00  0.1920E+03  0.1920E+03
     -7.854  0.4801E-10  0.0000E+00  0.1920E+03  0.1920E+03
     -7.615  0.1578E+01  0.4530E-07  0.1924E+03  0.1920E+03
     -7.376  0.4687E+02  0.7752E+01  0.2036E+03  0.1939E+03
     -7.136  0.6533E+02  0.6081E+02  0.2192E+03  0.2084E+03
     -6.897  0.1985E+02  0.5428E+02  0.2240E+03  0.2214E+03
     -6.657  0.9546E-02  0.1079E+02  0.2240E+03  0.2240E+03
     -6.418  0.0000E+00  0.3550E-02  0.2240E+03  0.2240E+03
     -6.178  0.0000E+00  0.0000E+00  0.2240E+03  0.2240E+03
     -5.939  0.0000E+00  0.0000E+00  0.2240E+03  0.2240E+03
     -5.699  0.0000E+00  0.0000E+00  0.2240E+03  0.2240E+03
     -5.460  0.0000E+00  0.0000E+00  0.2240E+03  0.2240E+03
     -5.220  0.0000E+00  0.0000E+00  0.2240E+03  0.2240E+03
     -4.981  0.0000E+00  0.0000E+00  0.2240E+03  0.2240E+03
     -4.741  0.0000E+00  0.0000E+00  0.2240E+03  0.2240E+03
     -4.502  0.0000E+00  0.0000E+00  0.2240E+03  0.2240E+03
     -4.263  0.0000E+00  0.0000E+00  0.2240E+03  0.2240E+03
     -4.023  0.0000E+00  0.0000E+00  0.2240E+03  0.2240E+03
     -3.784  0.0000E+00  0.0000E+00  0.2240E+03  0.2240E+03
     -3.544  0.0000E+00  0.0000E+00  0.2240E+03  0.2240E+03
     -3.305  0.0000E+00  0.0000E+00  0.2240E+03  0.2240E+03
     -3.065  0.0000E+00  0.0000E+00  0.2240E+03  0.2240E+03
     -2.826  0.4121E-15  0.0000E+00  0.2240E+03  0.2240E+03
     -2.586  0.4013E+00  0.0000E+00  0.2241E+03  0.2240E+03
     -2.347  0.3099E+02  0.0000E+00  0.2315E+03  0.2240E+03
     -2.107  0.1155E+02  0.0000E+00  0.2343E+03  0.2240E+03
     -1.868  0.1274E+02  0.0000E+00  0.2373E+03  0.2240E+03
     -1.629  0.1140E+02  0.0000E+00  0.2401E+03  0.2240E+03
     -1.389  0.1565E+02  0.0000E+00  0.2438E+03  0.2240E+03
     -1.150  0.6295E+02  0.2233E-05  0.2589E+03  0.2240E+03
     -0.910  0.7657E+02  0.3412E+01  0.2772E+03  0.2248E+03
     -0.671  0.6743E+02  0.3293E+02  0.2934E+03  0.2327E+03
     -0.431  0.7790E+02  0.1883E+02  0.3120E+03  0.2372E+03
     -0.192  0.1061E+03  0.1909E+02  0.3374E+03  0.2418E+03
      0.048  0.7851E+02  0.1225E+02  0.3562E+03  0.2447E+03
      0.287  0.5338E+02  0.3174E+02  0.3690E+03  0.2523E+03
      0.527  0.4759E+02  0.8141E+02  0.3804E+03  0.2718E+03
      0.766  0.4615E+02  0.6839E+02  0.3915E+03  0.2882E+03
      1.005  0.4675E+02  0.6983E+02  0.4027E+03  0.3049E+03
      1.245  0.7674E+02  0.6333E+02  0.4210E+03  0.3201E+03
      1.484  0.8776E+02  0.2170E+02  0.4420E+03  0.3253E+03
      1.724  0.5814E+02  0.5073E+02  0.4560E+03  0.3374E+03
      1.963  0.3998E+02  0.5158E+02  0.4655E+03  0.3498E+03
      2.203  0.4719E+02  0.3055E+02  0.4768E+03  0.3571E+03
      2.442  0.4165E+02  0.3908E+02  0.4868E+03  0.3664E+03
      2.682  0.5336E+02  0.6472E+02  0.4996E+03  0.3819E+03
      2.921  0.5389E+02  0.7218E+02  0.5125E+03  0.3992E+03
      3.161  0.5653E+02  0.5990E+02  0.5260E+03  0.4136E+03
      3.400  0.5302E+02  0.1610E+02  0.5387E+03  0.4174E+03
      3.640  0.5336E+02  0.3619E+02  0.5515E+03  0.4261E+03
      3.879  0.3988E+02  0.5944E+02  0.5611E+03  0.4403E+03
      4.118  0.3546E+02  0.3201E+02  0.5695E+03  0.4480E+03
      4.358  0.1925E+02  0.4289E-01  0.5742E+03  0.4480E+03
      4.597  0.7378E+01  0.0000E+00  0.5759E+03  0.4480E+03
      4.837  0.3174E+00  0.0000E+00  0.5760E+03  0.4480E+03
      5.076  0.0000E+00  0.0000E+00  0.5760E+03  0.4480E+03
      5.316  0.0000E+00  0.0000E+00  0.5760E+03  0.4480E+03
      5.555  0.0000E+00  0.0000E+00  0.5760E+03  0.4480E+03
      5.795  0.0000E+00  0.0000E+00  0.5760E+03  0.4480E+03
      6.034  0.0000E+00  0.0000E+00  0.5760E+03  0.4480E+03
      6.274  0.0000E+00  0.1803E-15  0.5760E+03  0.4480E+03
      6.513  0.0000E+00  0.6818E-01  0.5760E+03  0.4480E+03
      6.752  0.0000E+00  0.2438E+02  0.5760E+03  0.4539E+03
      6.992  0.7228E-06  0.7771E+02  0.5760E+03  0.4725E+03
      7.231  0.2292E+00  0.6320E+02  0.5761E+03  0.4876E+03
      7.471  0.1904E+00  0.6386E+02  0.5761E+03  0.5029E+03
      7.710  0.1385E+01  0.6307E+02  0.5764E+03  0.5180E+03
      7.950  0.3032E+01  0.9509E+02  0.5772E+03  0.5408E+03
      8.189  0.6558E+01  0.7266E+02  0.5787E+03  0.5582E+03
      8.429  0.9463E+01  0.4918E+02  0.5810E+03  0.5699E+03
      8.668  0.1877E+02  0.2496E+02  0.5855E+03  0.5759E+03
      8.908  0.2338E+02  0.7248E+01  0.5911E+03  0.5776E+03
      9.147  0.3137E+02  0.8603E+01  0.5986E+03  0.5797E+03
      9.386  0.2855E+02  0.1782E+02  0.6054E+03  0.5840E+03
      9.626  0.2977E+02  0.2686E+02  0.6126E+03  0.5904E+03
      9.865  0.2619E+02  0.3192E+02  0.6188E+03  0.5981E+03
     10.105  0.1753E+02  0.3780E+02  0.6230E+03  0.6071E+03
     10.344  0.2597E+02  0.3349E+02  0.6293E+03  0.6151E+03
     10.584  0.3634E+02  0.2857E+02  0.6380E+03  0.6220E+03
     10.823  0.4023E+02  0.3310E+02  0.6476E+03  0.6299E+03
     11.063  0.3301E+02  0.2820E+02  0.6555E+03  0.6366E+03
     11.302  0.4921E+02  0.2601E+02  0.6673E+03  0.6429E+03
     11.542  0.4115E+02  0.2920E+02  0.6771E+03  0.6499E+03
     11.781  0.4151E+02  0.5098E+02  0.6871E+03  0.6621E+03
     12.021  0.3405E+02  0.5025E+02  0.6952E+03  0.6741E+03
     12.260  0.3277E+02  0.5601E+02  0.7031E+03  0.6875E+03
     12.499  0.3251E+02  0.3157E+02  0.7109E+03  0.6951E+03
     12.739  0.3679E+02  0.3267E+02  0.7197E+03  0.7029E+03
     12.978  0.3438E+02  0.3217E+02  0.7279E+03  0.7106E+03
     13.218  0.1560E+02  0.3808E+02  0.7316E+03  0.7197E+03
     13.457  0.1160E+01  0.3320E+02  0.7319E+03  0.7277E+03
     13.697  0.3714E+00  0.1726E+02  0.7320E+03  0.7318E+03
     13.936  0.0000E+00  0.8073E+00  0.7320E+03  0.7320E+03
     14.176  0.0000E+00  0.3385E-05  0.7320E+03  0.7320E+03
     14.415  0.0000E+00  0.0000E+00  0.7320E+03  0.7320E+03
     14.655  0.0000E+00  0.0000E+00  0.7320E+03  0.7320E+03
     14.894  0.0000E+00  0.0000E+00  0.7320E+03  0.7320E+03
     15.133  0.0000E+00  0.0000E+00  0.7320E+03  0.7320E+03
     15.373  0.0000E+00  0.0000E+00  0.7320E+03  0.7320E+03
     15.612  0.0000E+00  0.0000E+00  0.7320E+03  0.7320E+03
     15.852  0.0000E+00  0.0000E+00  0.7320E+03  0.7320E+03
     16.091  0.0000E+00  0.0000E+00  0.7320E+03  0.7320E+03
     16.331  0.0000E+00  0.0000E+00  0.7320E+03  0.7320E+03
     16.570  0.0000E+00  0.0000E+00  0.7320E+03  0.7320E+03
     16.810  0.0000E+00  0.0000E+00  0.7320E+03  0.7320E+03
     17.049  0.0000E+00  0.0000E+00  0.7320E+03  0.7320E+03
