  88  88   0   0
  0.1431748E+02  0.1111223E-08  0.1111745E-08  0.1056954E-08  0.5000000E-15
  1.000000000000000E-004
  CAR 
 unknown system                          
     17.92359136    -54.34054899  301      5.21714668      1.00000000
    -54.341  0.0000E+00  0.0000E+00  0.0000E+00  0.0000E+00
    -54.100  0.0000E+00  0.0000E+00  0.0000E+00  0.0000E+00
    -53.859  0.0000E+00  0.0000E+00  0.0000E+00  0.0000E+00
    -53.618  0.0000E+00  0.0000E+00  0.0000E+00  0.0000E+00
    -53.377  0.0000E+00  0.0000E+00  0.0000E+00  0.0000E+00
    -53.136  0.0000E+00  0.0000E+00  0.0000E+00  0.0000E+00
    -52.895  0.0000E+00  0.0000E+00  0.0000E+00  0.0000E+00
    -52.654  0.0000E+00  0.0000E+00  0.0000E+00  0.0000E+00
    -52.414  0.0000E+00  0.0000E+00  0.0000E+00  0.0000E+00
    -52.173  0.0000E+00  0.0000E+00  0.0000E+00  0.0000E+00
    -51.932  0.0000E+00  0.0000E+00  0.0000E+00  0.0000E+00
    -51.691  0.0000E+00  0.0000E+00  0.0000E+00  0.0000E+00
    -51.450  0.0000E+00  0.0000E+00  0.0000E+00  0.0000E+00
    -51.209  0.4225E-03  0.0000E+00  0.1018E-03  0.0000E+00
    -50.968  0.1310E+03  0.0000E+00  0.3156E+02  0.0000E+00
    -50.727  0.1818E+01  0.0000E+00  0.3200E+02  0.0000E+00
    -50.486  0.0000E+00  0.0000E+00  0.3200E+02  0.0000E+00
    -50.246  0.0000E+00  0.0000E+00  0.3200E+02  0.0000E+00
    -50.005  0.0000E+00  0.0000E+00  0.3200E+02  0.0000E+00
    -49.764  0.2098E+01  0.0000E+00  0.3251E+02  0.0000E+00
    -49.523  0.2376E+03  0.0000E+00  0.8975E+02  0.0000E+00
    -49.282  0.2596E+02  0.0000E+00  0.9600E+02  0.0000E+00
    -49.041  0.0000E+00  0.0000E+00  0.9600E+02  0.0000E+00
    -48.800  0.0000E+00  0.0000E+00  0.9600E+02  0.0000E+00
    -48.559  0.0000E+00  0.0000E+00  0.9600E+02  0.0000E+00
    -48.319  0.0000E+00  0.0000E+00  0.9600E+02  0.0000E+00
    -48.078  0.0000E+00  0.0000E+00  0.9600E+02  0.0000E+00
    -47.837  0.0000E+00  0.0000E+00  0.9600E+02  0.0000E+00
    -47.596  0.0000E+00  0.0000E+00  0.9600E+02  0.0000E+00
    -47.355  0.0000E+00  0.0000E+00  0.9600E+02  0.0000E+00
    -47.114  0.0000E+00  0.0000E+00  0.9600E+02  0.0000E+00
    -46.873  0.0000E+00  0.0000E+00  0.9600E+02  0.0000E+00
    -46.632  0.0000E+00  0.0000E+00  0.9600E+02  0.0000E+00
    -46.391  0.0000E+00  0.4370E+00  0.9600E+02  0.1053E+00
    -46.151  0.0000E+00  0.1324E+03  0.9600E+02  0.3199E+02
    -45.910  0.0000E+00  0.6287E+02  0.9600E+02  0.4714E+02
    -45.669  0.0000E+00  0.2029E+03  0.9600E+02  0.9600E+02
    -45.428  0.0000E+00  0.0000E+00  0.9600E+02  0.9600E+02
    -45.187  0.0000E+00  0.0000E+00  0.9600E+02  0.9600E+02
    -44.946  0.0000E+00  0.0000E+00  0.9600E+02  0.9600E+02
    -44.705  0.0000E+00  0.0000E+00  0.9600E+02  0.9600E+02
    -44.464  0.0000E+00  0.0000E+00  0.9600E+02  0.9600E+02
    -44.224  0.0000E+00  0.0000E+00  0.9600E+02  0.9600E+02
    -43.983  0.0000E+00  0.0000E+00  0.9600E+02  0.9600E+02
    -43.742  0.0000E+00  0.0000E+00  0.9600E+02  0.9600E+02
    -43.501  0.0000E+00  0.0000E+00  0.9600E+02  0.9600E+02
    -43.260  0.0000E+00  0.0000E+00  0.9600E+02  0.9600E+02
    -43.019  0.0000E+00  0.0000E+00  0.9600E+02  0.9600E+02
    -42.778  0.0000E+00  0.0000E+00  0.9600E+02  0.9600E+02
    -42.537  0.0000E+00  0.0000E+00  0.9600E+02  0.9600E+02
    -42.297  0.0000E+00  0.0000E+00  0.9600E+02  0.9600E+02
    -42.056  0.0000E+00  0.0000E+00  0.9600E+02  0.9600E+02
    -41.815  0.0000E+00  0.0000E+00  0.9600E+02  0.9600E+02
    -41.574  0.0000E+00  0.0000E+00  0.9600E+02  0.9600E+02
    -41.333  0.0000E+00  0.0000E+00  0.9600E+02  0.9600E+02
    -41.092  0.0000E+00  0.0000E+00  0.9600E+02  0.9600E+02
    -40.851  0.0000E+00  0.0000E+00  0.9600E+02  0.9600E+02
    -40.610  0.0000E+00  0.0000E+00  0.9600E+02  0.9600E+02
    -40.369  0.0000E+00  0.0000E+00  0.9600E+02  0.9600E+02
    -40.129  0.3039E-11  0.1949E-11  0.9600E+02  0.9600E+02
    -39.888  0.1731E+02  0.1607E+02  0.1002E+03  0.9987E+02
    -39.647  0.4911E+02  0.5036E+02  0.1120E+03  0.1120E+03
    -39.406  0.0000E+00  0.0000E+00  0.1120E+03  0.1120E+03
    -39.165  0.0000E+00  0.0000E+00  0.1120E+03  0.1120E+03
    -38.924  0.0000E+00  0.0000E+00  0.1120E+03  0.1120E+03
    -38.683  0.0000E+00  0.0000E+00  0.1120E+03  0.1120E+03
    -38.442  0.0000E+00  0.0000E+00  0.1120E+03  0.1120E+03
    -38.202  0.0000E+00  0.0000E+00  0.1120E+03  0.1120E+03
    -37.961  0.0000E+00  0.0000E+00  0.1120E+03  0.1120E+03
    -37.720  0.0000E+00  0.0000E+00  0.1120E+03  0.1120E+03
    -37.479  0.0000E+00  0.0000E+00  0.1120E+03  0.1120E+03
    -37.238  0.0000E+00  0.0000E+00  0.1120E+03  0.1120E+03
    -36.997  0.0000E+00  0.0000E+00  0.1120E+03  0.1120E+03
    -36.756  0.0000E+00  0.0000E+00  0.1120E+03  0.1120E+03
    -36.515  0.0000E+00  0.0000E+00  0.1120E+03  0.1120E+03
    -36.275  0.0000E+00  0.0000E+00  0.1120E+03  0.1120E+03
    -36.034  0.0000E+00  0.0000E+00  0.1120E+03  0.1120E+03
    -35.793  0.0000E+00  0.0000E+00  0.1120E+03  0.1120E+03
    -35.552  0.0000E+00  0.0000E+00  0.1120E+03  0.1120E+03
    -35.311  0.0000E+00  0.0000E+00  0.1120E+03  0.1120E+03
    -35.070  0.0000E+00  0.0000E+00  0.1120E+03  0.1120E+03
    -34.829  0.0000E+00  0.0000E+00  0.1120E+03  0.1120E+03
    -34.588  0.0000E+00  0.0000E+00  0.1120E+03  0.1120E+03
    -34.347  0.0000E+00  0.0000E+00  0.1120E+03  0.1120E+03
    -34.107  0.0000E+00  0.0000E+00  0.1120E+03  0.1120E+03
    -33.866  0.0000E+00  0.0000E+00  0.1120E+03  0.1120E+03
    -33.625  0.0000E+00  0.0000E+00  0.1120E+03  0.1120E+03
    -33.384  0.0000E+00  0.0000E+00  0.1120E+03  0.1120E+03
    -33.143  0.0000E+00  0.0000E+00  0.1120E+03  0.1120E+03
    -32.902  0.0000E+00  0.0000E+00  0.1120E+03  0.1120E+03
    -32.661  0.0000E+00  0.0000E+00  0.1120E+03  0.1120E+03
    -32.420  0.0000E+00  0.0000E+00  0.1120E+03  0.1120E+03
    -32.180  0.0000E+00  0.0000E+00  0.1120E+03  0.1120E+03
    -31.939  0.0000E+00  0.0000E+00  0.1120E+03  0.1120E+03
    -31.698  0.0000E+00  0.0000E+00  0.1120E+03  0.1120E+03
    -31.457  0.0000E+00  0.0000E+00  0.1120E+03  0.1120E+03
    -31.216  0.0000E+00  0.0000E+00  0.1120E+03  0.1120E+03
    -30.975  0.0000E+00  0.0000E+00  0.1120E+03  0.1120E+03
    -30.734  0.0000E+00  0.0000E+00  0.1120E+03  0.1120E+03
    -30.493  0.0000E+00  0.0000E+00  0.1120E+03  0.1120E+03
    -30.253  0.0000E+00  0.0000E+00  0.1120E+03  0.1120E+03
    -30.012  0.0000E+00  0.0000E+00  0.1120E+03  0.1120E+03
    -29.771  0.0000E+00  0.0000E+00  0.1120E+03  0.1120E+03
    -29.530  0.0000E+00  0.0000E+00  0.1120E+03  0.1120E+03
    -29.289  0.0000E+00  0.0000E+00  0.1120E+03  0.1120E+03
    -29.048  0.0000E+00  0.0000E+00  0.1120E+03  0.1120E+03
    -28.807  0.0000E+00  0.0000E+00  0.1120E+03  0.1120E+03
    -28.566  0.0000E+00  0.0000E+00  0.1120E+03  0.1120E+03
    -28.325  0.0000E+00  0.0000E+00  0.1120E+03  0.1120E+03
    -28.085  0.0000E+00  0.0000E+00  0.1120E+03  0.1120E+03
    -27.844  0.0000E+00  0.0000E+00  0.1120E+03  0.1120E+03
    -27.603  0.0000E+00  0.0000E+00  0.1120E+03  0.1120E+03
    -27.362  0.0000E+00  0.0000E+00  0.1120E+03  0.1120E+03
    -27.121  0.0000E+00  0.0000E+00  0.1120E+03  0.1120E+03
    -26.880  0.0000E+00  0.0000E+00  0.1120E+03  0.1120E+03
    -26.639  0.0000E+00  0.0000E+00  0.1120E+03  0.1120E+03
    -26.398  0.0000E+00  0.0000E+00  0.1120E+03  0.1120E+03
    -26.158  0.0000E+00  0.0000E+00  0.1120E+03  0.1120E+03
    -25.917  0.0000E+00  0.0000E+00  0.1120E+03  0.1120E+03
    -25.676  0.0000E+00  0.0000E+00  0.1120E+03  0.1120E+03
    -25.435  0.0000E+00  0.0000E+00  0.1120E+03  0.1120E+03
    -25.194  0.0000E+00  0.0000E+00  0.1120E+03  0.1120E+03
    -24.953  0.0000E+00  0.0000E+00  0.1120E+03  0.1120E+03
    -24.712  0.0000E+00  0.0000E+00  0.1120E+03  0.1120E+03
    -24.471  0.0000E+00  0.0000E+00  0.1120E+03  0.1120E+03
    -24.230  0.0000E+00  0.0000E+00  0.1120E+03  0.1120E+03
    -23.990  0.0000E+00  0.0000E+00  0.1120E+03  0.1120E+03
    -23.749  0.0000E+00  0.0000E+00  0.1120E+03  0.1120E+03
    -23.508  0.0000E+00  0.0000E+00  0.1120E+03  0.1120E+03
    -23.267  0.0000E+00  0.0000E+00  0.1120E+03  0.1120E+03
    -23.026  0.0000E+00  0.0000E+00  0.1120E+03  0.1120E+03
    -22.785  0.0000E+00  0.0000E+00  0.1120E+03  0.1120E+03
    -22.544  0.0000E+00  0.0000E+00  0.1120E+03  0.1120E+03
    -22.303  0.0000E+00  0.0000E+00  0.1120E+03  0.1120E+03
    -22.063  0.0000E+00  0.0000E+00  0.1120E+03  0.1120E+03
    -21.822  0.0000E+00  0.0000E+00  0.1120E+03  0.1120E+03
    -21.581  0.0000E+00  0.0000E+00  0.1120E+03  0.1120E+03
    -21.340  0.0000E+00  0.0000E+00  0.1120E+03  0.1120E+03
    -21.099  0.0000E+00  0.0000E+00  0.1120E+03  0.1120E+03
    -20.858  0.0000E+00  0.0000E+00  0.1120E+03  0.1120E+03
    -20.617  0.0000E+00  0.0000E+00  0.1120E+03  0.1120E+03
    -20.376  0.0000E+00  0.0000E+00  0.1120E+03  0.1120E+03
    -20.136  0.0000E+00  0.0000E+00  0.1120E+03  0.1120E+03
    -19.895  0.0000E+00  0.0000E+00  0.1120E+03  0.1120E+03
    -19.654  0.0000E+00  0.0000E+00  0.1120E+03  0.1120E+03
    -19.413  0.0000E+00  0.0000E+00  0.1120E+03  0.1120E+03
    -19.172  0.0000E+00  0.0000E+00  0.1120E+03  0.1120E+03
    -18.931  0.0000E+00  0.0000E+00  0.1120E+03  0.1120E+03
    -18.690  0.0000E+00  0.0000E+00  0.1120E+03  0.1120E+03
    -18.449  0.0000E+00  0.0000E+00  0.1120E+03  0.1120E+03
    -18.208  0.0000E+00  0.0000E+00  0.1120E+03  0.1120E+03
    -17.968  0.0000E+00  0.0000E+00  0.1120E+03  0.1120E+03
    -17.727  0.0000E+00  0.0000E+00  0.1120E+03  0.1120E+03
    -17.486  0.0000E+00  0.0000E+00  0.1120E+03  0.1120E+03
    -17.245  0.0000E+00  0.0000E+00  0.1120E+03  0.1120E+03
    -17.004  0.0000E+00  0.0000E+00  0.1120E+03  0.1120E+03
    -16.763  0.0000E+00  0.0000E+00  0.1120E+03  0.1120E+03
    -16.522  0.0000E+00  0.0000E+00  0.1120E+03  0.1120E+03
    -16.281  0.0000E+00  0.0000E+00  0.1120E+03  0.1120E+03
    -16.041  0.0000E+00  0.0000E+00  0.1120E+03  0.1120E+03
    -15.800  0.0000E+00  0.0000E+00  0.1120E+03  0.1120E+03
    -15.559  0.0000E+00  0.0000E+00  0.1120E+03  0.1120E+03
    -15.318  0.0000E+00  0.0000E+00  0.1120E+03  0.1120E+03
    -15.077  0.0000E+00  0.0000E+00  0.1120E+03  0.1120E+03
    -14.836  0.0000E+00  0.0000E+00  0.1120E+03  0.1120E+03
    -14.595  0.0000E+00  0.0000E+00  0.1120E+03  0.1120E+03
    -14.354  0.0000E+00  0.0000E+00  0.1120E+03  0.1120E+03
    -14.114  0.0000E+00  0.0000E+00  0.1120E+03  0.1120E+03
    -13.873  0.0000E+00  0.0000E+00  0.1120E+03  0.1120E+03
    -13.632  0.0000E+00  0.0000E+00  0.1120E+03  0.1120E+03
    -13.391  0.2784E-05  0.0000E+00  0.1120E+03  0.1120E+03
    -13.150  0.2132E+02  0.0000E+00  0.1171E+03  0.1120E+03
    -12.909  0.4428E+02  0.2041E-01  0.1278E+03  0.1120E+03
    -12.668  0.8285E+00  0.4518E+02  0.1280E+03  0.1229E+03
    -12.427  0.0000E+00  0.2123E+02  0.1280E+03  0.1280E+03
    -12.186  0.0000E+00  0.0000E+00  0.1280E+03  0.1280E+03
    -11.946  0.0000E+00  0.0000E+00  0.1280E+03  0.1280E+03
    -11.705  0.0000E+00  0.0000E+00  0.1280E+03  0.1280E+03
    -11.464  0.0000E+00  0.0000E+00  0.1280E+03  0.1280E+03
    -11.223  0.0000E+00  0.0000E+00  0.1280E+03  0.1280E+03
    -10.982  0.0000E+00  0.0000E+00  0.1280E+03  0.1280E+03
    -10.741  0.0000E+00  0.0000E+00  0.1280E+03  0.1280E+03
    -10.500  0.0000E+00  0.0000E+00  0.1280E+03  0.1280E+03
    -10.259  0.0000E+00  0.0000E+00  0.1280E+03  0.1280E+03
    -10.019  0.0000E+00  0.0000E+00  0.1280E+03  0.1280E+03
     -9.778  0.0000E+00  0.0000E+00  0.1280E+03  0.1280E+03
     -9.537  0.0000E+00  0.0000E+00  0.1280E+03  0.1280E+03
     -9.296  0.0000E+00  0.0000E+00  0.1280E+03  0.1280E+03
     -9.055  0.0000E+00  0.0000E+00  0.1280E+03  0.1280E+03
     -8.814  0.0000E+00  0.0000E+00  0.1280E+03  0.1280E+03
     -8.573  0.0000E+00  0.0000E+00  0.1280E+03  0.1280E+03
     -8.332  0.0000E+00  0.0000E+00  0.1280E+03  0.1280E+03
     -8.091  0.0000E+00  0.0000E+00  0.1280E+03  0.1280E+03
     -7.851  0.5209E-09  0.0000E+00  0.1280E+03  0.1280E+03
     -7.610  0.8005E+00  0.1036E-09  0.1282E+03  0.1280E+03
     -7.369  0.1358E+02  0.7259E+00  0.1315E+03  0.1282E+03
     -7.128  0.3021E+02  0.1494E+02  0.1387E+03  0.1318E+03
     -6.887  0.3588E+02  0.2927E+02  0.1474E+03  0.1388E+03
     -6.646  0.1917E+02  0.2748E+02  0.1520E+03  0.1454E+03
     -6.405  0.3165E-05  0.2719E+02  0.1520E+03  0.1520E+03
     -6.164  0.0000E+00  0.2504E-01  0.1520E+03  0.1520E+03
     -5.924  0.0000E+00  0.0000E+00  0.1520E+03  0.1520E+03
     -5.683  0.0000E+00  0.0000E+00  0.1520E+03  0.1520E+03
     -5.442  0.0000E+00  0.0000E+00  0.1520E+03  0.1520E+03
     -5.201  0.0000E+00  0.0000E+00  0.1520E+03  0.1520E+03
     -4.960  0.0000E+00  0.0000E+00  0.1520E+03  0.1520E+03
     -4.719  0.0000E+00  0.0000E+00  0.1520E+03  0.1520E+03
     -4.478  0.0000E+00  0.0000E+00  0.1520E+03  0.1520E+03
     -4.237  0.0000E+00  0.0000E+00  0.1520E+03  0.1520E+03
     -3.997  0.0000E+00  0.0000E+00  0.1520E+03  0.1520E+03
     -3.756  0.0000E+00  0.0000E+00  0.1520E+03  0.1520E+03
     -3.515  0.0000E+00  0.0000E+00  0.1520E+03  0.1520E+03
     -3.274  0.0000E+00  0.0000E+00  0.1520E+03  0.1520E+03
     -3.033  0.0000E+00  0.0000E+00  0.1520E+03  0.1520E+03
     -2.792  0.0000E+00  0.0000E+00  0.1520E+03  0.1520E+03
     -2.551  0.0000E+00  0.0000E+00  0.1520E+03  0.1520E+03
     -2.310  0.0000E+00  0.0000E+00  0.1520E+03  0.1520E+03
     -2.069  0.1130E-03  0.0000E+00  0.1520E+03  0.1520E+03
     -1.829  0.1739E+02  0.0000E+00  0.1562E+03  0.1520E+03
     -1.588  0.1904E+02  0.0000E+00  0.1608E+03  0.1520E+03
     -1.347  0.1439E+02  0.0000E+00  0.1642E+03  0.1520E+03
     -1.106  0.1762E+02  0.0000E+00  0.1685E+03  0.1520E+03
     -0.865  0.4745E+02  0.0000E+00  0.1799E+03  0.1520E+03
     -0.624  0.5923E+02  0.5059E-05  0.1942E+03  0.1520E+03
     -0.383  0.3890E+02  0.5146E+01  0.2036E+03  0.1532E+03
     -0.142  0.6914E+02  0.2020E+02  0.2202E+03  0.1581E+03
      0.098  0.7316E+02  0.1235E+02  0.2378E+03  0.1611E+03
      0.339  0.7771E+02  0.1910E+02  0.2565E+03  0.1657E+03
      0.580  0.7031E+02  0.2980E+02  0.2735E+03  0.1729E+03
      0.821  0.5338E+02  0.3971E+02  0.2863E+03  0.1824E+03
      1.062  0.3611E+02  0.3722E+02  0.2950E+03  0.1914E+03
      1.303  0.3101E+02  0.3030E+02  0.3025E+03  0.1987E+03
      1.544  0.4489E+02  0.2102E+02  0.3133E+03  0.2038E+03
      1.785  0.4385E+02  0.2862E+02  0.3239E+03  0.2106E+03
      2.025  0.6946E+02  0.3785E+02  0.3406E+03  0.2198E+03
      2.266  0.5515E+02  0.2629E+02  0.3539E+03  0.2261E+03
      2.507  0.2747E+02  0.2720E+02  0.3605E+03  0.2327E+03
      2.748  0.4296E+02  0.3221E+02  0.3709E+03  0.2404E+03
      2.989  0.2804E+02  0.4494E+02  0.3776E+03  0.2512E+03
      3.230  0.8887E+01  0.4533E+02  0.3798E+03  0.2622E+03
      3.471  0.2929E+02  0.3026E+02  0.3868E+03  0.2694E+03
      3.712  0.2636E+02  0.1174E+02  0.3932E+03  0.2723E+03
      3.953  0.3143E+02  0.1939E+02  0.4007E+03  0.2769E+03
      4.193  0.3588E+02  0.5142E+02  0.4094E+03  0.2893E+03
      4.434  0.3644E+02  0.4596E+02  0.4182E+03  0.3004E+03
      4.675  0.2982E+02  0.1494E+02  0.4253E+03  0.3040E+03
      4.916  0.2532E+02  0.1384E-02  0.4314E+03  0.3040E+03
      5.157  0.2309E+01  0.0000E+00  0.4320E+03  0.3040E+03
      5.398  0.0000E+00  0.0000E+00  0.4320E+03  0.3040E+03
      5.639  0.0000E+00  0.0000E+00  0.4320E+03  0.3040E+03
      5.880  0.0000E+00  0.0000E+00  0.4320E+03  0.3040E+03
      6.120  0.0000E+00  0.3989E-08  0.4320E+03  0.3040E+03
      6.361  0.0000E+00  0.4950E+00  0.4320E+03  0.3041E+03
      6.602  0.0000E+00  0.4231E+01  0.4320E+03  0.3051E+03
      6.843  0.0000E+00  0.8207E+01  0.4320E+03  0.3071E+03
      7.084  0.1621E-13  0.2076E+02  0.4320E+03  0.3121E+03
      7.325  0.4590E-01  0.4509E+02  0.4320E+03  0.3230E+03
      7.566  0.1079E+00  0.5455E+02  0.4320E+03  0.3361E+03
      7.807  0.3363E+00  0.6264E+02  0.4321E+03  0.3512E+03
      8.047  0.6817E+00  0.6658E+02  0.4323E+03  0.3672E+03
      8.288  0.2356E+01  0.7087E+02  0.4328E+03  0.3843E+03
      8.529  0.2692E+01  0.5803E+02  0.4335E+03  0.3983E+03
      8.770  0.9066E+01  0.5894E+02  0.4357E+03  0.4125E+03
      9.011  0.1282E+02  0.4602E+02  0.4388E+03  0.4236E+03
      9.252  0.1332E+02  0.2843E+02  0.4420E+03  0.4304E+03
      9.493  0.1821E+02  0.8313E+01  0.4464E+03  0.4324E+03
      9.734  0.1593E+02  0.3372E+01  0.4502E+03  0.4332E+03
      9.975  0.1574E+02  0.8618E+01  0.4540E+03  0.4353E+03
     10.215  0.2249E+02  0.1899E+02  0.4594E+03  0.4399E+03
     10.456  0.1488E+02  0.1799E+02  0.4630E+03  0.4442E+03
     10.697  0.1512E+02  0.1762E+02  0.4666E+03  0.4485E+03
     10.938  0.1356E+02  0.2733E+02  0.4699E+03  0.4550E+03
     11.179  0.2077E+02  0.1899E+02  0.4749E+03  0.4596E+03
     11.420  0.2541E+02  0.2413E+02  0.4810E+03  0.4654E+03
     11.661  0.2667E+02  0.1408E+02  0.4875E+03  0.4688E+03
     11.902  0.2541E+02  0.1401E+02  0.4936E+03  0.4722E+03
     12.142  0.3266E+02  0.1667E+02  0.5014E+03  0.4762E+03
     12.383  0.1978E+02  0.3778E+02  0.5062E+03  0.4853E+03
     12.624  0.2310E+02  0.3226E+02  0.5118E+03  0.4931E+03
     12.865  0.2174E+02  0.2876E+02  0.5170E+03  0.5000E+03
     13.106  0.1963E+02  0.2018E+02  0.5217E+03  0.5049E+03
     13.347  0.2506E+02  0.2285E+02  0.5278E+03  0.5104E+03
     13.588  0.2332E+02  0.2736E+02  0.5334E+03  0.5170E+03
     13.829  0.1324E+02  0.2372E+02  0.5366E+03  0.5227E+03
     14.070  0.5916E+01  0.2599E+02  0.5380E+03  0.5289E+03
     14.310  0.4642E-03  0.1893E+02  0.5380E+03  0.5335E+03
     14.551  0.0000E+00  0.1621E+02  0.5380E+03  0.5374E+03
     14.792  0.0000E+00  0.2448E+01  0.5380E+03  0.5380E+03
     15.033  0.0000E+00  0.2235E-05  0.5380E+03  0.5380E+03
     15.274  0.0000E+00  0.0000E+00  0.5380E+03  0.5380E+03
     15.515  0.0000E+00  0.0000E+00  0.5380E+03  0.5380E+03
     15.756  0.0000E+00  0.0000E+00  0.5380E+03  0.5380E+03
     15.997  0.0000E+00  0.0000E+00  0.5380E+03  0.5380E+03
     16.237  0.0000E+00  0.0000E+00  0.5380E+03  0.5380E+03
     16.478  0.0000E+00  0.0000E+00  0.5380E+03  0.5380E+03
     16.719  0.0000E+00  0.0000E+00  0.5380E+03  0.5380E+03
     16.960  0.0000E+00  0.0000E+00  0.5380E+03  0.5380E+03
     17.201  0.0000E+00  0.0000E+00  0.5380E+03  0.5380E+03
     17.442  0.0000E+00  0.0000E+00  0.5380E+03  0.5380E+03
     17.683  0.0000E+00  0.0000E+00  0.5380E+03  0.5380E+03
     17.924  0.0000E+00  0.0000E+00  0.5380E+03  0.5380E+03
