   24   24    1    2
  0.1290685E+02  0.7551972E-09  0.4091263E-09  0.1040440E-08  0.5000000E-15
   1.0000000000000000E-004
  CAR 
 unknown system                          
    168     16    120

  0.1262379E-14  0.1262379E-14  0.1262379E-14  0.3333333E-01
    1      -56.376622    -49.733429   1.000000   1.000000
    2      -56.376406    -49.732841   1.000000   1.000000
    3      -56.336054    -49.687007   1.000000   1.000000
    4      -56.336014    -49.686694   1.000000   1.000000
    5      -56.192370    -49.685490   1.000000   1.000000
    6      -56.192322    -49.685042   1.000000   1.000000
    7      -54.918755    -49.621909   1.000000   1.000000
    8      -54.918382    -49.621478   1.000000   1.000000
    9      -54.819587    -49.616656   1.000000   1.000000
   10      -54.819528    -49.616630   1.000000   1.000000
   11      -54.785431    -49.608663   1.000000   1.000000
   12      -54.784918    -49.608224   1.000000   1.000000
   13      -54.783673    -49.514728   1.000000   1.000000
   14      -54.783526    -49.514412   1.000000   1.000000
   15      -54.469705    -49.337260   1.000000   1.000000
   16      -54.469662    -49.336979   1.000000   1.000000
   17      -54.302625    -49.143848   1.000000   1.000000
   18      -54.302597    -49.143814   1.000000   1.000000
   19      -43.879317    -43.871600   1.000000   1.000000
   20      -43.875732    -43.868118   1.000000   1.000000
   21      -43.612789    -43.614077   1.000000   1.000000
   22      -43.608182    -43.609470   1.000000   1.000000
   23      -43.326107    -43.330959   1.000000   1.000000
   24      -43.324119    -43.328974   1.000000   1.000000
   25      -43.271988    -43.272927   1.000000   1.000000
   26      -43.271489    -43.272435   1.000000   1.000000
   27      -16.330480    -15.837165   1.000000   1.000000
   28      -16.324052    -15.829827   1.000000   1.000000
   29      -15.158624    -14.921951   1.000000   1.000000
   30      -15.154194    -14.917311   1.000000   1.000000
   31       -9.691506     -9.374406   1.000000   1.000000
   32       -9.190730     -8.941002   1.000000   1.000000
   33       -9.097170     -8.763676   1.000000   1.000000
   34       -9.011789     -8.751670   1.000000   1.000000
   35       -8.975335     -8.645015   1.000000   1.000000
   36       -8.804411     -8.488633   1.000000   1.000000
   37       -2.347554     -1.321956   1.000000   1.000000
   38       -2.094972     -1.001621   1.000000   1.000000
   39       -1.919205     -0.791583   1.000000   1.000000
   40       -1.878053     -0.714576   1.000000   1.000000
   41       -1.801874     -0.556116   1.000000   1.000000
   42       -1.748619     -0.491018   1.000000   1.000000
   43       -1.704658     -0.259137   1.000000   1.000000
   44       -1.558146     -0.145606   1.000000   1.000000
   45       -1.308032     -0.115794   1.000000   1.000000
   46       -1.163384      0.100297   1.000000   1.000000
   47       -1.107324      0.237483   1.000000   1.000000
   48       -1.082127      0.338115   1.000000   1.000000
   49       -1.051708      0.404459   1.000000   1.000000
   50       -1.042189      0.408760   1.000000   1.000000
   51       -0.909753      0.421940   1.000000   1.000000
   52       -0.906441      1.177406   1.000000   1.000000
   53       -0.804971      1.691566   1.000000   1.000000
   54       -0.651865      1.794858   1.000000   1.000000
   55       -0.608285      1.918956   1.000000   1.000000
   56       -0.576295      2.029433   1.000000   1.000000
   57       -0.557760      2.085785   1.000000   1.000000
   58       -0.546781      2.184138   1.000000   1.000000
   59       -0.502659      2.248232   1.000000   1.000000
   60       -0.499705      2.292457   1.000000   1.000000
   61       -0.358943      2.375815   1.000000   1.000000
   62       -0.249873      2.390821   1.000000   1.000000
   63       -0.238742      2.681286   1.000000   1.000000
   64       -0.059044      3.169027   1.000000   1.000000
   65        0.061142      3.180608   1.000000   1.000000
   66        0.094634      3.231273   1.000000   1.000000
   67        0.097456      3.317883   1.000000   1.000000
   68        0.191399      3.468325   1.000000   1.000000
   69        0.239514      3.669312   1.000000   1.000000
   70        0.482181      3.734033   1.000000   1.000000
   71        0.596286      3.799637   1.000000   1.000000
   72        0.613558      3.990609   1.000000   1.000000
   73        0.701369      6.521629   1.000000   0.000000
   74        0.754101      6.982201   1.000000   0.000000
   75        0.926071      7.135650   1.000000   0.000000
   76        0.938592      7.214771   1.000000   0.000000
   77        1.000339      7.279739   1.000000   0.000000
   78        1.095568      7.513551   1.000000   0.000000
   79        1.258766      7.525894   1.000000   0.000000
   80        1.521108      7.534712   1.000000   0.000000
   81        1.725103      7.580793   1.000000   0.000000
   82        1.906480      7.989963   1.000000   0.000000
   83        2.095798      8.003547   1.000000   0.000000
   84        2.217421      8.048311   1.000000   0.000000
   85        2.542208      8.049935   1.000000   0.000000
   86        2.731125      8.220525   1.000000   0.000000
   87        2.822347      8.338205   1.000000   0.000000
   88        3.066113      8.410238   1.000000   0.000000
   89        3.073801      8.458496   1.000000   0.000000
   90        3.093631      8.586058   1.000000   0.000000
   91        3.156844      8.817362   1.000000   0.000000
   92        3.265084      8.956596   1.000000   0.000000
   93        3.413597      8.979718   1.000000   0.000000
   94        3.530709      9.101145   1.000000   0.000000
   95        3.728380      9.176352   1.000000   0.000000
   96        4.193596      9.400953   1.000000   0.000000
   97        8.040945      9.531596   0.000000   0.000000
   98        8.330373      9.674067   0.000000   0.000000
   99        9.083060      9.817070   0.000000   0.000000
  100        9.156780     10.147175   0.000000   0.000000
  101        9.351434     10.416125   0.000000   0.000000
  102        9.922648     10.491427   0.000000   0.000000
  103       10.118472     10.552104   0.000000   0.000000
  104       10.343633     11.221686   0.000000   0.000000
  105       10.608998     11.307422   0.000000   0.000000
  106       11.111144     11.648267   0.000000   0.000000
  107       11.255093     11.867193   0.000000   0.000000
  108       11.337188     11.975399   0.000000   0.000000
  109       11.362129     12.162925   0.000000   0.000000
  110       11.507906     12.298448   0.000000   0.000000
  111       11.683617     12.361790   0.000000   0.000000
  112       11.974718     12.762770   0.000000   0.000000
  113       12.538834     13.328323   0.000000   0.000000
  114       12.695238     13.476373   0.000000   0.000000
  115       12.808178     13.576648   0.000000   0.000000
  116       12.851990     13.677468   0.000000   0.000000
  117       13.148397     13.683187   0.000000   0.000000
  118       13.587169     14.265347   0.000000   0.000000
  119       14.294865     14.712665   0.000000   0.000000
  120       14.739087     14.984702   0.000000   0.000000

  0.3333333E+00  0.1263586E-14  0.1262777E-14  0.6666667E-01
    1      -56.376627    -49.733439   1.000000   1.000000
    2      -56.376412    -49.732838   1.000000   1.000000
    3      -56.336045    -49.686997   1.000000   1.000000
    4      -56.336025    -49.686705   1.000000   1.000000
    5      -56.192364    -49.685480   1.000000   1.000000
    6      -56.192338    -49.685040   1.000000   1.000000
    7      -54.918757    -49.621814   1.000000   1.000000
    8      -54.918385    -49.621527   1.000000   1.000000
    9      -54.819575    -49.616652   1.000000   1.000000
   10      -54.819543    -49.616634   1.000000   1.000000
   11      -54.785425    -49.608610   1.000000   1.000000
   12      -54.784935    -49.608278   1.000000   1.000000
   13      -54.783661    -49.514677   1.000000   1.000000
   14      -54.783542    -49.514487   1.000000   1.000000
   15      -54.469699    -49.337207   1.000000   1.000000
   16      -54.469677    -49.337046   1.000000   1.000000
   17      -54.302616    -49.143842   1.000000   1.000000
   18      -54.302606    -49.143826   1.000000   1.000000
   19      -43.879333    -43.871616   1.000000   1.000000
   20      -43.875761    -43.868146   1.000000   1.000000
   21      -43.612411    -43.613698   1.000000   1.000000
   22      -43.608614    -43.609902   1.000000   1.000000
   23      -43.326134    -43.330985   1.000000   1.000000
   24      -43.324139    -43.328993   1.000000   1.000000
   25      -43.272024    -43.272963   1.000000   1.000000
   26      -43.271514    -43.272459   1.000000   1.000000
   27      -16.328815    -15.835195   1.000000   1.000000
   28      -16.325109    -15.831033   1.000000   1.000000
   29      -15.157785    -14.921119   1.000000   1.000000
   30      -15.155570    -14.918797   1.000000   1.000000
   31       -9.590430     -9.275860   1.000000   1.000000
   32       -9.265491     -8.975905   1.000000   1.000000
   33       -9.100320     -8.838729   1.000000   1.000000
   34       -9.019549     -8.706997   1.000000   1.000000
   35       -8.982423     -8.671608   1.000000   1.000000
   36       -8.852898     -8.535952   1.000000   1.000000
   37       -2.322028     -1.112241   1.000000   1.000000
   38       -2.123818     -0.864027   1.000000   1.000000
   39       -1.869012     -0.689697   1.000000   1.000000
   40       -1.803506     -0.648442   1.000000   1.000000
   41       -1.789557     -0.561905   1.000000   1.000000
   42       -1.707132     -0.511322   1.000000   1.000000
   43       -1.562390     -0.371890   1.000000   1.000000
   44       -1.479924     -0.218731   1.000000   1.000000
   45       -1.333935      0.145631   1.000000   1.000000
   46       -1.218284      0.183180   1.000000   1.000000
   47       -1.192370      0.305782   1.000000   1.000000
   48       -1.131570      0.329783   1.000000   1.000000
   49       -1.107685      0.335602   1.000000   1.000000
   50       -0.908930      0.549826   1.000000   1.000000
   51       -0.843949      0.694091   1.000000   1.000000
   52       -0.809354      0.837666   1.000000   1.000000
   53       -0.716262      1.315239   1.000000   1.000000
   54       -0.707151      1.620558   1.000000   1.000000
   55       -0.677725      1.921585   1.000000   1.000000
   56       -0.621285      1.937404   1.000000   1.000000
   57       -0.617239      2.063950   1.000000   1.000000
   58       -0.505938      2.094503   1.000000   1.000000
   59       -0.488992      2.271944   1.000000   1.000000
   60       -0.474933      2.283172   1.000000   1.000000
   61       -0.323915      2.416829   1.000000   1.000000
   62       -0.218212      2.441880   1.000000   1.000000
   63       -0.096378      2.567776   1.000000   1.000000
   64       -0.068856      2.661568   1.000000   1.000000
   65       -0.031969      2.869099   1.000000   1.000000
   66        0.141606      2.963699   1.000000   1.000000
   67        0.194606      3.449577   1.000000   1.000000
   68        0.213459      3.539708   1.000000   1.000000
   69        0.234381      3.752941   1.000000   1.000000
   70        0.372266      3.842366   1.000000   1.000000
   71        0.486238      3.869259   1.000000   1.000000
   72        0.623824      3.981152   1.000000   1.000000
   73        0.655008      6.696297   1.000000   0.000000
   74        0.724645      7.146663   1.000000   0.000000
   75        0.872378      7.196701   1.000000   0.000000
   76        0.919166      7.239739   1.000000   0.000000
   77        1.005627      7.421364   1.000000   0.000000
   78        1.059610      7.449977   1.000000   0.000000
   79        1.358457      7.554120   1.000000   0.000000
   80        1.513300      7.602517   1.000000   0.000000
   81        1.783749      7.723438   1.000000   0.000000
   82        1.966279      7.734669   1.000000   0.000000
   83        2.118794      7.807118   1.000000   0.000000
   84        2.328538      8.000104   1.000000   0.000000
   85        2.414348      8.097820   1.000000   0.000000
   86        2.616461      8.216244   1.000000   0.000000
   87        2.678965      8.384345   1.000000   0.000000
   88        2.744331      8.406897   1.000000   0.000000
   89        2.810294      8.569485   1.000000   0.000000
   90        2.921535      8.648471   1.000000   0.000000
   91        2.984790      8.811797   1.000000   0.000000
   92        3.220403      9.037607   1.000000   0.000000
   93        3.541063      9.040195   1.000000   0.000000
   94        3.657368      9.126686   1.000000   0.000000
   95        3.692247      9.219101   1.000000   0.000000
   96        3.858093      9.541824   1.000000   0.000000
   97        8.666763      9.639981   0.000000   0.000000
   98        9.017592      9.711928   0.000000   0.000000
   99        9.218932      9.965054   0.000000   0.000000
  100        9.425698     10.218801   0.000000   0.000000
  101        9.748897     10.269473   0.000000   0.000000
  102       10.091271     10.580585   0.000000   0.000000
  103       10.195064     10.820601   0.000000   0.000000
  104       10.445070     11.338238   0.000000   0.000000
  105       10.616749     11.613834   0.000000   0.000000
  106       10.821363     11.908088   0.000000   0.000000
  107       11.357330     12.133769   0.000000   0.000000
  108       11.652662     12.359783   0.000000   0.000000
  109       11.912002     12.488873   0.000000   0.000000
  110       11.970180     12.601631   0.000000   0.000000
  111       11.996129     12.689431   0.000000   0.000000
  112       12.137213     12.784057   0.000000   0.000000
  113       12.201632     13.111862   0.000000   0.000000
  114       12.600588     13.346640   0.000000   0.000000
  115       12.838776     13.576567   0.000000   0.000000
  116       13.040260     13.695413   0.000000   0.000000
  117       13.603416     14.285745   0.000000   0.000000
  118       13.792707     14.330861   0.000000   0.000000
  119       13.827370     14.494248   0.000000   0.000000
  120       14.049303     14.736914   0.000000   0.000000

  0.1262106E-14  0.2000000E+00  0.1265184E-14  0.6666667E-01
    1      -56.377707    -49.733649   1.000000   1.000000
    2      -56.377532    -49.733157   1.000000   1.000000
    3      -56.335199    -49.687031   1.000000   1.000000
    4      -56.335169    -49.686786   1.000000   1.000000
    5      -56.192403    -49.685480   1.000000   1.000000
    6      -56.192357    -49.685055   1.000000   1.000000
    7      -54.919122    -49.621719   1.000000   1.000000
    8      -54.918818    -49.621293   1.000000   1.000000
    9      -54.819569    -49.616438   1.000000   1.000000
   10      -54.819517    -49.616381   1.000000   1.000000
   11      -54.785320    -49.608098   1.000000   1.000000
   12      -54.784885    -49.607648   1.000000   1.000000
   13      -54.783485    -49.514550   1.000000   1.000000
   14      -54.783384    -49.514217   1.000000   1.000000
   15      -54.469726    -49.337176   1.000000   1.000000
   16      -54.469688    -49.336906   1.000000   1.000000
   17      -54.302948    -49.143661   1.000000   1.000000
   18      -54.302922    -49.143637   1.000000   1.000000
   19      -43.878871    -43.871156   1.000000   1.000000
   20      -43.875999    -43.868366   1.000000   1.000000
   21      -43.612736    -43.614018   1.000000   1.000000
   22      -43.608021    -43.609302   1.000000   1.000000
   23      -43.326032    -43.330879   1.000000   1.000000
   24      -43.323977    -43.328825   1.000000   1.000000
   25      -43.271884    -43.272817   1.000000   1.000000
   26      -43.271388    -43.272326   1.000000   1.000000
   27      -16.252554    -15.763736   1.000000   1.000000
   28      -16.247471    -15.757901   1.000000   1.000000
   29      -15.075657    -14.847141   1.000000   1.000000
   30      -15.072706    -14.844155   1.000000   1.000000
   31       -9.610767     -9.299830   1.000000   1.000000
   32       -9.177347     -8.906362   1.000000   1.000000
   33       -9.047766     -8.733435   1.000000   1.000000
   34       -8.960548     -8.691558   1.000000   1.000000
   35       -8.919822     -8.588245   1.000000   1.000000
   36       -8.746330     -8.426388   1.000000   1.000000
   37       -2.643584     -1.455849   1.000000   1.000000
   38       -2.613908     -1.260821   1.000000   1.000000
   39       -2.322010     -1.203299   1.000000   1.000000
   40       -2.217668     -1.038488   1.000000   1.000000
   41       -1.941723     -0.889939   1.000000   1.000000
   42       -1.922844     -0.649577   1.000000   1.000000
   43       -1.843949     -0.553834   1.000000   1.000000
   44       -1.601924     -0.401012   1.000000   1.000000
   45       -1.573702     -0.052586   1.000000   1.000000
   46       -1.387612      0.032382   1.000000   1.000000
   47       -1.313078      0.177770   1.000000   1.000000
   48       -1.295330      0.193576   1.000000   1.000000
   49       -1.213975      0.278345   1.000000   1.000000
   50       -1.171861      0.438397   1.000000   1.000000
   51       -1.136191      0.567921   1.000000   1.000000
   52       -1.034877      0.772913   1.000000   1.000000
   53       -1.028629      1.073987   1.000000   1.000000
   54       -0.959868      1.368053   1.000000   1.000000
   55       -0.891755      1.498377   1.000000   1.000000
   56       -0.814864      1.784846   1.000000   1.000000
   57       -0.762064      1.868377   1.000000   1.000000
   58       -0.713866      2.078379   1.000000   1.000000
   59       -0.581104      2.153635   1.000000   1.000000
   60       -0.555747      2.261412   1.000000   1.000000
   61       -0.454824      2.326965   1.000000   1.000000
   62       -0.405074      2.448442   1.000000   1.000000
   63       -0.252845      2.586441   1.000000   1.000000
   64       -0.200313      2.637424   1.000000   1.000000
   65       -0.096649      2.953641   1.000000   1.000000
   66       -0.034575      3.044430   1.000000   1.000000
   67        0.092791      3.371323   1.000000   1.000000
   68        0.153806      3.447774   1.000000   1.000000
   69        0.544843      3.665543   1.000000   1.000000
   70        0.586341      3.813012   1.000000   1.000000
   71        0.639427      4.169035   1.000000   1.000000
   72        0.889743      4.187599   1.000000   1.000000
   73        0.944742      6.886793   1.000000   0.000000
   74        0.989404      7.070135   1.000000   0.000000
   75        1.074926      7.217373   1.000000   0.000000
   76        1.104051      7.423256   1.000000   0.000000
   77        1.107019      7.494218   1.000000   0.000000
   78        1.538644      7.539301   1.000000   0.000000
   79        1.606614      7.632322   1.000000   0.000000
   80        1.792592      7.756269   1.000000   0.000000
   81        1.959219      7.838369   1.000000   0.000000
   82        2.114351      7.871278   1.000000   0.000000
   83        2.138349      7.904705   1.000000   0.000000
   84        2.333564      8.121480   1.000000   0.000000
   85        2.369705      8.278421   1.000000   0.000000
   86        2.714832      8.308438   1.000000   0.000000
   87        2.773175      8.348795   1.000000   0.000000
   88        2.839055      8.516797   1.000000   0.000000
   89        2.983562      8.616497   1.000000   0.000000
   90        3.040334      8.664123   1.000000   0.000000
   91        3.146673      8.902900   1.000000   0.000000
   92        3.335156      8.956199   1.000000   0.000000
   93        3.454286      9.048047   1.000000   0.000000
   94        3.666097      9.099384   1.000000   0.000000
   95        3.888345      9.694871   1.000000   0.000000
   96        4.258972      9.997000   1.000000   0.000000
   97        8.831407     10.262996   0.000000   0.000000
   98        9.006062     10.517065   0.000000   0.000000
   99        9.621080     10.720158   0.000000   0.000000
  100        9.827703     10.775557   0.000000   0.000000
  101        9.921012     10.860954   0.000000   0.000000
  102       10.238248     10.998218   0.000000   0.000000
  103       10.341453     11.053535   0.000000   0.000000
  104       10.609064     11.185756   0.000000   0.000000
  105       10.731680     11.339563   0.000000   0.000000
  106       11.169085     11.709633   0.000000   0.000000
  107       11.522543     11.824793   0.000000   0.000000
  108       11.596223     12.231254   0.000000   0.000000
  109       11.737862     12.452289   0.000000   0.000000
  110       11.808041     12.685253   0.000000   0.000000
  111       12.100135     12.772650   0.000000   0.000000
  112       12.340209     13.094085   0.000000   0.000000
  113       12.478928     13.203932   0.000000   0.000000
  114       12.561987     13.249033   0.000000   0.000000
  115       12.603215     13.466768   0.000000   0.000000
  116       12.994887     13.527667   0.000000   0.000000
  117       13.335247     13.915790   0.000000   0.000000
  118       13.517415     13.977016   0.000000   0.000000
  119       13.600561     14.103137   0.000000   0.000000
  120       14.019856     14.308168   0.000000   0.000000

  0.3333333E+00  0.2000000E+00  0.1264004E-14  0.6666667E-01
    1      -56.377700    -49.733649   1.000000   1.000000
    2      -56.377534    -49.733154   1.000000   1.000000
    3      -56.335190    -49.687017   1.000000   1.000000
    4      -56.335170    -49.686784   1.000000   1.000000
    5      -56.192391    -49.685482   1.000000   1.000000
    6      -56.192366    -49.685052   1.000000   1.000000
    7      -54.919119    -49.621618   1.000000   1.000000
    8      -54.918817    -49.621341   1.000000   1.000000
    9      -54.819555    -49.616419   1.000000   1.000000
   10      -54.819527    -49.616395   1.000000   1.000000
   11      -54.785313    -49.608036   1.000000   1.000000
   12      -54.784897    -49.607705   1.000000   1.000000
   13      -54.783469    -49.514495   1.000000   1.000000
   14      -54.783398    -49.514289   1.000000   1.000000
   15      -54.469720    -49.337124   1.000000   1.000000
   16      -54.469695    -49.336969   1.000000   1.000000
   17      -54.302939    -49.143653   1.000000   1.000000
   18      -54.302926    -49.143640   1.000000   1.000000
   19      -43.878877    -43.871162   1.000000   1.000000
   20      -43.875997    -43.868363   1.000000   1.000000
   21      -43.612328    -43.613610   1.000000   1.000000
   22      -43.608438    -43.609720   1.000000   1.000000
   23      -43.326039    -43.330886   1.000000   1.000000
   24      -43.323967    -43.328815   1.000000   1.000000
   25      -43.271892    -43.272824   1.000000   1.000000
   26      -43.271390    -43.272328   1.000000   1.000000
   27      -16.250802    -15.761651   1.000000   1.000000
   28      -16.248440    -15.758981   1.000000   1.000000
   29      -15.075330    -14.846898   1.000000   1.000000
   30      -15.073774    -14.845326   1.000000   1.000000
   31       -9.496116     -9.186214   1.000000   1.000000
   32       -9.222465     -8.935316   1.000000   1.000000
   33       -9.097339     -8.809246   1.000000   1.000000
   34       -8.950821     -8.637230   1.000000   1.000000
   35       -8.901143     -8.599074   1.000000   1.000000
   36       -8.837709     -8.524026   1.000000   1.000000
   37       -2.650233     -1.389119   1.000000   1.000000
   38       -2.604717     -1.235971   1.000000   1.000000
   39       -2.334143     -1.058685   1.000000   1.000000
   40       -2.214554     -0.889939   1.000000   1.000000
   41       -1.952886     -0.711802   1.000000   1.000000
   42       -1.918283     -0.601656   1.000000   1.000000
   43       -1.575819     -0.525446   1.000000   1.000000
   44       -1.508919     -0.462468   1.000000   1.000000
   45       -1.443268     -0.179329   1.000000   1.000000
   46       -1.397754     -0.028308   1.000000   1.000000
   47       -1.334458      0.112491   1.000000   1.000000
   48       -1.312735      0.300142   1.000000   1.000000
   49       -1.278447      0.358739   1.000000   1.000000
   50       -1.160345      0.575295   1.000000   1.000000
   51       -1.135237      0.731223   1.000000   1.000000
   52       -1.090328      0.927121   1.000000   1.000000
   53       -1.018075      1.092462   1.000000   1.000000
   54       -0.880079      1.326001   1.000000   1.000000
   55       -0.856521      1.356398   1.000000   1.000000
   56       -0.826625      1.551180   1.000000   1.000000
   57       -0.768015      1.756092   1.000000   1.000000
   58       -0.694818      1.815526   1.000000   1.000000
   59       -0.670484      1.931727   1.000000   1.000000
   60       -0.596197      2.052614   1.000000   1.000000
   61       -0.538263      2.284454   1.000000   1.000000
   62       -0.462540      2.391523   1.000000   1.000000
   63       -0.202589      2.505448   1.000000   1.000000
   64       -0.117653      2.549850   1.000000   1.000000
   65        0.004613      2.616446   1.000000   1.000000
   66        0.087055      2.868873   1.000000   1.000000
   67        0.236163      3.564772   1.000000   1.000000
   68        0.324594      3.640691   1.000000   1.000000
   69        0.431603      3.706932   1.000000   1.000000
   70        0.564940      3.818271   1.000000   1.000000
   71        0.641176      4.134920   1.000000   1.000000
   72        0.680779      4.198440   1.000000   1.000000
   73        0.722111      6.956528   1.000000   0.000000
   74        0.941231      7.154270   1.000000   0.000000
   75        1.006913      7.396708   1.000000   0.000000
   76        1.019043      7.498227   1.000000   0.000000
   77        1.249780      7.555873   1.000000   0.000000
   78        1.530779      7.656394   1.000000   0.000000
   79        1.671129      7.724920   1.000000   0.000000
   80        1.818138      7.738025   1.000000   0.000000
   81        1.930749      7.840832   1.000000   0.000000
   82        2.088827      7.876052   1.000000   0.000000
   83        2.136272      7.973623   1.000000   0.000000
   84        2.310822      8.063228   1.000000   0.000000
   85        2.382343      8.169155   1.000000   0.000000
   86        2.479610      8.358017   1.000000   0.000000
   87        2.574580      8.441835   1.000000   0.000000
   88        2.739943      8.461426   1.000000   0.000000
   89        2.911049      8.533711   1.000000   0.000000
   90        3.083650      8.611391   1.000000   0.000000
   91        3.109922      8.801990   1.000000   0.000000
   92        3.253109      8.947639   1.000000   0.000000
   93        3.541746      9.182924   1.000000   0.000000
   94        3.644711      9.300358   1.000000   0.000000
   95        3.797137      9.552032   1.000000   0.000000
   96        3.970154     10.014566   1.000000   0.000000
   97        9.409596     10.423662   0.000000   0.000000
   98        9.593542     10.770462   0.000000   0.000000
   99        9.990311     10.839782   0.000000   0.000000
  100       10.237643     11.088822   0.000000   0.000000
  101       10.342498     11.166490   0.000000   0.000000
  102       10.499983     11.195995   0.000000   0.000000
  103       10.769564     11.330871   0.000000   0.000000
  104       10.921266     11.395123   0.000000   0.000000
  105       10.957146     11.660246   0.000000   0.000000
  106       11.331543     11.876794   0.000000   0.000000
  107       11.531493     12.172714   0.000000   0.000000
  108       11.600218     12.228612   0.000000   0.000000
  109       11.700683     12.412395   0.000000   0.000000
  110       11.950246     12.514982   0.000000   0.000000
  111       11.996221     12.868296   0.000000   0.000000
  112       12.145361     13.014512   0.000000   0.000000
  113       12.349007     13.045737   0.000000   0.000000
  114       12.397501     13.159054   0.000000   0.000000
  115       12.555922     13.357516   0.000000   0.000000
  116       12.765667     13.405652   0.000000   0.000000
  117       12.942657     13.486573   0.000000   0.000000
  118       13.086692     13.765003   0.000000   0.000000
  119       13.211892     14.035048   0.000000   0.000000
  120       13.475560     14.311636   0.000000   0.000000

 -0.3333333E+00  0.2000000E+00  0.1265321E-14  0.6666667E-01
    1      -56.377704    -49.733649   1.000000   1.000000
    2      -56.377533    -49.733154   1.000000   1.000000
    3      -56.335190    -49.687020   1.000000   1.000000
    4      -56.335177    -49.686784   1.000000   1.000000
    5      -56.192392    -49.685478   1.000000   1.000000
    6      -56.192366    -49.685057   1.000000   1.000000
    7      -54.919119    -49.621637   1.000000   1.000000
    8      -54.918821    -49.621326   1.000000   1.000000
    9      -54.819558    -49.616426   1.000000   1.000000
   10      -54.819528    -49.616391   1.000000   1.000000
   11      -54.785314    -49.608043   1.000000   1.000000
   12      -54.784897    -49.607697   1.000000   1.000000
   13      -54.783477    -49.514491   1.000000   1.000000
   14      -54.783391    -49.514294   1.000000   1.000000
   15      -54.469720    -49.337122   1.000000   1.000000
   16      -54.469697    -49.336973   1.000000   1.000000
   17      -54.302943    -49.143656   1.000000   1.000000
   18      -54.302925    -49.143641   1.000000   1.000000
   19      -43.878881    -43.871166   1.000000   1.000000
   20      -43.876000    -43.868367   1.000000   1.000000
   21      -43.612331    -43.613613   1.000000   1.000000
   22      -43.608443    -43.609725   1.000000   1.000000
   23      -43.326044    -43.330890   1.000000   1.000000
   24      -43.323971    -43.328819   1.000000   1.000000
   25      -43.271892    -43.272824   1.000000   1.000000
   26      -43.271398    -43.272336   1.000000   1.000000
   27      -16.251350    -15.762257   1.000000   1.000000
   28      -16.247915    -15.758398   1.000000   1.000000