 vasp.6.2.0 18Jan21 (build Feb  9 2021 11:43:09) complex                         
 executed on       CrayXC_GCC_OMP date 2021.04.30  10:38:36
 running  576 mpi-ranks, with    1 threads/rank
 distrk:  each k-point on   32 cores,   18 groups
 distr:  one band on NCORE=   8 cores,    4 groups


--------------------------------------------------------------------------------------------------------


 INCAR:
   AEXX = 0.25
   ALGO = all
   EDIFF = 2.4e-05
   ENCUT = 520
   GGA = pe
   HFSCREEN = 0.207
   ISIF = 3
   ISMEAR = 0
   ISPIN = 2
   KPAR = 18
   LASPH = .TRUE.
   LHFCALC = .TRUE.
   LMAXFOCK = 4
   LORBIT = 11
   LREAL = .FALSE.
   LVHAR = .TRUE.
   LWAVE = .TRUE.
   MAGMOM = 0.6 0.6 0.6 0.6 0.6 0.6 0.6 0.6 5 5 5 5 5 5 0.6 0.6 0.6 0.6 0.6 0.6 0.6 0.6 0.6 0.6
   NCORE = 8
   NEDOS = 2000
   NELM = 200
   NELMIN = 4
   NWRITE = 1
   PREC = accurate
   PRECFOCK = fast
   SIGMA = 0.05
   TIME = 0.3

 POTCAR:    PAW_PBE Li_sv 10Sep2004               
 POTCAR:    PAW_PBE Fe_pv 02Aug2007               
 POTCAR:    PAW_PBE S 06Sep2000                   
 POTCAR:    PAW_PBE O 08Apr2002                   
 POTCAR:    PAW_PBE Li_sv 10Sep2004               
  local pseudopotential read in
  atomic valenz-charges read in
  non local Contribution for L=           0  read in
    real space projection operators read in
  non local Contribution for L=           0  read in
    real space projection operators read in
  non local Contribution for L=           1  read in
    real space projection operators read in
    PAW grid and wavefunctions read in

   number of l-projection  operators is LMAX  =           3
   number of lm-projection operators is LMMAX =           5

 POTCAR:    PAW_PBE Fe_pv 02Aug2007               
  local pseudopotential read in
  partial core-charges read in
  partial kinetic energy density read in
  atomic valenz-charges read in
  non local Contribution for L=           1  read in
    real space projection operators read in
  non local Contribution for L=           1  read in
    real space projection operators read in
  non local Contribution for L=           2  read in
    real space projection operators read in
  non local Contribution for L=           2  read in
    real space projection operators read in
  non local Contribution for L=           0  read in
    real space projection operators read in
  non local Contribution for L=           0  read in
    real space projection operators read in
    PAW grid and wavefunctions read in

   number of l-projection  operators is LMAX  =           6
   number of lm-projection operators is LMMAX =          18

 POTCAR:    PAW_PBE S 06Sep2000                   
  local pseudopotential read in
  partial core-charges read in
  partial kinetic energy density read in
  atomic valenz-charges read in
  non local Contribution for L=           0  read in
    real space projection operators read in
  non local Contribution for L=           0  read in
    real space projection operators read in
  non local Contribution for L=           1  read in
    real space projection operators read in
  non local Contribution for L=           1  read in
    real space projection operators read in
    PAW grid and wavefunctions read in

   number of l-projection  operators is LMAX  =           4
   number of lm-projection operators is LMMAX =           8

 POTCAR:    PAW_PBE O 08Apr2002                   
  local pseudopotential read in
  partial core-charges read in
  partial kinetic energy density read in
  kinetic energy density of atom read in
  atomic valenz-charges read in
  non local Contribution for L=           0  read in
    real space projection operators read in
  non local Contribution for L=           0  read in
    real space projection operators read in
  non local Contribution for L=           1  read in
    real space projection operators read in
  non local Contribution for L=           1  read in
    real space projection operators read in
    PAW grid and wavefunctions read in

   number of l-projection  operators is LMAX  =           4
   number of lm-projection operators is LMMAX =           8

 -----------------------------------------------------------------------------
|                                                                             |
|               ----> ADVICE to this user running VASP <----                  |
|                                                                             |
|     You have a (more or less) 'large supercell' and for larger cells it     |
|     might be more efficient to use real-space projection operators.         |
|     Therefore, try LREAL= Auto in the INCAR file.                           |
|     Mind: For very accurate calculation, you might also keep the            |
|     reciprocal projection scheme (i.e. LREAL=.FALSE.).                      |
|                                                                             |
 -----------------------------------------------------------------------------

  PAW_PBE Li_sv 10Sep2004               :
 energy of atom  1       EATOM= -202.7858
 kinetic energy error for atom=    0.0130 (will be added to EATOM!!)
  PAW_PBE Fe_pv 02Aug2007               :
 energy of atom  2       EATOM=-2457.4239
 kinetic energy error for atom=    0.0062 (will be added to EATOM!!)
  PAW_PBE S 06Sep2000                   :
 energy of atom  3       EATOM= -276.8230
 kinetic energy error for atom=    0.0016 (will be added to EATOM!!)
  PAW_PBE O 08Apr2002                   :
 energy of atom  4       EATOM= -432.3788
 kinetic energy error for atom=    0.0208 (will be added to EATOM!!)


 POSCAR: # Compound: Li8Fe6S6O4. Old comment: Fe6
  positions in direct lattice
  No initial velocities read in
 exchange correlation table for  LEXCH =        8
   RHO(1)=    0.500       N(1)  =     2000
   RHO(2)=  100.500       N(2)  =     4000



--------------------------------------------------------------------------------------------------------


 ion  position               nearest neighbor table
   1  0.954  0.003  0.005-  23 1.92  22 2.02  16 2.55  16 2.55
   2  0.546  0.997  0.995-  21 1.92  24 2.02  16 2.55  16 2.55
   3  0.361  0.806  0.611-  21 1.98  17 2.46  19 2.63  19 2.63
   4  0.139  0.194  0.389-  23 1.98  19 2.46  17 2.63  17 2.63
   5  0.217  0.921  0.843-  21 1.87  22 1.97  15 2.58  15 2.58
   6  0.686  0.888  0.776-  21 1.87  22 1.97  20 2.50  20 2.50
   7  0.283  0.079  0.157-  23 1.87  24 1.97  15 2.58  15 2.58
   8  0.814  0.112  0.224-  23 1.87  24 1.97  18 2.50  18 2.50
   9  0.931  0.801  0.603-  22 2.06  18 2.37  19 2.60  19 2.60
  10  0.569  0.199  0.397-  24 2.06  20 2.37  17 2.60  17 2.60
  11  0.446  0.400  0.801-  21 2.05  21 2.05  19 2.58  20 2.61  15 2.73  16 2.77
  12  0.955  0.407  0.815-  22 2.05  22 2.05  19 2.57  20 2.59  15 2.64  16 2.66
  13  0.054  0.600  0.199-  23 2.05  23 2.05  17 2.58  18 2.61  15 2.73  16 2.77
  14  0.545  0.593  0.185-  24 2.05  24 2.05  17 2.57  18 2.59  15 2.64  16 2.66
  15  0.250  0.500  0.000-   5 2.58   7 2.58   7 2.58   5 2.58  14 2.64  12 2.64  11 2.73  13 2.73

  16  0.750  0.500  0.000-   1 2.55   2 2.55   2 2.55   1 2.55  14 2.66  12 2.66  11 2.77  13 2.77

  17  0.352  0.684  0.369-   3 2.46  14 2.57  13 2.58  10 2.60  10 2.60   4 2.63   4 2.63
  18  0.832  0.684  0.368-   9 2.37   8 2.50   8 2.50  14 2.59  13 2.61
  19  0.148  0.316  0.631-   4 2.46  12 2.57  11 2.58   9 2.60   9 2.60   3 2.63   3 2.63
  20  0.668  0.316  0.632-  10 2.37   6 2.50   6 2.50  12 2.59  11 2.61
  21  0.451  0.903  0.807-   6 1.87   5 1.87   2 1.92   3 1.98  11 2.05  11 2.05
  22  0.952  0.904  0.807-   5 1.97   6 1.97   1 2.02  12 2.05  12 2.05   9 2.06
  23  0.049  0.097  0.193-   8 1.87   7 1.87   1 1.92   4 1.98  13 2.05  13 2.05
  24  0.548  0.096  0.193-   7 1.97   8 1.97   2 2.02  14 2.05  14 2.05  10 2.06

  LATTYP: Found a base centered monoclinic cell.
 ALAT       =    20.4026373785
 B/A-ratio  =     0.2005261879
 C/A-ratio  =     0.3701468609
 COS(beta)  =    -0.1847673325
  
  Lattice vectors:
  
 A1 = (  -0.1466724200,   3.8629105100,   9.6596025300)
 A2 = (  -0.0092337000,  -0.1578620200,  10.4031969000)
 A3 = (   7.4282012600,   0.0020899400,  -1.3616554200)


Analysis of symmetry for initial positions (statically):
=====================================================================
 Subroutine PRICEL returns:
 Original cell was already a primitive cell.
 

 Routine SETGRP: Setting up the symmetry group for a 
 base centered monoclinic supercell.


 Subroutine GETGRP returns: Found  4 space group operations
 (whereof  2 operations were pure point group operations)
 out of a pool of  4 trial point group operations.


The static configuration has the point symmetry C_1h.
 The point group associated with its full space group is C_2h.


Analysis of symmetry for dynamics (positions and initial velocities):
=====================================================================
 Subroutine PRICEL returns:
 Original cell was already a primitive cell.
 

 Routine SETGRP: Setting up the symmetry group for a 
 base centered monoclinic supercell.


 Subroutine GETGRP returns: Found  4 space group operations
 (whereof  2 operations were pure point group operations)
 out of a pool of  4 trial point group operations.


The dynamic configuration has the point symmetry C_1h.
 The point group associated with its full space group is C_2h.


Analysis of structural, dynamic, and magnetic symmetry:
=====================================================================
 Subroutine PRICEL returns:
 Original cell was already a primitive cell.
 

 Routine SETGRP: Setting up the symmetry group for a 
 base centered monoclinic supercell.


 Subroutine GETGRP returns: Found  4 space group operations
 (whereof  2 operations were pure point group operations)
 out of a pool of  4 trial point group operations.


The overall configuration has the point symmetry C_1h.
 The point group associated with its full space group is C_2h.


 Subroutine INISYM returns: Found  4 space group operations
 (whereof  2 operations are pure point group operations),
 and found     1 'primitive' translations


----------------------------------------------------------------------------------------

                                     Primitive cell                                     

  volume of cell :     309.7643

  direct lattice vectors                    reciprocal lattice vectors
     7.428201260  0.002089940 -1.361655420     0.134655598  0.004637939  0.000189896
    -0.137438720  4.020772530 -0.743594370     0.000623737  0.249429828  0.003785496
    -0.009233700 -0.157862020 10.403196900     0.017669408  0.018435669  0.096419731

  length of vectors
     7.551972180  4.091263097 10.404398657     0.134735580  0.249459331  0.099743904

  position of ions in fractional coordinates (direct lattice)
     0.953746470  0.002694670  0.005389350
     0.546253530  0.997305330  0.994610650
     0.360785140  0.805639640  0.611279280
     0.139214860  0.194360360  0.388720720
     0.217045230  0.921328440  0.842656890
     0.686401910  0.887846980  0.775693970
     0.282954770  0.078671560  0.157343110
     0.813598090  0.112153020  0.224306030
     0.931373020  0.801386770  0.602773560
     0.568626980  0.198613230  0.397226440
     0.446207950  0.400496450  0.800992880
     0.955232890  0.407270550  0.814541100
     0.053792050  0.599503550  0.199007120
     0.544767110  0.592729450  0.185458900
     0.250000000  0.500000000  0.000000000
     0.750000000  0.500000000  0.000000000
     0.352222900  0.684360760  0.368721530
     0.832408980  0.683927700  0.367855410
     0.147777100  0.315639240  0.631278470
     0.667591020  0.316072300  0.632144590
     0.450514260  0.903270110  0.806540200
     0.952126880  0.903709810  0.807419610
     0.049485740  0.096729890  0.193459800
     0.547873120  0.096290190  0.192580390

  ion indices of the primitive-cell ions
   primitive index   ion index
                 1           1
                 2           2
                 3           3
                 4           4
                 5           5
                 6           6
                 7           7
                 8           8
                 9           9
                10          10
                11          11
                12          12
                13          13
                14          14
                15          15
                16          16
                17          17
                18          18
                19          19
                20          20
                21          21
                22          22
                23          23
                24          24

----------------------------------------------------------------------------------------



 KPOINTS: # No comment                            

Automatic generation of k-mesh.
 Grid dimensions read from file:
 generate k-points for:    3    5    2

 Generating k-lattice:

  Cartesian coordinates                     Fractional coordinates (reciprocal lattice)
     0.044885199  0.001545980  0.000063299     0.333333333  0.000000000  0.000000000
     0.000124747  0.049885966  0.000757099    -0.000000000  0.200000000 -0.000000000
     0.008834704  0.009217834  0.048209865     0.000000000 -0.000000000  0.500000000

  Length of vectors
     0.044911860  0.049891866  0.049871952

  Shift w.r.t. Gamma in fractional coordinates (k-lattice)
     0.000000000  0.000000000  0.000000000

 -----------------------------------------------------------------------------
|                                                                             |
|           W    W    AA    RRRRR   N    N  II  N    N   GGGG   !!!           |
|           W    W   A  A   R    R  NN   N  II  NN   N  G    G  !!!           |
|           W    W  A    A  R    R  N N  N  II  N N  N  G       !!!           |
|           W WW W  AAAAAA  RRRRR   N  N N  II  N  N N  G  GGG   !            |
|           WW  WW  A    A  R   R   N   NN  II  N   NN  G    G                |
|           W    W  A    A  R    R  N    N  II  N    N   GGGG   !!!           |
|                                                                             |
|     Your reciprocal lattice and k-lattice belong to different lattice       |
|     classes:                                                                |
|                                                                             |
|        The reciprocal lattice is base-centered monoclinic,                  |
|        whereas your k-lattice is triclinic.                                 |
|                                                                             |
|     Results are often still useful ...                                      |
|                                                                             |
 -----------------------------------------------------------------------------

 WARNING: IBZKPT: internal override: KBLOWUP is changed to .FALSE.
      ... skipping the blow-up phase ...

 
 Subroutine IBZKPT returns following result:
 ===========================================
 
 Found     16 irreducible k-points:
 
 Following reciprocal coordinates:
            Coordinates               Weight
  0.000000  0.000000  0.000000      1.000000
  0.333333  0.000000  0.000000      2.000000
  0.000000  0.200000  0.000000      2.000000
  0.333333  0.200000  0.000000      2.000000
 -0.333333  0.200000  0.000000      2.000000
  0.000000  0.400000  0.000000      2.000000
  0.333333  0.400000  0.000000      2.000000
 -0.333333  0.400000  0.000000      2.000000
  0.000000  0.000000  0.500000      1.000000
  0.333333  0.000000  0.500000      2.000000
  0.000000  0.200000  0.500000      2.000000
  0.333333  0.200000  0.500000      2.000000
 -0.333333  0.200000  0.500000      2.000000
  0.000000  0.400000  0.500000      2.000000
  0.333333  0.400000  0.500000      2.000000
 -0.333333  0.400000  0.500000      2.000000
 
 Following cartesian coordinates:
            Coordinates               Weight
  0.000000  0.000000  0.000000      1.000000
  0.044885  0.001546  0.000063      2.000000
  0.000125  0.049886  0.000757      2.000000
  0.045010  0.051432  0.000820      2.000000
 -0.044760  0.048340  0.000694      2.000000
  0.000249  0.099772  0.001514      2.000000
  0.045135  0.101318  0.001577      2.000000
 -0.044636  0.098226  0.001451      2.000000
  0.008835  0.009218  0.048210      1.000000
  0.053720  0.010764  0.048273      2.000000
  0.008959  0.059104  0.048967      2.000000
  0.053845  0.060650  0.049030      2.000000
 -0.035926  0.057558  0.048904      2.000000
  0.009084  0.108990  0.049724      2.000000
  0.053969  0.110536  0.049787      2.000000
 -0.035801  0.107444  0.049661      2.000000
 
 WARNING: full set of k-points will be restricted to regular points only.

 
 Subroutine IBZKPT_HF returns following result:
 ==============================================
 
 Found     30 k-points in 1st BZ
 the following     30 k-points will be used (e.g. in the exchange kernel)
 Following reciprocal coordinates:   # in IRBZ
  0.000000  0.000000  0.000000    0.03333333   1 t-inv F
  0.333333  0.000000  0.000000    0.03333333   2 t-inv F
  0.000000  0.200000  0.000000    0.03333333   3 t-inv F
  0.333333  0.200000  0.000000    0.03333333   4 t-inv F
 -0.333333  0.200000  0.000000    0.03333333   5 t-inv F
  0.000000  0.400000  0.000000    0.03333333   6 t-inv F
  0.333333  0.400000  0.000000    0.03333333   7 t-inv F
 -0.333333  0.400000  0.000000    0.03333333   8 t-inv F
  0.000000  0.000000  0.500000    0.03333333   9 t-inv F
  0.333333  0.000000  0.500000    0.03333333  10 t-inv F
  0.000000  0.200000  0.500000    0.03333333  11 t-inv F
  0.333333  0.200000  0.500000    0.03333333  12 t-inv F
 -0.333333  0.200000  0.500000    0.03333333  13 t-inv F
  0.000000  0.400000  0.500000    0.03333333  14 t-inv F
  0.333333  0.400000  0.500000    0.03333333  15 t-inv F
 -0.333333  0.400000  0.500000    0.03333333  16 t-inv F
 -0.333333 -0.000000 -0.000000    0.03333333   2 t-inv F
 -0.000000 -0.200000 -0.000000    0.03333333   3 t-inv F
 -0.333333 -0.200000 -0.000000    0.03333333   4 t-inv F
  0.333333 -0.200000 -0.000000    0.03333333   5 t-inv F
 -0.000000 -0.400000 -0.000000    0.03333333   6 t-inv F
 -0.333333 -0.400000 -0.000000    0.03333333   7 t-inv F
  0.333333 -0.400000 -0.000000    0.03333333   8 t-inv F
 -0.333333 -0.000000 -0.500000    0.03333333  10 t-inv F
 -0.000000 -0.200000 -0.500000    0.03333333  11 t-inv F
 -0.333333 -0.200000 -0.500000    0.03333333  12 t-inv F
  0.333333 -0.200000 -0.500000    0.03333333  13 t-inv F
 -0.000000 -0.400000 -0.500000    0.03333333  14 t-inv F
 -0.333333 -0.400000 -0.500000    0.03333333  15 t-inv F
  0.333333 -0.400000 -0.500000    0.03333333  16 t-inv F


--------------------------------------------------------------------------------------------------------




 Dimension of arrays:
   k-points           NKPTS =     16   k-points in BZ     NKDIM =     30   number of bands    NBANDS=    120
   number of dos      NEDOS =   2000   number of ions     NIONS =     24
   non local maximal  LDIM  =      6   non local SUM 2l+1 LMDIM =     18
   total plane-waves  NPLWV = 134400
   max r-space proj   IRMAX =      1   max aug-charges    IRDMAX=  13867
   dimension x,y,z NGX =    56 NGY =   30 NGZ =   80
   dimension x,y,z NGXF=   112 NGYF=   60 NGZF=  160
   support grid    NGXF=   112 NGYF=   60 NGZF=  160
   ions per type =               8   6   6   4
   NGX,Y,Z   is equivalent  to a cutoff of  12.33, 12.19, 12.78 a.u.
   NGXF,Y,Z  is equivalent  to a cutoff of  24.66, 24.38, 25.57 a.u.

 SYSTEM =  unknown system                          
 POSCAR =  # Compound: Li8Fe6S6O4. Old comment: Fe6

 Startparameter for this run:
   NWRITE =      1    write-flag & timer
   PREC   = accura    normal or accurate (medium, high low for compatibility)
   ISTART =      1    job   : 0-new  1-cont  2-samecut
   ICHARG =      0    charge: 1-file 2-atom 10-const
   ISPIN  =      2    spin polarized calculation?
   LNONCOLLINEAR =      F non collinear calculations
   LSORBIT =      F    spin-orbit coupling
   INIWAV =      1    electr: 0-lowe 1-rand  2-diag
   LASPH  =      T    aspherical Exc in radial PAW
   METAGGA=      F    non-selfconsistent MetaGGA calc.

 Electronic Relaxation 1
   ENCUT  =  520.0 eV  38.22 Ry    6.18 a.u.  14.04  7.61 19.35*2*pi/ulx,y,z
   ENINI  =  520.0     initial cutoff
   ENAUG  =  628.9 eV  augmentation charge cutoff
   NELM   =    200;   NELMIN=  4; NELMDL=  0     # of ELM steps 
   EDIFF  = 0.2E-04   stopping-criterion for ELM
   LREAL  =      F    real-space projection
   NLSPLINE    = F    spline interpolate recip. space projectors
   LCOMPAT=      F    compatible to vasp.4.4
   GGA_COMPAT  = T    GGA compatible to vasp.4.4-vasp.4.6
   LMAXPAW     = -100 max onsite density
   LMAXMIX     =    2 max onsite mixed and CHGCAR
   VOSKOWN=      0    Vosko Wilk Nusair interpolation
   ROPT   =    0.00000   0.00000   0.00000   0.00000
 Ionic relaxation
   EDIFFG = 0.2E-03   stopping-criterion for IOM
   NSW    =      0    number of steps for IOM
   NBLOCK =      1;   KBLOCK =      1    inner block; outer block 
   IBRION =     -1    ionic relax: 0-MD 1-quasi-New 2-CG
   NFREE  =      0    steps in history (QN), initial steepest desc. (CG)
   ISIF   =      3    stress and relaxation
   IWAVPR =     10    prediction:  0-non 1-charg 2-wave 3-comb
   ISYM   =      3    0-nonsym 1-usesym 2-fastsym
   LCORR  =      T    Harris-Foulkes like correction to forces

   POTIM  = 0.5000    time-step for ionic-motion
   TEIN   =    0.0    initial temperature
   TEBEG  =    0.0;   TEEND  =   0.0 temperature during run
   SMASS  =  -3.00    Nose mass-parameter (am)
   estimated Nose-frequenzy (Omega)   =  0.10E-29 period in steps = 0.13E+47 mass=  -0.130E-26a.u.
   SCALEE = 1.0000    scale energy and forces
   NPACO  =    256;   APACO  = 16.0  distance and # of slots for P.C.
   PSTRESS=    0.0 pullay stress

  Mass of Ions in am
   POMASS =   7.01 55.85 32.07 16.00
  Ionic Valenz
   ZVAL   =   3.00 14.00  6.00  6.00
  Atomic Wigner-Seitz radii
   RWIGS  =  -1.00 -1.00 -1.00 -1.00
  virtual crystal weights 
   VCA    =   1.00  1.00  1.00  1.00
   NELECT =     168.0000    total number of electrons
   NUPDOWN=      -1.0000    fix difference up-down

 DOS related values:
   EMIN   =  10.00;   EMAX   =-10.00  energy-range for DOS
   EFERMI =   0.00
   ISMEAR =     0;   SIGMA  =   0.05  broadening in eV -4-tet -1-fermi 0-gaus

 Electronic relaxation 2 (details)
   IALGO  =     58    algorithm
   LDIAG  =      T    sub-space diagonalisation (order eigenvalues)
   LSUBROT=      F    optimize rotation matrix (better conditioning)
   TURBO    =      0    0=normal 1=particle mesh
   IRESTART =      0    0=no restart 2=restart with 2 vectors
   NREBOOT  =      0    no. of reboots
   NMIN     =      0    reboot dimension
   EREF     =   0.00    reference energy to select bands
   IMIX   =      4    mixing-type and parameters
     AMIX     =   0.40;   BMIX     =  1.00
     AMIX_MAG =   1.60;   BMIX_MAG =  1.00
     AMIN     =   0.10
     WC   =   100.;   INIMIX=   1;  MIXPRE=   1;  MAXMIX= -45

 Intra band minimization:
   WEIMIN = 0.0000     energy-eigenvalue tresh-hold
   EBREAK =  0.50E-07  absolut break condition
   DEPER  =   0.30     relativ break condition  

   TIME   =   0.30     timestep for ELM

  volume/ion in A,a.u.               =      12.91        87.10
  Fermi-wavevector in a.u.,A,eV,Ry     =   1.335060  2.522898 24.250823  1.782385
  Thomas-Fermi vector in A             =   2.463793

 Write flags
   LWAVE        =      T    write WAVECAR
   LDOWNSAMPLE  =      F    k-point downsampling of WAVECAR
   LCHARG       =      T    write CHGCAR
   LVTOT        =      F    write LOCPOT, total local potential
   LVHAR        =      T    write LOCPOT, Hartree potential only
   LELF         =      F    write electronic localiz. function (ELF)
   LORBIT       =     11    0 simple, 1 ext, 2 COOP (PROOUT), +10 PAW based schemes


 Dipole corrections
   LMONO  =      F    monopole corrections only (constant potential shift)
   LDIPOL =      F    correct potential (dipole corrections)
   IDIPOL =      0    1-x, 2-y, 3-z, 4-all directions 
   EPSILON=  1.0000000 bulk dielectric constant

 Exchange correlation treatment:
   GGA     =    PE    GGA type
   LEXCH   =     8    internal setting for exchange type
   VOSKOWN=      0    Vosko Wilk Nusair interpolation
   EXXOEP  =     0    0=HF, 1=EXX-LHF (local Hartree Fock) 2=EXX OEP
   LHFCALC =     T    Hartree Fock is set to
   LSYMGRAD=     F    symmetrize gradient (conserves proper symmetry)
   PRECFOCK=fast      Normal, Fast or Accurate (Low or Medium for compatibility)
   LRHFCALC=     F    long range Hartree Fock
   LRSCOR  =     F    long range correlation only (use DFT for short range part)
   LTHOMAS =     F    Thomas Fermi screening in HF
   LMODELHF=     F    short range full HF, long range fraction AEXX
   LFOCKACE=     T    use Adeptively-Compressed-Exchange operator
   ENCUT4O =  -1.0   cutoff for four orbital integrals eV
   LMAXFOCK=     4    L truncation for augmentation on plane wave grid
   LMAXFOCKAE=  -1    L truncation for all-electron charge restoration on plane wave grid
   NMAXFOCKAE=   1    number of basis functions for all-electron charge restoration
   LFOCKAEDFT=     F  apply the AE augmentation even for DFT
   NKREDX  =     1    reduce k-point grid by
   NKREDY  =     1    reduce k-point grid by
   NKREDZ  =     1    reduce k-point grid by
   SHIFTRED=     F    shift reduced grid of Gamma
   HFKIDENT=     F    idential grid for each k-point
   ODDONLY =     F    use only odd q-grid points
   EVENONLY=     F    use only even q-grid points
   HFALPHA =   -1.0000 decay constant for conv. correction
   MCALPHA =    0.0000 extent of test-charge in conv. correction in multipole expansion
   AEXX    =    0.2500 exact exchange contribution
   HFSCREEN=    0.2070 screening length (either q_TF or 0.3 A-1)
   HFSCREENC=   0.2070 screening length for correlation (either q_TF or 0.3 A-1)
   HFRCUT  =    0.0000 spherical cutoff for potential kernel
   ALDAX   =    0.7500 LDA exchange part
   AGGAX   =    0.7500 GGA exchange part
   ALDAC   =    1.0000 LDA correlation
   AGGAC   =    1.0000 GGA correlation
   ENCUTFOCK=  -1.0 apply spherical cutoff to Coloumb kernel
   NBANDSGWLOW=     1    first orbital included in HF term
   NBLOCK_FOCK=    64    blocking factor in FOCK_ACC
 Linear response parameters
   LEPSILON=     F    determine dielectric tensor
   LRPA    =     F    only Hartree local field effects (RPA)
   LNABLA  =     F    use nabla operator in PAW spheres
   LVEL    =     F    velocity operator in full k-point grid
   LINTERFAST=   F  fast interpolation
   KINTER  =     0    interpolate to denser k-point grid
   CSHIFT  =0.1000    complex shift for real part using Kramers Kronig
   OMEGAMAX=  -1.0    maximum frequency
   DEG_THRESHOLD= 0.2000000E-02 threshold for treating states as degnerate
   RTIME   =   -0.100 relaxation time in fs
  (WPLASMAI=    0.000 imaginary part of plasma frequency in eV, 0.658/RTIME)
   DFIELD  = 0.0000000 0.0000000 0.0000000 field for delta impulse in time

 Orbital magnetization related:
   ORBITALMAG=     F  switch on orbital magnetization
   LCHIMAG   =     F  perturbation theory with respect to B field
   DQ        =  0.001000  dq finite difference perturbation B field
   LLRAUG    =     F  two centre corrections for induced B field



--------------------------------------------------------------------------------------------------------


 Static calculation
 charge density and potential will be updated during run
 spin polarized calculation
 Conjugate gradient for all bands (Freysoldt, et al. PRB 79, 241103 (2009))
 preconditioned conjugated gradient                                        
 perform sub-space diagonalisation
    before iterative eigenvector-optimisation
 modified Broyden-mixing scheme, WC =      100.0
 initial mixing is a Kerker type mixing with AMIX =  0.4000 and BMIX =      1.0000
 Hartree-type preconditioning will be used
 using additional bands           36
 reciprocal scheme for non local part
 use partial core corrections
 no Harris-corrections to forces 
 use gradient corrections 
 use of overlap-Matrix (Vanderbilt PP)
 Gauss-broadening in eV      SIGMA  =   0.05


--------------------------------------------------------------------------------------------------------


  energy-cutoff  :      520.00
  volume of cell :      309.76
      direct lattice vectors                 reciprocal lattice vectors
     7.428201260  0.002089940 -1.361655420     0.134655598  0.004637939  0.000189896
    -0.137438720  4.020772530 -0.743594370     0.000623737  0.249429828  0.003785496
    -0.009233700 -0.157862020 10.403196900     0.017669408  0.018435669  0.096419731

  length of vectors
     7.551972180  4.091263097 10.404398657     0.134735580  0.249459331  0.099743904



 old parameters found on file WAVECAR:
  energy-cutoff  :      520.00
  volume of cell :      309.32
      direct lattice vectors                 reciprocal lattice vectors
     7.429010240  0.002223810 -1.361081090     0.134639268  0.004635797  0.000181331
    -0.137261160  4.015578010 -0.742633700     0.000610614  0.249742855  0.003740880
    -0.008643580 -0.155758540 10.399921100     0.017664406  0.018440251  0.096445435

  length of vectors


 k-points in units of 2pi/SCALE and weight: # No comment                            
   0.00000000  0.00000000  0.00000000       0.033
   0.04488520  0.00154598  0.00006330       0.067
   0.00012475  0.04988597  0.00075710       0.067
   0.04500995  0.05143195  0.00082040       0.067
  -0.04476045  0.04833999  0.00069380       0.067
   0.00024949  0.09977193  0.00151420       0.067
   0.04513469  0.10131791  0.00157750       0.067
  -0.04463570  0.09822595  0.00145090       0.067
   0.00883470  0.00921783  0.04820987       0.033
   0.05371990  0.01076381  0.04827316       0.067
   0.00895945  0.05910380  0.04896696       0.067
   0.05384465  0.06064978  0.04903026       0.067
  -0.03592575  0.05755782  0.04890367       0.067
   0.00908420  0.10898977  0.04972406       0.067
   0.05396940  0.11053575  0.04978736       0.067
  -0.03580100  0.10744379  0.04966077       0.067

 k-points in reciprocal lattice and weights: # No comment                            
   0.00000000  0.00000000  0.00000000       0.033
   0.33333333  0.00000000  0.00000000       0.067
   0.00000000  0.20000000  0.00000000       0.067
   0.33333333  0.20000000  0.00000000       0.067
  -0.33333333  0.20000000  0.00000000       0.067
   0.00000000  0.40000000  0.00000000       0.067
   0.33333333  0.40000000  0.00000000       0.067
  -0.33333333  0.40000000  0.00000000       0.067
   0.00000000  0.00000000  0.50000000       0.033
   0.33333333  0.00000000  0.50000000       0.067
   0.00000000  0.20000000  0.50000000       0.067
   0.33333333  0.20000000  0.50000000       0.067
  -0.33333333  0.20000000  0.50000000       0.067
   0.00000000  0.40000000  0.50000000       0.067
   0.33333333  0.40000000  0.50000000       0.067
  -0.33333333  0.40000000  0.50000000       0.067

 position of ions in fractional coordinates (direct lattice) 
   0.95374647  0.00269467  0.00538935
   0.54625353  0.99730533  0.99461065
   0.36078514  0.80563964  0.61127928
   0.13921486  0.19436036  0.38872072
   0.21704523  0.92132844  0.84265689
   0.68640191  0.88784698  0.77569397
   0.28295477  0.07867156  0.15734311
   0.81359809  0.11215302  0.22430603
   0.93137302  0.80138677  0.60277356
   0.56862698  0.19861323  0.39722644
   0.44620795  0.40049645  0.80099288
   0.95523289  0.40727055  0.81454110
   0.05379205  0.59950355  0.19900712
   0.54476711  0.59272945  0.18545890
   0.25000000  0.50000000  0.00000000
   0.75000000  0.50000000  0.00000000
   0.35222290  0.68436076  0.36872153
   0.83240898  0.68392770  0.36785541
   0.14777710  0.31563924  0.63127847
   0.66759102  0.31607230  0.63214459
   0.45051426  0.90327011  0.80654020
   0.95212688  0.90370981  0.80741961
   0.04948574  0.09672989  0.19345980
   0.54787312  0.09629019  0.19258039

 position of ions in cartesian coordinates  (Angst):
   7.08420061  0.01197715 -1.24461132
   3.91142886  3.85406827  8.86173072
   2.56361418  3.14354997  5.26892457
   1.00381403  0.72040551  3.70985025
   1.47784861  3.57188218  7.78569009
   4.96954445  3.44881267  6.47485621
   2.08957960  0.29207330  1.19308473
   6.02608502  0.41723275  1.14226319
   6.80271884  3.12898537  4.40665622
   4.19291063  0.73706005  3.21046318
   3.25208261  1.48479132  7.42749827
   7.03216619  1.51095352  6.87028932
   0.31534560  2.37916416  1.55127655
   3.96346328  2.35509190  0.74683008
   1.78833095  2.01090875 -0.71221104
   5.50243159  2.01195372 -1.39303875
   2.51892026  2.69418794  2.84738965
   6.08590662  2.69358700  2.18485327
   1.04850795  1.16976754  6.13138517
   4.90972285  1.17245842  5.43226613
   3.21491896  3.50546313  7.10548476
   6.94092990  3.50814058  6.43128293
   0.35250925  0.35849235  1.87329006
   4.05469957  0.35790484  1.18583647



--------------------------------------------------------------------------------------------------------


 k-point   1 :   0.0000 0.0000 0.0000  plane waves:    8309
 k-point   2 :   0.3333 0.0000 0.0000  plane waves:    8360
 k-point   3 :   0.0000 0.2000 0.0000  plane waves:    8345
 k-point   4 :   0.3333 0.2000 0.0000  plane waves:    8349
 k-point   5 :  -0.3333 0.2000 0.0000  plane waves:    8359
 k-point   6 :   0.0000 0.4000 0.0000  plane waves:    8328
 k-point   7 :   0.3333 0.4000 0.0000  plane waves:    8322
 k-point   8 :  -0.3333 0.4000 0.0000  plane waves:    8319
 k-point   9 :   0.0000 0.0000 0.5000  plane waves:    8374
 k-point  10 :   0.3333 0.0000 0.5000  plane waves:    8352
 k-point  11 :   0.0000 0.2000 0.5000  plane waves:    8345
 k-point  12 :   0.3333 0.2000 0.5000  plane waves:    8347
 k-point  13 :  -0.3333 0.2000 0.5000  plane waves:    8356
 k-point  14 :   0.0000 0.4000 0.5000  plane waves:    8324
 k-point  15 :   0.3333 0.4000 0.5000  plane waves:    8320
 k-point  16 :  -0.3333 0.4000 0.5000  plane waves:    8327

 maximum and minimum number of plane-waves per node :      1085      973

 maximum number of plane-waves:      8374
 maximum index in each direction: 
   IXMAX=   14   IYMAX=    7   IZMAX=   19
   IXMIN=  -14   IYMIN=   -8   IZMIN=  -19


 parallel 3D FFT for wavefunctions:
    minimum data exchange during FFTs selected (reduces bandwidth)
 parallel 3D FFT for charge:
    minimum data exchange during FFTs selected (reduces bandwidth)


 FFT grid for exact exchange (Hartree Fock) 
  NGX = 36; NGY = 18; NGZ = 48


 Radii for the augmentation spheres in the non-local exchange
 for species   1 augmentation radius   0.956 (default was   0.708)
       energy cutoff for augmentation   2080.0
 for species   2 augmentation radius   1.283 (default was   0.950)
       energy cutoff for augmentation   2080.0
 for species   3 augmentation radius   1.309 (default was   0.970)
       energy cutoff for augmentation   2080.0
 for species   4 augmentation radius   0.974 (default was   0.722)
       energy cutoff for augmentation   2080.0

 real space projection operators:
  total allocation   :       1753.19 KBytes
  max/ min on nodes  :        264.82        174.38

 Maximum index for augmentation-charges in exchange          194
  SETUP_FOCK is finished

 total amount of memory used by VASP MPI-rank0   100599. kBytes
=======================================================================

   base      :      30000. kBytes
   nonl-proj :      10521. kBytes
   fftplans  :       2014. kBytes
   grid      :       5075. kBytes
   one-center:         93. kBytes
   HF        :        194. kBytes
   nonlr-proj:        724. kBytes
   wavefun   :      51978. kBytes

     INWAV:  cpu time    6.4036: real time    6.4679
 Broyden mixing: mesh for mixing (old mesh)
   NGX = 29   NGY = 15   NGZ = 39
  (NGX  =112   NGY  = 60   NGZ  =160)
  gives a total of  16965 points

 charge density for first step will be calculated from the start-wavefunctions


--------------------------------------------------------------------------------------------------------


 Maximum index for augmentation-charges          896 (set IRDMAX)


--------------------------------------------------------------------------------------------------------


 initial charge from wavefunction
 First call to EWALD:  gamma=   0.262
 Maximum number of real-space cells 3x 4x 2
 Maximum number of reciprocal cells 3x 2x 4

    FEWALD:  cpu time    0.0018: real time    0.0018


--------------------------------------- Iteration      1(   1)  ---------------------------------------


    POTLOK:  cpu time    0.3006: real time    0.3009
    SETDIJ:  cpu time    2.0568: real time    2.0570
    TRIAL :  cpu time  107.6011: real time  107.7258
    CORREC:  cpu time  110.7425: real time  110.7742
    CHARGE:  cpu time    0.0470: real time    0.0470
    --------------------------------------------
      LOOP:  cpu time  220.7847: real time  220.9418

 eigenvalue-minimisations  :     0
 total energy-change (2. order) :-0.1772297E+03  (-0.4505383E-03)
 number of electron     168.0000065 magnetization      24.0000011
 augmentation part       56.3822668 magnetization      16.0257897

 Free energy of the ion-electron system (eV)
  ---------------------------------------------------
  alpha Z        PSCENC =       456.74369368
  Ewald energy   TEWEN  =    -11467.14114619
  -Hartree energ DENC   =     -6570.56591238
  -exchange      EXHF   =       486.93744901
  -V(xc)+E(xc)   XCENC  =       546.43970134
  PAW double counting   =     20134.03573558   -20719.17829174
  entropy T*S    EENTRO =        -0.00000000
  eigenvalues    EBANDS =     -2743.52008334
  atomic energy  EATOM  =     19699.01912348
  ---------------------------------------------------
  free energy    TOTEN  =      -177.22973057 eV

  energy without entropy =     -177.22973057  energy(sigma->0) =     -177.22973057
  exchange ACFDT corr.  =        -0.00000000  see jH, gK, PRB 81, 115126


--------------------------------------------------------------------------------------------------------




--------------------------------------- Iteration      1(   2)  ---------------------------------------


    POTLOK:  cpu time    0.2931: real time    0.2935
    SETDIJ:  cpu time    2.0538: real time    2.0543
    TRIAL :  cpu time  108.8679: real time  108.9026
    CORREC:  cpu time  111.1878: real time  111.2225
    CHARGE:  cpu time    0.0471: real time    0.0471
    --------------------------------------------
      LOOP:  cpu time  222.4633: real time  222.5467

 eigenvalue-minimisations  :     0
 total energy-change (2. order) :-0.4513805E-03  (-0.2134789E-04)
 number of electron     168.0000065 magnetization      24.0000011
 augmentation part       56.3821387 magnetization      16.0258130

 Free energy of the ion-electron system (eV)
  ---------------------------------------------------
  alpha Z        PSCENC =       456.74369368
  Ewald energy   TEWEN  =    -11467.14114619
  -Hartree energ DENC   =     -6570.57808110
  -exchange      EXHF   =       486.93763132
  -V(xc)+E(xc)   XCENC  =       546.44034410
  PAW double counting   =     20133.91276203   -20719.06064213
  entropy T*S    EENTRO =        -0.00000000
  eigenvalues    EBANDS =     -2743.50386713
  atomic energy  EATOM  =     19699.01912348
  ---------------------------------------------------
  free energy    TOTEN  =      -177.23018195 eV

  energy without entropy =     -177.23018195  energy(sigma->0) =     -177.23018195
  exchange ACFDT corr.  =        -0.00000000  see jH, gK, PRB 81, 115126


--------------------------------------------------------------------------------------------------------




--------------------------------------- Iteration      1(   3)  ---------------------------------------


    POTLOK:  cpu time    0.2926: real time    0.2926
    SETDIJ:  cpu time    2.0554: real time    2.0560
    TRIAL :  cpu time  108.5939: real time  108.6287
    CORREC:  cpu time  111.0187: real time  111.0566
    CHARGE:  cpu time    0.0464: real time    0.0464
    --------------------------------------------
      LOOP:  cpu time  222.0176: real time  222.1061

 eigenvalue-minimisations  :     0
 total energy-change (2. order) :-0.2132309E-04  (-0.3851206E-05)
 number of electron     168.0000065 magnetization      24.0000011
 augmentation part       56.3820603 magnetization      16.0258285

 Free energy of the ion-electron system (eV)
  ---------------------------------------------------
  alpha Z        PSCENC =       456.74369368
  Ewald energy   TEWEN  =    -11467.14114619
  -Hartree energ DENC   =     -6570.56555108
  -exchange      EXHF   =       486.93738907
  -V(xc)+E(xc)   XCENC  =       546.43999999
  PAW double counting   =     20133.89687401   -20719.04216386
  entropy T*S    EENTRO =        -0.00000000
  eigenvalues    EBANDS =     -2743.51842237
  atomic energy  EATOM  =     19699.01912348
  ---------------------------------------------------
  free energy    TOTEN  =      -177.23020327 eV

  energy without entropy =     -177.23020327  energy(sigma->0) =     -177.23020327
  exchange ACFDT corr.  =        -0.00000000  see jH, gK, PRB 81, 115126


--------------------------------------------------------------------------------------------------------




--------------------------------------- Iteration      1(   4)  ---------------------------------------


    POTLOK:  cpu time    0.2963: real time    0.2963
    SETDIJ:  cpu time    2.0498: real time    2.0504
    TRIAL :  cpu time  108.5112: real time  108.5475
    CORREC:  cpu time  111.0743: real time  111.1142
    EDDIAG:  cpu time  108.4474: real time  108.4860
    CHARGE:  cpu time    0.0616: real time    0.0616
    --------------------------------------------
      LOOP:  cpu time  330.4653: real time  330.5807

 eigenvalue-minimisations  :     0
 total energy-change (2. order) :-0.3899786E-05  (-0.3225603E-05)
 number of electron     168.0000065 magnetization      24.0000011
 augmentation part       56.3819972 magnetization      16.0258629

 Free energy of the ion-electron system (eV)
  ---------------------------------------------------
  alpha Z        PSCENC =       456.74369368
  Ewald energy   TEWEN  =    -11467.14114619
  -Hartree energ DENC   =     -6570.56187320
  -exchange      EXHF   =       486.93712918
  -V(xc)+E(xc)   XCENC  =       546.43987096
  PAW double counting   =     20133.92278148   -20719.06789059
  entropy T*S    EENTRO =        -0.00000000
  eigenvalues    EBANDS =     -2743.52198880
  atomic energy  EATOM  =     19699.01912348
  ---------------------------------------------------
  free energy    TOTEN  =      -177.23020717 eV

  energy without entropy =     -177.23020717  energy(sigma->0) =     -177.23020717
  exchange ACFDT corr.  =        -0.00000000  see jH, gK, PRB 81, 115126


--------------------------------------------------------------------------------------------------------


  average scaling for gradient   0.8821


 average (electrostatic) potential at core
  the test charge radii are     0.7079  0.9500  0.9698  0.7215
  (the norm of the test charge is              1.0000)
       1 -53.3908       2 -53.3908       3 -53.6672       4 -53.6672       5 -53.1008
       6 -53.0433       7 -53.1008       8 -53.0433       9 -71.7148      10 -71.7148
      11 -71.3356      12 -71.6412      13 -71.3356      14 -71.6412      15 -82.1260
      16 -82.0812      17 -82.1073      18 -82.1305      19 -82.1073      20 -82.1305
      21 -62.9250      22 -63.9608      23 -62.9250      24 -63.9608



 E-fermi :   4.9139     XC(G=0):  -8.5557     alpha+bet :-12.6583

 Fermi energy:         4.9138834689

 spin component 1

 k-point     1 :       0.0000    0.0000    0.0000
  band No.  band energies     occupation 
      1     -56.3766      1.00000
      2     -56.3764      1.00000
      3     -56.3361      1.00000
      4     -56.3360      1.00000
      5     -56.1924      1.00000
      6     -56.1923      1.00000
      7     -54.9188      1.00000
      8     -54.9184      1.00000
      9     -54.8196      1.00000
     10     -54.8195      1.00000
     11     -54.7854      1.00000
     12     -54.7849      1.00000
     13     -54.7837      1.00000
     14     -54.7835      1.00000
     15     -54.4697      1.00000
     16     -54.4697      1.00000
     17     -54.3026      1.00000
     18     -54.3026      1.00000
     19     -43.8793      1.00000
     20     -43.8757      1.00000
     21     -43.6128      1.00000
     22     -43.6082      1.00000
     23     -43.3261      1.00000
     24     -43.3241      1.00000
     25     -43.2720      1.00000
     26     -43.2715      1.00000
     27     -16.3305      1.00000
     28     -16.3241      1.00000
     29     -15.1586      1.00000
     30     -15.1542      1.00000
     31      -9.6915      1.00000
     32      -9.1907      1.00000
     33      -9.0972      1.00000
     34      -9.0118      1.00000
     35      -8.9753      1.00000
     36      -8.8044      1.00000
     37      -2.3476      1.00000
     38      -2.0950      1.00000
     39      -1.9192      1.00000
     40      -1.8781      1.00000
     41      -1.8019      1.00000
     42      -1.7486      1.00000
     43      -1.7047      1.00000
     44      -1.5581      1.00000
     45      -1.3080      1.00000
     46      -1.1634      1.00000
     47      -1.1073      1.00000
     48      -1.0821      1.00000
     49      -1.0517      1.00000
     50      -1.0422      1.00000
     51      -0.9098      1.00000
     52      -0.9064      1.00000
     53      -0.8050      1.00000
     54      -0.6519      1.00000
     55      -0.6083      1.00000
     56      -0.5763      1.00000
     57      -0.5578      1.00000
     58      -0.5468      1.00000
     59      -0.5027      1.00000
     60      -0.4997      1.00000
     61      -0.3589      1.00000
     62      -0.2499      1.00000
     63      -0.2387      1.00000
     64      -0.0590      1.00000
     65       0.0611      1.00000
     66       0.0946      1.00000
     67       0.0975      1.00000
     68       0.1914      1.00000
     69       0.2395      1.00000
     70       0.4822      1.00000
     71       0.5963      1.00000
     72       0.6136      1.00000
     73       0.7014      1.00000
     74       0.7541      1.00000
     75       0.9261      1.00000
     76       0.9386      1.00000
     77       1.0003      1.00000
     78       1.0956      1.00000
     79       1.2588      1.00000
     80       1.5211      1.00000
     81       1.7251      1.00000
     82       1.9065      1.00000
     83       2.0958      1.00000
     84       2.2174      1.00000
     85       2.5422      1.00000
     86       2.7311      1.00000
     87       2.8223      1.00000
     88       3.0661      1.00000
     89       3.0738      1.00000
     90       3.0936      1.00000
     91       3.1568      1.00000
     92       3.2651      1.00000
     93       3.4136      1.00000
     94       3.5307      1.00000
     95       3.7284      1.00000
     96       4.1936      1.00000
     97       8.0409      0.00000
     98       8.3304      0.00000
     99       9.0831      0.00000
    100       9.1568      0.00000
    101       9.3514      0.00000
    102       9.9226      0.00000
    103      10.1185      0.00000
    104      10.3436      0.00000
    105      10.6090      0.00000
    106      11.1111      0.00000
    107      11.2551      0.00000
    108      11.3372      0.00000
    109      11.3621      0.00000
    110      11.5079      0.00000
    111      11.6836      0.00000
    112      11.9747      0.00000
    113      12.5388      0.00000
    114      12.6952      0.00000
    115      12.8082      0.00000
    116      12.8520      0.00000
    117      13.1484      0.00000
    118      13.5872      0.00000
    119      14.2949      0.00000
    120      14.7391      0.00000

 k-point     2 :       0.3333    0.0000    0.0000
  band No.  band energies     occupation 
      1     -56.3766      1.00000
      2     -56.3764      1.00000
      3     -56.3360      1.00000
      4     -56.3360      1.00000
      5     -56.1924      1.00000
      6     -56.1923      1.00000
      7     -54.9188      1.00000
      8     -54.9184      1.00000
      9     -54.8196      1.00000
     10     -54.8195      1.00000
     11     -54.7854      1.00000
     12     -54.7849      1.00000
     13     -54.7837      1.00000
     14     -54.7835      1.00000
     15     -54.4697      1.00000
     16     -54.4697      1.00000
     17     -54.3026      1.00000
     18     -54.3026      1.00000
     19     -43.8793      1.00000
     20     -43.8758      1.00000
     21     -43.6124      1.00000
     22     -43.6086      1.00000
     23     -43.3261      1.00000
     24     -43.3241      1.00000
     25     -43.2720      1.00000
     26     -43.2715      1.00000
     27     -16.3288      1.00000
     28     -16.3251      1.00000
     29     -15.1578      1.00000
     30     -15.1556      1.00000
     31      -9.5904      1.00000
     32      -9.2655      1.00000
     33      -9.1003      1.00000
     34      -9.0195      1.00000
     35      -8.9824      1.00000
     36      -8.8529      1.00000
     37      -2.3220      1.00000
     38      -2.1238      1.00000
     39      -1.8690      1.00000
     40      -1.8035      1.00000
     41      -1.7896      1.00000
     42      -1.7071      1.00000
     43      -1.5624      1.00000
     44      -1.4799      1.00000
     45      -1.3339      1.00000
     46      -1.2183      1.00000
     47      -1.1924      1.00000
     48      -1.1316      1.00000
     49      -1.1077      1.00000
     50      -0.9089      1.00000
     51      -0.8439      1.00000
     52      -0.8094      1.00000
     53      -0.7163      1.00000
     54      -0.7072      1.00000
     55      -0.6777      1.00000
     56      -0.6213      1.00000
     57      -0.6172      1.00000
     58      -0.5059      1.00000
     59      -0.4890      1.00000
     60      -0.4749      1.00000
     61      -0.3239      1.00000
     62      -0.2182      1.00000
     63      -0.0964      1.00000
     64      -0.0689      1.00000
     65      -0.0320      1.00000
     66       0.1416      1.00000
     67       0.1946      1.00000
     68       0.2135      1.00000
     69       0.2344      1.00000
     70       0.3723      1.00000
     71       0.4862      1.00000
     72       0.6238      1.00000
     73       0.6550      1.00000
     74       0.7246      1.00000
     75       0.8724      1.00000
     76       0.9192      1.00000
     77       1.0056      1.00000
     78       1.0596      1.00000
     79       1.3585      1.00000
     80       1.5133      1.00000
     81       1.7837      1.00000
     82       1.9663      1.00000
     83       2.1188      1.00000
     84       2.3285      1.00000
     85       2.4143      1.00000
     86       2.6165      1.00000
     87       2.6790      1.00000
     88       2.7443      1.00000
     89       2.8103      1.00000
     90       2.9215      1.00000
     91       2.9848      1.00000
     92       3.2204      1.00000
     93       3.5411      1.00000
     94       3.6574      1.00000
     95       3.6922      1.00000
     96       3.8581      1.00000
     97       8.6668      0.00000
     98       9.0176      0.00000
     99       9.2189      0.00000
    100       9.4257      0.00000
    101       9.7489      0.00000
    102      10.0913      0.00000
    103      10.1951      0.00000
    104      10.4451      0.00000
    105      10.6167      0.00000
    106      10.8214      0.00000
    107      11.3573      0.00000
    108      11.6527      0.00000
    109      11.9120      0.00000
    110      11.9702      0.00000
    111      11.9961      0.00000
    112      12.1372      0.00000
    113      12.2016      0.00000
    114      12.6006      0.00000
    115      12.8388      0.00000
    116      13.0403      0.00000
    117      13.6034      0.00000
    118      13.7927      0.00000
    119      13.8274      0.00000
    120      14.0493      0.00000

 k-point     3 :       0.0000    0.2000    0.0000
  band No.  band energies     occupation 
      1     -56.3777      1.00000
      2     -56.3775      1.00000
      3     -56.3352      1.00000
      4     -56.3352      1.00000
      5     -56.1924      1.00000
      6     -56.1924      1.00000
      7     -54.9191      1.00000
      8     -54.9188      1.00000
      9     -54.8196      1.00000
     10     -54.8195      1.00000
     11     -54.7853      1.00000
     12     -54.7849      1.00000
     13     -54.7835      1.00000
     14     -54.7834      1.00000
     15     -54.4697      1.00000
     16     -54.4697      1.00000
     17     -54.3029      1.00000
     18     -54.3029      1.00000
     19     -43.8789      1.00000
     20     -43.8760      1.00000
     21     -43.6127      1.00000
     22     -43.6080      1.00000
     23     -43.3260      1.00000
     24     -43.3240      1.00000
     25     -43.2719      1.00000
     26     -43.2714      1.00000
     27     -16.2526      1.00000
     28     -16.2475      1.00000
     29     -15.0757      1.00000
     30     -15.0727      1.00000
     31      -9.6108      1.00000
     32      -9.1773      1.00000
     33      -9.0478      1.00000
     34      -8.9605      1.00000
     35      -8.9198      1.00000
     36      -8.7463      1.00000
     37      -2.6436      1.00000
     38      -2.6139      1.00000
     39      -2.3220      1.00000
     40      -2.2177      1.00000
     41      -1.9417      1.00000
     42      -1.9228      1.00000
     43      -1.8439      1.00000
     44      -1.6019      1.00000
     45      -1.5737      1.00000
     46      -1.3876      1.00000
     47      -1.3131      1.00000
     48      -1.2953      1.00000
     49      -1.2140      1.00000
     50      -1.1719      1.00000
     51      -1.1362      1.00000
     52      -1.0349      1.00000
     53      -1.0286      1.00000
     54      -0.9599      1.00000
     55      -0.8918      1.00000
     56      -0.8149      1.00000
     57      -0.7621      1.00000
     58      -0.7139      1.00000
     59      -0.5811      1.00000
     60      -0.5557      1.00000
     61      -0.4548      1.00000
     62      -0.4051      1.00000
     63      -0.2528      1.00000
     64      -0.2003      1.00000
     65      -0.0966      1.00000
     66      -0.0346      1.00000
     67       0.0928      1.00000
     68       0.1538      1.00000
     69       0.5448      1.00000
     70       0.5863      1.00000
     71       0.6394      1.00000
     72       0.8897      1.00000
     73       0.9447      1.00000
     74       0.9894      1.00000
     75       1.0749      1.00000
     76       1.1041      1.00000
     77       1.1070      1.00000
     78       1.5386      1.00000
     79       1.6066      1.00000
     80       1.7926      1.00000
     81       1.9592      1.00000
     82       2.1144      1.00000
     83       2.1383      1.00000
     84       2.3336      1.00000
     85       2.3697      1.00000
     86       2.7148      1.00000
     87       2.7732      1.00000
     88       2.8391      1.00000
     89       2.9836      1.00000
     90       3.0403      1.00000
     91       3.1467      1.00000
     92       3.3352      1.00000
     93       3.4543      1.00000
     94       3.6661      1.00000
     95       3.8883      1.00000
     96       4.2590      1.00000
     97       8.8314      0.00000
     98       9.0061      0.00000
     99       9.6211      0.00000
    100       9.8277      0.00000
    101       9.9210      0.00000
    102      10.2382      0.00000
    103      10.3415      0.00000
    104      10.6091      0.00000
    105      10.7317      0.00000
    106      11.1691      0.00000
    107      11.5225      0.00000
    108      11.5962      0.00000
    109      11.7379      0.00000
    110      11.8080      0.00000
    111      12.1001      0.00000
    112      12.3402      0.00000
    113      12.4789      0.00000
    114      12.5620      0.00000
    115      12.6032      0.00000
    116      12.9949      0.00000
    117      13.3352      0.00000
    118      13.5174      0.00000
    119      13.6006      0.00000
    120      14.0199      0.00000

 k-point     4 :       0.3333    0.2000    0.0000
  band No.  band energies     occupation 
      1     -56.3777      1.00000
      2     -56.3775      1.00000
      3     -56.3352      1.00000
      4     -56.3352      1.00000
      5     -56.1924      1.00000
      6     -56.1924      1.00000
      7     -54.9191      1.00000
      8     -54.9188      1.00000
      9     -54.8196      1.00000
     10     -54.8195      1.00000
     11     -54.7853      1.00000
     12     -54.7849      1.00000
     13     -54.7835      1.00000
     14     -54.7834      1.00000
     15     -54.4697      1.00000
     16     -54.4697      1.00000
     17     -54.3029      1.00000
     18     -54.3029      1.00000
     19     -43.8789      1.00000
     20     -43.8760      1.00000
     21     -43.6123      1.00000
     22     -43.6084      1.00000
     23     -43.3260      1.00000
     24     -43.3240      1.00000
     25     -43.2719      1.00000
     26     -43.2714      1.00000
     27     -16.2508      1.00000
     28     -16.2484      1.00000
     29     -15.0753      1.00000
     30     -15.0738      1.00000
     31      -9.4961      1.00000
     32      -9.2225      1.00000
     33      -9.0973      1.00000
     34      -8.9508      1.00000
     35      -8.9011      1.00000
     36      -8.8377      1.00000
     37      -2.6502      1.00000
     38      -2.6047      1.00000
     39      -2.3341      1.00000
     40      -2.2146      1.00000
     41      -1.9529      1.00000
     42      -1.9183      1.00000
     43      -1.5758      1.00000
     44      -1.5089      1.00000
     45      -1.4433      1.00000
     46      -1.3978      1.00000
     47      -1.3345      1.00000
     48      -1.3127      1.00000
     49      -1.2784      1.00000
     50      -1.1603      1.00000
     51      -1.1352      1.00000
     52      -1.0903      1.00000
     53      -1.0181      1.00000
     54      -0.8801      1.00000
     55      -0.8565      1.00000
     56      -0.8266      1.00000
     57      -0.7680      1.00000
     58      -0.6948      1.00000
     59      -0.6705      1.00000
     60      -0.5962      1.00000
     61      -0.5383      1.00000
     62      -0.4625      1.00000
     63      -0.2026      1.00000
     64      -0.1177      1.00000
     65       0.0046      1.00000
     66       0.0871      1.00000
     67       0.2362      1.00000
     68       0.3246      1.00000
     69       0.4316      1.00000
     70       0.5649      1.00000
     71       0.6412      1.00000
     72       0.6808      1.00000
     73       0.7221      1.00000
     74       0.9412      1.00000
     75       1.0069      1.00000
     76       1.0190      1.00000
     77       1.2498      1.00000
     78       1.5308      1.00000
     79       1.6711      1.00000
     80       1.8181      1.00000
     81       1.9307      1.00000
     82       2.0888      1.00000
     83       2.1363      1.00000
     84       2.3108      1.00000
     85       2.3823      1.00000
     86       2.4796      1.00000
     87       2.5746      1.00000
     88       2.7399      1.00000
     89       2.9110      1.00000
     90       3.0837      1.00000
     91       3.1099      1.00000
     92       3.2531      1.00000
     93       3.5417      1.00000
     94       3.6447      1.00000
     95       3.7971      1.00000
     96       3.9702      1.00000
     97       9.4096      0.00000
     98       9.5935      0.00000
     99       9.9903      0.00000
    100      10.2376      0.00000
    101      10.3425      0.00000
    102      10.5000      0.00000
    103      10.7696      0.00000
    104      10.9213      0.00000
    105      10.9571      0.00000
    106      11.3315      0.00000
    107      11.5315      0.00000
    108      11.6002      0.00000
    109      11.7007      0.00000
    110      11.9502      0.00000
    111      11.9962      0.00000
    112      12.1454      0.00000
    113      12.3490      0.00000
    114      12.3975      0.00000
    115      12.5559      0.00000
    116      12.7657      0.00000
    117      12.9427      0.00000
    118      13.0867      0.00000
    119      13.2119      0.00000
    120      13.4756      0.00000

 k-point     5 :      -0.3333    0.2000    0.0000
  band No.  band energies     occupation 
      1     -56.3777      1.00000
      2     -56.3775      1.00000
      3     -56.3352      1.00000
      4     -56.3352      1.00000
      5     -56.1924      1.00000
      6     -56.1924      1.00000
      7     -54.9191      1.00000
      8     -54.9188      1.00000
      9     -54.8196      1.00000
     10     -54.8195      1.00000
     11     -54.7853      1.00000
     12     -54.7849      1.00000
     13     -54.7835      1.00000
     14     -54.7834      1.00000
     15     -54.4697      1.00000
     16     -54.4697      1.00000
     17     -54.3029      1.00000
     18     -54.3029      1.00000
     19     -43.8789      1.00000
     20     -43.8760      1.00000
     21     -43.6123      1.00000
     22     -43.6084      1.00000
     23     -43.3260      1.00000
     24     -43.3240      1.00000
     25     -43.2719      1.00000
     26     -43.2714      1.00000
     27     -16.2513      1.00000
     28     -16.2479      1.00000
     29     -15.0752      1.00000
     30     -15.0739      1.00000
     31      -9.5096      1.00000
     32      -9.1831      1.00000
     33      -9.0447      1.00000
     34      -9.0133      1.00000
     35      -8.9672      1.00000
     36      -8.7884      1.00000
     37      -2.6319      1.00000
     38      -2.6143      1.00000
     39      -2.3176      1.00000
     40      -2.2145      1.00000
     41      -1.9416      1.00000
     42      -1.9202      1.00000
     43      -1.6060      1.00000
     44      -1.5394      1.00000
     45      -1.4525      1.00000
     46      -1.3834      1.00000
     47      -1.3364      1.00000
     48      -1.3206      1.00000
     49      -1.2786      1.00000
     50      -1.1571      1.00000
     51      -1.1389      1.00000
     52      -1.0771      1.00000
     53      -1.0193      1.00000
     54      -0.8916      1.00000
     55      -0.8539      1.00000
     56      -0.8042      1.00000
     57      -0.7632      1.00000
     58      -0.6734      1.00000
     59      -0.6488      1.00000
     60      -0.5945      1.00000
     61      -0.4943      1.00000
     62      -0.4256      1.00000
     63      -0.2756      1.00000
     64      -0.1500      1.00000
     65      -0.0055      1.00000
     66       0.0565      1.00000
     67       0.1485      1.00000
     68       0.3508      1.00000
     69       0.4541      1.00000
     70       0.5404      1.00000
     71       0.6326      1.00000
     72       0.6492      1.00000
     73       0.7761      1.00000
     74       0.9655      1.00000
     75       1.0031      1.00000
     76       1.0388      1.00000
     77       1.2938      1.00000
     78       1.5380      1.00000
     79       1.6776      1.00000
     80       1.8380      1.00000
     81       1.9110      1.00000
     82       1.9345      1.00000
     83       2.0915      1.00000
     84       2.2725      1.00000
     85       2.3059      1.00000
     86       2.6165      1.00000
     87       2.7851      1.00000
     88       2.8321      1.00000
     89       2.9173      1.00000
     90       3.0413      1.00000
     91       3.1267      1.00000
     92       3.3683      1.00000
     93       3.5131      1.00000
     94       3.6306      1.00000
     95       3.7354      1.00000
     96       3.8202      1.00000
     97       9.3618      0.00000
     98       9.5298      0.00000
     99      10.0610      0.00000
    100      10.2455      0.00000
    101      10.3949      0.00000
    102      10.4564      0.00000
    103      10.6220      0.00000
    104      10.9255      0.00000
    105      11.2012      0.00000
    106      11.2155      0.00000
    107      11.4326      0.00000
    108      11.6020      0.00000
    109      11.8294      0.00000
    110      11.9781      0.00000
    111      12.0470      0.00000
    112      12.1382      0.00000
    113      12.3985      0.00000
    114      12.4218      0.00000
    115      12.5405      0.00000
    116      12.6623      0.00000
    117      12.9051      0.00000
    118      13.1528      0.00000
    119      13.5487      0.00000
    120      13.6460      0.00000

 k-point     6 :       0.0000    0.4000    0.0000
  band No.  band energies     occupation 
      1     -56.3793      1.00000
      2     -56.3793      1.00000
      3     -56.3339      1.00000
      4     -56.3339      1.00000
      5     -56.1924      1.00000
      6     -56.1924      1.00000
      7     -54.9197      1.00000
      8     -54.9195      1.00000
      9     -54.8195      1.00000
     10     -54.8195      1.00000
     11     -54.7851      1.00000
     12     -54.7849      1.00000
     13     -54.7832      1.00000
     14     -54.7831      1.00000
     15     -54.4698      1.00000
     16     -54.4697      1.00000
     17     -54.3035      1.00000
     18     -54.3034      1.00000
     19     -43.8778      1.00000
     20     -43.8767      1.00000
     21     -43.6126      1.00000
     22     -43.6077      1.00000
     23     -43.3259      1.00000
     24     -43.3237      1.00000
     25     -43.2717      1.00000
     26     -43.2712      1.00000
     27     -16.1209      1.00000
     28     -16.1185      1.00000
     29     -14.9350      1.00000
     30     -14.9349      1.00000
     31      -9.4714      1.00000
     32      -9.2012      1.00000
     33      -8.9469      1.00000
     34      -8.8618      1.00000
     35      -8.8263      1.00000
     36      -8.6463      1.00000
     37      -3.4811      1.00000
     38      -3.4144      1.00000
     39      -2.7368      1.00000
     40      -2.6284      1.00000
     41      -2.4008      1.00000
     42      -2.3236      1.00000
     43      -2.2840      1.00000
     44      -2.2222      1.00000
     45      -1.8811      1.00000
     46      -1.6656      1.00000
     47      -1.6162      1.00000
     48      -1.4618      1.00000
     49      -1.4448      1.00000
     50      -1.2729      1.00000
     51      -1.2526      1.00000
     52      -1.1930      1.00000
     53      -1.1184      1.00000
     54      -0.9856      1.00000
     55      -0.9426      1.00000
     56      -0.8633      1.00000
     57      -0.7985      1.00000
     58      -0.7465      1.00000
     59      -0.6677      1.00000
     60      -0.6166      1.00000
     61      -0.4288      1.00000
     62      -0.3817      1.00000
     63      -0.3066      1.00000
     64      -0.2329      1.00000
     65      -0.1435      1.00000
     66       0.0557      1.00000
     67       0.1547      1.00000
     68       0.1776      1.00000
     69       0.5653      1.00000
     70       0.5984      1.00000
     71       0.9540      1.00000
     72       0.9899      1.00000
     73       1.0478      1.00000
     74       1.0907      1.00000
     75       1.1147      1.00000
     76       1.1458      1.00000
     77       1.2273      1.00000
     78       1.3851      1.00000
     79       1.6465      1.00000
     80       1.7062      1.00000
     81       1.8030      1.00000
     82       1.9937      1.00000
     83       2.0707      1.00000
     84       2.2597      1.00000
     85       2.4555      1.00000
     86       2.6033      1.00000
     87       2.8057      1.00000
     88       2.9435      1.00000
     89       3.0453      1.00000
     90       3.2152      1.00000
     91       3.6493      1.00000
     92       3.7471      1.00000
     93       3.8110      1.00000
     94       3.9549      1.00000
     95       4.2958      1.00000
     96       4.6216      1.00000
     97       9.1112      0.00000
     98       9.3567      0.00000
     99       9.5561      0.00000
    100       9.7763      0.00000
    101      10.1517      0.00000
    102      10.4008      0.00000
    103      10.6530      0.00000
    104      10.8976      0.00000
    105      11.3327      0.00000
    106      11.4344      0.00000
    107      11.5957      0.00000
    108      12.0499      0.00000
    109      12.2028      0.00000
    110      12.2436      0.00000
    111      12.6820      0.00000
    112      12.7674      0.00000
    113      13.0935      0.00000
    114      13.2628      0.00000
    115      13.3604      0.00000
    116      13.6547      0.00000
    117      13.7486      0.00000
    118      13.9489      0.00000
    119      14.1751      0.00000
    120      14.2483      0.00000

 k-point     7 :       0.3333    0.4000    0.0000
  band No.  band energies     occupation 
      1     -56.3793      1.00000
      2     -56.3793      1.00000
      3     -56.3339      1.00000
      4     -56.3339      1.00000
      5     -56.1924      1.00000
      6     -56.1924      1.00000
      7     -54.9197      1.00000
      8     -54.9195      1.00000
      9     -54.8195      1.00000
     10     -54.8195      1.00000
     11     -54.7851      1.00000
     12     -54.7849      1.00000
     13     -54.7831      1.00000
     14     -54.7831      1.00000
     15     -54.4697      1.00000
     16     -54.4697      1.00000
     17     -54.3035      1.00000
     18     -54.3034      1.00000
     19     -43.8778      1.00000
     20     -43.8767      1.00000
     21     -43.6122      1.00000
     22     -43.6081      1.00000
     23     -43.3259      1.00000
     24     -43.3237      1.00000
     25     -43.2717      1.00000
     26     -43.2712      1.00000
     27     -16.1196      1.00000
     28     -16.1188      1.00000
     29     -14.9357      1.00000
     30     -14.9355      1.00000
     31      -9.3309      1.00000
     32      -9.1704      1.00000
     33      -9.0498      1.00000
     34      -8.8843      1.00000
     35      -8.8304      1.00000
     36      -8.7389      1.00000
     37      -3.4657      1.00000
     38      -3.4083      1.00000
     39      -2.7270      1.00000
     40      -2.6272      1.00000
     41      -2.3623      1.00000
     42      -2.2968      1.00000
     43      -2.2632      1.00000
     44      -2.2383      1.00000
     45      -1.6346      1.00000
     46      -1.6240      1.00000
     47      -1.5541      1.00000
     48      -1.4683      1.00000
     49      -1.3927      1.00000
     50      -1.3695      1.00000
     51      -1.2698      1.00000
     52      -1.1991      1.00000
     53      -1.1495      1.00000
     54      -1.0047      1.00000
     55      -0.9775      1.00000
     56      -0.8942      1.00000
     57      -0.8390      1.00000
     58      -0.8259      1.00000
     59      -0.7634      1.00000
     60      -0.5805      1.00000
     61      -0.5678      1.00000
     62      -0.4654      1.00000
     63      -0.4031      1.00000
     64      -0.0390      1.00000
     65       0.0281      1.00000
     66       0.0866      1.00000
     67       0.3120      1.00000
     68       0.4223      1.00000
     69       0.6119      1.00000
     70       0.7635      1.00000
     71       0.7935      1.00000
     72       0.8779      1.00000
     73       1.0184      1.00000
     74       1.0941      1.00000
     75       1.1461      1.00000
     76       1.2622      1.00000
     77       1.3762      1.00000
     78       1.4069      1.00000
     79       1.5655      1.00000
     80       1.6448      1.00000
     81       1.7635      1.00000
     82       1.8865      1.00000
     83       2.1124      1.00000
     84       2.1613      1.00000
     85       2.3476      1.00000
     86       2.4889      1.00000
     87       2.7685      1.00000
     88       2.8631      1.00000
     89       2.9075      1.00000
     90       2.9723      1.00000
     91       3.1944      1.00000
     92       3.5121      1.00000
     93       3.9537      1.00000
     94       4.0050      1.00000
     95       4.3291      1.00000
     96       4.6835      1.00000
     97       9.3590      0.00000
     98       9.8670      0.00000
     99      10.1736      0.00000
    100      10.3967      0.00000
    101      10.5841      0.00000
    102      10.7266      0.00000
    103      10.9188      0.00000
    104      11.0163      0.00000
    105      11.3224      0.00000
    106      11.4478      0.00000
    107      11.7748      0.00000
    108      11.9166      0.00000
    109      12.2643      0.00000
    110      12.3485      0.00000
    111      12.4427      0.00000
    112      12.6290      0.00000
    113      12.8669      0.00000
    114      12.9173      0.00000
    115      13.2763      0.00000
    116      13.3465      0.00000
    117      13.5071      0.00000
    118      13.6767      0.00000
    119      13.8084      0.00000
    120      14.0612      0.00000

 k-point     8 :      -0.3333    0.4000    0.0000
  band No.  band energies     occupation 
      1     -56.3793      1.00000
      2     -56.3793      1.00000
      3     -56.3339      1.00000
      4     -56.3339      1.00000
      5     -56.1924      1.00000
      6     -56.1924      1.00000
      7     -54.9197      1.00000
      8     -54.9195      1.00000
      9     -54.8195      1.00000
     10     -54.8195      1.00000
     11     -54.7851      1.00000
     12     -54.7849      1.00000
     13     -54.7832      1.00000
     14     -54.7831      1.00000
     15     -54.4697      1.00000
     16     -54.4697      1.00000
     17     -54.3035      1.00000
     18     -54.3034      1.00000
     19     -43.8778      1.00000
     20     -43.8767      1.00000
     21     -43.6122      1.00000
     22     -43.6081      1.00000
     23     -43.3259      1.00000
     24     -43.3237      1.00000
     25     -43.2717      1.00000
     26     -43.2712      1.00000
     27     -16.1201      1.00000
     28     -16.1183      1.00000
     29     -14.9356      1.00000
     30     -14.9355      1.00000
     31      -9.3620      1.00000
     32      -9.0870      1.00000
     33      -9.0401      1.00000
     34      -8.9434      1.00000
     35      -8.8675      1.00000
     36      -8.7054      1.00000
     37      -3.4408      1.00000
     38      -3.4285      1.00000
     39      -2.6882      1.00000
     40      -2.6551      1.00000
     41      -2.3486      1.00000
     42      -2.3136      1.00000
     43      -2.2912      1.00000
     44      -2.2151      1.00000
     45      -1.6561      1.00000
     46      -1.6105      1.00000
     47      -1.5519      1.00000
     48      -1.4772      1.00000
     49      -1.4014      1.00000
     50      -1.3774      1.00000
     51      -1.3132      1.00000
     52      -1.1734      1.00000
     53      -1.1419      1.00000
     54      -1.0835      1.00000
     55      -0.8937      1.00000
     56      -0.8656      1.00000
     57      -0.8436      1.00000
     58      -0.7468      1.00000
     59      -0.6730      1.00000
     60      -0.6215      1.00000
     61      -0.5852      1.00000
     62      -0.4644      1.00000
     63      -0.2820      1.00000
     64      -0.2527      1.00000
     65      -0.0487      1.00000
     66       0.0821      1.00000
     67       0.2691      1.00000
     68       0.4409      1.00000
     69       0.5338      1.00000
     70       0.7509      1.00000
     71       0.8791      1.00000
     72       0.9545      1.00000
     73       1.0081      1.00000
     74       1.0931      1.00000
     75       1.1444      1.00000
     76       1.2425      1.00000
     77       1.3079      1.00000
     78       1.3947      1.00000
     79       1.6143      1.00000
     80       1.6735      1.00000
     81       1.7818      1.00000
     82       1.8804      1.00000
     83       2.0446      1.00000
     84       2.1626      1.00000
     85       2.3795      1.00000
     86       2.5870      1.00000
     87       2.7420      1.00000
     88       2.8164      1.00000
     89       3.0095      1.00000
     90       3.1256      1.00000
     91       3.2707      1.00000
     92       3.5754      1.00000
     93       3.7844      1.00000
     94       3.9211      1.00000
     95       4.2722      1.00000
     96       4.5861      1.00000
     97       9.5630      0.00000
     98       9.7804      0.00000
     99      10.3039      0.00000
    100      10.3747      0.00000
    101      10.5961      0.00000
    102      10.7198      0.00000
    103      10.9102      0.00000
    104      11.0655      0.00000
    105      11.3239      0.00000
    106      11.5764      0.00000
    107      11.7433      0.00000
    108      11.8434      0.00000
    109      12.0383      0.00000
    110      12.1760      0.00000
    111      12.2388      0.00000
    112      12.4190      0.00000
    113      12.8437      0.00000
    114      13.1107      0.00000
    115      13.2943      0.00000
    116      13.4579      0.00000
    117      13.6245      0.00000
    118      13.7687      0.00000
    119      13.8612      0.00000
    120      14.0115      0.00000

 k-point     9 :       0.0000    0.0000    0.5000
  band No.  band energies     occupation 
      1     -56.3766      1.00000
      2     -56.3764      1.00000
      3     -56.3361      1.00000
      4     -56.3360      1.00000
      5     -56.1924      1.00000
      6     -56.1923      1.00000
      7     -54.9188      1.00000
      8     -54.9184      1.00000
      9     -54.8196      1.00000
     10     -54.8195      1.00000
     11     -54.7854      1.00000
     12     -54.7849      1.00000
     13     -54.7836      1.00000
     14     -54.7836      1.00000
     15     -54.4697      1.00000
     16     -54.4697      1.00000
     17     -54.3026      1.00000
     18     -54.3026      1.00000
     19     -43.8793      1.00000
     20     -43.8758      1.00000
     21     -43.6128      1.00000
     22     -43.6082      1.00000
     23     -43.3261      1.00000
     24     -43.3241      1.00000
     25     -43.2720      1.00000
     26     -43.2715      1.00000
     27     -16.3284      1.00000
     28     -16.3263      1.00000
     29     -15.1587      1.00000
     30     -15.1541      1.00000
     31      -9.6544      1.00000
     32      -9.3452      1.00000
     33      -9.0404      1.00000
     34      -8.9697      1.00000
     35      -8.9460      1.00000
     36      -8.8084      1.00000
     37      -2.3323      1.00000
     38      -2.3205      1.00000
     39      -1.9429      1.00000
     40      -1.8682      1.00000
     41      -1.8123      1.00000
     42      -1.7245      1.00000
     43      -1.6150      1.00000
     44      -1.5232      1.00000
     45      -1.2440      1.00000
     46      -1.2174      1.00000
     47      -1.1618      1.00000
     48      -1.1420      1.00000
     49      -1.0766      1.00000
     50      -1.0383      1.00000
     51      -0.9073      1.00000
     52      -0.8411      1.00000
     53      -0.7214      1.00000
     54      -0.6459      1.00000
     55      -0.6405      1.00000
     56      -0.5647      1.00000
     57      -0.5142      1.00000
     58      -0.5019      1.00000
     59      -0.4930      1.00000
     60      -0.4496      1.00000
     61      -0.3571      1.00000
     62      -0.3064      1.00000
     63      -0.1789      1.00000
     64      -0.0092      1.00000
     65      -0.0058      1.00000
     66       0.1560      1.00000
     67       0.2007      1.00000
     68       0.2373      1.00000
     69       0.2535      1.00000
     70       0.4118      1.00000
     71       0.4798      1.00000
     72       0.6478      1.00000
     73       0.6895      1.00000
     74       0.8030      1.00000
     75       0.9154      1.00000
     76       0.9478      1.00000
     77       0.9959      1.00000
[...]
    119      14.5458      0.00000
    120      14.8768      0.00000

 k-point    16 :      -0.3333    0.4000    0.5000
  band No.  band energies     occupation 
      1     -49.7339      1.00000
      2     -49.7337      1.00000
      3     -49.6871      1.00000
      4     -49.6869      1.00000
      5     -49.6854      1.00000
      6     -49.6851      1.00000
      7     -49.6213      1.00000
      8     -49.6210      1.00000
      9     -49.6160      1.00000
     10     -49.6160      1.00000
     11     -49.6071      1.00000
     12     -49.6068      1.00000
     13     -49.5142      1.00000
     14     -49.5140      1.00000
     15     -49.3370      1.00000
     16     -49.3368      1.00000
     17     -49.1434      1.00000
     18     -49.1434      1.00000
     19     -43.8701      1.00000
     20     -43.8690      1.00000
     21     -43.6135      1.00000
     22     -43.6094      1.00000
     23     -43.3307      1.00000
     24     -43.3285      1.00000
     25     -43.2726      1.00000
     26     -43.2721      1.00000
     27     -15.6385      1.00000
     28     -15.6379      1.00000
     29     -14.7221      1.00000
     30     -14.7220      1.00000
     31      -9.0129      1.00000
     32      -8.9010      1.00000
     33      -8.7494      1.00000
     34      -8.5748      1.00000
     35      -8.5117      1.00000
     36      -8.4220      1.00000
     37      -2.0918      1.00000
     38      -1.8458      1.00000
     39      -1.4605      1.00000
     40      -1.3048      1.00000
     41      -1.1211      1.00000
     42      -1.0370      1.00000
     43      -0.8078      1.00000
     44      -0.6641      1.00000
     45      -0.3749      1.00000
     46      -0.2096      1.00000
     47       0.0027      1.00000
     48       0.0917      1.00000
     49       0.4170      1.00000
     50       0.5245      1.00000
     51       0.7091      1.00000
     52       0.7450      1.00000
     53       0.8841      1.00000
     54       0.9724      1.00000
     55       1.1305      1.00000
     56       1.2653      1.00000
     57       1.5085      1.00000
     58       1.6240      1.00000
     59       1.7025      1.00000
     60       1.7731      1.00000
     61       1.9572      1.00000
     62       2.0279      1.00000
     63       2.1349      1.00000
     64       2.2023      1.00000
     65       2.4859      1.00000
     66       2.6576      1.00000
     67       3.5112      1.00000
     68       3.5414      1.00000
     69       3.7044      1.00000
     70       3.8231      1.00000
     71       4.6704      1.00000
     72       4.6912      1.00000
     73       7.2256      0.00000
     74       7.3363      0.00000
     75       7.5408      0.00000
     76       7.5791      0.00000
     77       7.6181      0.00000
     78       7.7569      0.00000
     79       7.8363      0.00000
     80       7.8944      0.00000
     81       8.0728      0.00000
     82       8.2351      0.00000
     83       8.2617      0.00000
     84       8.3540      0.00000
     85       8.3845      0.00000
     86       8.4852      0.00000
     87       8.6151      0.00000
     88       8.6489      0.00000
     89       8.6849      0.00000
     90       8.7803      0.00000
     91       8.8578      0.00000
     92       8.9134      0.00000
     93       9.4917      0.00000
     94       9.6498      0.00000
     95       9.6760      0.00000
     96      10.1958      0.00000
     97      10.3761      0.00000
     98      10.8216      0.00000
     99      10.8653      0.00000
    100      11.0556      0.00000
    101      11.3510      0.00000
    102      11.6197      0.00000
    103      11.6586      0.00000
    104      11.9809      0.00000
    105      12.2520      0.00000
    106      12.5379      0.00000
    107      12.8406      0.00000
    108      12.8597      0.00000
    109      13.1389      0.00000
    110      13.1796      0.00000
    111      13.3326      0.00000
    112      13.4308      0.00000
    113      13.5447      0.00000
    114      13.6133      0.00000
    115      13.8424      0.00000
    116      13.9542      0.00000
    117      14.1363      0.00000
    118      14.2736      0.00000
    119      14.4717      0.00000
    120      14.6226      0.00000


--------------------------------------------------------------------------------------------------------


 soft charge-density along one line, spin component           1
         0         1         2         3         4         5         6         7         8         9
 total charge-density along one line

 soft charge-density along one line, spin component           2
         0         1         2         3         4         5         6         7         8         9
 total charge-density along one line

 pseudopotential strength for first ion, spin component:           1
-35.032   4.784   0.000   0.002   0.000
  4.784 -11.383   0.002   0.012   0.001
  0.000   0.002   0.031  -0.002  -0.000
  0.002   0.012  -0.002   0.023  -0.003
  0.000   0.001  -0.000  -0.003   0.032
 pseudopotential strength for first ion, spin component:           2
-35.032   4.784   0.000   0.002   0.000
  4.784 -11.383   0.002   0.012   0.001
  0.000   0.002   0.030  -0.002  -0.000
  0.002   0.012  -0.002   0.023  -0.003
  0.000   0.001  -0.000  -0.003   0.031
 total augmentation occupancy for first ion, spin component:           1
  1.999  -0.027  -0.001  -0.007  -0.001
 -0.027   0.724   0.005   0.026   0.001
 -0.001   0.005   0.025   0.005   0.001
 -0.007   0.026   0.005   0.047   0.008
 -0.001   0.001   0.001   0.008   0.023
 total augmentation occupancy for first ion, spin component:           2
 -0.000  -0.000  -0.000  -0.000  -0.000
 -0.000  -0.004  -0.000  -0.001  -0.001
 -0.000  -0.000  -0.000   0.000   0.000
 -0.000  -0.001   0.000   0.000  -0.000
 -0.000  -0.001   0.000  -0.000   0.000


------------------------ aborting loop because EDIFF is reached ----------------------------------------





 total charge

# of ion       s       p       d       tot
------------------------------------------
    1        2.022   0.068   0.000   2.090
    2        2.022   0.068   0.000   2.090
    3        2.015   0.054   0.000   2.069
    4        2.015   0.054   0.000   2.069
    5        2.025   0.075   0.000   2.100
    6        2.027   0.078   0.000   2.105
    7        2.025   0.075   0.000   2.100
    8        2.027   0.078   0.000   2.105
    9        0.239   6.214   5.890  12.343
   10        0.239   6.214   5.890  12.343
   11        0.242   6.232   5.903  12.376
   12        0.238   6.238   5.914  12.390
   13        0.242   6.232   5.903  12.376
   14        0.238   6.238   5.914  12.390
   15        1.308   2.463   0.000   3.770
   16        1.307   2.462   0.000   3.769
   17        1.308   2.462   0.000   3.770
   18        1.310   2.468   0.000   3.778
   19        1.308   2.462   0.000   3.770
   20        1.310   2.468   0.000   3.778
   21        1.550   3.546   0.000   5.095
   22        1.556   3.530   0.000   5.086
   23        1.550   3.546   0.000   5.095
   24        1.556   3.530   0.000   5.086
--------------------------------------------------
tot         31.677  66.853  35.412 133.941



 magnetization (x)

# of ion       s       p       d       tot
------------------------------------------
    1       -0.000  -0.000   0.000  -0.000
    2       -0.000  -0.000   0.000  -0.000
    3        0.001   0.002   0.000   0.003
    4        0.001   0.002   0.000   0.003
    5       -0.001  -0.001   0.000  -0.002
    6       -0.000  -0.000   0.000  -0.000
    7       -0.001  -0.001   0.000  -0.002
    8       -0.000  -0.000   0.000  -0.000
    9        0.031   0.022   3.573   3.625
   10        0.031   0.022   3.573   3.625
   11        0.032   0.025   3.572   3.629
   12        0.030   0.024   3.586   3.639
   13        0.032   0.025   3.572   3.629
   14        0.030   0.024   3.586   3.639
   15        0.018   0.084   0.000   0.102
   16        0.017   0.079   0.000   0.096
   17        0.019   0.107   0.000   0.125
   18        0.019   0.107   0.000   0.126
   19        0.019   0.107   0.000   0.125
   20        0.019   0.107   0.000   0.126
   21        0.009   0.061   0.000   0.070
   22        0.015   0.149   0.000   0.164
   23        0.009   0.061   0.000   0.070
   24        0.015   0.149   0.000   0.164
--------------------------------------------------
tot          0.342   1.154  21.461  22.957

    FORLOC:  cpu time    0.0038: real time    0.0038
    FORHF :  cpu time  156.3812: real time  156.4307
    FORNL :  cpu time    0.1232: real time    0.1234
    STRESS:  cpu time    0.3475: real time    0.3480
    FORCOR:  cpu time    0.2923: real time    0.2923
    OFIELD:  cpu time    0.0004: real time    0.0004

  FORCE on cell =-STRESS in cart. coord.  units (eV):
  Direction    XX          YY          ZZ          XY          YZ          ZX
  --------------------------------------------------------------------------------------
  Alpha Z   456.74369   456.74369   456.74369
  Ewald   -4646.68082 -2429.72630 -4390.76465   -46.15658  -369.68955   173.11022
  Hartree  1621.81943  3326.06934  1622.67367   -38.44610  -322.20610   118.82246
  E(xc)    -682.37071  -681.57450  -681.73518    -0.00969    -0.02767     0.09227
  Local     302.30545 -3563.65855   137.00787    84.44575   699.10407  -283.56241
  n-local   593.46954   603.42976   593.48496    -0.11215    -1.85696     1.36002
  augment   854.07350   826.39201   797.58805    -0.14175    -5.68322    -5.15385
  Kinetic  2210.87458  2160.09549  2152.08878     0.37977    -1.76472    -6.95781
  Fock     -710.37463  -698.17293  -687.29915     0.06397     2.15873     2.31749
  -------------------------------------------------------------------------------------
  Total      -0.13933    -0.40129    -0.21331     0.01387     0.03698     0.02992
  in kB      -0.72066    -2.07556    -1.10329     0.07173     0.19129     0.15474
  external pressure =       -1.30 kB  Pullay stress =        0.00 kB


 VOLUME and BASIS-vectors are now :
 -----------------------------------------------------------------------------
  energy-cutoff  :      520.00
  volume of cell :      309.76
      direct lattice vectors                 reciprocal lattice vectors
     7.428201260  0.002089940 -1.361655420     0.134655598  0.004637939  0.000189896
    -0.137438720  4.020772530 -0.743594370     0.000623737  0.249429828  0.003785496
    -0.009233700 -0.157862020 10.403196900     0.017669408  0.018435669  0.096419731

  length of vectors
     7.551972180  4.091263097 10.404398657     0.134735580  0.249459331  0.099743904


 FORCES acting on ions:
    Electron-Ion                     Ewald-Force                    Non-Local-Force
 -----------------------------------------------------------------------------------------------
   0.192E+02 -.713E+00 -.740E+01   -.191E+02 0.937E+00 0.860E+01   -.915E-01 -.228E+00 -.121E+01
   -.192E+02 0.713E+00 0.740E+01   0.191E+02 -.937E+00 -.860E+01   0.915E-01 0.228E+00 0.121E+01
   0.225E+02 0.180E+02 0.930E+02   -.224E+02 -.178E+02 -.919E+02   -.140E+00 -.225E+00 -.119E+01
   -.225E+02 -.180E+02 -.930E+02   0.224E+02 0.178E+02 0.919E+02   0.140E+00 0.225E+00 0.119E+01
   -.175E+02 -.470E+01 -.222E+02   0.187E+02 0.465E+01 0.217E+02   -.123E+01 0.594E-01 0.549E+00
   0.292E+02 0.390E+01 0.157E+02   -.305E+02 -.392E+01 -.156E+02   0.133E+01 0.238E-01 -.117E+00
   0.175E+02 0.470E+01 0.222E+02   -.187E+02 -.465E+01 -.217E+02   0.123E+01 -.594E-01 -.549E+00
   -.292E+02 -.390E+01 -.157E+02   0.305E+02 0.392E+01 0.156E+02   -.133E+01 -.238E-01 0.117E+00
   -.385E+02 0.753E+02 0.414E+03   0.401E+02 -.753E+02 -.415E+03   -.142E+01 0.191E-01 0.365E+00
   0.385E+02 -.753E+02 -.414E+03   -.401E+02 0.753E+02 0.415E+03   0.142E+01 -.191E-01 -.365E+00
   0.170E+02 0.250E+02 0.132E+03   -.178E+02 -.253E+02 -.134E+03   0.661E+00 0.275E+00 0.137E+01
   -.416E+01 -.208E+02 -.112E+03   0.428E+01 0.205E+02 0.110E+03   -.116E+00 0.238E+00 0.131E+01
   -.170E+02 -.250E+02 -.132E+03   0.178E+02 0.253E+02 0.134E+03   -.661E+00 -.275E+00 -.137E+01
   0.416E+01 0.208E+02 0.112E+03   -.428E+01 -.205E+02 -.110E+03   0.116E+00 -.238E+00 -.131E+01
   0.276E-05 -.242E-06 0.724E-06   0.355E-13 -.107E-13 -.568E-13   -.169E-21 0.189E-21 0.577E-21
   0.190E-05 0.794E-06 0.367E-06   -.639E-13 -.302E-13 0.284E-13   -.836E-22 -.111E-22 -.715E-21
   0.931E+02 -.353E+02 -.208E+03   -.936E+02 0.355E+02 0.209E+03   0.511E+00 -.148E+00 -.897E+00
   -.105E+03 -.127E+02 -.492E+02   0.106E+03 0.127E+02 0.492E+02   -.289E+00 -.128E-01 -.157E-01
   -.931E+02 0.353E+02 0.208E+03   0.936E+02 -.355E+02 -.209E+03   -.511E+00 0.148E+00 0.897E+00
   0.105E+03 0.127E+02 0.492E+02   -.106E+03 -.127E+02 -.492E+02   0.289E+00 0.128E-01 0.157E-01
   0.440E+01 0.915E+01 0.487E+02   -.440E+01 -.920E+01 -.489E+02   0.836E-02 0.446E-01 0.240E+00
   -.436E+01 -.217E+02 -.117E+03   0.462E+01 0.225E+02 0.121E+03   -.231E+00 -.676E+00 -.361E+01
   -.440E+01 -.915E+01 -.487E+02   0.440E+01 0.920E+01 0.489E+02   -.836E-02 -.446E-01 -.240E+00
   0.436E+01 0.217E+02 0.117E+03   -.462E+01 -.225E+02 -.121E+03   0.231E+00 0.676E+00 0.361E+01
 -----------------------------------------------------------------------------------------------
   -.111E-04 0.580E-06 -.184E-06   0.213E-13 -.355E-14 0.128E-12   -.833E-16 0.222E-15 -.444E-15


 POSITION                                       TOTAL-FORCE (eV/Angst)
 -----------------------------------------------------------------------------------
      7.08420      0.01198     -1.24461        -0.016415      0.000509      0.005787
      3.91143      3.85407      8.86173         0.016415     -0.000509     -0.005787
      2.56361      3.14355      5.26892        -0.015260     -0.000237      0.001541
      1.00381      0.72041      3.70985         0.015260      0.000237     -0.001541
      1.47785      3.57188      7.78569        -0.006742      0.002470      0.014601
      4.96954      3.44881      6.47486        -0.011579     -0.000474     -0.000424
      2.08958      0.29207      1.19308         0.006742     -0.002470     -0.014601
      6.02609      0.41723      1.14226         0.011579      0.000474      0.000424
      6.80272      3.12899      4.40666         0.013739      0.005123      0.025162
      4.19291      0.73706      3.21046        -0.013739     -0.005123     -0.025162
      3.25208      1.48479      7.42750        -0.010152      0.001594      0.010496
      7.03217      1.51095      6.87029        -0.008362     -0.001603     -0.007125
      0.31535      2.37916      1.55128         0.010152     -0.001594     -0.010496
      3.96346      2.35509      0.74683         0.008362      0.001603      0.007125
      1.78833      2.01091     -0.71221        -0.000000      0.000000      0.000000
      5.50243      2.01195     -1.39304        -0.000000      0.000000      0.000000
      2.51892      2.69419      2.84739         0.003923      0.000495      0.001952
      6.08591      2.69359      2.18485         0.006398     -0.003830     -0.021893
      1.04851      1.16977      6.13139        -0.003923     -0.000495     -0.001952
      4.90972      1.17246      5.43227        -0.006398      0.003830      0.021893
      3.21492      3.50546      7.10548        -0.003656      0.000495      0.003352
      6.94093      3.50814      6.43128        -0.007061     -0.003961     -0.020110
      0.35251      0.35849      1.87329         0.003656     -0.000495     -0.003352
      4.05470      0.35790      1.18584         0.007061      0.003961      0.020110
 -----------------------------------------------------------------------------------
    total drift:                               -0.000011      0.000001     -0.000000


--------------------------------------------------------------------------------------------------------



  FREE ENERGIE OF THE ION-ELECTRON SYSTEM (eV)
  ---------------------------------------------------
  free  energy   TOTEN  =      -177.23020717 eV

  energy  without entropy=     -177.23020717  energy(sigma->0) =     -177.23020717



--------------------------------------------------------------------------------------------------------


    POTLOK:  cpu time    2.3565: real time    2.3572


--------------------------------------------------------------------------------------------------------


 writing wavefunctions
     LOOP+:  cpu time 1160.6808: real time 1166.1157
    4ORBIT:  cpu time    0.0000: real time    0.0000



 total charge

# of ion       s       p       d       tot
------------------------------------------
    1        2.022   0.068   0.000   2.090
    2        2.022   0.068   0.000   2.090
    3        2.015   0.054   0.000   2.069
    4        2.015   0.054   0.000   2.069
    5        2.025   0.075   0.000   2.100
    6        2.027   0.078   0.000   2.105
    7        2.025   0.075   0.000   2.100
    8        2.027   0.078   0.000   2.105
    9        0.239   6.214   5.890  12.343
   10        0.239   6.214   5.890  12.343
   11        0.242   6.232   5.903  12.376
   12        0.238   6.238   5.914  12.390
   13        0.242   6.232   5.903  12.376
   14        0.238   6.238   5.914  12.390
   15        1.308   2.463   0.000   3.770
   16        1.307   2.462   0.000   3.769
   17        1.308   2.462   0.000   3.770
   18        1.310   2.468   0.000   3.778
   19        1.308   2.462   0.000   3.770
   20        1.310   2.468   0.000   3.778
   21        1.550   3.546   0.000   5.095
   22        1.556   3.530   0.000   5.086
   23        1.550   3.546   0.000   5.095
   24        1.556   3.530   0.000   5.086
--------------------------------------------------
tot         31.677  66.853  35.412 133.941



 magnetization (x)

# of ion       s       p       d       tot
------------------------------------------
    1       -0.000  -0.000   0.000  -0.000
    2       -0.000  -0.000   0.000  -0.000
    3        0.001   0.002   0.000   0.003
    4        0.001   0.002   0.000   0.003
    5       -0.001  -0.001   0.000  -0.002
    6       -0.000  -0.000   0.000  -0.000
    7       -0.001  -0.001   0.000  -0.002
    8       -0.000  -0.000   0.000  -0.000
    9        0.031   0.022   3.573   3.625
   10        0.031   0.022   3.573   3.625
   11        0.032   0.025   3.572   3.629
   12        0.030   0.024   3.586   3.639
   13        0.032   0.025   3.572   3.629
   14        0.030   0.024   3.586   3.639
   15        0.018   0.084   0.000   0.102
   16        0.017   0.079   0.000   0.096
   17        0.019   0.107   0.000   0.125
   18        0.019   0.107   0.000   0.126
   19        0.019   0.107   0.000   0.125
   20        0.019   0.107   0.000   0.126
   21        0.009   0.061   0.000   0.070
   22        0.015   0.149   0.000   0.164
   23        0.009   0.061   0.000   0.070
   24        0.015   0.149   0.000   0.164
--------------------------------------------------
tot          0.342   1.154  21.461  22.957


 total amount of memory used by VASP MPI-rank0   115374. kBytes
=======================================================================

   base      :      30000. kBytes
   nonl-proj :      10521. kBytes
   fftplans  :       2014. kBytes
   grid      :       5075. kBytes
   one-center:         93. kBytes
   HF        :        194. kBytes
   nonlr-proj:       4342. kBytes
   wavefun   :      51978. kBytes
   fock_wrk  :      11157. kBytes

  
  
 General timing and accounting informations for this job:
 ========================================================
  
                  Total CPU time used (sec):     1183.847
                            User time (sec):     1175.997
                          System time (sec):        7.849
                         Elapsed time (sec):     1192.842
  
                   Maximum memory used (kb):      330792.
                   Average memory used (kb):          N/A
  
                          Minor page faults:        81480
                          Major page faults:            6
                 Voluntary context switches:         5494
