 144 144   0   0
  0.1325381E+02  0.1546422E-08  0.1214491E-08  0.1054520E-08  0.5000000E-15
  1.000000000000000E-004
  CAR 
 unknown system                          
     17.01032602    -54.87234002  301      5.08978390      1.00000000
    -54.872  0.0000E+00  0.0000E+00  0.0000E+00  0.0000E+00
    -54.633  0.0000E+00  0.0000E+00  0.0000E+00  0.0000E+00
    -54.393  0.0000E+00  0.0000E+00  0.0000E+00  0.0000E+00
    -54.154  0.0000E+00  0.0000E+00  0.0000E+00  0.0000E+00
    -53.914  0.0000E+00  0.0000E+00  0.0000E+00  0.0000E+00
    -53.674  0.0000E+00  0.0000E+00  0.0000E+00  0.0000E+00
    -53.435  0.0000E+00  0.0000E+00  0.0000E+00  0.0000E+00
    -53.195  0.0000E+00  0.0000E+00  0.0000E+00  0.0000E+00
    -52.955  0.0000E+00  0.0000E+00  0.0000E+00  0.0000E+00
    -52.716  0.0000E+00  0.0000E+00  0.0000E+00  0.0000E+00
    -52.476  0.0000E+00  0.0000E+00  0.0000E+00  0.0000E+00
    -52.237  0.0000E+00  0.0000E+00  0.0000E+00  0.0000E+00
    -51.997  0.0000E+00  0.0000E+00  0.0000E+00  0.0000E+00
    -51.757  0.3051E-03  0.0000E+00  0.7310E-04  0.0000E+00
    -51.518  0.4979E+02  0.0000E+00  0.1193E+02  0.0000E+00
    -51.278  0.8582E+02  0.0000E+00  0.3249E+02  0.0000E+00
    -51.039  0.1464E+02  0.0000E+00  0.3600E+02  0.0000E+00
    -50.799  0.0000E+00  0.0000E+00  0.3600E+02  0.0000E+00
    -50.559  0.0000E+00  0.0000E+00  0.3600E+02  0.0000E+00
    -50.320  0.1111E-03  0.0000E+00  0.3600E+02  0.0000E+00
    -50.080  0.6657E+02  0.0000E+00  0.5195E+02  0.0000E+00
    -49.841  0.2081E+03  0.0000E+00  0.1018E+03  0.0000E+00
    -49.601  0.2585E+02  0.0000E+00  0.1080E+03  0.0000E+00
    -49.361  0.0000E+00  0.0000E+00  0.1080E+03  0.0000E+00
    -49.122  0.0000E+00  0.0000E+00  0.1080E+03  0.0000E+00
    -48.882  0.0000E+00  0.0000E+00  0.1080E+03  0.0000E+00
    -48.643  0.0000E+00  0.0000E+00  0.1080E+03  0.0000E+00
    -48.403  0.0000E+00  0.0000E+00  0.1080E+03  0.0000E+00
    -48.163  0.0000E+00  0.0000E+00  0.1080E+03  0.0000E+00
    -47.924  0.0000E+00  0.0000E+00  0.1080E+03  0.0000E+00
    -47.684  0.0000E+00  0.0000E+00  0.1080E+03  0.0000E+00
    -47.444  0.0000E+00  0.0000E+00  0.1080E+03  0.0000E+00
    -47.205  0.0000E+00  0.0000E+00  0.1080E+03  0.0000E+00
    -46.965  0.0000E+00  0.5974E-01  0.1080E+03  0.1431E-01
    -46.726  0.0000E+00  0.5088E+02  0.1080E+03  0.1221E+02
    -46.486  0.0000E+00  0.9527E+02  0.1080E+03  0.3503E+02
    -46.246  0.0000E+00  0.1452E+03  0.1080E+03  0.6981E+02
    -46.007  0.0000E+00  0.1594E+03  0.1080E+03  0.1080E+03
    -45.767  0.0000E+00  0.5128E-02  0.1080E+03  0.1080E+03
    -45.528  0.0000E+00  0.0000E+00  0.1080E+03  0.1080E+03
    -45.288  0.0000E+00  0.0000E+00  0.1080E+03  0.1080E+03
    -45.048  0.0000E+00  0.0000E+00  0.1080E+03  0.1080E+03
    -44.809  0.0000E+00  0.0000E+00  0.1080E+03  0.1080E+03
    -44.569  0.0000E+00  0.0000E+00  0.1080E+03  0.1080E+03
    -44.330  0.0000E+00  0.0000E+00  0.1080E+03  0.1080E+03
    -44.090  0.0000E+00  0.0000E+00  0.1080E+03  0.1080E+03
    -43.850  0.0000E+00  0.0000E+00  0.1080E+03  0.1080E+03
    -43.611  0.0000E+00  0.0000E+00  0.1080E+03  0.1080E+03
    -43.371  0.0000E+00  0.0000E+00  0.1080E+03  0.1080E+03
    -43.132  0.0000E+00  0.0000E+00  0.1080E+03  0.1080E+03
    -42.892  0.0000E+00  0.0000E+00  0.1080E+03  0.1080E+03
    -42.652  0.0000E+00  0.0000E+00  0.1080E+03  0.1080E+03
    -42.413  0.0000E+00  0.0000E+00  0.1080E+03  0.1080E+03
    -42.173  0.0000E+00  0.0000E+00  0.1080E+03  0.1080E+03
    -41.933  0.0000E+00  0.0000E+00  0.1080E+03  0.1080E+03
    -41.694  0.0000E+00  0.0000E+00  0.1080E+03  0.1080E+03
    -41.454  0.0000E+00  0.0000E+00  0.1080E+03  0.1080E+03
    -41.215  0.0000E+00  0.0000E+00  0.1080E+03  0.1080E+03
    -40.975  0.0000E+00  0.0000E+00  0.1080E+03  0.1080E+03
    -40.735  0.1452E-08  0.4750E-09  0.1080E+03  0.1080E+03
    -40.496  0.2945E+02  0.2619E+02  0.1151E+03  0.1143E+03
    -40.256  0.4643E+02  0.5012E+02  0.1262E+03  0.1263E+03
    -40.017  0.9990E+02  0.9983E+02  0.1501E+03  0.1502E+03
    -39.777  0.2456E+02  0.2419E+02  0.1560E+03  0.1560E+03
    -39.537  0.0000E+00  0.0000E+00  0.1560E+03  0.1560E+03
    -39.298  0.0000E+00  0.0000E+00  0.1560E+03  0.1560E+03
    -39.058  0.0000E+00  0.0000E+00  0.1560E+03  0.1560E+03
    -38.819  0.0000E+00  0.0000E+00  0.1560E+03  0.1560E+03
    -38.579  0.0000E+00  0.0000E+00  0.1560E+03  0.1560E+03
    -38.339  0.0000E+00  0.0000E+00  0.1560E+03  0.1560E+03
    -38.100  0.0000E+00  0.0000E+00  0.1560E+03  0.1560E+03
    -37.860  0.0000E+00  0.0000E+00  0.1560E+03  0.1560E+03
    -37.621  0.0000E+00  0.0000E+00  0.1560E+03  0.1560E+03
    -37.381  0.0000E+00  0.0000E+00  0.1560E+03  0.1560E+03
    -37.141  0.0000E+00  0.0000E+00  0.1560E+03  0.1560E+03
    -36.902  0.0000E+00  0.0000E+00  0.1560E+03  0.1560E+03
    -36.662  0.0000E+00  0.0000E+00  0.1560E+03  0.1560E+03
    -36.422  0.0000E+00  0.0000E+00  0.1560E+03  0.1560E+03
    -36.183  0.0000E+00  0.0000E+00  0.1560E+03  0.1560E+03
    -35.943  0.0000E+00  0.0000E+00  0.1560E+03  0.1560E+03
    -35.704  0.0000E+00  0.0000E+00  0.1560E+03  0.1560E+03
    -35.464  0.0000E+00  0.0000E+00  0.1560E+03  0.1560E+03
    -35.224  0.0000E+00  0.0000E+00  0.1560E+03  0.1560E+03
    -34.985  0.0000E+00  0.0000E+00  0.1560E+03  0.1560E+03
    -34.745  0.0000E+00  0.0000E+00  0.1560E+03  0.1560E+03
    -34.506  0.0000E+00  0.0000E+00  0.1560E+03  0.1560E+03
    -34.266  0.0000E+00  0.0000E+00  0.1560E+03  0.1560E+03
    -34.026  0.0000E+00  0.0000E+00  0.1560E+03  0.1560E+03
    -33.787  0.0000E+00  0.0000E+00  0.1560E+03  0.1560E+03
    -33.547  0.0000E+00  0.0000E+00  0.1560E+03  0.1560E+03
    -33.308  0.0000E+00  0.0000E+00  0.1560E+03  0.1560E+03
    -33.068  0.0000E+00  0.0000E+00  0.1560E+03  0.1560E+03
    -32.828  0.0000E+00  0.0000E+00  0.1560E+03  0.1560E+03
    -32.589  0.0000E+00  0.0000E+00  0.1560E+03  0.1560E+03
    -32.349  0.0000E+00  0.0000E+00  0.1560E+03  0.1560E+03
    -32.109  0.0000E+00  0.0000E+00  0.1560E+03  0.1560E+03
    -31.870  0.0000E+00  0.0000E+00  0.1560E+03  0.1560E+03
    -31.630  0.0000E+00  0.0000E+00  0.1560E+03  0.1560E+03
    -31.391  0.0000E+00  0.0000E+00  0.1560E+03  0.1560E+03
    -31.151  0.0000E+00  0.0000E+00  0.1560E+03  0.1560E+03
    -30.911  0.0000E+00  0.0000E+00  0.1560E+03  0.1560E+03
    -30.672  0.0000E+00  0.0000E+00  0.1560E+03  0.1560E+03
    -30.432  0.0000E+00  0.0000E+00  0.1560E+03  0.1560E+03
    -30.193  0.0000E+00  0.0000E+00  0.1560E+03  0.1560E+03
    -29.953  0.0000E+00  0.0000E+00  0.1560E+03  0.1560E+03
    -29.713  0.0000E+00  0.0000E+00  0.1560E+03  0.1560E+03
    -29.474  0.0000E+00  0.0000E+00  0.1560E+03  0.1560E+03
    -29.234  0.0000E+00  0.0000E+00  0.1560E+03  0.1560E+03
    -28.995  0.0000E+00  0.0000E+00  0.1560E+03  0.1560E+03
    -28.755  0.0000E+00  0.0000E+00  0.1560E+03  0.1560E+03
    -28.515  0.0000E+00  0.0000E+00  0.1560E+03  0.1560E+03
    -28.276  0.0000E+00  0.0000E+00  0.1560E+03  0.1560E+03
    -28.036  0.0000E+00  0.0000E+00  0.1560E+03  0.1560E+03
    -27.797  0.0000E+00  0.0000E+00  0.1560E+03  0.1560E+03
    -27.557  0.0000E+00  0.0000E+00  0.1560E+03  0.1560E+03
    -27.317  0.0000E+00  0.0000E+00  0.1560E+03  0.1560E+03
    -27.078  0.0000E+00  0.0000E+00  0.1560E+03  0.1560E+03
    -26.838  0.0000E+00  0.0000E+00  0.1560E+03  0.1560E+03
    -26.598  0.0000E+00  0.0000E+00  0.1560E+03  0.1560E+03
    -26.359  0.0000E+00  0.0000E+00  0.1560E+03  0.1560E+03
    -26.119  0.0000E+00  0.0000E+00  0.1560E+03  0.1560E+03
    -25.880  0.0000E+00  0.0000E+00  0.1560E+03  0.1560E+03
    -25.640  0.0000E+00  0.0000E+00  0.1560E+03  0.1560E+03
    -25.400  0.0000E+00  0.0000E+00  0.1560E+03  0.1560E+03
    -25.161  0.0000E+00  0.0000E+00  0.1560E+03  0.1560E+03
    -24.921  0.0000E+00  0.0000E+00  0.1560E+03  0.1560E+03
    -24.682  0.0000E+00  0.0000E+00  0.1560E+03  0.1560E+03
    -24.442  0.0000E+00  0.0000E+00  0.1560E+03  0.1560E+03
    -24.202  0.0000E+00  0.0000E+00  0.1560E+03  0.1560E+03
    -23.963  0.0000E+00  0.0000E+00  0.1560E+03  0.1560E+03
    -23.723  0.0000E+00  0.0000E+00  0.1560E+03  0.1560E+03
    -23.484  0.0000E+00  0.0000E+00  0.1560E+03  0.1560E+03
    -23.244  0.0000E+00  0.0000E+00  0.1560E+03  0.1560E+03
    -23.004  0.0000E+00  0.0000E+00  0.1560E+03  0.1560E+03
    -22.765  0.0000E+00  0.0000E+00  0.1560E+03  0.1560E+03
    -22.525  0.0000E+00  0.0000E+00  0.1560E+03  0.1560E+03
    -22.286  0.0000E+00  0.0000E+00  0.1560E+03  0.1560E+03
    -22.046  0.0000E+00  0.0000E+00  0.1560E+03  0.1560E+03
    -21.806  0.0000E+00  0.0000E+00  0.1560E+03  0.1560E+03
    -21.567  0.0000E+00  0.0000E+00  0.1560E+03  0.1560E+03
    -21.327  0.0000E+00  0.0000E+00  0.1560E+03  0.1560E+03
    -21.087  0.0000E+00  0.0000E+00  0.1560E+03  0.1560E+03
    -20.848  0.0000E+00  0.0000E+00  0.1560E+03  0.1560E+03
    -20.608  0.0000E+00  0.0000E+00  0.1560E+03  0.1560E+03
    -20.369  0.0000E+00  0.0000E+00  0.1560E+03  0.1560E+03
    -20.129  0.0000E+00  0.0000E+00  0.1560E+03  0.1560E+03
    -19.889  0.0000E+00  0.0000E+00  0.1560E+03  0.1560E+03
    -19.650  0.0000E+00  0.0000E+00  0.1560E+03  0.1560E+03
    -19.410  0.0000E+00  0.0000E+00  0.1560E+03  0.1560E+03
    -19.171  0.0000E+00  0.0000E+00  0.1560E+03  0.1560E+03
    -18.931  0.0000E+00  0.0000E+00  0.1560E+03  0.1560E+03
    -18.691  0.0000E+00  0.0000E+00  0.1560E+03  0.1560E+03
    -18.452  0.0000E+00  0.0000E+00  0.1560E+03  0.1560E+03
    -18.212  0.0000E+00  0.0000E+00  0.1560E+03  0.1560E+03
    -17.973  0.0000E+00  0.0000E+00  0.1560E+03  0.1560E+03
    -17.733  0.0000E+00  0.0000E+00  0.1560E+03  0.1560E+03
    -17.493  0.0000E+00  0.0000E+00  0.1560E+03  0.1560E+03
    -17.254  0.0000E+00  0.0000E+00  0.1560E+03  0.1560E+03
    -17.014  0.0000E+00  0.0000E+00  0.1560E+03  0.1560E+03
    -16.775  0.0000E+00  0.0000E+00  0.1560E+03  0.1560E+03
    -16.535  0.0000E+00  0.0000E+00  0.1560E+03  0.1560E+03
    -16.295  0.0000E+00  0.0000E+00  0.1560E+03  0.1560E+03
    -16.056  0.0000E+00  0.0000E+00  0.1560E+03  0.1560E+03
    -15.816  0.0000E+00  0.0000E+00  0.1560E+03  0.1560E+03
    -15.576  0.0000E+00  0.0000E+00  0.1560E+03  0.1560E+03
    -15.337  0.0000E+00  0.0000E+00  0.1560E+03  0.1560E+03
    -15.097  0.0000E+00  0.0000E+00  0.1560E+03  0.1560E+03
    -14.858  0.0000E+00  0.0000E+00  0.1560E+03  0.1560E+03
    -14.618  0.0000E+00  0.0000E+00  0.1560E+03  0.1560E+03
    -14.378  0.0000E+00  0.0000E+00  0.1560E+03  0.1560E+03
    -14.139  0.0000E+00  0.0000E+00  0.1560E+03  0.1560E+03
    -13.899  0.1280E-02  0.0000E+00  0.1560E+03  0.1560E+03
    -13.660  0.2222E+02  0.6115E-13  0.1613E+03  0.1560E+03
    -13.420  0.2768E+02  0.1816E+01  0.1680E+03  0.1564E+03
    -13.180  0.8973E+01  0.4448E+02  0.1701E+03  0.1671E+03
    -12.941  0.3147E+02  0.4507E+01  0.1776E+03  0.1682E+03
    -12.701  0.9816E+01  0.4213E+02  0.1800E+03  0.1783E+03
    -12.462  0.0000E+00  0.7234E+01  0.1800E+03  0.1800E+03
    -12.222  0.0000E+00  0.0000E+00  0.1800E+03  0.1800E+03
    -11.982  0.0000E+00  0.0000E+00  0.1800E+03  0.1800E+03
    -11.743  0.0000E+00  0.0000E+00  0.1800E+03  0.1800E+03
    -11.503  0.0000E+00  0.0000E+00  0.1800E+03  0.1800E+03
    -11.264  0.0000E+00  0.0000E+00  0.1800E+03  0.1800E+03
    -11.024  0.0000E+00  0.0000E+00  0.1800E+03  0.1800E+03
    -10.784  0.0000E+00  0.0000E+00  0.1800E+03  0.1800E+03
    -10.545  0.0000E+00  0.0000E+00  0.1800E+03  0.1800E+03
    -10.305  0.0000E+00  0.0000E+00  0.1800E+03  0.1800E+03
    -10.065  0.0000E+00  0.0000E+00  0.1800E+03  0.1800E+03
     -9.826  0.0000E+00  0.0000E+00  0.1800E+03  0.1800E+03
     -9.586  0.0000E+00  0.0000E+00  0.1800E+03  0.1800E+03
     -9.347  0.0000E+00  0.0000E+00  0.1800E+03  0.1800E+03
     -9.107  0.0000E+00  0.0000E+00  0.1800E+03  0.1800E+03
     -8.867  0.0000E+00  0.0000E+00  0.1800E+03  0.1800E+03
     -8.628  0.0000E+00  0.0000E+00  0.1800E+03  0.1800E+03
     -8.388  0.0000E+00  0.0000E+00  0.1800E+03  0.1800E+03
     -8.149  0.0000E+00  0.0000E+00  0.1800E+03  0.1800E+03
     -7.909  0.2367E-02  0.0000E+00  0.1800E+03  0.1800E+03
     -7.669  0.9441E+01  0.1761E-01  0.1823E+03  0.1800E+03
     -7.430  0.2315E+02  0.1202E+02  0.1878E+03  0.1829E+03
     -7.190  0.5587E+02  0.2866E+02  0.2012E+03  0.1898E+03
     -6.951  0.5785E+02  0.5996E+02  0.2151E+03  0.2041E+03
     -6.711  0.3928E+01  0.4631E+02  0.2160E+03  0.2152E+03
     -6.471  0.0000E+00  0.3278E+01  0.2160E+03  0.2160E+03
     -6.232  0.0000E+00  0.0000E+00  0.2160E+03  0.2160E+03
     -5.992  0.0000E+00  0.0000E+00  0.2160E+03  0.2160E+03
     -5.753  0.0000E+00  0.0000E+00  0.2160E+03  0.2160E+03
     -5.513  0.0000E+00  0.0000E+00  0.2160E+03  0.2160E+03
     -5.273  0.0000E+00  0.0000E+00  0.2160E+03  0.2160E+03
     -5.034  0.0000E+00  0.0000E+00  0.2160E+03  0.2160E+03
     -4.794  0.0000E+00  0.0000E+00  0.2160E+03  0.2160E+03
     -4.554  0.0000E+00  0.0000E+00  0.2160E+03  0.2160E+03
     -4.315  0.0000E+00  0.0000E+00  0.2160E+03  0.2160E+03
     -4.075  0.0000E+00  0.0000E+00  0.2160E+03  0.2160E+03
     -3.836  0.0000E+00  0.0000E+00  0.2160E+03  0.2160E+03
     -3.596  0.0000E+00  0.0000E+00  0.2160E+03  0.2160E+03
     -3.356  0.0000E+00  0.0000E+00  0.2160E+03  0.2160E+03
     -3.117  0.0000E+00  0.0000E+00  0.2160E+03  0.2160E+03
     -2.877  0.1959E-13  0.0000E+00  0.2160E+03  0.2160E+03
     -2.638  0.8751E+00  0.0000E+00  0.2162E+03  0.2160E+03
     -2.398  0.1026E+02  0.0000E+00  0.2187E+03  0.2160E+03
     -2.158  0.2053E+02  0.0000E+00  0.2236E+03  0.2160E+03
     -1.919  0.1817E+01  0.0000E+00  0.2240E+03  0.2160E+03
     -1.679  0.3466E+02  0.0000E+00  0.2323E+03  0.2160E+03
     -1.440  0.1960E+02  0.5148E-15  0.2370E+03  0.2160E+03
     -1.200  0.4415E+02  0.9068E-01  0.2476E+03  0.2160E+03
     -0.960  0.4972E+02  0.4420E+01  0.2595E+03  0.2171E+03
     -0.721  0.7508E+02  0.1411E+02  0.2775E+03  0.2205E+03
     -0.481  0.1034E+03  0.1533E+02  0.3023E+03  0.2241E+03
     -0.242  0.8549E+02  0.1965E+02  0.3228E+03  0.2288E+03
     -0.002  0.1105E+03  0.4124E+02  0.3492E+03  0.2387E+03
      0.238  0.6958E+02  0.3394E+02  0.3659E+03  0.2469E+03
      0.477  0.3817E+02  0.4219E+02  0.3750E+03  0.2570E+03
      0.717  0.4571E+02  0.3366E+02  0.3860E+03  0.2650E+03
      0.957  0.4868E+02  0.5307E+02  0.3977E+03  0.2777E+03
      1.196  0.5560E+02  0.6036E+02  0.4110E+03  0.2922E+03
      1.436  0.6441E+02  0.4444E+02  0.4264E+03  0.3029E+03
      1.675  0.1008E+03  0.4001E+02  0.4506E+03  0.3124E+03
      1.915  0.5224E+02  0.3848E+02  0.4631E+03  0.3217E+03
      2.155  0.3887E+02  0.3737E+02  0.4724E+03  0.3306E+03
      2.394  0.4652E+02  0.3831E+02  0.4836E+03  0.3398E+03
      2.634  0.4783E+02  0.4953E+02  0.4950E+03  0.3517E+03
      2.873  0.4349E+02  0.6281E+02  0.5054E+03  0.3667E+03
      3.113  0.4012E+02  0.5875E+02  0.5151E+03  0.3808E+03
      3.353  0.4758E+02  0.4788E+02  0.5265E+03  0.3923E+03
      3.592  0.5247E+02  0.3009E+02  0.5390E+03  0.3995E+03
      3.832  0.4535E+02  0.6144E+02  0.5499E+03  0.4142E+03
      4.071  0.3200E+02  0.7295E+02  0.5576E+03  0.4317E+03
      4.311  0.4237E+02  0.1339E+01  0.5677E+03  0.4320E+03
      4.551  0.2355E+02  0.0000E+00  0.5734E+03  0.4320E+03
      4.790  0.1018E+02  0.0000E+00  0.5758E+03  0.4320E+03
      5.030  0.8730E+00  0.0000E+00  0.5760E+03  0.4320E+03
      5.269  0.0000E+00  0.0000E+00  0.5760E+03  0.4320E+03
      5.509  0.0000E+00  0.0000E+00  0.5760E+03  0.4320E+03
      5.749  0.0000E+00  0.0000E+00  0.5760E+03  0.4320E+03
      5.988  0.0000E+00  0.6279E-11  0.5760E+03  0.4320E+03
      6.228  0.0000E+00  0.1483E+00  0.5760E+03  0.4320E+03
      6.468  0.0000E+00  0.8202E+01  0.5760E+03  0.4340E+03
      6.707  0.0000E+00  0.3034E+02  0.5760E+03  0.4413E+03
      6.947  0.9183E-12  0.4354E+02  0.5760E+03  0.4517E+03
      7.186  0.1101E+00  0.7334E+02  0.5760E+03  0.4693E+03
      7.426  0.1287E+00  0.8075E+02  0.5761E+03  0.4886E+03
      7.666  0.9053E+00  0.6540E+02  0.5763E+03  0.5043E+03
      7.905  0.3512E+01  0.8789E+02  0.5771E+03  0.5254E+03
      8.145  0.4265E+01  0.7122E+02  0.5781E+03  0.5424E+03
      8.384  0.7060E+01  0.5434E+02  0.5798E+03  0.5554E+03
      8.624  0.1643E+02  0.3722E+02  0.5838E+03  0.5644E+03
      8.864  0.2525E+02  0.3906E+02  0.5898E+03  0.5737E+03
      9.103  0.1923E+02  0.1930E+02  0.5944E+03  0.5783E+03
      9.343  0.2545E+02  0.1396E+02  0.6005E+03  0.5817E+03
      9.582  0.3129E+02  0.2059E+02  0.6080E+03  0.5866E+03
      9.822  0.2656E+02  0.3003E+02  0.6144E+03  0.5938E+03
     10.062  0.2962E+02  0.2656E+02  0.6215E+03  0.6002E+03
     10.301  0.2276E+02  0.3482E+02  0.6269E+03  0.6085E+03
     10.541  0.2040E+02  0.3535E+02  0.6318E+03  0.6170E+03
     10.780  0.2863E+02  0.2797E+02  0.6387E+03  0.6237E+03
     11.020  0.3892E+02  0.2237E+02  0.6480E+03  0.6291E+03
     11.260  0.3941E+02  0.2166E+02  0.6575E+03  0.6342E+03
     11.499  0.3725E+02  0.3231E+02  0.6664E+03  0.6420E+03
     11.739  0.4489E+02  0.3873E+02  0.6771E+03  0.6513E+03
     11.979  0.3847E+02  0.4264E+02  0.6864E+03  0.6615E+03
     12.218  0.3857E+02  0.5199E+02  0.6956E+03  0.6739E+03
     12.458  0.3992E+02  0.4674E+02  0.7052E+03  0.6851E+03
     12.697  0.3647E+02  0.3596E+02  0.7139E+03  0.6938E+03
     12.937  0.3440E+02  0.4129E+02  0.7221E+03  0.7037E+03
     13.177  0.2270E+02  0.3967E+02  0.7276E+03  0.7132E+03
     13.416  0.1762E+01  0.3426E+02  0.7280E+03  0.7214E+03
     13.656  0.0000E+00  0.2388E+02  0.7280E+03  0.7271E+03
     13.895  0.0000E+00  0.3809E+01  0.7280E+03  0.7280E+03
     14.135  0.0000E+00  0.3739E-05  0.7280E+03  0.7280E+03
     14.375  0.0000E+00  0.0000E+00  0.7280E+03  0.7280E+03
     14.614  0.0000E+00  0.0000E+00  0.7280E+03  0.7280E+03
     14.854  0.0000E+00  0.0000E+00  0.7280E+03  0.7280E+03
     15.093  0.0000E+00  0.0000E+00  0.7280E+03  0.7280E+03
     15.333  0.0000E+00  0.0000E+00  0.7280E+03  0.7280E+03
     15.573  0.0000E+00  0.0000E+00  0.7280E+03  0.7280E+03
     15.812  0.0000E+00  0.0000E+00  0.7280E+03  0.7280E+03
     16.052  0.0000E+00  0.0000E+00  0.7280E+03  0.7280E+03
     16.291  0.0000E+00  0.0000E+00  0.7280E+03  0.7280E+03
     16.531  0.0000E+00  0.0000E+00  0.7280E+03  0.7280E+03
     16.771  0.0000E+00  0.0000E+00  0.7280E+03  0.7280E+03
     17.010  0.0000E+00  0.0000E+00  0.7280E+03  0.7280E+03
