   12   12   60    2
  0.1537694E+02  0.9358228E-09  0.7072470E-09  0.7072470E-09  0.5000000E-15
  1.000000000000000E-004
  CAR 
 unknown system                          
     84     34     60
 
  0.0000000E+00  0.0000000E+00  0.0000000E+00  0.9259259E-02
    1      -56.893085    -50.235640   1.000000   1.000000
    2      -56.892469    -50.233954   1.000000   1.000000
    3      -56.664741    -50.200826   1.000000   1.000000
    4      -55.387446    -50.199598   1.000000   1.000000
    5      -55.386719    -50.188011   1.000000   1.000000
    6      -55.331463    -50.186556   1.000000   1.000000
    7      -55.330999    -50.015416   1.000000   1.000000
    8      -55.195760    -49.976477   1.000000   1.000000
    9      -55.160676    -49.958856   1.000000   1.000000
   10      -44.511267    -44.497834   1.000000   1.000000
   11      -44.491536    -44.478305   1.000000   1.000000
   12      -44.466217    -44.452933   1.000000   1.000000
   13      -44.451048    -44.437913   1.000000   1.000000
   14      -16.785282    -16.087437   1.000000   1.000000
   15      -10.369347    -10.119578   1.000000   1.000000
   16       -9.545548     -9.291985   1.000000   1.000000
   17       -9.416043     -9.196579   1.000000   1.000000
   18       -9.317246     -9.088033   1.000000   1.000000
   19       -3.466729     -2.014913   1.000000   1.000000
   20       -2.392098     -1.174054   1.000000   1.000000
   21       -2.385006     -0.889192   1.000000   1.000000
   22       -2.087086     -0.829661   1.000000   1.000000
   23       -2.020854     -0.539443   1.000000   1.000000
   24       -1.960418     -0.071142   1.000000   1.000000
   25       -1.671009      0.804485   1.000000   1.000000
   26       -1.466168      1.011392   1.000000   1.000000
   27       -1.322805      1.364132   1.000000   1.000000
   28       -1.314087      1.488107   1.000000   1.000000
   29       -1.090853      1.525784   1.000000   1.000000
   30       -0.908565      1.867217   1.000000   1.000000
   31       -0.754250      2.575615   1.000000   1.000000
   32       -0.744782      2.608308   1.000000   1.000000
   33       -0.075851      2.843429   1.000000   1.000000
   34       -0.074603      2.855441   1.000000   1.000000
   35        0.288218      3.027403   1.000000   1.000000
   36        0.352998      3.358389   1.000000   1.000000
   37        0.675834      5.616087   1.000000   0.000000
   38        0.840235      6.634628   1.000000   0.000000
   39        1.046116      7.049445   1.000000   0.000000
   40        1.436015      7.230750   1.000000   0.000000
   41        1.896539      7.603658   1.000000   0.000000
   42        1.951919      7.615857   1.000000   0.000000
   43        2.325202      7.620889   1.000000   0.000000
   44        2.397752      7.887579   1.000000   0.000000
   45        2.429384      7.953136   1.000000   0.000000
   46        2.754468      8.253574   1.000000   0.000000
   47        2.871483      8.359431   1.000000   0.000000
   48        3.011911      8.414574   1.000000   0.000000
   49        7.524730      8.753279   0.000000   0.000000
   50        8.965557      9.500757   0.000000   0.000000
   51        9.112542      9.510858   0.000000   0.000000
   52        9.375321      9.952799   0.000000   0.000000
   53       10.056711     10.838269   0.000000   0.000000
   54       10.627717     10.978496   0.000000   0.000000
   55       10.942354     11.349043   0.000000   0.000000
   56       11.401379     11.875785   0.000000   0.000000
   57       11.731920     12.451041   0.000000   0.000000
   58       11.957411     12.519548   0.000000   0.000000
   59       12.213358     12.736797   0.000000   0.000000
   60       12.260426     12.760342   0.000000   0.000000
 
  0.3333333E+00 -0.1862711E-16  0.3546262E-15  0.1851852E-01
    1      -56.892951    -50.236832   1.000000   1.000000
    2      -56.892614    -50.232866   1.000000   1.000000
    3      -56.664735    -50.202079   1.000000   1.000000
    4      -55.387263    -50.198321   1.000000   1.000000
    5      -55.386891    -50.188389   1.000000   1.000000
    6      -55.331503    -50.186188   1.000000   1.000000
    7      -55.330965    -50.015357   1.000000   1.000000
    8      -55.195758    -49.976447   1.000000   1.000000
    9      -55.160677    -49.958850   1.000000   1.000000
   10      -44.510931    -44.497508   1.000000   1.000000
   11      -44.492404    -44.479140   1.000000   1.000000
   12      -44.465535    -44.452284   1.000000   1.000000
   13      -44.451291    -44.438147   1.000000   1.000000
   14      -16.782213    -16.083793   1.000000   1.000000
   15      -10.303718    -10.060328   1.000000   1.000000
   16       -9.713860     -9.458294   1.000000   1.000000
   17       -9.393570     -9.153688   1.000000   1.000000
   18       -9.297124     -9.077126   1.000000   1.000000
   19       -3.294443     -1.840897   1.000000   1.000000
   20       -2.378500     -1.321254   1.000000   1.000000
   21       -2.342807     -0.830768   1.000000   1.000000
   22       -2.069771     -0.744036   1.000000   1.000000
   23       -2.001990     -0.174709   1.000000   1.000000
   24       -1.890823      0.062083   1.000000   1.000000
   25       -1.616436      0.961427   1.000000   1.000000
   26       -1.545508      1.045189   1.000000   1.000000
   27       -1.458796      1.212332   1.000000   1.000000
   28       -1.405737      1.318242   1.000000   1.000000
   29       -0.868195      1.522118   1.000000   1.000000
   30       -0.844161      1.817125   1.000000   1.000000
   31       -0.806987      2.175291   1.000000   1.000000
   32       -0.646105      2.274882   1.000000   1.000000
   33       -0.292314      2.657172   1.000000   1.000000
   34        0.068221      2.853726   1.000000   1.000000
   35        0.270507      2.996349   1.000000   1.000000
   36        0.384137      3.365709   1.000000   1.000000
   37        0.651295      6.061918   1.000000   0.000000
   38        0.789423      7.070424   1.000000   0.000000
   39        0.973896      7.073391   1.000000   0.000000
   40        1.471929      7.289492   1.000000   0.000000
   41        1.558234      7.494503   1.000000   0.000000
   42        2.086067      7.546387   1.000000   0.000000
   43        2.295549      7.603415   1.000000   0.000000
   44        2.368904      7.855348   1.000000   0.000000
   45        2.377992      8.004154   1.000000   0.000000
   46        2.747562      8.103248   1.000000   0.000000
   47        2.763986      8.265427   1.000000   0.000000
   48        3.143893      8.415674   1.000000   0.000000
   49        8.205190      8.798087   0.000000   0.000000
   50        8.404744      9.261947   0.000000   0.000000
   51        9.023862      9.591662   0.000000   0.000000
   52        9.209071      9.879569   0.000000   0.000000
   53        9.980964     10.553456   0.000000   0.000000
   54       10.415900     10.866912   0.000000   0.000000
   55       10.596048     11.249773   0.000000   0.000000
   56       10.670196     11.310303   0.000000   0.000000
   57       11.625293     12.159105   0.000000   0.000000
   58       11.882901     12.388527   0.000000   0.000000
   59       12.193617     12.866775   0.000000   0.000000
   60       12.490562     13.176582   0.000000   0.000000
 
 -0.5685209E-18  0.1666667E+00 -0.2926111E-14  0.3703704E-01
    1      -56.893637    -50.235329   1.000000   1.000000
    2      -56.892462    -50.234654   1.000000   1.000000
    3      -56.664307    -50.200659   1.000000   1.000000
    4      -55.388049    -50.199983   1.000000   1.000000
    5      -55.386913    -50.187805   1.000000   1.000000
    6      -55.331408    -50.186502   1.000000   1.000000
    7      -55.330984    -50.014916   1.000000   1.000000
    8      -55.195639    -49.976289   1.000000   1.000000
    9      -55.160332    -49.958461   1.000000   1.000000
   10      -44.509533    -44.496117   1.000000   1.000000
   11      -44.492480    -44.479237   1.000000   1.000000
   12      -44.466389    -44.453089   1.000000   1.000000
   13      -44.451302    -44.438145   1.000000   1.000000
   14      -16.721295    -16.025323   1.000000   1.000000
   15      -10.265924    -10.017777   1.000000   1.000000
   16       -9.526680     -9.267963   1.000000   1.000000
   17       -9.415734     -9.191412   1.000000   1.000000
   18       -9.284776     -9.053574   1.000000   1.000000
   19       -3.565024     -2.013555   1.000000   1.000000
   20       -2.942986     -1.570318   1.000000   1.000000
   21       -2.315661     -1.047623   1.000000   1.000000
   22       -2.236563     -0.536486   1.000000   1.000000
   23       -1.939318     -0.409657   1.000000   1.000000
   24       -1.895944     -0.177159   1.000000   1.000000
   25       -1.629634      0.774989   1.000000   1.000000
   26       -1.481601      0.892148   1.000000   1.000000
   27       -1.442966      0.961552   1.000000   1.000000
   28       -1.295663      1.049307   1.000000   1.000000
   29       -1.023214      1.544408   1.000000   1.000000
   30       -0.889237      1.708971   1.000000   1.000000
   31       -0.848786      1.921351   1.000000   1.000000
   32       -0.731925      2.323490   1.000000   1.000000
   33       -0.353755      2.647643   1.000000   1.000000
   34        0.007620      2.990235   1.000000   1.000000
   35        0.129719      3.091060   1.000000   1.000000
   36        0.440010      3.351125   1.000000   1.000000
   37        0.850624      5.921690   1.000000   0.000000
   38        0.940261      6.822174   1.000000   0.000000
   39        1.051291      7.042728   1.000000   0.000000
   40        1.296248      7.349182   1.000000   0.000000
   41        1.467205      7.483081   1.000000   0.000000
   42        1.768659      7.653957   1.000000   0.000000
   43        2.061928      7.970955   1.000000   0.000000
   44        2.106800      8.002940   1.000000   0.000000
   45        2.437864      8.088836   1.000000   0.000000
   46        2.870140      8.324199   1.000000   0.000000
   47        2.994466      8.357991   1.000000   0.000000
   48        3.351368      8.884837   1.000000   0.000000
   49        8.243143      9.269440   0.000000   0.000000
   50        9.121121      9.812067   0.000000   0.000000
   51        9.820330     10.288639   0.000000   0.000000
   52        9.887091     10.362264   0.000000   0.000000
   53       10.103201     10.535350   0.000000   0.000000
   54       10.430672     10.825642   0.000000   0.000000
   55       10.580232     11.000534   0.000000   0.000000
   56       10.877943     11.520153   0.000000   0.000000
   57       11.358430     11.948949   0.000000   0.000000
   58       11.484371     12.042333   0.000000   0.000000
   59       11.994035     12.423010   0.000000   0.000000
   60       12.767606     13.275677   0.000000   0.000000
 
  0.3333333E+00  0.1666667E+00 -0.2608207E-14  0.3703704E-01
    1      -56.893513    -50.235904   1.000000   1.000000
    2      -56.892587    -50.234076   1.000000   1.000000
    3      -56.664307    -50.201163   1.000000   1.000000
    4      -55.387927    -50.199543   1.000000   1.000000
    5      -55.387039    -50.188019   1.000000   1.000000
    6      -55.331420    -50.186297   1.000000   1.000000
    7      -55.330971    -50.014876   1.000000   1.000000
    8      -55.195639    -49.976273   1.000000   1.000000
    9      -55.160332    -49.958454   1.000000   1.000000
   10      -44.509386    -44.495974   1.000000   1.000000
   11      -44.492836    -44.479579   1.000000   1.000000
   12      -44.466136    -44.452850   1.000000   1.000000
   13      -44.451387    -44.438227   1.000000   1.000000
   14      -16.719742    -16.023491   1.000000   1.000000
   15      -10.227602     -9.981411   1.000000   1.000000
   16       -9.623253     -9.363387   1.000000   1.000000
   17       -9.381632     -9.165397   1.000000   1.000000
   18       -9.293956     -9.050473   1.000000   1.000000
   19       -3.492542     -1.919082   1.000000   1.000000
   20       -2.904613     -1.501119   1.000000   1.000000
   21       -2.386114     -1.077142   1.000000   1.000000
   22       -2.110966     -0.514977   1.000000   1.000000
   23       -1.919385     -0.304926   1.000000   1.000000
   24       -1.779497     -0.139495   1.000000   1.000000
   25       -1.684241      0.665341   1.000000   1.000000
   26       -1.555912      0.771068   1.000000   1.000000
   27       -1.506239      1.104070   1.000000   1.000000
   28       -1.233046      1.266765   1.000000   1.000000
   29       -0.995406      1.398482   1.000000   1.000000
   30       -0.927772      1.662938   1.000000   1.000000
   31       -0.862999      1.881554   1.000000   1.000000
   32       -0.780154      2.121735   1.000000   1.000000
   33       -0.344647      2.521350   1.000000   1.000000
   34        0.112454      2.964687   1.000000   1.000000
   35        0.149319      3.039062   1.000000   1.000000
   36        0.481925      3.376205   1.000000   1.000000
   37        0.660198      6.059394   1.000000   0.000000
   38        0.782178      7.084643   1.000000   0.000000
   39        1.108947      7.179333   1.000000   0.000000
   40        1.312986      7.248581   1.000000   0.000000
   41        1.573138      7.536771   1.000000   0.000000
   42        1.673961      7.634856   1.000000   0.000000
   43        1.970161      7.839314   1.000000   0.000000
   44        2.079182      8.002339   1.000000   0.000000
   45        2.598507      8.110442   1.000000   0.000000
   46        2.834998      8.188932   1.000000   0.000000
   47        2.994283      8.394690   1.000000   0.000000
   48        3.326597      8.730028   1.000000   0.000000
   49        8.545346      9.452369   0.000000   0.000000
   50        8.895344      9.490187   0.000000   0.000000
   51        9.476209     10.179827   0.000000   0.000000
   52        9.760427     10.298738   0.000000   0.000000
   53       10.071817     10.536895   0.000000   0.000000
   54       10.402142     10.839698   0.000000   0.000000
   55       10.674053     11.323920   0.000000   0.000000
   56       11.059716     11.521976   0.000000   0.000000
   57       11.483533     11.975082   0.000000   0.000000
   58       11.583990     12.189286   0.000000   0.000000
   59       11.779683     12.425483   0.000000   0.000000
   60       12.209094     13.019323   0.000000   0.000000
 
 -0.3333333E+00  0.1666667E+00 -0.3329310E-14  0.3703704E-01
    1      -56.893349    -50.236233   1.000000   1.000000
    2      -56.892754    -50.233745   1.000000   1.000000
    3      -56.664307    -50.201487   1.000000   1.000000
    4      -55.387746    -50.199275   1.000000   1.000000
    5      -55.387218    -50.188182   1.000000   1.000000
    6      -55.331428    -50.186143   1.000000   1.000000
    7      -55.330962    -50.014836   1.000000   1.000000
    8      -55.195635    -49.976258   1.000000   1.000000
    9      -55.160332    -49.958446   1.000000   1.000000
   10      -44.509213    -44.495806   1.000000   1.000000
   11      -44.493206    -44.479934   1.000000   1.000000
   12      -44.465866    -44.452593   1.000000   1.000000
   13      -44.451475    -44.438311   1.000000   1.000000
   14      -16.718174    -16.021644   1.000000   1.000000
   15      -10.175506     -9.933159   1.000000   1.000000
   16       -9.714329     -9.457275   1.000000   1.000000
   17       -9.382844     -9.125668   1.000000   1.000000
   18       -9.287294     -9.074973   1.000000   1.000000
   19       -3.376218     -1.781423   1.000000   1.000000
   20       -2.879469     -1.531513   1.000000   1.000000
   21       -2.419882     -0.932565   1.000000   1.000000
   22       -2.075612     -0.608640   1.000000   1.000000
   23       -2.008333     -0.219432   1.000000   1.000000
   24       -1.756915     -0.008030   1.000000   1.000000
   25       -1.646706      0.481266   1.000000   1.000000
   26       -1.549509      0.899548   1.000000   1.000000
   27       -1.516064      1.007251   1.000000   1.000000
   28       -1.320772      1.182945   1.000000   1.000000
   29       -0.960732      1.450835   1.000000   1.000000
   30       -0.910094      1.598095   1.000000   1.000000
   31       -0.845089      1.819414   1.000000   1.000000
   32       -0.603957      2.050946   1.000000   1.000000
   33       -0.236072      2.342165   1.000000   1.000000
   34        0.038687      2.981840   1.000000   1.000000
   35        0.169640      3.110638   1.000000   1.000000
   36        0.452041      3.377470   1.000000   1.000000
   37        0.564350      6.309400   1.000000   0.000000
   38        0.682061      6.962597   1.000000   0.000000
   39        0.941499      7.214960   1.000000   0.000000
   40        1.045569      7.367506   1.000000   0.000000
   41        1.668763      7.448162   1.000000   0.000000
   42        1.899172      7.647542   1.000000   0.000000
   43        2.011316      7.680463   1.000000   0.000000
   44        2.135199      8.057745   1.000000   0.000000
   45        2.619275      8.119142   1.000000   0.000000
   46        2.912933      8.194214   1.000000   0.000000
   47        2.935460      8.345564   1.000000   0.000000
   48        3.201949      8.585932   1.000000   0.000000
   49        8.630981      9.200160   0.000000   0.000000
   50        9.086557      9.959683   0.000000   0.000000
   51        9.181163     10.039240   0.000000   0.000000
   52        9.593157     10.233908   0.000000   0.000000
   53        9.728502     10.478970   0.000000   0.000000
   54       10.222755     10.758558   0.000000   0.000000
   55       10.780513     11.195123   0.000000   0.000000
   56       10.969324     11.580111   0.000000   0.000000
   57       11.343009     11.735706   0.000000   0.000000
   58       11.951129     12.389900   0.000000   0.000000
   59       12.157638     12.550723   0.000000   0.000000
   60       12.477573     13.200777   0.000000   0.000000
 
  0.1020485E-17  0.3333333E+00 -0.1016669E-14  0.3703704E-01
    1      -56.894716    -50.236437   1.000000   1.000000
    2      -56.892456    -50.233958   1.000000   1.000000
    3      -56.663452    -50.202205   1.000000   1.000000
    4      -55.389245    -50.199284   1.000000   1.000000
    5      -55.387319    -50.187312   1.000000   1.000000
    6      -55.331256    -50.186493   1.000000   1.000000
    7      -55.330986    -50.013917   1.000000   1.000000
    8      -55.195408    -49.975913   1.000000   1.000000
    9      -55.159638    -49.957692   1.000000   1.000000
   10      -44.505086    -44.491712   1.000000   1.000000
   11      -44.495261    -44.481986   1.000000   1.000000
   12      -44.466897    -44.453561   1.000000   1.000000
   13      -44.451734    -44.438541   1.000000   1.000000
   14      -16.588451    -15.896852   1.000000   1.000000
   15      -10.009852     -9.760751   1.000000   1.000000
   16       -9.542785     -9.268919   1.000000   1.000000
   17       -9.365088     -9.145102   1.000000   1.000000
   18       -9.258238     -9.020402   1.000000   1.000000
   19       -3.868870     -2.328743   1.000000   1.000000
   20       -3.699730     -2.007266   1.000000   1.000000
   21       -2.546507     -0.847455   1.000000   1.000000
   22       -2.128581     -0.670733   1.000000   1.000000
   23       -1.907954     -0.397204   1.000000   1.000000
   24       -1.778926     -0.022278   1.000000   1.000000
   25       -1.711538      0.100421   1.000000   1.000000
   26       -1.630766      0.465333   1.000000   1.000000
   27       -1.422510      0.815423   1.000000   1.000000
   28       -1.267241      0.944755   1.000000   1.000000
   29       -1.042302      1.115339   1.000000   1.000000
   30       -0.921692      1.348085   1.000000   1.000000
   31       -0.775392      1.773340   1.000000   1.000000
   32       -0.524144      1.890009   1.000000   1.000000
   33       -0.418436      2.202122   1.000000   1.000000
   34       -0.305385      3.004420   1.000000   1.000000
   35       -0.028285      3.072620   1.000000   1.000000
   36        0.339032      3.266508   1.000000   1.000000
   37        0.623832      6.438245   1.000000   0.000000
   38        0.842252      6.817535   1.000000   0.000000
   39        0.925886      7.032084   1.000000   0.000000
   40        1.064670      7.365977   1.000000   0.000000
   41        1.399763      7.530418   1.000000   0.000000
   42        1.688373      7.740909   1.000000   0.000000
   43        1.899234      7.984998   1.000000   0.000000
   44        2.093663      8.147826   1.000000   0.000000
   45        2.646642      8.283063   1.000000   0.000000
   46        2.835873      8.418011   1.000000   0.000000
   47        2.971932      8.678132   1.000000   0.000000
   48        3.393940      8.846549   1.000000   0.000000
   49        8.572857      9.400881   0.000000   0.000000
   50        8.911992      9.782876   0.000000   0.000000
   51        9.573070     10.546189   0.000000   0.000000
   52       10.124522     10.764250   0.000000   0.000000
   53       10.282701     10.841358   0.000000   0.000000
   54       10.434313     11.218731   0.000000   0.000000
   55       11.071915     11.479696   0.000000   0.000000
   56       11.406975     12.064602   0.000000   0.000000
   57       11.636266     12.139652   0.000000   0.000000
   58       12.172317     12.629023   0.000000   0.000000
   59       12.352518     12.875838   0.000000   0.000000
   60       12.793134     13.188459   0.000000   0.000000
 
  0.3333333E+00  0.3333333E+00 -0.7393849E-15  0.3703704E-01
    1      -56.894710    -50.236434   1.000000   1.000000
    2      -56.892455    -50.233958   1.000000   1.000000
    3      -56.663448    -50.202209   1.000000   1.000000
    4      -55.389243    -50.199277   1.000000   1.000000
    5      -55.387317    -50.187317   1.000000   1.000000
    6      -55.331254    -50.186486   1.000000   1.000000
    7      -55.330984    -50.013912   1.000000   1.000000
    8      -55.195408    -49.975911   1.000000   1.000000
    9      -55.159635    -49.957690   1.000000   1.000000
   10      -44.505058    -44.491685   1.000000   1.000000
   11      -44.495205    -44.481930   1.000000   1.000000
   12      -44.466867    -44.453532   1.000000   1.000000
   13      -44.451695    -44.438500   1.000000   1.000000
   14      -16.588392    -15.896788   1.000000   1.000000
   15      -10.009545     -9.759790   1.000000   1.000000
   16       -9.553015     -9.279696   1.000000   1.000000
   17       -9.340158     -9.135013   1.000000   1.000000
   18       -9.273135     -9.020429   1.000000   1.000000
   19       -3.865014     -2.324292   1.000000   1.000000
   20       -3.703051     -2.017680   1.000000   1.000000
   21       -2.547965     -0.895742   1.000000   1.000000
   22       -2.121553     -0.670876   1.000000   1.000000
   23       -1.888869     -0.163941   1.000000   1.000000
   24       -1.775257     -0.090889   1.000000   1.000000
   25       -1.732779      0.027693   1.000000   1.000000
   26       -1.622439      0.541449   1.000000   1.000000
   27       -1.503476      0.607595   1.000000   1.000000
   28       -1.315004      0.879556   1.000000   1.000000
   29       -0.934633      1.332103   1.000000   1.000000
   30       -0.890198      1.440039   1.000000   1.000000
   31       -0.705328      1.691869   1.000000   1.000000
   32       -0.605186      1.861402   1.000000   1.000000
   33       -0.384946      2.087930   1.000000   1.000000
   34       -0.320552      3.007437   1.000000   1.000000
   35        0.029788      3.072224   1.000000   1.000000
   36        0.328971      3.307745   1.000000   1.000000
   37        0.670100      6.370030   1.000000   0.000000
   38        0.737161      6.862277   1.000000   0.000000
   39        0.971757      7.205282   1.000000   0.000000
   40        1.134335      7.356488   1.000000   0.000000
   41        1.237645      7.434766   1.000000   0.000000
   42        1.517821      7.697325   1.000000   0.000000
   43        1.792274      8.056359   1.000000   0.000000
   44        2.417702      8.158180   1.000000   0.000000
   45        2.615715      8.354719   1.000000   0.000000
   46        2.719556      8.492172   1.000000   0.000000
   47        3.012319      8.716400   1.000000   0.000000
   48        3.496851      8.887100   1.000000   0.000000
   49        8.959164      9.648561   0.000000   0.000000
   50        9.191890      9.992290   0.000000   0.000000
   51        9.452382     10.141873   0.000000   0.000000
   52        9.520332     10.334501   0.000000   0.000000
   53       10.073368     10.632995   0.000000   0.000000
   54       10.534495     11.077458   0.000000   0.000000
   55       10.852291     11.424677   0.000000   0.000000
   56       11.200258     11.809204   0.000000   0.000000
   57       11.705512     12.399025   0.000000   0.000000
   58       12.087899     12.494479   0.000000   0.000000
   59       12.526681     13.115384   0.000000   0.000000
   60       12.773834     13.644304   0.000000   0.000000
 
 -0.3333333E+00  0.3333333E+00 -0.1424622E-14  0.3703704E-01
    1      -56.894566    -50.235816   1.000000   1.000000
    2      -56.892610    -50.234473   1.000000   1.000000
    3      -56.663448    -50.201723   1.000000   1.000000
    4      -55.389083    -50.199951   1.000000   1.000000
    5      -55.387479    -50.187567   1.000000   1.000000
    6      -55.331238    -50.186259   1.000000   1.000000
    7      -55.331003    -50.013856   1.000000   1.000000
    8      -55.195406    -49.975898   1.000000   1.000000
    9      -55.159640    -49.957669   1.000000   1.000000
   10      -44.504949    -44.491579   1.000000   1.000000
   11      -44.495417    -44.482134   1.000000   1.000000
   12      -44.466807    -44.453477   1.000000   1.000000
   13      -44.451718    -44.438523   1.000000   1.000000
   14      -16.586805    -15.894943   1.000000   1.000000
   15       -9.899287     -9.650137   1.000000   1.000000
   16       -9.691956     -9.429488   1.000000   1.000000
   17       -9.330728     -9.080080   1.000000   1.000000
   18       -9.296061     -9.074426   1.000000   1.000000
   19       -3.793082     -2.183656   1.000000   1.000000
   20       -3.626596     -1.882242   1.000000   1.000000
   21       -2.583742     -0.821616   1.000000   1.000000
   22       -2.089395     -0.672967   1.000000   1.000000
   23       -2.018447     -0.391055   1.000000   1.000000
   24       -1.801507     -0.260603   1.000000   1.000000
   25       -1.622542     -0.001865   1.000000   1.000000
   26       -1.583470      0.672246   1.000000   1.000000
   27       -1.300094      0.804551   1.000000   1.000000
   28       -1.287060      1.066304   1.000000   1.000000
   29       -1.134277      1.183341   1.000000   1.000000
   30       -0.970644      1.368619   1.000000   1.000000
   31       -0.837091      1.570075   1.000000   1.000000
   32       -0.425720      1.811191   1.000000   1.000000
   33       -0.342541      1.988163   1.000000   1.000000
   34       -0.305203      3.028346   1.000000   1.000000
   35        0.202649      3.047188   1.000000   1.000000
   36        0.334468      3.316813   1.000000   1.000000
   37        0.517465      6.612047   1.000000   0.000000
   38        0.607735      6.826418   1.000000   0.000000
   39        0.886407      7.210885   1.000000   0.000000
   40        0.996936      7.304051   1.000000   0.000000
   41        1.331369      7.540531   1.000000   0.000000
   42        1.537661      7.600395   1.000000   0.000000
   43        1.706702      8.062199   1.000000   0.000000
   44        2.440862      8.186410   1.000000   0.000000
   45        2.580932      8.261600   1.000000   0.000000
   46        2.979223      8.343480   1.000000   0.000000
   47        3.102294      8.698197   1.000000   0.000000
   48        3.299138      8.751438   1.000000   0.000000
   49        8.529615      9.333806   0.000000   0.000000
   50        9.024429      9.684910   0.000000   0.000000
   51        9.406781     10.110487   0.000000   0.000000
   52        9.520369     10.415419   0.000000   0.000000
   53       10.411600     11.362421   0.000000   0.000000
   54       10.703729     11.499404   0.000000   0.000000
   55       11.020694     11.615272   0.000000   0.000000
   56       11.255725     11.807649   0.000000   0.000000
   57       11.487512     12.015154   0.000000   0.000000
   58       12.101244     12.674830   0.000000   0.000000
   59       12.395727     12.991296   0.000000   0.000000
   60       12.623043     13.091936   0.000000   0.000000
 
  0.4905866E-17  0.5000000E+00  0.3014633E-14  0.1851852E-01
    1      -56.895247    -50.237092   1.000000   1.000000
    2      -56.892456    -50.233327   1.000000   1.000000
    3      -56.663014    -50.203162   1.000000   1.000000
    4      -55.389831    -50.198946   1.000000   1.000000
    5      -55.387526    -50.186931   1.000000   1.000000
    6      -55.331103    -50.186629   1.000000   1.000000
    7      -55.331060    -50.013418   1.000000   1.000000
    8      -55.195297    -49.975722   1.000000   1.000000
    9      -55.159288    -49.957309   1.000000   1.000000
   10      -44.499680    -44.486360   1.000000   1.000000
   11      -44.499661    -44.486342   1.000000   1.000000
   12      -44.467189    -44.453832   1.000000   1.000000
   13      -44.451850    -44.438641   1.000000   1.000000
   14      -16.519291    -15.830240   1.000000   1.000000
   15       -9.793819     -9.535893   1.000000   1.000000
   16       -9.638053     -9.372026   1.000000   1.000000
   17       -9.296697     -9.075447   1.000000   1.000000
   18       -9.285755     -9.042481   1.000000   1.000000
   19       -4.217635     -2.599929   1.000000   1.000000
   20       -3.799492     -2.059230   1.000000   1.000000
   21       -2.656755     -0.869874   1.000000   1.000000
   22       -2.055083     -0.793723   1.000000   1.000000
   23       -1.999193     -0.483295   1.000000   1.000000
   24       -1.993245     -0.332489   1.000000   1.000000