 vasp.6.2.0 18Jan21 (build Jan 29 2021 15:03:46) complex                        
  
 executed on             LinuxIFC date 2021.03.30  03:19:22
 running on  136 total cores
 distrk:  each k-point on    4 cores,   34 groups
 distr:  one band on NCORE=   1 cores,    4 groups


--------------------------------------------------------------------------------------------------------


 INCAR:
   AEXX = 0.25
   ALGO = all
   EDIFF = 1.2e-05
   EDIFFG = -0.03
   ENCUT = 520
   GGA = pe
   HFSCREEN = 0.207
   IBRION = 2
   ISIF = 3
   ISMEAR = 0
   ISPIN = 2
   KPAR = 34
   LASPH = .TRUE.
   LHFCALC = .TRUE.
   LMAXFOCK = 4
   LORBIT = 11
   LREAL = .FALSE.
   LVHAR = .TRUE.
   LWAVE = .TRUE.
   MAGMOM = 0.6 0.6 0.6 0.6 0.6 0.6 0.6 0.6 0.6 5 5 5
   NCORE = 1
   NEDOS = 2000
   NELM = 200
   NELMIN = 4
   NSW = 60
   NWRITE = 1
   PREC = accurate
   PRECFOCK = fast
   SIGMA = 0.05
   TIME = 0.3

 POTCAR:    PAW_PBE Li_sv 10Sep2004               
 POTCAR:    PAW_PBE O 08Apr2002                   
 POTCAR:    PAW_PBE S 06Sep2000                   
 POTCAR:    PAW_PBE Fe_pv 02Aug2007               
 -----------------------------------------------------------------------------
|                                                                             |
|           W    W    AA    RRRRR   N    N  II  N    N   GGGG   !!!           |
|           W    W   A  A   R    R  NN   N  II  NN   N  G    G  !!!           |
|           W    W  A    A  R    R  N N  N  II  N N  N  G       !!!           |
|           W WW W  AAAAAA  RRRRR   N  N N  II  N  N N  G  GGG   !            |
|           WW  WW  A    A  R   R   N   NN  II  N   NN  G    G                |
|           W    W  A    A  R    R  N    N  II  N    N   GGGG   !!!           |
|                                                                             |
|     For optimal performance we recommend to set                             |
|       NCORE = 2 up to number-of-cores-per-socket                            |
|     NCORE specifies how many cores store one orbital (NPAR=cpu/NCORE).      |
|     This setting can greatly improve the performance of VASP for DFT.       |
|     The default, NCORE=1 might be grossly inefficient on modern             |
|     multi-core architectures or massively parallel machines. Do your        |
|     own testing! More info at https://www.vasp.at/wiki/index.php/NCORE      |
|     Unfortunately you need to use the default for GW and RPA                |
|     calculations (for HF NCORE is supported but not extensively tested      |
|     yet).                                                                   |
|                                                                             |
 -----------------------------------------------------------------------------

 POTCAR:    PAW_PBE Li_sv 10Sep2004               
  local pseudopotential read in
  atomic valenz-charges read in
  non local Contribution for L=           0  read in
    real space projection operators read in
  non local Contribution for L=           0  read in
    real space projection operators read in
  non local Contribution for L=           1  read in
    real space projection operators read in
    PAW grid and wavefunctions read in
 
   number of l-projection  operators is LMAX  =           3
   number of lm-projection operators is LMMAX =           5
 
 POTCAR:    PAW_PBE O 08Apr2002                   
  local pseudopotential read in
  partial core-charges read in
  partial kinetic energy density read in
  kinetic energy density of atom read in
  atomic valenz-charges read in
  non local Contribution for L=           0  read in
    real space projection operators read in
  non local Contribution for L=           0  read in
    real space projection operators read in
  non local Contribution for L=           1  read in
    real space projection operators read in
  non local Contribution for L=           1  read in
    real space projection operators read in
    PAW grid and wavefunctions read in
 
   number of l-projection  operators is LMAX  =           4
   number of lm-projection operators is LMMAX =           8
 
 POTCAR:    PAW_PBE S 06Sep2000                   
  local pseudopotential read in
  partial core-charges read in
  partial kinetic energy density read in
  atomic valenz-charges read in
  non local Contribution for L=           0  read in
    real space projection operators read in
  non local Contribution for L=           0  read in
    real space projection operators read in
  non local Contribution for L=           1  read in
    real space projection operators read in
  non local Contribution for L=           1  read in
    real space projection operators read in
    PAW grid and wavefunctions read in
 
   number of l-projection  operators is LMAX  =           4
   number of lm-projection operators is LMMAX =           8
 
 POTCAR:    PAW_PBE Fe_pv 02Aug2007               
  local pseudopotential read in
  partial core-charges read in
  partial kinetic energy density read in
  atomic valenz-charges read in
  non local Contribution for L=           1  read in
    real space projection operators read in
  non local Contribution for L=           1  read in
    real space projection operators read in
  non local Contribution for L=           2  read in
    real space projection operators read in
  non local Contribution for L=           2  read in
    real space projection operators read in
  non local Contribution for L=           0  read in
    real space projection operators read in
  non local Contribution for L=           0  read in
    real space projection operators read in
    PAW grid and wavefunctions read in
 
   number of l-projection  operators is LMAX  =           6
   number of lm-projection operators is LMMAX =          18
 
  PAW_PBE Li_sv 10Sep2004               :
 energy of atom  1       EATOM= -202.7858
 kinetic energy error for atom=    0.0130 (will be added to EATOM!!)
  PAW_PBE O 08Apr2002                   :
 energy of atom  2       EATOM= -432.3788
 kinetic energy error for atom=    0.0208 (will be added to EATOM!!)
  PAW_PBE S 06Sep2000                   :
 energy of atom  3       EATOM= -276.8230
 kinetic energy error for atom=    0.0016 (will be added to EATOM!!)
  PAW_PBE Fe_pv 02Aug2007               :
 energy of atom  4       EATOM=-2457.4239
 kinetic energy error for atom=    0.0062 (will be added to EATOM!!)
 
 
 POSCAR: # Compound: Li4OS4Fe3. Old comment: LFSO
  positions in direct lattice
  No initial velocities read in
 exchange correlation table for  LEXCH =        8
   RHO(1)=    0.500       N(1)  =     2000
   RHO(2)=  100.500       N(2)  =     4000
 


--------------------------------------------------------------------------------------------------------


 ion  position               nearest neighbor table
   1  0.860  0.230  0.370-   8 2.40   6 2.46   6 2.46   7 2.51
   2  0.140  0.630  0.770-   9 2.40   7 2.46   7 2.46   6 2.51
   3  0.581  0.801  0.941-   8 2.37   8 2.37   7 2.46   6 2.55
   4  0.419  0.059  0.199-   9 2.37   9 2.37   6 2.46   7 2.55
   5  0.000  0.431  0.569-  12 2.04  12 2.04  11 2.06  10 2.06
   6  0.785  0.862  0.001-   1 2.46   4 2.46   1 2.46   2 2.51   3 2.55  10 2.70  10 2.70  12 2.74

   7  0.215  0.999  0.138-   2 2.46   3 2.46   2 2.46   1 2.51   4 2.55  11 2.70  11 2.70  12 2.74

   8  0.656  0.183  0.322-   3 2.37   3 2.37   1 2.40  11 2.45  12 2.58  10 2.74  10 2.75
   9  0.344  0.678  0.817-   4 2.37   4 2.37   2 2.40  10 2.45  12 2.58  11 2.74  11 2.75
  10  0.707  0.526  0.663-   5 2.06   9 2.45   6 2.70   6 2.70   8 2.74   8 2.75
  11  0.293  0.337  0.474-   5 2.06   8 2.45   7 2.70   7 2.70   9 2.74   9 2.75
  12  0.000  0.931  0.069-   5 2.04   5 2.04   8 2.58   9 2.58   7 2.74   6 2.74
 
  LATTYP: Found a base centered monoclinic cell.
 ALAT       =    13.3815327503
 B/A-ratio  =     0.3044765730
 C/A-ratio  =     0.6993390546
 COS(beta)  =    -0.6905281149
  
  Lattice vectors:
  
 A1 = (  -4.5360156500,   5.3236232300,   0.0078334400)
 A2 = (  -4.5360156500,   3.7589582400,   3.7697823000)
 A3 = (   9.3568367400,  -0.1490133400,  -0.0619774400)


Analysis of symmetry for initial positions (statically):
=====================================================================
 Subroutine PRICEL returns:
 Original cell was already a primitive cell.
 

 Routine SETGRP: Setting up the symmetry group for a 
 base centered monoclinic supercell.


 Subroutine GETGRP returns: Found  2 space group operations
 (whereof  2 operations were pure point group operations)
 out of a pool of  4 trial point group operations.


The static configuration has the point symmetry C_2 .


Analysis of symmetry for dynamics (positions and initial velocities):
=====================================================================
 Subroutine PRICEL returns:
 Original cell was already a primitive cell.
 

 Routine SETGRP: Setting up the symmetry group for a 
 base centered monoclinic supercell.


 Subroutine GETGRP returns: Found  2 space group operations
 (whereof  2 operations were pure point group operations)
 out of a pool of  4 trial point group operations.


The dynamic configuration has the point symmetry C_2 .


Analysis of structural, dynamic, and magnetic symmetry:
=====================================================================
 Subroutine PRICEL returns:
 Original cell was already a primitive cell.
 

 Routine SETGRP: Setting up the symmetry group for a 
 base centered monoclinic supercell.


 Subroutine GETGRP returns: Found  2 space group operations
 (whereof  2 operations were pure point group operations)
 out of a pool of  4 trial point group operations.


The overall configuration has the point symmetry C_2 .


 Subroutine INISYM returns: Found  2 space group operations
 (whereof  2 operations are pure point group operations),
 and found     1 'primitive' translations


----------------------------------------------------------------------------------------

                                     Primitive cell                                     

  volume of cell :     184.5232

  direct lattice vectors                    reciprocal lattice vectors
     9.356836740 -0.149013340 -0.061977440     0.105037725 -0.098284006 -0.040878159
     4.820821090  5.174609890 -0.054144000     0.001781766  0.189635238 -0.186946822
     4.820821090  3.609944900  3.707804860     0.001781766  0.001126332  0.266288131

  length of vectors
     9.358228463  7.072470224  7.072470222     0.149544955  0.266296474  0.266296474

  position of ions in fractional coordinates (direct lattice)
     0.859881230  0.230283730  0.370326170
     0.140118770  0.629673830  0.769716270
     0.581215220  0.801294150  0.940530630
     0.418784780  0.059469370  0.198705850
     1.000000000  0.431262740  0.568737260
     0.784703770  0.862284600  0.001358540
     0.215296230  0.998641460  0.137715400
     0.655694490  0.183398570  0.322377680
     0.344305510  0.677622320  0.816601430
     0.707455450  0.525762310  0.662840890
     0.292544550  0.337159110  0.474237690
     1.000000000  0.931360800  0.068639200

  ion indices of the primitive-cell ions
   primitive index   ion index
                 1           1
                 2           2
                 3           3
                 4           4
                 5           5
                 6           6
                 7           7
                 8           8
                 9           9
                10          10
                11          11
                12          12

----------------------------------------------------------------------------------------

 
 
 KPOINTS: # No comment                            

Automatic generation of k-mesh.
 Grid dimensions read from file:
 generate k-points for:    3    6    6

 Generating k-lattice:

  Cartesian coordinates                     Fractional coordinates (reciprocal lattice)
     0.035012575 -0.032761335 -0.013626053     0.333333333 -0.000000000 -0.000000000
     0.000296961  0.031605873 -0.031157804     0.000000000  0.166666667 -0.000000000
     0.000296961  0.000187722  0.044381355    -0.000000000  0.000000000  0.166666667

  Length of vectors
     0.049848318  0.044382746  0.044382746

  Shift w.r.t. Gamma in fractional coordinates (k-lattice)
     0.000000000  0.000000000  0.000000000

 
 Subroutine IBZKPT returns following result:
 ===========================================
 
 Found     34 irreducible k-points:
 
 Following reciprocal coordinates:
            Coordinates               Weight
  0.000000  0.000000  0.000000      1.000000
  0.333333 -0.000000  0.000000      2.000000
 -0.000000  0.166667 -0.000000      4.000000
  0.333333  0.166667 -0.000000      4.000000
 -0.333333  0.166667 -0.000000      4.000000
  0.000000  0.333333 -0.000000      4.000000
  0.333333  0.333333 -0.000000      4.000000
 -0.333333  0.333333 -0.000000      4.000000
  0.000000  0.500000  0.000000      2.000000
  0.333333  0.500000  0.000000      4.000000
  0.000000  0.166667  0.166667      2.000000
  0.333333  0.166667  0.166667      2.000000
 -0.333333  0.166667  0.166667      2.000000
  0.000000  0.333333  0.166667      4.000000
  0.333333  0.333333  0.166667      4.000000
 -0.333333  0.333333  0.166667      4.000000
  0.000000  0.500000  0.166667      4.000000
  0.333333  0.500000  0.166667      4.000000
 -0.333333  0.500000  0.166667      4.000000
 -0.000000 -0.333333  0.166667      4.000000
  0.333333 -0.333333  0.166667      4.000000
 -0.333333 -0.333333  0.166667      4.000000
 -0.000000 -0.166667  0.166667      2.000000
  0.333333 -0.166667  0.166667      4.000000
  0.000000  0.333333  0.333333      2.000000
  0.333333  0.333333  0.333333      2.000000
 -0.333333  0.333333  0.333333      2.000000
  0.000000  0.500000  0.333333      4.000000
  0.333333  0.500000  0.333333      4.000000
 -0.333333  0.500000  0.333333      4.000000
 -0.000000 -0.333333  0.333333      2.000000
  0.333333 -0.333333  0.333333      4.000000
  0.000000  0.500000  0.500000      1.000000
  0.333333  0.500000  0.500000      2.000000
 
 Following cartesian coordinates:
            Coordinates               Weight
  0.000000  0.000000  0.000000      1.000000
  0.035013 -0.032761 -0.013626      2.000000
  0.000297  0.031606 -0.031158      4.000000
  0.035310 -0.001155 -0.044784      4.000000
 -0.034716  0.064367 -0.017532      4.000000
  0.000594  0.063212 -0.062316      4.000000
  0.035606  0.030450 -0.075942      4.000000
 -0.034419  0.095973 -0.048690      4.000000
  0.000891  0.094818 -0.093473      2.000000
  0.035903  0.062056 -0.107099      4.000000
  0.000594  0.031794  0.013224      2.000000
  0.035606 -0.000968 -0.000403      2.000000
 -0.034419  0.064555  0.026850      2.000000
  0.000891  0.063399 -0.017934      4.000000
  0.035903  0.030638 -0.031560      4.000000
 -0.034122  0.096161 -0.004308      4.000000
  0.001188  0.095005 -0.049092      4.000000
  0.036200  0.062244 -0.062718      4.000000
 -0.033825  0.127767 -0.035466      4.000000
 -0.000297 -0.063024  0.106697      4.000000
  0.034716 -0.095785  0.093071      4.000000
 -0.035310 -0.030263  0.120323      4.000000
  0.000000 -0.031418  0.075539      2.000000
  0.035013 -0.064179  0.061913      4.000000
  0.001188  0.063587  0.026447      2.000000
  0.036200  0.030826  0.012821      2.000000
 -0.033825  0.096349  0.040073      2.000000
  0.001485  0.095193 -0.004711      4.000000
  0.036497  0.062432 -0.018337      4.000000
 -0.033528  0.127954  0.008915      4.000000
  0.000000 -0.062836  0.151078      2.000000
  0.035013 -0.095598  0.137452      4.000000
  0.001782  0.095381  0.039671      1.000000
  0.036794  0.062619  0.026045      2.000000
 
 
 Subroutine IBZKPT_HF returns following result:
 ==============================================
 
 Found    108 k-points in 1st BZ
 the following    108 k-points will be used (e.g. in the exchange kernel)
 Following reciprocal coordinates:   # in IRBZ
  0.000000  0.000000  0.000000    0.00925926   1 t-inv F
  0.333333 -0.000000  0.000000    0.00925926   2 t-inv F
 -0.000000  0.166667 -0.000000    0.00925926   3 t-inv F
  0.333333  0.166667 -0.000000    0.00925926   4 t-inv F
 -0.333333  0.166667 -0.000000    0.00925926   5 t-inv F
  0.000000  0.333333 -0.000000    0.00925926   6 t-inv F
  0.333333  0.333333 -0.000000    0.00925926   7 t-inv F
 -0.333333  0.333333 -0.000000    0.00925926   8 t-inv F
  0.000000  0.500000  0.000000    0.00925926   9 t-inv F
  0.333333  0.500000  0.000000    0.00925926  10 t-inv F
  0.000000  0.166667  0.166667    0.00925926  11 t-inv F
  0.333333  0.166667  0.166667    0.00925926  12 t-inv F
 -0.333333  0.166667  0.166667    0.00925926  13 t-inv F
  0.000000  0.333333  0.166667    0.00925926  14 t-inv F
  0.333333  0.333333  0.166667    0.00925926  15 t-inv F
 -0.333333  0.333333  0.166667    0.00925926  16 t-inv F
  0.000000  0.500000  0.166667    0.00925926  17 t-inv F
  0.333333  0.500000  0.166667    0.00925926  18 t-inv F
 -0.333333  0.500000  0.166667    0.00925926  19 t-inv F
 -0.000000 -0.333333  0.166667    0.00925926  20 t-inv F
  0.333333 -0.333333  0.166667    0.00925926  21 t-inv F
 -0.333333 -0.333333  0.166667    0.00925926  22 t-inv F
 -0.000000 -0.166667  0.166667    0.00925926  23 t-inv F
  0.333333 -0.166667  0.166667    0.00925926  24 t-inv F
  0.000000  0.333333  0.333333    0.00925926  25 t-inv F
  0.333333  0.333333  0.333333    0.00925926  26 t-inv F
 -0.333333  0.333333  0.333333    0.00925926  27 t-inv F
  0.000000  0.500000  0.333333    0.00925926  28 t-inv F
  0.333333  0.500000  0.333333    0.00925926  29 t-inv F
 -0.333333  0.500000  0.333333    0.00925926  30 t-inv F
 -0.000000 -0.333333  0.333333    0.00925926  31 t-inv F
  0.333333 -0.333333  0.333333    0.00925926  32 t-inv F
  0.000000  0.500000  0.500000    0.00925926  33 t-inv F
  0.333333  0.500000  0.500000    0.00925926  34 t-inv F
 -0.333333 -0.000000  0.000000    0.00925926   2 t-inv F
  0.000000  0.000000 -0.166667    0.00925926   3 t-inv F
 -0.333333  0.000000 -0.166667    0.00925926   4 t-inv F
  0.333333  0.000000 -0.166667    0.00925926   5 t-inv F
 -0.000000  0.000000 -0.333333    0.00925926   6 t-inv F
 -0.333333  0.000000 -0.333333    0.00925926   7 t-inv F
  0.333333  0.000000 -0.333333    0.00925926   8 t-inv F
 -0.000000 -0.000000 -0.500000    0.00925926   9 t-inv F
 -0.333333 -0.000000 -0.500000    0.00925926  10 t-inv F
 -0.000000 -0.166667 -0.166667    0.00925926  11 t-inv F
 -0.333333 -0.166667 -0.166667    0.00925926  12 t-inv F
  0.333333 -0.166667 -0.166667    0.00925926  13 t-inv F
 -0.000000 -0.166667 -0.333333    0.00925926  14 t-inv F
 -0.333333 -0.166667 -0.333333    0.00925926  15 t-inv F
  0.333333 -0.166667 -0.333333    0.00925926  16 t-inv F
 -0.000000 -0.166667 -0.500000    0.00925926  17 t-inv F
 -0.333333 -0.166667 -0.500000    0.00925926  18 t-inv F
  0.333333 -0.166667 -0.500000    0.00925926  19 t-inv F
  0.000000 -0.166667  0.333333    0.00925926  20 t-inv F
 -0.333333 -0.166667  0.333333    0.00925926  21 t-inv F
  0.333333 -0.166667  0.333333    0.00925926  22 t-inv F
 -0.333333 -0.166667  0.166667    0.00925926  24 t-inv F
 -0.000000 -0.333333 -0.333333    0.00925926  25 t-inv F
 -0.333333 -0.333333 -0.333333    0.00925926  26 t-inv F
  0.333333 -0.333333 -0.333333    0.00925926  27 t-inv F
 -0.000000 -0.333333 -0.500000    0.00925926  28 t-inv F
 -0.333333 -0.333333 -0.500000    0.00925926  29 t-inv F
  0.333333 -0.333333 -0.500000    0.00925926  30 t-inv F
 -0.333333 -0.333333  0.333333    0.00925926  32 t-inv F
 -0.333333 -0.500000 -0.500000    0.00925926  34 t-inv F
  0.000000 -0.166667  0.000000    0.00925926   3 t-inv T
 -0.000000 -0.000000  0.166667    0.00925926   3 t-inv T
 -0.333333 -0.166667  0.000000    0.00925926   4 t-inv T
  0.333333 -0.000000  0.166667    0.00925926   4 t-inv T
  0.333333 -0.166667  0.000000    0.00925926   5 t-inv T
 -0.333333 -0.000000  0.166667    0.00925926   5 t-inv T
 -0.000000 -0.333333  0.000000    0.00925926   6 t-inv T
  0.000000 -0.000000  0.333333    0.00925926   6 t-inv T
 -0.333333 -0.333333  0.000000    0.00925926   7 t-inv T
  0.333333 -0.000000  0.333333    0.00925926   7 t-inv T
  0.333333 -0.333333  0.000000    0.00925926   8 t-inv T
 -0.333333 -0.000000  0.333333    0.00925926   8 t-inv T
 -0.333333 -0.500000 -0.000000    0.00925926  10 t-inv T
  0.333333  0.000000  0.500000    0.00925926  10 t-inv T
 -0.000000 -0.333333 -0.166667    0.00925926  14 t-inv T
  0.000000  0.166667  0.333333    0.00925926  14 t-inv T
 -0.333333 -0.333333 -0.166667    0.00925926  15 t-inv T
  0.333333  0.166667  0.333333    0.00925926  15 t-inv T
  0.333333 -0.333333 -0.166667    0.00925926  16 t-inv T
 -0.333333  0.166667  0.333333    0.00925926  16 t-inv T
 -0.000000 -0.500000 -0.166667    0.00925926  17 t-inv T
  0.000000  0.166667  0.500000    0.00925926  17 t-inv T
 -0.333333 -0.500000 -0.166667    0.00925926  18 t-inv T
  0.333333  0.166667  0.500000    0.00925926  18 t-inv T
  0.333333 -0.500000 -0.166667    0.00925926  19 t-inv T
 -0.333333  0.166667  0.500000    0.00925926  19 t-inv T
  0.000000  0.333333 -0.166667    0.00925926  20 t-inv T
 -0.000000  0.166667 -0.333333    0.00925926  20 t-inv T
 -0.333333  0.333333 -0.166667    0.00925926  21 t-inv T
  0.333333  0.166667 -0.333333    0.00925926  21 t-inv T
  0.333333  0.333333 -0.166667    0.00925926  22 t-inv T
 -0.333333  0.166667 -0.333333    0.00925926  22 t-inv T
  0.000000  0.166667 -0.166667    0.00925926  23 t-inv T
 -0.333333  0.166667 -0.166667    0.00925926  24 t-inv T
  0.333333  0.166667 -0.166667    0.00925926  24 t-inv T
 -0.000000 -0.500000 -0.333333    0.00925926  28 t-inv T
  0.000000  0.333333  0.500000    0.00925926  28 t-inv T
 -0.333333 -0.500000 -0.333333    0.00925926  29 t-inv T
  0.333333  0.333333  0.500000    0.00925926  29 t-inv T
  0.333333 -0.500000 -0.333333    0.00925926  30 t-inv T
 -0.333333  0.333333  0.500000    0.00925926  30 t-inv T
  0.000000  0.333333 -0.333333    0.00925926  31 t-inv T
 -0.333333  0.333333 -0.333333    0.00925926  32 t-inv T
  0.333333  0.333333 -0.333333    0.00925926  32 t-inv T


--------------------------------------------------------------------------------------------------------




 Dimension of arrays:
   k-points           NKPTS =     34   k-points in BZ     NKDIM =    108   number of bands    NBANDS=     60
   number of dos      NEDOS =   2000   number of ions     NIONS =     12
   non local maximal  LDIM  =      6   non local SUM 2l+1 LMDIM =     18
   total plane-waves  NPLWV = 204120
   max r-space proj   IRMAX =      1   max aug-charges    IRDMAX=  35046
   dimension x,y,z NGX =    70 NGY =   54 NGZ =   54
   dimension x,y,z NGXF=   140 NGYF=  108 NGZF=  108
   support grid    NGXF=   140 NGYF=  108 NGZF=  108
   ions per type =               4   1   4   3
   NGX,Y,Z   is equivalent  to a cutoff of  12.44, 12.69, 12.69 a.u.
   NGXF,Y,Z  is equivalent  to a cutoff of  24.87, 25.39, 25.39 a.u.

 SYSTEM =  unknown system                          
 POSCAR =  # Compound: Li4OS4Fe3. Old comment: LFSO

 Startparameter for this run:
   NWRITE =      1    write-flag & timer
   PREC   = accura    normal or accurate (medium, high low for compatibility)
   ISTART =      0    job   : 0-new  1-cont  2-samecut
   ICHARG =      2    charge: 1-file 2-atom 10-const
   ISPIN  =      2    spin polarized calculation?
   LNONCOLLINEAR =      F non collinear calculations
   LSORBIT =      F    spin-orbit coupling
   INIWAV =      1    electr: 0-lowe 1-rand  2-diag
   LASPH  =      T    aspherical Exc in radial PAW
   METAGGA=      F    non-selfconsistent MetaGGA calc.

 Electronic Relaxation 1
   ENCUT  =  520.0 eV  38.22 Ry    6.18 a.u.  17.40 13.15 13.15*2*pi/ulx,y,z
   ENINI  =  520.0     initial cutoff
   ENAUG  =  628.9 eV  augmentation charge cutoff
   NELM   =    200;   NELMIN=  4; NELMDL= -5     # of ELM steps 
   EDIFF  = 0.1E-04   stopping-criterion for ELM
   LREAL  =      F    real-space projection
   NLSPLINE    = F    spline interpolate recip. space projectors
   LCOMPAT=      F    compatible to vasp.4.4
   GGA_COMPAT  = T    GGA compatible to vasp.4.4-vasp.4.6
   LMAXPAW     = -100 max onsite density
   LMAXMIX     =    2 max onsite mixed and CHGCAR
   VOSKOWN=      0    Vosko Wilk Nusair interpolation
   ROPT   =    0.00000   0.00000   0.00000   0.00000
 Ionic relaxation
   EDIFFG = -.3E-01   stopping-criterion for IOM
   NSW    =     60    number of steps for IOM
   NBLOCK =      1;   KBLOCK =     60    inner block; outer block 
   IBRION =      2    ionic relax: 0-MD 1-quasi-New 2-CG
   NFREE  =      1    steps in history (QN), initial steepest desc. (CG)
   ISIF   =      3    stress and relaxation
   IWAVPR =     11    prediction:  0-non 1-charg 2-wave 3-comb
   ISYM   =      3    0-nonsym 1-usesym 2-fastsym
   LCORR  =      T    Harris-Foulkes like correction to forces

   POTIM  = 0.5000    time-step for ionic-motion
   TEIN   =    0.0    initial temperature
   TEBEG  =    0.0;   TEEND  =   0.0 temperature during run
   SMASS  =  -3.00    Nose mass-parameter (am)
   estimated Nose-frequenzy (Omega)   =  0.10E-29 period in steps = 0.13E+47 mass=  -0.200E-26a.u.
   SCALEE = 1.0000    scale energy and forces
   NPACO  =    256;   APACO  = 16.0  distance and # of slots for P.C.
   PSTRESS=    0.0 pullay stress

  Mass of Ions in am
   POMASS =   7.01 16.00 32.07 55.85
  Ionic Valenz
   ZVAL   =   3.00  6.00  6.00 14.00
  Atomic Wigner-Seitz radii
   RWIGS  =  -1.00 -1.00 -1.00 -1.00
  virtual crystal weights 
   VCA    =   1.00  1.00  1.00  1.00
   NELECT =      84.0000    total number of electrons
   NUPDOWN=      -1.0000    fix difference up-down

 DOS related values:
   EMIN   =  10.00;   EMAX   =-10.00  energy-range for DOS
   EFERMI =   0.00
   ISMEAR =     0;   SIGMA  =   0.05  broadening in eV -4-tet -1-fermi 0-gaus

 Electronic relaxation 2 (details)
   IALGO  =     58    algorithm
   LDIAG  =      T    sub-space diagonalisation (order eigenvalues)
   LSUBROT=      F    optimize rotation matrix (better conditioning)
   TURBO    =      0    0=normal 1=particle mesh
   IRESTART =      0    0=no restart 2=restart with 2 vectors
   NREBOOT  =      0    no. of reboots
   NMIN     =      0    reboot dimension
   EREF     =   0.00    reference energy to select bands
   IMIX   =      4    mixing-type and parameters
     AMIX     =   0.40;   BMIX     =  1.00
     AMIX_MAG =   1.60;   BMIX_MAG =  1.00
     AMIN     =   0.10
     WC   =   100.;   INIMIX=   1;  MIXPRE=   1;  MAXMIX= -45

 Intra band minimization:
   WEIMIN = 0.0010     energy-eigenvalue tresh-hold
   EBREAK =  0.50E-07  absolut break condition
   DEPER  =   0.30     relativ break condition  

   TIME   =   0.30     timestep for ELM

  volume/ion in A,a.u.               =      15.38       103.77
  Fermi-wavevector in a.u.,A,eV,Ry     =   1.259363  2.379851 21.578772  1.585995
  Thomas-Fermi vector in A             =   2.392926
 
 Write flags
   LWAVE        =      T    write WAVECAR
   LDOWNSAMPLE  =      F    k-point downsampling of WAVECAR
   LCHARG       =      T    write CHGCAR
   LVTOT        =      F    write LOCPOT, total local potential
   LVHAR        =      T    write LOCPOT, Hartree potential only
   LELF         =      F    write electronic localiz. function (ELF)
   LORBIT       =     11    0 simple, 1 ext, 2 COOP (PROOUT), +10 PAW based schemes


 Dipole corrections
   LMONO  =      F    monopole corrections only (constant potential shift)
   LDIPOL =      F    correct potential (dipole corrections)
   IDIPOL =      0    1-x, 2-y, 3-z, 4-all directions 
   EPSILON=  1.0000000 bulk dielectric constant

 Exchange correlation treatment:
   GGA     =    PE    GGA type
   LEXCH   =     8    internal setting for exchange type
   VOSKOWN=      0    Vosko Wilk Nusair interpolation
   EXXOEP  =     0    0=HF, 1=EXX-LHF (local Hartree Fock) 2=EXX OEP
   LHFCALC =     T    Hartree Fock is set to
   LSYMGRAD=     F    symmetrize gradient (conserves proper symmetry)
   PRECFOCK=fast      Normal, Fast or Accurate (Low or Medium for compatibility)
   LRHFCALC=     F    long range Hartree Fock
   LRSCOR  =     F    long range correlation only (use DFT for short range part)
   LTHOMAS =     F    Thomas Fermi screening in HF
   LMODELHF=     F    short range full HF, long range fraction AEXX
   LFOCKACE=     T    use Adeptively-Compressed-Exchange operator
   ENCUT4O =  -1.0   cutoff for four orbital integrals eV
   LMAXFOCK=     4    L truncation for augmentation on plane wave grid
   LMAXFOCKAE=  -1    L truncation for all-electron charge restoration on plane wave grid
   NMAXFOCKAE=   1    number of basis functions for all-electron charge restoration
   LFOCKAEDFT=     F  apply the AE augmentation even for DFT
   NKREDX  =     1    reduce k-point grid by
   NKREDY  =     1    reduce k-point grid by
   NKREDZ  =     1    reduce k-point grid by
   SHIFTRED=     F    shift reduced grid of Gamma
   HFKIDENT=     F    idential grid for each k-point
   ODDONLY =     F    use only odd q-grid points
   EVENONLY=     F    use only even q-grid points
   HFALPHA =   -1.0000 decay constant for conv. correction
   MCALPHA =    0.0000 extent of test-charge in conv. correction in multipole expansion
   AEXX    =    0.2500 exact exchange contribution
   HFSCREEN=    0.2070 screening length (either q_TF or 0.3 A-1)
   HFSCREENC=   0.2070 screening length for correlation (either q_TF or 0.3 A-1)
   HFRCUT  =    0.0000 spherical cutoff for potential kernel
   ALDAX   =    0.7500 LDA exchange part
   AGGAX   =    0.7500 GGA exchange part
   ALDAC   =    1.0000 LDA correlation
   AGGAC   =    1.0000 GGA correlation
   ENCUTFOCK=  -1.0 apply spherical cutoff to Coloumb kernel
   NBANDSGWLOW=     1    first orbital included in HF term
   NBLOCK_FOCK=    64    blocking factor in FOCK_ACC
 Linear response parameters
   LEPSILON=     F    determine dielectric tensor
   LRPA    =     F    only Hartree local field effects (RPA)
   LNABLA  =     F    use nabla operator in PAW spheres
   LVEL    =     F    velocity operator in full k-point grid
   LINTERFAST=   F  fast interpolation
   KINTER  =     0    interpolate to denser k-point grid
   CSHIFT  =0.1000    complex shift for real part using Kramers Kronig
   OMEGAMAX=  -1.0    maximum frequency
   DEG_THRESHOLD= 0.2000000E-02 threshold for treating states as degnerate
   RTIME   =   -0.100 relaxation time in fs
  (WPLASMAI=    0.000 imaginary part of plasma frequency in eV, 0.658/RTIME)
   DFIELD  = 0.0000000 0.0000000 0.0000000 field for delta impulse in time
 
 Orbital magnetization related:
   ORBITALMAG=     F  switch on orbital magnetization
   LCHIMAG   =     F  perturbation theory with respect to B field
   DQ        =  0.001000  dq finite difference perturbation B field
   LLRAUG    =     F  two centre corrections for induced B field



--------------------------------------------------------------------------------------------------------


 conjugate gradient relaxation of ions
 charge density and potential will be updated during run
 spin polarized calculation
 Conjugate gradient for all bands (Freysoldt, et al. PRB 79, 241103 (2009))
 preconditioned conjugated gradient                                        
 perform sub-space diagonalisation
    before iterative eigenvector-optimisation
 modified Broyden-mixing scheme, WC =      100.0
 initial mixing is a Kerker type mixing with AMIX =  0.4000 and BMIX =      1.0000
 Hartree-type preconditioning will be used
 using additional bands           18
 reciprocal scheme for non local part
 use partial core corrections
 no Harris-corrections to forces 
 use gradient corrections 
 use of overlap-Matrix (Vanderbilt PP)
 Gauss-broadening in eV      SIGMA  =   0.05


--------------------------------------------------------------------------------------------------------


  energy-cutoff  :      520.00
  volume of cell :      184.52
      direct lattice vectors                 reciprocal lattice vectors
     9.356836740 -0.149013340 -0.061977440     0.105037725 -0.098284006 -0.040878159
     4.820821090  5.174609890 -0.054144000     0.001781766  0.189635238 -0.186946822
     4.820821090  3.609944900  3.707804860     0.001781766  0.001126332  0.266288131

  length of vectors
     9.358228463  7.072470224  7.072470222     0.149544955  0.266296474  0.266296474


 
 k-points in units of 2pi/SCALE and weight: # No comment                            
   0.00000000  0.00000000  0.00000000       0.009
   0.03501258 -0.03276134 -0.01362605       0.019
   0.00029696  0.03160587 -0.03115780       0.037
   0.03530954 -0.00115546 -0.04478386       0.037
  -0.03471561  0.06436721 -0.01753175       0.037
   0.00059392  0.06321175 -0.06231561       0.037
   0.03560650  0.03045041 -0.07594166       0.037
  -0.03441865  0.09597308 -0.04868955       0.037
   0.00089088  0.09481762 -0.09347341       0.019
   0.03590346  0.06205628 -0.10709946       0.037
   0.00059392  0.03179359  0.01322355       0.019
   0.03560650 -0.00096774 -0.00040250       0.019
  -0.03441865  0.06455493  0.02684960       0.019
   0.00089088  0.06339947 -0.01793425       0.037
   0.03590346  0.03063813 -0.03156030       0.037
  -0.03412169  0.09616080 -0.00430820       0.037
   0.00118784  0.09500534 -0.04909206       0.037
   0.03620042  0.06224401 -0.06271811       0.037
  -0.03382473  0.12776668 -0.03546600       0.037
  -0.00029696 -0.06302402  0.10669696       0.037
   0.03471561 -0.09578536  0.09307091       0.037
  -0.03530954 -0.03026269  0.12032302       0.037
   0.00000000 -0.03141815  0.07553916       0.019
   0.03501258 -0.06417949  0.06191311       0.037
   0.00118784  0.06358719  0.02644710       0.019
   0.03620042  0.03082585  0.01282105       0.019
  -0.03382473  0.09634853  0.04007316       0.019
   0.00148481  0.09519306 -0.00471070       0.037
   0.03649738  0.06243173 -0.01833675       0.037
  -0.03352777  0.12795440  0.00891535       0.037
   0.00000000 -0.06283630  0.15107832       0.019
   0.03501258 -0.09559764  0.13745226       0.037
   0.00178177  0.09538078  0.03967065       0.009
   0.03679434  0.06261945  0.02604460       0.019
 
 k-points in reciprocal lattice and weights: # No comment                            
   0.00000000  0.00000000  0.00000000       0.009
   0.33333333 -0.00000000  0.00000000       0.019
  -0.00000000  0.16666667 -0.00000000       0.037
   0.33333333  0.16666667 -0.00000000       0.037
  -0.33333333  0.16666667 -0.00000000       0.037
   0.00000000  0.33333333 -0.00000000       0.037
   0.33333333  0.33333333 -0.00000000       0.037
  -0.33333333  0.33333333 -0.00000000       0.037
   0.00000000  0.50000000  0.00000000       0.019
   0.33333333  0.50000000  0.00000000       0.037
   0.00000000  0.16666667  0.16666667       0.019
   0.33333333  0.16666667  0.16666667       0.019
  -0.33333333  0.16666667  0.16666667       0.019
   0.00000000  0.33333333  0.16666667       0.037
   0.33333333  0.33333333  0.16666667       0.037
  -0.33333333  0.33333333  0.16666667       0.037
   0.00000000  0.50000000  0.16666667       0.037
   0.33333333  0.50000000  0.16666667       0.037
  -0.33333333  0.50000000  0.16666667       0.037
  -0.00000000 -0.33333333  0.16666667       0.037
   0.33333333 -0.33333333  0.16666667       0.037
  -0.33333333 -0.33333333  0.16666667       0.037
  -0.00000000 -0.16666667  0.16666667       0.019
   0.33333333 -0.16666667  0.16666667       0.037
   0.00000000  0.33333333  0.33333333       0.019
   0.33333333  0.33333333  0.33333333       0.019
  -0.33333333  0.33333333  0.33333333       0.019
   0.00000000  0.50000000  0.33333333       0.037
   0.33333333  0.50000000  0.33333333       0.037
  -0.33333333  0.50000000  0.33333333       0.037
  -0.00000000 -0.33333333  0.33333333       0.019
   0.33333333 -0.33333333  0.33333333       0.037
   0.00000000  0.50000000  0.50000000       0.009
   0.33333333  0.50000000  0.50000000       0.019
 
 position of ions in fractional coordinates (direct lattice) 
   0.85988123  0.23028373  0.37032617
   0.14011877  0.62967383  0.76971627
   0.58121522  0.80129415  0.94053063
   0.41878478  0.05946937  0.19870585
   0.00000000  0.43126274  0.56873726
   0.78470377  0.86228460  0.00135854
   0.21529623  0.99864146  0.13771540
   0.65569449  0.18339857  0.32237768
   0.34430551  0.67762232  0.81660143
   0.70745545  0.52576231  0.66284089
   0.29254455  0.33715911  0.47423769
   0.00000000  0.93136080  0.06863920
 
 position of ions in cartesian coordinates  (Angst):
  10.94120116  2.40035176  1.30733545
   8.05727776  6.01607019  2.81118046
  13.83536156  7.45503956  3.40789654
   5.16311736  0.96264344  0.70758740
   4.82082109  4.28472661  2.08541649
  11.50581413  4.34995934 -0.09028427
   7.49266479  5.63264297  0.44320788
   8.57348311  2.01507449  1.14474533
  10.42499581  6.40301121  2.96977039
  12.34958852  5.00801364  2.38537152
   6.64889040  3.41304576  1.72199451
   4.82082109  5.06721254  0.20407316
 


--------------------------------------------------------------------------------------------------------


 k-point   1 :   0.0000 0.0000 0.0000  plane waves:    4947
 k-point   2 :   0.3333-0.0000 0.0000  plane waves:    4975
 k-point   3 :  -0.0000 0.1667-0.0000  plane waves:    4958
 k-point   4 :   0.3333 0.1667-0.0000  plane waves:    4972
 k-point   5 :  -0.3333 0.1667-0.0000  plane waves:    4978
 k-point   6 :   0.0000 0.3333-0.0000  plane waves:    4991
 k-point   7 :   0.3333 0.3333-0.0000  plane waves:    4948
 k-point   8 :  -0.3333 0.3333-0.0000  plane waves:    4970
 k-point   9 :   0.0000 0.5000 0.0000  plane waves:    4950
 k-point  10 :   0.3333 0.5000 0.0000  plane waves:    4958
 k-point  11 :   0.0000 0.1667 0.1667  plane waves:    4957
 k-point  12 :   0.3333 0.1667 0.1667  plane waves:    4970
 k-point  13 :  -0.3333 0.1667 0.1667  plane waves:    4984
 k-point  14 :   0.0000 0.3333 0.1667  plane waves:    4979
 k-point  15 :   0.3333 0.3333 0.1667  plane waves:    4968
 k-point  16 :  -0.3333 0.3333 0.1667  plane waves:    4971
 k-point  17 :   0.0000 0.5000 0.1667  plane waves:    4965
 k-point  18 :   0.3333 0.5000 0.1667  plane waves:    4970
 k-point  19 :  -0.3333 0.5000 0.1667  plane waves:    4954
 k-point  20 :  -0.0000-0.3333 0.1667  plane waves:    4954
 k-point  21 :   0.3333-0.3333 0.1667  plane waves:    4954
 k-point  22 :  -0.3333-0.3333 0.1667  plane waves:    4960
 k-point  23 :  -0.0000-0.1667 0.1667  plane waves:    4967
 k-point  24 :   0.3333-0.1667 0.1667  plane waves:    4955
 k-point  25 :   0.0000 0.3333 0.3333  plane waves:    4993
 k-point  26 :   0.3333 0.3333 0.3333  plane waves:    4968
 k-point  27 :  -0.3333 0.3333 0.3333  plane waves:    4975
 k-point  28 :   0.0000 0.5000 0.3333  plane waves:    4988
 k-point  29 :   0.3333 0.5000 0.3333  plane waves:    4958
 k-point  30 :  -0.3333 0.5000 0.3333  plane waves:    4982
 k-point  31 :  -0.0000-0.3333 0.3333  plane waves:    4962
 k-point  32 :   0.3333-0.3333 0.3333  plane waves:    4951
 k-point  33 :   0.0000 0.5000 0.5000  plane waves:    4990
 k-point  34 :   0.3333 0.5000 0.5000  plane waves:    4992

 maximum and minimum number of plane-waves per node :      4993     4947

 maximum number of plane-waves:      4993
 maximum index in each direction: 
   IXMAX=   17   IYMAX=   13   IZMAX=   13
   IXMIN=  -17   IYMIN=  -13   IZMIN=  -13


 serial   3D FFT for wavefunctions
 parallel 3D FFT for charge:
    minimum data exchange during FFTs selected (reduces bandwidth)


 FFT grid for exact exchange (Hartree Fock) 
  NGX = 40; NGY = 28; NGZ = 28

 
 Radii for the augmentation spheres in the non-local exchange
 for species   1 augmentation radius   0.956 (default was   0.708)
       energy cutoff for augmentation   2080.0
 for species   2 augmentation radius   0.974 (default was   0.722)
       energy cutoff for augmentation   2080.0
 for species   3 augmentation radius   1.309 (default was   0.970)
       energy cutoff for augmentation   2080.0
 for species   4 augmentation radius   1.283 (default was   0.950)
       energy cutoff for augmentation   2080.0
 Maximum index for augmentation-charges in exchange         1615
  SETUP_FOCK is finished

 total amount of memory used by VASP MPI-rank0   452839. kBytes
=======================================================================

   base      :      30000. kBytes
   nonl-proj :      98800. kBytes
   fftplans  :      14787. kBytes
   grid      :      56246. kBytes
   one-center:        373. kBytes
   HF        :        259. kBytes
   nonlr-proj:       2093. kBytes
   wavefun   :     250281. kBytes
 
     INWAV:  cpu time    0.0000: real time    0.0000
 Broyden mixing: mesh for mixing (old mesh)
   NGX = 35   NGY = 27   NGZ = 27
  (NGX  =140   NGY  =108   NGZ  =108)
  gives a total of  25515 points

 initial charge density was supplied:
 charge density of overlapping atoms calculated
 number of electron      84.0000000 magnetization      20.4000000
 keeping initial charge density in first step


--------------------------------------------------------------------------------------------------------


 Maximum index for augmentation-charges         8482 (set IRDMAX)


--------------------------------------------------------------------------------------------------------


 First call to EWALD:  gamma=   0.311
 Maximum number of real-space cells 2x 4x 4
 Maximum number of reciprocal cells 4x 3x 3

    FEWALD:  cpu time    0.0037: real time    0.0038


--------------------------------------- Iteration      1(   1)  ---------------------------------------


    POTLOK:  cpu time    0.5209: real time    0.5223
    SETDIJ:  cpu time    0.5757: real time    0.5774
    TRIAL :  cpu time    0.9440: real time    0.9720
    CORREC:  cpu time    0.0012: real time    0.0012
    --------------------------------------------
      LOOP:  cpu time    2.1030: real time    2.1353

 eigenvalue-minimisations  :  8672
 total energy-change (2. order) :-0.7386262E+03  (-0.4420389E+04)
 number of electron      84.0000000 magnetization      20.4000000
 augmentation part       84.0000000 magnetization      20.4000000

 Free energy of the ion-electron system (eV)
  ---------------------------------------------------
  alpha Z        PSCENC =       192.59692575
  Ewald energy   TEWEN  =     -4914.12676986
  -Hartree energ DENC   =     -3962.44317120
  -exchange      EXHF   =         0.00000000
  -V(xc)+E(xc)   XCENC  =       345.00910676
  PAW double counting   =      7531.92898647    -9263.00172511
  entropy T*S    EENTRO =        -0.00257647
  eigenvalues    EBANDS =      -363.86200296
  atomic energy  EATOM  =      9695.27500775
  ---------------------------------------------------
  free energy    TOTEN  =      -738.62621888 eV

  energy without entropy =     -738.62364241  energy(sigma->0) =     -738.62493065
  exchange ACFDT corr.  =         0.00000000  see jH, gK, PRB 81, 115126


--------------------------------------------------------------------------------------------------------




--------------------------------------- Iteration      1(   2)  ---------------------------------------


    TRIAL :  cpu time    0.9174: real time    0.9196
    CORREC:  cpu time    0.0010: real time    0.0010
    --------------------------------------------
      LOOP:  cpu time    0.9220: real time    0.9249

 eigenvalue-minimisations  :  8232
 total energy-change (2. order) :-0.8322987E+03  (-0.7752265E+03)
 number of electron      84.0000000 magnetization      20.4000000
 augmentation part       84.0000000 magnetization      20.4000000

 Free energy of the ion-electron system (eV)
  ---------------------------------------------------
  alpha Z        PSCENC =       192.59692575
  Ewald energy   TEWEN  =     -4914.12676986
  -Hartree energ DENC   =     -3962.44317120
  -exchange      EXHF   =         0.00000000
  -V(xc)+E(xc)   XCENC  =       345.00910676
  PAW double counting   =      7531.92898647    -9263.00172511
  entropy T*S    EENTRO =        -0.01016775
  eigenvalues    EBANDS =     -1196.15311899
  atomic energy  EATOM  =      9695.27500775
  ---------------------------------------------------
  free energy    TOTEN  =     -1570.92492618 eV

  energy without entropy =    -1570.91475844  energy(sigma->0) =    -1570.91984231
  exchange ACFDT corr.  =         0.00000000  see jH, gK, PRB 81, 115126


--------------------------------------------------------------------------------------------------------




--------------------------------------- Iteration      1(   3)  ---------------------------------------


    TRIAL :  cpu time    1.0092: real time    1.0118
    CORREC:  cpu time    0.0011: real time    0.0011
    --------------------------------------------
      LOOP:  cpu time    1.0138: real time    1.0172

 eigenvalue-minimisations  :  9376
 total energy-change (2. order) :-0.1080410E+03  (-0.1034889E+03)
 number of electron      84.0000000 magnetization      20.4000000
 augmentation part       84.0000000 magnetization      20.4000000

 Free energy of the ion-electron system (eV)
  ---------------------------------------------------
  alpha Z        PSCENC =       192.59692575
  Ewald energy   TEWEN  =     -4914.12676986
  -Hartree energ DENC   =     -3962.44317120
  -exchange      EXHF   =         0.00000000
  -V(xc)+E(xc)   XCENC  =       345.00910676
  PAW double counting   =      7531.92898647    -9263.00172511
  entropy T*S    EENTRO =        -0.00699583
  eigenvalues    EBANDS =     -1304.19726593
  atomic energy  EATOM  =      9695.27500775
  ---------------------------------------------------
  free energy    TOTEN  =     -1678.96590121 eV

  energy without entropy =    -1678.95890538  energy(sigma->0) =    -1678.96240330
  exchange ACFDT corr.  =         0.00000000  see jH, gK, PRB 81, 115126


--------------------------------------------------------------------------------------------------------




--------------------------------------- Iteration      1(   4)  ---------------------------------------


    TRIAL :  cpu time    1.2265: real time    1.2297
    CORREC:  cpu time    0.0011: real time    0.0011
    --------------------------------------------
      LOOP:  cpu time    1.2282: real time    1.2351

 eigenvalue-minimisations  : 12544
 total energy-change (2. order) :-0.1601047E+02  (-0.1588057E+02)
 number of electron      84.0000000 magnetization      20.4000000
 augmentation part       84.0000000 magnetization      20.4000000

 Free energy of the ion-electron system (eV)
  ---------------------------------------------------
  alpha Z        PSCENC =       192.59692575
  Ewald energy   TEWEN  =     -4914.12676986
  -Hartree energ DENC   =     -3962.44317120
  -exchange      EXHF   =         0.00000000
  -V(xc)+E(xc)   XCENC  =       345.00910676
  PAW double counting   =      7531.92898647    -9263.00172511
  entropy T*S    EENTRO =        -0.00664897
  eigenvalues    EBANDS =     -1320.20808755
  atomic energy  EATOM  =      9695.27500775
  ---------------------------------------------------
  free energy    TOTEN  =     -1694.97637596 eV

  energy without entropy =    -1694.96972700  energy(sigma->0) =    -1694.97305148
  exchange ACFDT corr.  =         0.00000000  see jH, gK, PRB 81, 115126


--------------------------------------------------------------------------------------------------------




--------------------------------------- Iteration      1(   5)  ---------------------------------------


    POTLOK:  cpu time    1.1591: real time    1.1620
    SETDIJ:  cpu time    1.0269: real time    1.0293
    TRIAL :  cpu time  178.3718: real time  178.8353
    CORREC:  cpu time    0.0010: real time    0.0010
    CHARGE:  cpu time    0.3703: real time    0.3713
    --------------------------------------------
      LOOP:  cpu time  180.9300: real time  181.4034

 eigenvalue-minimisations  : 10140
 total energy-change (2. order) : 0.1601693E+04  (-0.4331045E+01)
 number of electron      84.0000003 magnetization      13.6753093
 augmentation part       24.5267249 magnetization       9.0161768

 Free energy of the ion-electron system (eV)
  ---------------------------------------------------
  alpha Z        PSCENC =       192.59692575
  Ewald energy   TEWEN  =     -4914.12676986
  -Hartree energ DENC   =     -3962.44317120
  -exchange      EXHF   =       237.05815352
  -V(xc)+E(xc)   XCENC  =       262.18222998
  PAW double counting   =      7610.99450476    -7882.23117149
  entropy T*S    EENTRO =        -0.00479539
  eigenvalues    EBANDS =     -1332.58466741
  atomic energy  EATOM  =      9695.27500775
  ---------------------------------------------------
  free energy    TOTEN  =       -93.28375359 eV

  energy without entropy =      -93.27895820  energy(sigma->0) =      -93.28135590
  exchange ACFDT corr.  =        -0.00974664  see jH, gK, PRB 81, 115126


--------------------------------------------------------------------------------------------------------




--------------------------------------- Iteration      1(   6)  ---------------------------------------


    POTLOK:  cpu time    1.1345: real time    1.1373
    SETDIJ:  cpu time    1.0411: real time    1.0436
    TRIAL :  cpu time  176.5181: real time  176.9648
    CORREC:  cpu time  176.5097: real time  176.9557
    CHARGE:  cpu time    0.3689: real time    0.3699
    --------------------------------------------
      LOOP:  cpu time  355.5759: real time  356.4753

 eigenvalue-minimisations  :     0
 total energy-change (2. order) : 0.5578973E+02  (-0.3783089E+02)
 number of electron      84.0000003 magnetization      12.1656068
 augmentation part       26.9152189 magnetization       9.0261850

 Free energy of the ion-electron system (eV)
  ---------------------------------------------------
  alpha Z        PSCENC =       192.59692575
  Ewald energy   TEWEN  =     -4914.12676986
  -Hartree energ DENC   =     -3330.23070990
  -exchange      EXHF   =       232.52812171
  -V(xc)+E(xc)   XCENC  =       253.79455547
  PAW double counting   =      8980.89594723    -9235.69139590
  entropy T*S    EENTRO =        -0.00276784
  eigenvalues    EBANDS =     -1912.53090560
  atomic energy  EATOM  =      9695.27500775
  ---------------------------------------------------
  free energy    TOTEN  =       -37.49401874 eV

  energy without entropy =      -37.49125090  energy(sigma->0) =      -37.49263482
  exchange ACFDT corr.  =        -0.00182294  see jH, gK, PRB 81, 115126


--------------------------------------------------------------------------------------------------------




--------------------------------------- Iteration      1(   7)  ---------------------------------------


    POTLOK:  cpu time    1.1422: real time    1.1449
    SETDIJ:  cpu time    1.0379: real time    1.0405
    TRIAL :  cpu time  173.5602: real time  174.0044
    CORREC:  cpu time  174.9222: real time  175.3779
    CHARGE:  cpu time    0.3526: real time    0.3534
    --------------------------------------------
      LOOP:  cpu time  351.0161: real time  351.9229

 eigenvalue-minimisations  :     0
 total energy-change (2. order) :-0.3757468E+02  (-0.5031101E+01)
 number of electron      84.0000002 magnetization      12.0185180
 augmentation part       26.7006238 magnetization       8.8603228

 Free energy of the ion-electron system (eV)
  ---------------------------------------------------
  alpha Z        PSCENC =       192.59692575
  Ewald energy   TEWEN  =     -4914.12676986
  -Hartree energ DENC   =     -3785.23305465
  -exchange      EXHF   =       235.08626596
  -V(xc)+E(xc)   XCENC  =       261.49435010
  PAW double counting   =     10132.98548537   -10441.84004468
  entropy T*S    EENTRO =        -0.00332490
  eigenvalues    EBANDS =     -1451.30410133
  atomic energy  EATOM  =      9695.27500775
  ---------------------------------------------------
  free energy    TOTEN  =       -75.06870344 eV

  energy without entropy =      -75.06537854  energy(sigma->0) =      -75.06704099
  exchange ACFDT corr.  =        -0.01591641  see jH, gK, PRB 81, 115126


--------------------------------------------------------------------------------------------------------




--------------------------------------- Iteration      1(   8)  ---------------------------------------


    POTLOK:  cpu time    1.1520: real time    1.1550
    SETDIJ:  cpu time    1.0268: real time    1.0292
    TRIAL :  cpu time  172.3075: real time  172.7505
    CORREC:  cpu time  174.5437: real time  174.9838
    CHARGE:  cpu time    0.3599: real time    0.3610
    --------------------------------------------
      LOOP:  cpu time  349.3944: real time  350.2854

 eigenvalue-minimisations  :     0
 total energy-change (2. order) :-0.5025395E+01  (-0.1672632E+01)
 number of electron      84.0000002 magnetization      11.9999998
 augmentation part       26.5234760 magnetization       8.6252260

 Free energy of the ion-electron system (eV)
  ---------------------------------------------------
  alpha Z        PSCENC =       192.59692575
  Ewald energy   TEWEN  =     -4914.12676986
  -Hartree energ DENC   =     -3797.27890256
  -exchange      EXHF   =       233.44160583
  -V(xc)+E(xc)   XCENC  =       259.81971241
  PAW double counting   =     10402.78119061   -10699.14912105
  entropy T*S    EENTRO =        -0.00565264
  eigenvalues    EBANDS =     -1453.45042276
  atomic energy  EATOM  =      9695.27500775
  ---------------------------------------------------
  free energy    TOTEN  =       -80.09409879 eV

  energy without entropy =      -80.08844614  energy(sigma->0) =      -80.09127247
  exchange ACFDT corr.  =        -0.06561646  see jH, gK, PRB 81, 115126


--------------------------------------------------------------------------------------------------------




--------------------------------------- Iteration      1(   9)  ---------------------------------------


    POTLOK:  cpu time    1.1573: real time    1.1600
    SETDIJ:  cpu time    1.0245: real time    1.0270
    TRIAL :  cpu time  172.2285: real time  172.6711
    CORREC:  cpu time  174.4935: real time  174.9415
    CHARGE:  cpu time    0.3545: real time    0.3553
    --------------------------------------------
      LOOP:  cpu time  349.2604: real time  350.1575

 eigenvalue-minimisations  :     0
 total energy-change (2. order) :-0.1616278E+01  (-0.9028989E+00)
 number of electron      84.0000002 magnetization      11.9999999
 augmentation part       26.6862125 magnetization       8.4160477

 Free energy of the ion-electron system (eV)
  ---------------------------------------------------
  alpha Z        PSCENC =       192.59692575
  Ewald energy   TEWEN  =     -4914.12676986
  -Hartree energ DENC   =     -3787.30674651
  -exchange      EXHF   =       232.44030788
  -V(xc)+E(xc)   XCENC  =       258.71368476
  PAW double counting   =     10384.46278201   -10670.73420256
  entropy T*S    EENTRO =        -0.00355295
  eigenvalues    EBANDS =     -1473.02571324
  atomic energy  EATOM  =      9695.27500775
  ---------------------------------------------------
  free energy    TOTEN  =       -81.71037665 eV

  energy without entropy =      -81.70682371  energy(sigma->0) =      -81.70860018
  exchange ACFDT corr.  =        -0.08213455  see jH, gK, PRB 81, 115126


--------------------------------------------------------------------------------------------------------




--------------------------------------- Iteration      1(  10)  ---------------------------------------


    POTLOK:  cpu time    1.1433: real time    1.1461
    SETDIJ:  cpu time    1.0260: real time    1.0285
    TRIAL :  cpu time  172.3077: real time  172.7487
    CORREC:  cpu time  174.4933: real time  174.9363
    CHARGE:  cpu time    0.3551: real time    0.3560
    --------------------------------------------
      LOOP:  cpu time  349.3330: real time  350.2231

 eigenvalue-minimisations  :     0
 total energy-change (2. order) :-0.8813991E+00  (-0.4102814E+00)
 number of electron      84.0000002 magnetization      11.9999999
 augmentation part       26.7659410 magnetization       8.3106722

 Free energy of the ion-electron system (eV)
  ---------------------------------------------------
  alpha Z        PSCENC =       192.59692575
  Ewald energy   TEWEN  =     -4914.12676986
  -Hartree energ DENC   =     -3817.88310370
  -exchange      EXHF   =       232.45220121
  -V(xc)+E(xc)   XCENC  =       259.21113964
  PAW double counting   =     10352.11852522   -10640.17505450
  entropy T*S    EENTRO =        -0.00602634
  eigenvalues    EBANDS =     -1442.05709428
  atomic energy  EATOM  =      9695.27500775
  ---------------------------------------------------
  free energy    TOTEN  =       -82.59177572 eV

  energy without entropy =      -82.58574938  energy(sigma->0) =      -82.58876255
  exchange ACFDT corr.  =        -0.14171761  see jH, gK, PRB 81, 115126


--------------------------------------------------------------------------------------------------------




--------------------------------------- Iteration      1(  11)  ---------------------------------------


    POTLOK:  cpu time    1.1431: real time    1.1458
    SETDIJ:  cpu time    1.0248: real time    1.0273
    TRIAL :  cpu time  171.9999: real time  172.4350
    CORREC:  cpu time  174.3652: real time  174.8053
    CHARGE:  cpu time    0.3569: real time    0.3578
    --------------------------------------------
      LOOP:  cpu time  348.8911: real time  349.7732

 eigenvalue-minimisations  :     0
 total energy-change (2. order) :-0.3860377E+00  (-0.1769195E+00)
 number of electron      84.0000002 magnetization      11.9999999
 augmentation part       26.7331640 magnetization       8.2582932

 Free energy of the ion-electron system (eV)
  ---------------------------------------------------
  alpha Z        PSCENC =       192.59692575
  Ewald energy   TEWEN  =     -4914.12676986
  -Hartree energ DENC   =     -3838.32829259
  -exchange      EXHF   =       232.55371894
  -V(xc)+E(xc)   XCENC  =       259.58247081
  PAW double counting   =     10246.22040021   -10535.80196319
  entropy T*S    EENTRO =        -0.00588194
  eigenvalues    EBANDS =     -1420.94328492
  atomic energy  EATOM  =      9695.27500775
  ---------------------------------------------------
  free energy    TOTEN  =       -82.97781343 eV

  energy without entropy =      -82.97193149  energy(sigma->0) =      -82.97487246
  exchange ACFDT corr.  =        -0.12417370  see jH, gK, PRB 81, 115126


--------------------------------------------------------------------------------------------------------




--------------------------------------- Iteration      1(  12)  ---------------------------------------


    POTLOK:  cpu time    1.1380: real time    1.1409
    SETDIJ:  cpu time    1.0338: real time    1.0363
    TRIAL :  cpu time  171.8883: real time  172.3236
    CORREC:  cpu time  174.4021: real time  174.8436
    CHARGE:  cpu time    0.3620: real time    0.3630
    --------------------------------------------
      LOOP:  cpu time  348.8260: real time  349.7098

 eigenvalue-minimisations  :     0
 total energy-change (2. order) :-0.1757549E+00  (-0.1407231E+00)
 number of electron      84.0000002 magnetization      11.9999999
 augmentation part       26.6997096 magnetization       8.2210031

 Free energy of the ion-electron system (eV)
  ---------------------------------------------------
  alpha Z        PSCENC =       192.59692575
  Ewald energy   TEWEN  =     -4914.12676986
  -Hartree energ DENC   =     -3836.61042061
  -exchange      EXHF   =       232.49854661
  -V(xc)+E(xc)   XCENC  =       259.50777016
  PAW double counting   =     10137.74798507   -10426.14406246
  entropy T*S    EENTRO =        -0.00506436
  eigenvalues    EBANDS =     -1423.89266884
  atomic energy  EATOM  =      9695.27500775
  ---------------------------------------------------
  free energy    TOTEN  =       -83.15356836 eV

  energy without entropy =      -83.14850400  energy(sigma->0) =      -83.15103618
  exchange ACFDT corr.  =        -0.13466735  see jH, gK, PRB 81, 115126


--------------------------------------------------------------------------------------------------------




--------------------------------------- Iteration      1(  13)  ---------------------------------------


    POTLOK:  cpu time    1.1548: real time    1.1577
    SETDIJ:  cpu time    1.0216: real time    1.0240
    TRIAL :  cpu time  171.6942: real time  172.1452
    CORREC:  cpu time  174.3532: real time  174.7949
    CHARGE:  cpu time    0.3579: real time    0.3587
    --------------------------------------------
      LOOP:  cpu time  348.5841: real time  349.4836

 eigenvalue-minimisations  :     0
 total energy-change (2. order) :-0.1434472E+00  (-0.2785130E+00)
 number of electron      84.0000002 magnetization      11.9999999
 augmentation part       26.7814296 magnetization       8.1552505

 Free energy of the ion-electron system (eV)
  ---------------------------------------------------
  alpha Z        PSCENC =       192.59692575
  Ewald energy   TEWEN  =     -4914.12676986
  -Hartree energ DENC   =     -3834.00011874
  -exchange      EXHF   =       232.44645582
  -V(xc)+E(xc)   XCENC  =       259.38350490
  PAW double counting   =     10060.99597628   -10348.12849977
  entropy T*S    EENTRO =        -0.00303593
  eigenvalues    EBANDS =     -1427.73443337
  atomic energy  EATOM  =      9695.27500775
  ---------------------------------------------------
  free energy    TOTEN  =       -83.29701559 eV

  energy without entropy =      -83.29397966  energy(sigma->0) =      -83.29549762
  exchange ACFDT corr.  =        -0.12549920  see jH, gK, PRB 81, 115126


--------------------------------------------------------------------------------------------------------




--------------------------------------- Iteration      1(  14)  ---------------------------------------


    POTLOK:  cpu time    1.1294: real time    1.1322
    SETDIJ:  cpu time    1.0350: real time    1.0375
    TRIAL :  cpu time  172.0424: real time  172.4777
    CORREC:  cpu time  174.1649: real time  174.6051
    CHARGE:  cpu time    0.3569: real time    0.3579
    --------------------------------------------
      LOOP:  cpu time  348.7306: real time  349.6129

 eigenvalue-minimisations  :     0
 total energy-change (2. order) :-0.2124382E+00  (-0.2810710E+00)
 number of electron      84.0000002 magnetization      11.9999999
 augmentation part       26.7343576 magnetization       8.1482010

 Free energy of the ion-electron system (eV)
  ---------------------------------------------------
  alpha Z        PSCENC =       192.59692575
  Ewald energy   TEWEN  =     -4914.12676986
  -Hartree energ DENC   =     -3845.35068495
  -exchange      EXHF   =       232.87255838
  -V(xc)+E(xc)   XCENC  =       259.59694857
  PAW double counting   =     10063.13972121   -10351.46425456
  entropy T*S    EENTRO =        -0.00291075
  eigenvalues    EBANDS =     -1416.04587012
  atomic energy  EATOM  =      9695.27500775
  ---------------------------------------------------
  free energy    TOTEN  =       -83.50945375 eV

  energy without entropy =      -83.50654300  energy(sigma->0) =      -83.50799838
  exchange ACFDT corr.  =        -0.10638632  see jH, gK, PRB 81, 115126


--------------------------------------------------------------------------------------------------------




--------------------------------------- Iteration      1(  15)  ---------------------------------------


    POTLOK:  cpu time    1.1279: real time    1.1307
    SETDIJ:  cpu time    1.0445: real time    1.0470
    TRIAL :  cpu time  171.7041: real time  172.1383
    CORREC:  cpu time  175.5724: real time  176.0167
    CHARGE:  cpu time    0.3579: real time    0.3587
    --------------------------------------------
      LOOP:  cpu time  349.8104: real time  350.6951

 eigenvalue-minimisations  :     0
 total energy-change (2. order) :-0.2782657E+00  (-0.1986322E+00)
 number of electron      84.0000002 magnetization      11.9999999
 augmentation part       26.7098642 magnetization       8.1346368

 Free energy of the ion-electron system (eV)
  ---------------------------------------------------
  alpha Z        PSCENC =       192.59692575
  Ewald energy   TEWEN  =     -4914.12676986
  -Hartree energ DENC   =     -3836.00660236
  -exchange      EXHF   =       232.97301854
  -V(xc)+E(xc)   XCENC  =       259.44893472
  PAW double counting   =     10047.09956261   -10334.41666151
  entropy T*S    EENTRO =        -0.00270178
  eigenvalues    EBANDS =     -1426.62822431
  atomic energy  EATOM  =      9695.27500775
  ---------------------------------------------------
  free energy    TOTEN  =       -83.78771943 eV

  energy without entropy =      -83.78501765  energy(sigma->0) =      -83.78636854
  exchange ACFDT corr.  =        -0.05523190  see jH, gK, PRB 81, 115126


--------------------------------------------------------------------------------------------------------




--------------------------------------- Iteration      1(  16)  ---------------------------------------


    POTLOK:  cpu time    1.1359: real time    1.1388
    SETDIJ:  cpu time    1.0355: real time    1.0381
    TRIAL :  cpu time  172.6906: real time  173.1278
    CORREC:  cpu time  173.8469: real time  174.2857
    CHARGE:  cpu time    0.3591: real time    0.3599
    --------------------------------------------
      LOOP:  cpu time  349.0700: real time  349.9525

 eigenvalue-minimisations  :     0
 total energy-change (2. order) :-0.2005561E+00  (-0.1752395E+00)
 number of electron      84.0000002 magnetization      11.9999999
 augmentation part       26.7615493 magnetization       8.1328101

 Free energy of the ion-electron system (eV)
  ---------------------------------------------------
  alpha Z        PSCENC =       192.59692575
  Ewald energy   TEWEN  =     -4914.12676986
  -Hartree energ DENC   =     -3833.96052023
  -exchange      EXHF   =       233.22733777
  -V(xc)+E(xc)   XCENC  =       259.41341005
  PAW double counting   =     10057.45774620   -10344.35731870
  entropy T*S    EENTRO =        -0.00181546
  eigenvalues    EBANDS =     -1429.51139252
  atomic energy  EATOM  =      9695.27500775
  ---------------------------------------------------
  free energy    TOTEN  =       -83.98827558 eV

  energy without entropy =      -83.98646011  energy(sigma->0) =      -83.98736785
  exchange ACFDT corr.  =        -0.09192487  see jH, gK, PRB 81, 115126


--------------------------------------------------------------------------------------------------------




--------------------------------------- Iteration      1(  17)  ---------------------------------------


    POTLOK:  cpu time    1.1696: real time    1.1726
    SETDIJ:  cpu time    1.0292: real time    1.0316
    TRIAL :  cpu time  171.4826: real time  171.9158
    CORREC:  cpu time  173.7828: real time  174.2221
    CHARGE:  cpu time    0.3554: real time    0.3562
    --------------------------------------------
      LOOP:  cpu time  347.8213: real time  348.7002

 eigenvalue-minimisations  :     0
 total energy-change (2. order) :-0.1815609E+00  (-0.6000347E-01)
 number of electron      84.0000002 magnetization      11.9999999
 augmentation part       26.7486594 magnetization       8.1306251

 Free energy of the ion-electron system (eV)
  ---------------------------------------------------
  alpha Z        PSCENC =       192.59692575
  Ewald energy   TEWEN  =     -4914.12676986
  -Hartree energ DENC   =     -3842.89844125
  -exchange      EXHF   =       233.75913101
  -V(xc)+E(xc)   XCENC  =       259.69852060
  PAW double counting   =     10123.61129547   -10411.82114130
  entropy T*S    EENTRO =        -0.00053215
  eigenvalues    EBANDS =     -1420.26254919
  atomic energy  EATOM  =      9695.27500775
  ---------------------------------------------------
  free energy    TOTEN  =       -84.16983649 eV

  energy without entropy =      -84.16930434  energy(sigma->0) =      -84.16957041
  exchange ACFDT corr.  =        -0.01541919  see jH, gK, PRB 81, 115126


--------------------------------------------------------------------------------------------------------




--------------------------------------- Iteration      1(  18)  ---------------------------------------


    POTLOK:  cpu time    1.1452: real time    1.1481
    SETDIJ:  cpu time    1.0213: real time    1.0237
    TRIAL :  cpu time  171.3994: real time  171.8332
    CORREC:  cpu time  173.6005: real time  174.0384
    CHARGE:  cpu time    0.3585: real time    0.3593
    --------------------------------------------
      LOOP:  cpu time  347.5261: real time  348.4039

 eigenvalue-minimisations  :     0
 total energy-change (2. order) :-0.6113416E-01  (-0.2185160E-01)
 number of electron      84.0000002 magnetization      11.9999999
 augmentation part       26.7388274 magnetization       8.1310843

 Free energy of the ion-electron system (eV)
  ---------------------------------------------------
  alpha Z        PSCENC =       192.59692575
  Ewald energy   TEWEN  =     -4914.12676986
  -Hartree energ DENC   =     -3839.08905368
  -exchange      EXHF   =       233.81055014
  -V(xc)+E(xc)   XCENC  =       259.60279626
  PAW double counting   =     10139.39718112   -10427.26473444
  entropy T*S    EENTRO =        -0.00026400
  eigenvalues    EBANDS =     -1424.43234154
  atomic energy  EATOM  =      9695.27500775
  ---------------------------------------------------
  free energy    TOTEN  =       -84.23097065 eV

  energy without entropy =      -84.23070665  energy(sigma->0) =      -84.23083865
  exchange ACFDT corr.  =        -0.00257617  see jH, gK, PRB 81, 115126


--------------------------------------------------------------------------------------------------------




--------------------------------------- Iteration      1(  19)  ---------------------------------------


    POTLOK:  cpu time    1.1378: real time    1.1408
    SETDIJ:  cpu time    1.0312: real time    1.0336
    TRIAL :  cpu time  171.2803: real time  171.7124
    CORREC:  cpu time  173.7422: real time  174.1802
    CHARGE:  cpu time    0.3622: real time    0.3631
    --------------------------------------------
      LOOP:  cpu time  347.5565: real time  348.4328

 eigenvalue-minimisations  :     0
 total energy-change (2. order) :-0.2203788E-01  (-0.1560772E-01)
 number of electron      84.0000002 magnetization      11.9999999
 augmentation part       26.7478210 magnetization       8.1295706

 Free energy of the ion-electron system (eV)
  ---------------------------------------------------
  alpha Z        PSCENC =       192.59692575
  Ewald energy   TEWEN  =     -4914.12676986
  -Hartree energ DENC   =     -3837.54415982
  -exchange      EXHF   =       233.84394978
  -V(xc)+E(xc)   XCENC  =       259.56623699
  PAW double counting   =     10136.87537372   -10424.66048952
  entropy T*S    EENTRO =        -0.00102860
  eigenvalues    EBANDS =     -1426.07881931
  atomic energy  EATOM  =      9695.27500775
  ---------------------------------------------------
  free energy    TOTEN  =       -84.25300852 eV

  energy without entropy =      -84.25197993  energy(sigma->0) =      -84.25249422
  exchange ACFDT corr.  =        -0.00076734  see jH, gK, PRB 81, 115126


--------------------------------------------------------------------------------------------------------




--------------------------------------- Iteration      1(  20)  ---------------------------------------


    POTLOK:  cpu time    1.1524: real time    1.1553
    SETDIJ:  cpu time    1.0178: real time    1.0202
    TRIAL :  cpu time  171.3939: real time  171.8278
    CORREC:  cpu time  174.4973: real time  174.9387
    CHARGE:  cpu time    0.3654: real time    0.3663
    --------------------------------------------
      LOOP:  cpu time  348.4292: real time  349.3106

 eigenvalue-minimisations  :     0
 total energy-change (2. order) :-0.1658473E-01  ( 0.2754898E-01)
 number of electron      84.0000002 magnetization      11.9999999
 augmentation part       26.7499627 magnetization       8.1205337

 Free energy of the ion-electron system (eV)
  ---------------------------------------------------
  alpha Z        PSCENC =       192.59692575
  Ewald energy   TEWEN  =     -4914.12676986
  -Hartree energ DENC   =     -3839.48172537
  -exchange      EXHF   =       233.99613046
  -V(xc)+E(xc)   XCENC  =       259.66308411
  PAW double counting   =     10132.12411389   -10420.29582208
  entropy T*S    EENTRO =        -0.00171402
  eigenvalues    EBANDS =     -1424.01950929
  atomic energy  EATOM  =      9695.27500775
  ---------------------------------------------------
  free energy    TOTEN  =       -84.26959325 eV

  energy without entropy =      -84.26787923  energy(sigma->0) =      -84.26873624
  exchange ACFDT corr.  =        -0.00819959  see jH, gK, PRB 81, 115126


--------------------------------------------------------------------------------------------------------




--------------------------------------- Iteration      1(  21)  ---------------------------------------


    POTLOK:  cpu time    1.1374: real time    1.1403
    SETDIJ:  cpu time    1.0403: real time    1.0428
    TRIAL :  cpu time  172.3272: real time  172.7635
    CORREC:  cpu time  175.1582: real time  175.6012
    CHARGE:  cpu time    0.3627: real time    0.3635
    --------------------------------------------
      LOOP:  cpu time  350.0272: real time  350.9127

 eigenvalue-minimisations  :     0
 total energy-change (2. order) :-0.1242105E-01  ( 0.3709236E-01)
 number of electron      84.0000002 magnetization      11.9999999
 augmentation part       26.7497821 magnetization       8.1133111

 Free energy of the ion-electron system (eV)
  ---------------------------------------------------
  alpha Z        PSCENC =       192.59692575
  Ewald energy   TEWEN  =     -4914.12676986
  -Hartree energ DENC   =     -3839.70827577
  -exchange      EXHF   =       234.03690114
  -V(xc)+E(xc)   XCENC  =       259.67561659
  PAW double counting   =     10130.89611915   -10419.06050785
  entropy T*S    EENTRO =        -0.00160466
  eigenvalues    EBANDS =     -1423.86531718
  atomic energy  EATOM  =      9695.27500775
  ---------------------------------------------------
  free energy    TOTEN  =       -84.28201430 eV

  energy without entropy =      -84.28040964  energy(sigma->0) =      -84.28121197
  exchange ACFDT corr.  =        -0.06566311  see jH, gK, PRB 81, 115126


--------------------------------------------------------------------------------------------------------




--------------------------------------- Iteration      1(  22)  ---------------------------------------


    POTLOK:  cpu time    1.1282: real time    1.1310
    SETDIJ:  cpu time    1.0340: real time    1.0365
    TRIAL :  cpu time  173.2619: real time  173.7009
    CORREC:  cpu time  175.1887: real time  175.6307
    CHARGE:  cpu time    0.3616: real time    0.3624
    --------------------------------------------
      LOOP:  cpu time  350.9749: real time  351.8619

 eigenvalue-minimisations  :     0
 total energy-change (2. order) :-0.1404480E-01  ( 0.6102076E-01)
 number of electron      84.0000002 magnetization      11.9999999
 augmentation part       26.7525217 magnetization       8.1086909

 Free energy of the ion-electron system (eV)
  ---------------------------------------------------
  alpha Z        PSCENC =       192.59692575
  Ewald energy   TEWEN  =     -4914.12676986
  -Hartree energ DENC   =     -3839.35527481
  -exchange      EXHF   =       234.02071757
  -V(xc)+E(xc)   XCENC  =       259.64956077
  PAW double counting   =     10133.34666706   -10421.42944901
  entropy T*S    EENTRO =        -0.00108322
  eigenvalues    EBANDS =     -1424.27183967
  atomic energy  EATOM  =      9695.27500775
  ---------------------------------------------------
  free energy    TOTEN  =       -84.29605910 eV

  energy without entropy =      -84.29497588  energy(sigma->0) =      -84.29551749
  exchange ACFDT corr.  =        -0.10072846  see jH, gK, PRB 81, 115126


--------------------------------------------------------------------------------------------------------




--------------------------------------- Iteration      1(  23)  ---------------------------------------


    POTLOK:  cpu time    1.1388: real time    1.1416
    SETDIJ:  cpu time    1.0236: real time    1.0260
    TRIAL :  cpu time  173.0186: real time  173.4555
    CORREC:  cpu time  175.6420: real time  176.0849
    CHARGE:  cpu time    0.3678: real time    0.3687
    --------------------------------------------
      LOOP:  cpu time  351.1919: real time  352.0778

 eigenvalue-minimisations  :     0
 total energy-change (2. order) :-0.2084404E-01  ( 0.6671732E-01)
 number of electron      84.0000002 magnetization      11.9999999
 augmentation part       26.7534307 magnetization       8.1034357

 Free energy of the ion-electron system (eV)
  ---------------------------------------------------
  alpha Z        PSCENC =       192.59692575
  Ewald energy   TEWEN  =     -4914.12676986
  -Hartree energ DENC   =     -3839.76988549
  -exchange      EXHF   =       234.04835705
  -V(xc)+E(xc)   XCENC  =       259.65678196
  PAW double counting   =     10134.31498814   -10422.42499059
  entropy T*S    EENTRO =        -0.00160751
  eigenvalues    EBANDS =     -1423.88623464
  atomic energy  EATOM  =      9695.27500775
  ---------------------------------------------------
  free energy    TOTEN  =       -84.31690315 eV

  energy without entropy =      -84.31529564  energy(sigma->0) =      -84.31609939
  exchange ACFDT corr.  =        -0.09906497  see jH, gK, PRB 81, 115126


--------------------------------------------------------------------------------------------------------




--------------------------------------- Iteration      1(  24)  ---------------------------------------


    POTLOK:  cpu time    1.1163: real time    1.1191
    SETDIJ:  cpu time    1.0510: real time    1.0535
    TRIAL :  cpu time  173.1665: real time  173.6046
    CORREC:  cpu time  174.6666: real time  175.1088
    CHARGE:  cpu time    0.3623: real time    0.3632
    --------------------------------------------
      LOOP:  cpu time  350.3637: real time  351.2501

 eigenvalue-minimisations  :     0
 total energy-change (2. order) :-0.2810756E-01  ( 0.2081262E-01)
 number of electron      84.0000002 magnetization      11.9999999
 augmentation part       26.7584495 magnetization       8.0951726

 Free energy of the ion-electron system (eV)
  ---------------------------------------------------
  alpha Z        PSCENC =       192.59692575
  Ewald energy   TEWEN  =     -4914.12676986
  -Hartree energ DENC   =     -3839.89206096
  -exchange      EXHF   =       234.08541922
  -V(xc)+E(xc)   XCENC  =       259.65860325
  PAW double counting   =     10133.90403709   -10422.00229125
  entropy T*S    EENTRO =        -0.00289876
  eigenvalues    EBANDS =     -1423.84227419
  atomic energy  EATOM  =      9695.27500775
  ---------------------------------------------------
  free energy    TOTEN  =       -84.34501071 eV

  energy without entropy =      -84.34211195  energy(sigma->0) =      -84.34356133
  exchange ACFDT corr.  =        -0.10496894  see jH, gK, PRB 81, 115126


--------------------------------------------------------------------------------------------------------




--------------------------------------- Iteration      1(  25)  ---------------------------------------


    POTLOK:  cpu time    1.1378: real time    1.1406
    SETDIJ:  cpu time    1.0271: real time    1.0295
    TRIAL :  cpu time  172.3236: real time  172.7686
    CORREC:  cpu time  174.2919: real time  174.7328
    CHARGE:  cpu time    0.3586: real time    0.3595
    --------------------------------------------
      LOOP:  cpu time  349.1402: real time  350.0322

 eigenvalue-minimisations  :     0
 total energy-change (2. order) :-0.7419935E-01  ( 0.1586529E+00)
 number of electron      84.0000002 magnetization      11.9999999
 augmentation part       26.7642628 magnetization       8.0797276

[...]
     10     -44.4916      1.00000
     11     -44.4821      1.00000
     12     -44.4534      1.00000
     13     -44.4385      1.00000
     14     -15.8948      1.00000
     15      -9.5974      1.00000
     16      -9.3634      1.00000
     17      -9.1497      1.00000
     18      -9.1481      1.00000
     19      -2.1635      1.00000
     20      -1.8856      1.00000
     21      -0.8644      1.00000
     22      -0.6678      1.00000
     23      -0.3107      1.00000
     24      -0.1995      1.00000
     25       0.4147      1.00000
     26       0.5473      1.00000
     27       0.8762      1.00000
     28       1.0142      1.00000
     29       1.1071      1.00000
     30       1.1885      1.00000
     31       1.4767      1.00000
     32       1.8017      1.00000
     33       1.8856      1.00000
     34       3.0690      1.00000
     35       3.0831      1.00000
     36       3.3188      1.00000
     37       6.6874      0.00000
     38       6.7223      0.00000
     39       7.2133      0.00000
     40       7.2971      0.00000
     41       7.3623      0.00000
     42       7.5799      0.00000
     43       8.0071      0.00000
     44       8.1457      0.00000
     45       8.2901      0.00000
     46       8.3222      0.00000
     47       8.3976      0.00000
     48       8.4037      0.00000
     49       9.3700      0.00000
     50       9.8464      0.00000
     51       9.9432      0.00000
     52      10.6973      0.00000
     53      10.9189      0.00000
     54      11.3732      0.00000
     55      12.2374      0.00000
     56      12.2772      0.00000
     57      12.7182      0.00000
     58      12.9295      0.00000
     59      13.2357      0.00000
     60      13.2972      0.00000

 k-point    32 :       0.3333   -0.3333    0.3333
  band No.  band energies     occupation 
      1     -50.2364      1.00000
      2     -50.2340      1.00000
      3     -50.2022      1.00000
      4     -50.1993      1.00000
      5     -50.1873      1.00000
      6     -50.1865      1.00000
      7     -50.0139      1.00000
      8     -49.9759      1.00000
      9     -49.9577      1.00000
     10     -44.4917      1.00000
     11     -44.4819      1.00000
     12     -44.4535      1.00000
     13     -44.4385      1.00000
     14     -15.8967      1.00000
     15      -9.6867      1.00000
     16      -9.2902      1.00000
     17      -9.2075      1.00000
     18      -9.0334      1.00000
     19      -2.3162      1.00000
     20      -2.0088      1.00000
     21      -0.7974      1.00000
     22      -0.5957      1.00000
     23      -0.2867      1.00000
     24      -0.0746      1.00000
     25       0.3026      1.00000
     26       0.4482      1.00000
     27       0.7047      1.00000
     28       0.8783      1.00000
     29       1.1446      1.00000
     30       1.3843      1.00000
     31       1.5061      1.00000
     32       1.7656      1.00000
     33       2.2263      1.00000
     34       3.0267      1.00000
     35       3.1410      1.00000
     36       3.3445      1.00000
     37       6.3464      0.00000
     38       6.8666      0.00000
     39       7.0258      0.00000
     40       7.2032      0.00000
     41       7.5051      0.00000
     42       7.7061      0.00000
     43       7.9563      0.00000
     44       8.1983      0.00000
     45       8.3067      0.00000
     46       8.4283      0.00000
     47       8.4990      0.00000
     48       8.7927      0.00000
     49       9.2996      0.00000
     50       9.6199      0.00000
     51      10.1224      0.00000
     52      10.6215      0.00000
     53      11.1965      0.00000
     54      11.5676      0.00000
     55      11.5895      0.00000
     56      12.2589      0.00000
     57      12.4654      0.00000
     58      13.0202      0.00000
     59      13.2461      0.00000
     60      13.3956      0.00000

 k-point    33 :       0.0000    0.5000    0.5000
  band No.  band energies     occupation 
      1     -50.2371      1.00000
      2     -50.2326      1.00000
      3     -50.2023      1.00000
      4     -50.1981      1.00000
      5     -50.1885      1.00000
      6     -50.1861      1.00000
      7     -50.0154      1.00000
      8     -49.9765      1.00000
      9     -49.9589      1.00000
     10     -44.4974      1.00000
     11     -44.4794      1.00000
     12     -44.4520      1.00000
     13     -44.4382      1.00000
     14     -16.0823      1.00000
     15      -9.9273      1.00000
     16      -9.3264      1.00000
     17      -9.3111      1.00000
     18      -9.2756      1.00000
     19      -1.4974      1.00000
     20      -0.8944      1.00000
     21      -0.8628      1.00000
     22      -0.6237      1.00000
     23       0.1105      1.00000
     24       0.1387      1.00000
     25       0.6250      1.00000
     26       0.8867      1.00000
     27       1.0196      1.00000
     28       1.0687      1.00000
     29       1.5960      1.00000
     30       1.7530      1.00000
     31       1.8827      1.00000
     32       2.1112      1.00000
     33       2.1725      1.00000
     34       2.9654      1.00000
     35       2.9968      1.00000
     36       3.4469      1.00000
     37       6.1274      0.00000
     38       7.2043      0.00000
     39       7.2097      0.00000
     40       7.2622      0.00000
     41       7.3066      0.00000
     42       7.4635      0.00000
     43       7.8620      0.00000
     44       7.8633      0.00000
     45       8.0360      0.00000
     46       8.1267      0.00000
     47       8.3618      0.00000
     48       8.6639      0.00000
     49       9.1638      0.00000
     50       9.5677      0.00000
     51       9.5848      0.00000
     52       9.7586      0.00000
     53      10.5417      0.00000
     54      10.6695      0.00000
     55      10.8284      0.00000
     56      10.9865      0.00000
     57      11.7844      0.00000
     58      11.9122      0.00000
     59      12.1610      0.00000
     60      12.8299      0.00000

 k-point    34 :       0.3333    0.5000    0.5000
  band No.  band energies     occupation 
      1     -50.2362      1.00000
      2     -50.2335      1.00000
      3     -50.2014      1.00000
      4     -50.1990      1.00000
      5     -50.1882      1.00000
      6     -50.1864      1.00000
      7     -50.0154      1.00000
      8     -49.9765      1.00000
      9     -49.9589      1.00000
     10     -44.4977      1.00000
     11     -44.4786      1.00000
     12     -44.4527      1.00000
     13     -44.4380      1.00000
     14     -16.0859      1.00000
     15      -9.9577      1.00000
     16      -9.4924      1.00000
     17      -9.1956      1.00000
     18      -9.1284      1.00000
     19      -1.9371      1.00000
     20      -0.9384      1.00000
     21      -0.8544      1.00000
     22      -0.7074      1.00000
     23      -0.1726      1.00000
     24       0.2423      1.00000
     25       0.8780      1.00000
     26       0.9216      1.00000
     27       1.1652      1.00000
     28       1.6018      1.00000
     29       1.6177      1.00000
     30       1.7933      1.00000
     31       1.8816      1.00000
     32       2.0506      1.00000
     33       2.1476      1.00000
     34       2.9606      1.00000
     35       2.9891      1.00000
     36       3.3982      1.00000
     37       5.7086      0.00000
     38       6.8886      0.00000
     39       7.1582      0.00000
     40       7.1798      0.00000
     41       7.5417      0.00000
     42       7.6685      0.00000
     43       7.9842      0.00000
     44       8.1511      0.00000
     45       8.2010      0.00000
     46       8.4592      0.00000
     47       8.4959      0.00000
     48       8.5769      0.00000
     49       8.8865      0.00000
     50       9.4828      0.00000
     51       9.6509      0.00000
     52       9.9894      0.00000
     53      10.1755      0.00000
     54      10.6092      0.00000
     55      10.9714      0.00000
     56      11.0182      0.00000
     57      11.3058      0.00000
     58      11.9924      0.00000
     59      12.3353      0.00000
     60      12.9850      0.00000


--------------------------------------------------------------------------------------------------------


 soft charge-density along one line, spin component           1
         0         1         2         3         4         5         6         7         8         9
 total charge-density along one line
 
 soft charge-density along one line, spin component           2
         0         1         2         3         4         5         6         7         8         9
 total charge-density along one line
 
 pseudopotential strength for first ion, spin component:           1
-35.518   4.635   0.000   0.000  -0.001
  4.635 -11.222   0.000   0.000  -0.005
  0.000   0.000   0.029   0.000  -0.000
  0.000   0.000   0.000   0.028  -0.000
 -0.001  -0.005  -0.000  -0.000   0.028
 pseudopotential strength for first ion, spin component:           2
-35.511   4.638   0.000   0.000  -0.001
  4.638 -11.224   0.001   0.000  -0.005
  0.000   0.001   0.033   0.000  -0.000
  0.000   0.000   0.000   0.032  -0.000
 -0.001  -0.005  -0.000  -0.000   0.032
 total augmentation occupancy for first ion, spin component:           1
  1.999  -0.027  -0.000  -0.000   0.003
 -0.027   0.692   0.001   0.000  -0.012
 -0.000   0.001   0.028  -0.001   0.000
 -0.000   0.000  -0.001   0.030   0.000
  0.003  -0.012   0.000   0.000   0.032
 total augmentation occupancy for first ion, spin component:           2
 -0.000  -0.000   0.000   0.000  -0.000
 -0.000   0.028   0.002   0.001  -0.000
  0.000   0.002   0.001  -0.001   0.000
  0.000   0.001  -0.001   0.002   0.000
 -0.000  -0.000   0.000   0.000   0.001


------------------------ aborting loop because EDIFF is reached ----------------------------------------





 total charge

# of ion       s       p       d       tot
------------------------------------------
    1        2.020   0.063   0.000   2.084
    2        2.020   0.063   0.000   2.084
    3        2.022   0.069   0.000   2.091
    4        2.022   0.069   0.000   2.091
    5        1.557   3.512   0.000   5.069
    6        1.304   2.475   0.000   3.779
    7        1.304   2.475   0.000   3.779
    8        1.308   2.500   0.000   3.808
    9        1.308   2.500   0.000   3.808
   10        0.232   6.214   5.897  12.342
   11        0.232   6.214   5.897  12.342
   12        0.238   6.240   5.921  12.400
--------------------------------------------------
tot         15.566  32.395  17.715  65.676



 magnetization (x)

# of ion       s       p       d       tot
------------------------------------------
    1        0.002   0.003   0.000   0.005
    2        0.002   0.003   0.000   0.005
    3        0.002   0.003   0.000   0.005
    4        0.002   0.003   0.000   0.005
    5        0.020   0.214   0.000   0.234
    6        0.013   0.069   0.000   0.083
    7        0.013   0.069   0.000   0.083
    8        0.017   0.087   0.000   0.103
    9        0.017   0.087   0.000   0.103
   10        0.028   0.019   3.574   3.620
   11        0.028   0.019   3.574   3.620
   12        0.028   0.018   3.579   3.626
--------------------------------------------------
tot          0.170   0.595  10.726  11.492
 
    FORLOC:  cpu time    0.0296: real time    0.0297
    FORHF :  cpu time  343.2861: real time  344.1465
    FORNL :  cpu time    0.1596: real time    0.1600
    STRESS:  cpu time    1.0074: real time    1.0101
    FORCOR:  cpu time    1.0957: real time    1.0985
    OFIELD:  cpu time    0.0015: real time    0.0015

  FORCE on cell =-STRESS in cart. coord.  units (eV):
  Direction    XX          YY          ZZ          XY          YZ          ZX
  --------------------------------------------------------------------------------------
  Alpha Z   197.85460   197.85460   197.85460
  Ewald   -1927.75730 -2186.29784  -819.24341 -1339.68436  -687.51579  -557.19982
  Hartree   997.03133   856.09754  1994.58926 -1096.04814  -572.56745  -455.86710
  E(xc)    -333.80324  -334.06728  -333.78558    -0.29332    -0.14167    -0.12199
  Local    -395.79215   -19.32184 -2511.07939  2414.41058  1253.14857  1004.19894
  n-local   388.94568   389.97058   389.23906    -0.40056     0.70246     0.00037
  augment   382.93942   396.30171   390.90001    10.84734     2.71672     4.51204
  Kinetic  1027.26789  1041.22354  1031.70143    15.58591     4.80907     6.81658
  Fock     -336.75965  -342.01636  -340.00326    -4.56377    -1.00695    -1.87523
  -------------------------------------------------------------------------------------
  Total      -0.07341    -0.07298    -0.00965     0.03686    -0.03185     0.01630
  in kB      -0.65481    -0.65099    -0.08607     0.32881    -0.28411     0.14540
  external pressure =       -0.46 kB  Pullay stress =        0.00 kB


 VOLUME and BASIS-vectors are now :
 -----------------------------------------------------------------------------
  energy-cutoff  :      520.00
  volume of cell :      179.62
      direct lattice vectors                 reciprocal lattice vectors
     9.270332695 -0.127128960 -0.052875316     0.106275194 -0.099205430 -0.041261396
     4.787394194  5.146269271 -0.042572650     0.001545057  0.191313933 -0.189092967
     4.787394194  3.598169388  3.679548460     0.001545057  0.000787929  0.268991729

  length of vectors
     9.271355124  7.028872101  7.028872099     0.151124575  0.268997320  0.268997320


 FORCES acting on ions:
    Electron-Ion                     Ewald-Force                    Non-Local-Force
 -----------------------------------------------------------------------------------------------
   -.577E+01 -.122E+02 -.509E+01   0.525E+01 0.123E+02 0.511E+01   0.531E+00 -.444E-01 -.198E-01
   0.577E+01 0.122E+02 0.510E+01   -.525E+01 -.123E+02 -.512E+01   -.531E+00 0.454E-01 0.176E-01
   -.733E+02 -.510E+02 -.212E+02   0.728E+02 0.507E+02 0.211E+02   0.450E+00 0.351E+00 0.145E+00
   0.733E+02 0.510E+02 0.212E+02   -.728E+02 -.507E+02 -.211E+02   -.450E+00 -.350E+00 -.146E+00
   -.357E-05 0.539E-01 -.130E+00   0.222E-10 -.533E-01 0.128E+00   -.178E-14 -.213E-02 0.512E-02
   0.197E+03 0.138E+03 0.576E+02   -.198E+03 -.139E+03 -.578E+02   0.547E+00 0.485E+00 0.201E+00
   -.197E+03 -.138E+03 -.573E+02   0.198E+03 0.139E+03 0.575E+02   -.547E+00 -.484E+00 -.202E+00
   -.155E+03 -.163E+03 -.676E+02   0.156E+03 0.163E+03 0.679E+02   -.783E+00 -.703E+00 -.294E+00
   0.155E+03 0.163E+03 0.677E+02   -.156E+03 -.163E+03 -.680E+02   0.783E+00 0.704E+00 0.291E+00
   0.412E+03 -.268E+02 -.114E+02   -.411E+03 0.263E+02 0.112E+02   -.128E+01 0.438E+00 0.201E+00
   -.412E+03 0.270E+02 0.109E+02   0.411E+03 -.265E+02 -.107E+02   0.128E+01 -.451E+00 -.168E+00
   -.197E-04 -.102E+00 0.246E+00   -.279E-10 0.100E+00 -.241E+00   0.206E-14 0.246E-02 -.592E-02
 -----------------------------------------------------------------------------------------------
   -.119E-04 0.118E-01 -.284E-01   0.569E-13 -.147E-13 -.214E-13   -.838E-14 -.105E-01 0.253E-01
 
 
 POSITION                                       TOTAL-FORCE (eV/Angst)
 -----------------------------------------------------------------------------------
     10.85767      2.41111      1.30651         0.016391      0.010237      0.003327
      7.98745      5.99083      2.79539        -0.016391     -0.009577     -0.004914
     13.74274      7.43490      3.39524         0.009890      0.003136      0.001231
      5.10238      0.96759      0.70536        -0.009890     -0.003084     -0.001356
      4.78739      4.26531      2.07554        -0.000000     -0.001913      0.004599
     11.42274      4.35745     -0.06745        -0.009558     -0.005894     -0.003461
      7.42238      5.59293      0.44641         0.009558      0.006610      0.001739
      8.50506      2.01548      1.14107        -0.016709      0.013341      0.005261
     10.34006      6.38710      2.95931         0.016709     -0.013137     -0.005752
     12.25814      5.00974      2.38523        -0.008550      0.015037      0.006724
      6.58699      3.39370      1.71309         0.008550     -0.015370     -0.005922
      4.78739      5.03930      0.21461         0.000000      0.000614     -0.001475
 -----------------------------------------------------------------------------------
    total drift:                               -0.000012      0.000700     -0.001691


--------------------------------------------------------------------------------------------------------



  FREE ENERGIE OF THE ION-ELECTRON SYSTEM (eV)
  ---------------------------------------------------
  free  energy   TOTEN  =       -85.00224534 eV

  energy  without entropy=      -85.00224534  energy(sigma->0) =      -85.00224534
 
 d Force = 0.6172736E-03[ 0.189E-03, 0.105E-02]  d Energy = 0.7502388E-03-0.133E-03
 d Force =-0.3222069E+01[-0.322E+01,-0.323E+01]  d Ewald  =-0.7049741E+01 0.383E+01


--------------------------------------------------------------------------------------------------------


    POTLOK:  cpu time    2.1725: real time    2.1778


--------------------------------------------------------------------------------------------------------




--------------------------------------------------------------------------------------------------------


  
 reached required accuracy - stopping structural energy minimisation
 writing wavefunctions
     LOOP+:  cpu time 4407.6491: real time 4419.4897
    4ORBIT:  cpu time    0.0000: real time    0.0000



 total charge

# of ion       s       p       d       tot
------------------------------------------
    1        2.020   0.063   0.000   2.084
    2        2.020   0.063   0.000   2.084
    3        2.022   0.069   0.000   2.091
    4        2.022   0.069   0.000   2.091
    5        1.557   3.512   0.000   5.069
    6        1.304   2.475   0.000   3.779
    7        1.304   2.475   0.000   3.779
    8        1.308   2.500   0.000   3.808
    9        1.308   2.500   0.000   3.808
   10        0.232   6.214   5.897  12.342
   11        0.232   6.214   5.897  12.342
   12        0.238   6.240   5.921  12.400
--------------------------------------------------
tot         15.566  32.395  17.715  65.676



 magnetization (x)

# of ion       s       p       d       tot
------------------------------------------
    1        0.002   0.003   0.000   0.005
    2        0.002   0.003   0.000   0.005
    3        0.002   0.003   0.000   0.005
    4        0.002   0.003   0.000   0.005
    5        0.020   0.214   0.000   0.234
    6        0.013   0.069   0.000   0.083
    7        0.013   0.069   0.000   0.083
    8        0.017   0.087   0.000   0.103
    9        0.017   0.087   0.000   0.103
   10        0.028   0.019   3.574   3.620
   11        0.028   0.019   3.574   3.620
   12        0.028   0.018   3.579   3.626
--------------------------------------------------
tot          0.170   0.595  10.726  11.492
 

 total amount of memory used by VASP MPI-rank0   544286. kBytes
=======================================================================

   base      :      30000. kBytes
   nonl-proj :      98800. kBytes
   fftplans  :      14787. kBytes
   grid      :      56246. kBytes
   one-center:        373. kBytes
   HF        :        259. kBytes
   nonlr-proj:      23513. kBytes
   wavefun   :     250281. kBytes
   fock_wrk  :      70027. kBytes
 
  
  
 General timing and accounting informations for this job:
 ========================================================
  
                  Total CPU time used (sec):    42846.441
                            User time (sec):    42811.606
                          System time (sec):       34.836
                         Elapsed time (sec):    42958.736
  
                   Maximum memory used (kb):      918188.
                   Average memory used (kb):          N/A
  
                          Minor page faults:      6226587
                          Major page faults:            5
                 Voluntary context switches:       324010
