 160 160   0   0
  0.1215613E+02  0.1537564E-08  0.1124787E-08  0.1124760E-08  0.5000000E-15
  1.000000000000000E-004
  CAR 
 unknown system                          
     17.04861006    -54.79045956  301      4.89583412      1.00000000
    -54.790  0.0000E+00  0.0000E+00  0.0000E+00  0.0000E+00
    -54.551  0.0000E+00  0.0000E+00  0.0000E+00  0.0000E+00
    -54.312  0.0000E+00  0.0000E+00  0.0000E+00  0.0000E+00
    -54.072  0.0000E+00  0.0000E+00  0.0000E+00  0.0000E+00
    -53.833  0.0000E+00  0.0000E+00  0.0000E+00  0.0000E+00
    -53.593  0.0000E+00  0.0000E+00  0.0000E+00  0.0000E+00
    -53.354  0.0000E+00  0.0000E+00  0.0000E+00  0.0000E+00
    -53.114  0.0000E+00  0.0000E+00  0.0000E+00  0.0000E+00
    -52.875  0.0000E+00  0.0000E+00  0.0000E+00  0.0000E+00
    -52.635  0.0000E+00  0.0000E+00  0.0000E+00  0.0000E+00
    -52.396  0.0000E+00  0.0000E+00  0.0000E+00  0.0000E+00
    -52.156  0.0000E+00  0.0000E+00  0.0000E+00  0.0000E+00
    -51.917  0.0000E+00  0.0000E+00  0.0000E+00  0.0000E+00
    -51.677  0.3615E-03  0.0000E+00  0.8657E-04  0.0000E+00
    -51.438  0.8155E+02  0.0000E+00  0.1953E+02  0.0000E+00
    -51.199  0.5208E+02  0.0000E+00  0.3200E+02  0.0000E+00
    -50.959  0.0000E+00  0.0000E+00  0.3200E+02  0.0000E+00
    -50.720  0.0000E+00  0.0000E+00  0.3200E+02  0.0000E+00
    -50.480  0.4806E-13  0.0000E+00  0.3200E+02  0.0000E+00
    -50.241  0.7530E+01  0.0000E+00  0.3380E+02  0.0000E+00
    -50.001  0.1674E+03  0.0000E+00  0.7388E+02  0.0000E+00
    -49.762  0.9236E+02  0.0000E+00  0.9600E+02  0.0000E+00
    -49.522  0.0000E+00  0.0000E+00  0.9600E+02  0.0000E+00
    -49.283  0.0000E+00  0.0000E+00  0.9600E+02  0.0000E+00
    -49.043  0.0000E+00  0.0000E+00  0.9600E+02  0.0000E+00
    -48.804  0.0000E+00  0.0000E+00  0.9600E+02  0.0000E+00
    -48.564  0.0000E+00  0.0000E+00  0.9600E+02  0.0000E+00
    -48.325  0.0000E+00  0.0000E+00  0.9600E+02  0.0000E+00
    -48.085  0.0000E+00  0.0000E+00  0.9600E+02  0.0000E+00
    -47.846  0.0000E+00  0.0000E+00  0.9600E+02  0.0000E+00
    -47.607  0.0000E+00  0.0000E+00  0.9600E+02  0.0000E+00
    -47.367  0.0000E+00  0.0000E+00  0.9600E+02  0.0000E+00
    -47.128  0.0000E+00  0.0000E+00  0.9600E+02  0.0000E+00
    -46.888  0.0000E+00  0.1853E+00  0.9600E+02  0.4438E-01
    -46.649  0.0000E+00  0.1056E+03  0.9600E+02  0.2533E+02
    -46.409  0.0000E+00  0.1045E+03  0.9600E+02  0.5035E+02
    -46.170  0.0000E+00  0.1903E+03  0.9600E+02  0.9592E+02
    -45.930  0.0000E+00  0.3257E+00  0.9600E+02  0.9600E+02
    -45.691  0.0000E+00  0.0000E+00  0.9600E+02  0.9600E+02
    -45.451  0.0000E+00  0.0000E+00  0.9600E+02  0.9600E+02
    -45.212  0.0000E+00  0.0000E+00  0.9600E+02  0.9600E+02
    -44.972  0.0000E+00  0.0000E+00  0.9600E+02  0.9600E+02
    -44.733  0.0000E+00  0.0000E+00  0.9600E+02  0.9600E+02
    -44.494  0.0000E+00  0.0000E+00  0.9600E+02  0.9600E+02
    -44.254  0.0000E+00  0.0000E+00  0.9600E+02  0.9600E+02
    -44.015  0.0000E+00  0.0000E+00  0.9600E+02  0.9600E+02
    -43.775  0.0000E+00  0.0000E+00  0.9600E+02  0.9600E+02
    -43.536  0.0000E+00  0.0000E+00  0.9600E+02  0.9600E+02
    -43.296  0.0000E+00  0.0000E+00  0.9600E+02  0.9600E+02
    -43.057  0.0000E+00  0.0000E+00  0.9600E+02  0.9600E+02
    -42.817  0.0000E+00  0.0000E+00  0.9600E+02  0.9600E+02
    -42.578  0.0000E+00  0.0000E+00  0.9600E+02  0.9600E+02
    -42.338  0.0000E+00  0.0000E+00  0.9600E+02  0.9600E+02
    -42.099  0.0000E+00  0.0000E+00  0.9600E+02  0.9600E+02
    -41.859  0.0000E+00  0.0000E+00  0.9600E+02  0.9600E+02
    -41.620  0.0000E+00  0.0000E+00  0.9600E+02  0.9600E+02
    -41.380  0.0000E+00  0.0000E+00  0.9600E+02  0.9600E+02
    -41.141  0.0000E+00  0.0000E+00  0.9600E+02  0.9600E+02
    -40.902  0.0000E+00  0.0000E+00  0.9600E+02  0.9600E+02
    -40.662  0.1082E-14  0.0000E+00  0.9600E+02  0.9600E+02
    -40.423  0.3576E+01  0.3143E+01  0.9686E+02  0.9675E+02
    -40.183  0.1791E+03  0.1816E+03  0.1397E+03  0.1402E+03
    -39.944  0.8459E+02  0.8254E+02  0.1600E+03  0.1600E+03
    -39.704  0.0000E+00  0.0000E+00  0.1600E+03  0.1600E+03
    -39.465  0.0000E+00  0.0000E+00  0.1600E+03  0.1600E+03
    -39.225  0.0000E+00  0.0000E+00  0.1600E+03  0.1600E+03
    -38.986  0.0000E+00  0.0000E+00  0.1600E+03  0.1600E+03
    -38.746  0.0000E+00  0.0000E+00  0.1600E+03  0.1600E+03
    -38.507  0.0000E+00  0.0000E+00  0.1600E+03  0.1600E+03
    -38.267  0.0000E+00  0.0000E+00  0.1600E+03  0.1600E+03
    -38.028  0.0000E+00  0.0000E+00  0.1600E+03  0.1600E+03
    -37.789  0.0000E+00  0.0000E+00  0.1600E+03  0.1600E+03
    -37.549  0.0000E+00  0.0000E+00  0.1600E+03  0.1600E+03
    -37.310  0.0000E+00  0.0000E+00  0.1600E+03  0.1600E+03
    -37.070  0.0000E+00  0.0000E+00  0.1600E+03  0.1600E+03
    -36.831  0.0000E+00  0.0000E+00  0.1600E+03  0.1600E+03
    -36.591  0.0000E+00  0.0000E+00  0.1600E+03  0.1600E+03
    -36.352  0.0000E+00  0.0000E+00  0.1600E+03  0.1600E+03
    -36.112  0.0000E+00  0.0000E+00  0.1600E+03  0.1600E+03
    -35.873  0.0000E+00  0.0000E+00  0.1600E+03  0.1600E+03
    -35.633  0.0000E+00  0.0000E+00  0.1600E+03  0.1600E+03
    -35.394  0.0000E+00  0.0000E+00  0.1600E+03  0.1600E+03
    -35.154  0.0000E+00  0.0000E+00  0.1600E+03  0.1600E+03
    -34.915  0.0000E+00  0.0000E+00  0.1600E+03  0.1600E+03
    -34.676  0.0000E+00  0.0000E+00  0.1600E+03  0.1600E+03
    -34.436  0.0000E+00  0.0000E+00  0.1600E+03  0.1600E+03
    -34.197  0.0000E+00  0.0000E+00  0.1600E+03  0.1600E+03
    -33.957  0.0000E+00  0.0000E+00  0.1600E+03  0.1600E+03
    -33.718  0.0000E+00  0.0000E+00  0.1600E+03  0.1600E+03
    -33.478  0.0000E+00  0.0000E+00  0.1600E+03  0.1600E+03
    -33.239  0.0000E+00  0.0000E+00  0.1600E+03  0.1600E+03
    -32.999  0.0000E+00  0.0000E+00  0.1600E+03  0.1600E+03
    -32.760  0.0000E+00  0.0000E+00  0.1600E+03  0.1600E+03
    -32.520  0.0000E+00  0.0000E+00  0.1600E+03  0.1600E+03
    -32.281  0.0000E+00  0.0000E+00  0.1600E+03  0.1600E+03
    -32.041  0.0000E+00  0.0000E+00  0.1600E+03  0.1600E+03
    -31.802  0.0000E+00  0.0000E+00  0.1600E+03  0.1600E+03
    -31.562  0.0000E+00  0.0000E+00  0.1600E+03  0.1600E+03
    -31.323  0.0000E+00  0.0000E+00  0.1600E+03  0.1600E+03
    -31.084  0.0000E+00  0.0000E+00  0.1600E+03  0.1600E+03
    -30.844  0.0000E+00  0.0000E+00  0.1600E+03  0.1600E+03
    -30.605  0.0000E+00  0.0000E+00  0.1600E+03  0.1600E+03
    -30.365  0.0000E+00  0.0000E+00  0.1600E+03  0.1600E+03
    -30.126  0.0000E+00  0.0000E+00  0.1600E+03  0.1600E+03
    -29.886  0.0000E+00  0.0000E+00  0.1600E+03  0.1600E+03
    -29.647  0.0000E+00  0.0000E+00  0.1600E+03  0.1600E+03
    -29.407  0.0000E+00  0.0000E+00  0.1600E+03  0.1600E+03
    -29.168  0.0000E+00  0.0000E+00  0.1600E+03  0.1600E+03
    -28.928  0.0000E+00  0.0000E+00  0.1600E+03  0.1600E+03
    -28.689  0.0000E+00  0.0000E+00  0.1600E+03  0.1600E+03
    -28.449  0.0000E+00  0.0000E+00  0.1600E+03  0.1600E+03
    -28.210  0.0000E+00  0.0000E+00  0.1600E+03  0.1600E+03
    -27.971  0.0000E+00  0.0000E+00  0.1600E+03  0.1600E+03
    -27.731  0.0000E+00  0.0000E+00  0.1600E+03  0.1600E+03
    -27.492  0.0000E+00  0.0000E+00  0.1600E+03  0.1600E+03
    -27.252  0.0000E+00  0.0000E+00  0.1600E+03  0.1600E+03
    -27.013  0.0000E+00  0.0000E+00  0.1600E+03  0.1600E+03
    -26.773  0.0000E+00  0.0000E+00  0.1600E+03  0.1600E+03
    -26.534  0.0000E+00  0.0000E+00  0.1600E+03  0.1600E+03
    -26.294  0.0000E+00  0.0000E+00  0.1600E+03  0.1600E+03
    -26.055  0.0000E+00  0.0000E+00  0.1600E+03  0.1600E+03
    -25.815  0.0000E+00  0.0000E+00  0.1600E+03  0.1600E+03
    -25.576  0.0000E+00  0.0000E+00  0.1600E+03  0.1600E+03
    -25.336  0.0000E+00  0.0000E+00  0.1600E+03  0.1600E+03
    -25.097  0.0000E+00  0.0000E+00  0.1600E+03  0.1600E+03
    -24.858  0.0000E+00  0.0000E+00  0.1600E+03  0.1600E+03
    -24.618  0.0000E+00  0.0000E+00  0.1600E+03  0.1600E+03
    -24.379  0.0000E+00  0.0000E+00  0.1600E+03  0.1600E+03
    -24.139  0.0000E+00  0.0000E+00  0.1600E+03  0.1600E+03
    -23.900  0.0000E+00  0.0000E+00  0.1600E+03  0.1600E+03
    -23.660  0.0000E+00  0.0000E+00  0.1600E+03  0.1600E+03
    -23.421  0.0000E+00  0.0000E+00  0.1600E+03  0.1600E+03
    -23.181  0.0000E+00  0.0000E+00  0.1600E+03  0.1600E+03
    -22.942  0.0000E+00  0.0000E+00  0.1600E+03  0.1600E+03
    -22.702  0.0000E+00  0.0000E+00  0.1600E+03  0.1600E+03
    -22.463  0.0000E+00  0.0000E+00  0.1600E+03  0.1600E+03
    -22.223  0.0000E+00  0.0000E+00  0.1600E+03  0.1600E+03
    -21.984  0.0000E+00  0.0000E+00  0.1600E+03  0.1600E+03
    -21.744  0.0000E+00  0.0000E+00  0.1600E+03  0.1600E+03
    -21.505  0.0000E+00  0.0000E+00  0.1600E+03  0.1600E+03
    -21.266  0.0000E+00  0.0000E+00  0.1600E+03  0.1600E+03
    -21.026  0.0000E+00  0.0000E+00  0.1600E+03  0.1600E+03
    -20.787  0.0000E+00  0.0000E+00  0.1600E+03  0.1600E+03
    -20.547  0.0000E+00  0.0000E+00  0.1600E+03  0.1600E+03
    -20.308  0.0000E+00  0.0000E+00  0.1600E+03  0.1600E+03
    -20.068  0.0000E+00  0.0000E+00  0.1600E+03  0.1600E+03
    -19.829  0.0000E+00  0.0000E+00  0.1600E+03  0.1600E+03
    -19.589  0.0000E+00  0.0000E+00  0.1600E+03  0.1600E+03
    -19.350  0.0000E+00  0.0000E+00  0.1600E+03  0.1600E+03
    -19.110  0.0000E+00  0.0000E+00  0.1600E+03  0.1600E+03
    -18.871  0.0000E+00  0.0000E+00  0.1600E+03  0.1600E+03
    -18.631  0.0000E+00  0.0000E+00  0.1600E+03  0.1600E+03
    -18.392  0.0000E+00  0.0000E+00  0.1600E+03  0.1600E+03
    -18.153  0.0000E+00  0.0000E+00  0.1600E+03  0.1600E+03
    -17.913  0.0000E+00  0.0000E+00  0.1600E+03  0.1600E+03
    -17.674  0.0000E+00  0.0000E+00  0.1600E+03  0.1600E+03
    -17.434  0.0000E+00  0.0000E+00  0.1600E+03  0.1600E+03
    -17.195  0.0000E+00  0.0000E+00  0.1600E+03  0.1600E+03
    -16.955  0.0000E+00  0.0000E+00  0.1600E+03  0.1600E+03
    -16.716  0.0000E+00  0.0000E+00  0.1600E+03  0.1600E+03
    -16.476  0.0000E+00  0.0000E+00  0.1600E+03  0.1600E+03
    -16.237  0.0000E+00  0.0000E+00  0.1600E+03  0.1600E+03
    -15.997  0.0000E+00  0.0000E+00  0.1600E+03  0.1600E+03
    -15.758  0.0000E+00  0.0000E+00  0.1600E+03  0.1600E+03
    -15.518  0.0000E+00  0.0000E+00  0.1600E+03  0.1600E+03
    -15.279  0.0000E+00  0.0000E+00  0.1600E+03  0.1600E+03
    -15.040  0.0000E+00  0.0000E+00  0.1600E+03  0.1600E+03
    -14.800  0.0000E+00  0.0000E+00  0.1600E+03  0.1600E+03
    -14.561  0.0000E+00  0.0000E+00  0.1600E+03  0.1600E+03
    -14.321  0.0000E+00  0.0000E+00  0.1600E+03  0.1600E+03
    -14.082  0.0000E+00  0.0000E+00  0.1600E+03  0.1600E+03
    -13.842  0.0000E+00  0.0000E+00  0.1600E+03  0.1600E+03
    -13.603  0.1792E-01  0.0000E+00  0.1600E+03  0.1600E+03
    -13.363  0.5283E+02  0.1935E-05  0.1727E+03  0.1600E+03
    -13.124  0.7221E+02  0.2869E+02  0.1899E+03  0.1669E+03
    -12.884  0.8566E+01  0.1001E+03  0.1920E+03  0.1908E+03
    -12.645  0.0000E+00  0.4851E+01  0.1920E+03  0.1920E+03
    -12.405  0.0000E+00  0.0000E+00  0.1920E+03  0.1920E+03
    -12.166  0.0000E+00  0.0000E+00  0.1920E+03  0.1920E+03
    -11.926  0.0000E+00  0.0000E+00  0.1920E+03  0.1920E+03
    -11.687  0.0000E+00  0.0000E+00  0.1920E+03  0.1920E+03
    -11.448  0.0000E+00  0.0000E+00  0.1920E+03  0.1920E+03
    -11.208  0.0000E+00  0.0000E+00  0.1920E+03  0.1920E+03
    -10.969  0.0000E+00  0.0000E+00  0.1920E+03  0.1920E+03
    -10.729  0.0000E+00  0.0000E+00  0.1920E+03  0.1920E+03
    -10.490  0.0000E+00  0.0000E+00  0.1920E+03  0.1920E+03
    -10.250  0.0000E+00  0.0000E+00  0.1920E+03  0.1920E+03
    -10.011  0.0000E+00  0.0000E+00  0.1920E+03  0.1920E+03
     -9.771  0.0000E+00  0.0000E+00  0.1920E+03  0.1920E+03
     -9.532  0.0000E+00  0.0000E+00  0.1920E+03  0.1920E+03
     -9.292  0.0000E+00  0.0000E+00  0.1920E+03  0.1920E+03
     -9.053  0.0000E+00  0.0000E+00  0.1920E+03  0.1920E+03
     -8.813  0.0000E+00  0.0000E+00  0.1920E+03  0.1920E+03
     -8.574  0.0000E+00  0.0000E+00  0.1920E+03  0.1920E+03
     -8.335  0.0000E+00  0.0000E+00  0.1920E+03  0.1920E+03
     -8.095  0.0000E+00  0.0000E+00  0.1920E+03  0.1920E+03
     -7.856  0.3876E-10  0.0000E+00  0.1920E+03  0.1920E+03
     -7.616  0.1516E+01  0.3779E-07  0.1924E+03  0.1920E+03
     -7.377  0.4666E+02  0.7554E+01  0.2035E+03  0.1938E+03
     -7.137  0.6533E+02  0.6070E+02  0.2192E+03  0.2083E+03
     -6.898  0.2011E+02  0.5445E+02  0.2240E+03  0.2214E+03
     -6.658  0.1042E-01  0.1093E+02  0.2240E+03  0.2240E+03
     -6.419  0.0000E+00  0.3889E-02  0.2240E+03  0.2240E+03
     -6.179  0.0000E+00  0.0000E+00  0.2240E+03  0.2240E+03
     -5.940  0.0000E+00  0.0000E+00  0.2240E+03  0.2240E+03
     -5.700  0.0000E+00  0.0000E+00  0.2240E+03  0.2240E+03
     -5.461  0.0000E+00  0.0000E+00  0.2240E+03  0.2240E+03
     -5.222  0.0000E+00  0.0000E+00  0.2240E+03  0.2240E+03
     -4.982  0.0000E+00  0.0000E+00  0.2240E+03  0.2240E+03
     -4.743  0.0000E+00  0.0000E+00  0.2240E+03  0.2240E+03
     -4.503  0.0000E+00  0.0000E+00  0.2240E+03  0.2240E+03
     -4.264  0.0000E+00  0.0000E+00  0.2240E+03  0.2240E+03
     -4.024  0.0000E+00  0.0000E+00  0.2240E+03  0.2240E+03
     -3.785  0.0000E+00  0.0000E+00  0.2240E+03  0.2240E+03
     -3.545  0.0000E+00  0.0000E+00  0.2240E+03  0.2240E+03
     -3.306  0.0000E+00  0.0000E+00  0.2240E+03  0.2240E+03
     -3.066  0.0000E+00  0.0000E+00  0.2240E+03  0.2240E+03
     -2.827  0.3992E-15  0.0000E+00  0.2240E+03  0.2240E+03
     -2.587  0.3873E+00  0.0000E+00  0.2241E+03  0.2240E+03
     -2.348  0.3088E+02  0.0000E+00  0.2315E+03  0.2240E+03
     -2.108  0.1155E+02  0.0000E+00  0.2343E+03  0.2240E+03
     -1.869  0.1287E+02  0.0000E+00  0.2373E+03  0.2240E+03
     -1.630  0.1134E+02  0.0000E+00  0.2400E+03  0.2240E+03
     -1.390  0.1562E+02  0.0000E+00  0.2438E+03  0.2240E+03
     -1.151  0.6277E+02  0.2081E-05  0.2588E+03  0.2240E+03
     -0.911  0.7650E+02  0.3359E+01  0.2771E+03  0.2248E+03
     -0.672  0.6752E+02  0.3286E+02  0.2933E+03  0.2327E+03
     -0.432  0.7779E+02  0.1889E+02  0.3119E+03  0.2372E+03
     -0.193  0.1061E+03  0.1910E+02  0.3373E+03  0.2418E+03
      0.047  0.7869E+02  0.1222E+02  0.3562E+03  0.2447E+03
      0.286  0.5346E+02  0.3169E+02  0.3690E+03  0.2523E+03
      0.526  0.4756E+02  0.8130E+02  0.3804E+03  0.2718E+03
      0.765  0.4625E+02  0.6836E+02  0.3914E+03  0.2881E+03
      1.005  0.4664E+02  0.6982E+02  0.4026E+03  0.3048E+03
      1.244  0.7667E+02  0.6350E+02  0.4210E+03  0.3201E+03
      1.483  0.8763E+02  0.2169E+02  0.4419E+03  0.3252E+03
      1.723  0.5833E+02  0.5069E+02  0.4559E+03  0.3374E+03
      1.962  0.4005E+02  0.5158E+02  0.4655E+03  0.3497E+03
      2.202  0.4714E+02  0.3060E+02  0.4768E+03  0.3571E+03
      2.441  0.4169E+02  0.3901E+02  0.4868E+03  0.3664E+03
      2.681  0.5331E+02  0.6459E+02  0.4995E+03  0.3819E+03
      2.920  0.5383E+02  0.7221E+02  0.5124E+03  0.3992E+03
      3.160  0.5658E+02  0.6006E+02  0.5260E+03  0.4135E+03
      3.399  0.5307E+02  0.1612E+02  0.5387E+03  0.4174E+03
      3.639  0.5332E+02  0.3609E+02  0.5515E+03  0.4260E+03
      3.878  0.3994E+02  0.5940E+02  0.5610E+03  0.4403E+03
      4.118  0.3550E+02  0.3222E+02  0.5695E+03  0.4480E+03
      4.357  0.1927E+02  0.4522E-01  0.5741E+03  0.4480E+03
      4.597  0.7442E+01  0.0000E+00  0.5759E+03  0.4480E+03
      4.836  0.3247E+00  0.0000E+00  0.5760E+03  0.4480E+03
      5.075  0.0000E+00  0.0000E+00  0.5760E+03  0.4480E+03
      5.315  0.0000E+00  0.0000E+00  0.5760E+03  0.4480E+03
      5.554  0.0000E+00  0.0000E+00  0.5760E+03  0.4480E+03
      5.794  0.0000E+00  0.0000E+00  0.5760E+03  0.4480E+03
      6.033  0.0000E+00  0.0000E+00  0.5760E+03  0.4480E+03
      6.273  0.0000E+00  0.1545E-15  0.5760E+03  0.4480E+03
      6.512  0.0000E+00  0.6551E-01  0.5760E+03  0.4480E+03
      6.752  0.0000E+00  0.2420E+02  0.5760E+03  0.4538E+03
      6.991  0.6514E-06  0.7765E+02  0.5760E+03  0.4724E+03
      7.231  0.2290E+00  0.6326E+02  0.5761E+03  0.4876E+03
      7.470  0.1849E+00  0.6379E+02  0.5761E+03  0.5028E+03
      7.710  0.1387E+01  0.6309E+02  0.5764E+03  0.5179E+03
      7.949  0.3011E+01  0.9495E+02  0.5772E+03  0.5407E+03
      8.188  0.6539E+01  0.7282E+02  0.5787E+03  0.5581E+03
      8.428  0.9484E+01  0.4923E+02  0.5810E+03  0.5699E+03
      8.667  0.1871E+02  0.2506E+02  0.5855E+03  0.5759E+03
      8.907  0.2338E+02  0.7266E+01  0.5911E+03  0.5776E+03
      9.146  0.3138E+02  0.8596E+01  0.5986E+03  0.5797E+03
      9.386  0.2850E+02  0.1780E+02  0.6054E+03  0.5840E+03
      9.625  0.2980E+02  0.2681E+02  0.6125E+03  0.5904E+03
      9.865  0.2621E+02  0.3191E+02  0.6188E+03  0.5980E+03
     10.104  0.1756E+02  0.3783E+02  0.6230E+03  0.6071E+03
     10.344  0.2593E+02  0.3351E+02  0.6292E+03  0.6151E+03
     10.583  0.3628E+02  0.2857E+02  0.6379E+03  0.6219E+03
     10.823  0.4024E+02  0.3307E+02  0.6476E+03  0.6299E+03
     11.062  0.3299E+02  0.2823E+02  0.6555E+03  0.6366E+03
     11.301  0.4925E+02  0.2601E+02  0.6673E+03  0.6429E+03
     11.541  0.4115E+02  0.2918E+02  0.6771E+03  0.6498E+03
     11.780  0.4151E+02  0.5092E+02  0.6870E+03  0.6620E+03
     12.020  0.3404E+02  0.5025E+02  0.6952E+03  0.6741E+03
     12.259  0.3280E+02  0.5607E+02  0.7031E+03  0.6875E+03
     12.499  0.3251E+02  0.3156E+02  0.7108E+03  0.6951E+03
     12.738  0.3681E+02  0.3267E+02  0.7196E+03  0.7029E+03
     12.978  0.3456E+02  0.3215E+02  0.7279E+03  0.7106E+03
     13.217  0.1563E+02  0.3811E+02  0.7317E+03  0.7197E+03
     13.457  0.1024E+01  0.3385E+02  0.7319E+03  0.7278E+03
     13.696  0.3594E+00  0.1673E+02  0.7320E+03  0.7318E+03
     13.936  0.0000E+00  0.7622E+00  0.7320E+03  0.7320E+03
     14.175  0.0000E+00  0.3240E-05  0.7320E+03  0.7320E+03
     14.415  0.0000E+00  0.0000E+00  0.7320E+03  0.7320E+03
     14.654  0.0000E+00  0.0000E+00  0.7320E+03  0.7320E+03
     14.893  0.0000E+00  0.0000E+00  0.7320E+03  0.7320E+03
     15.133  0.0000E+00  0.0000E+00  0.7320E+03  0.7320E+03
     15.372  0.0000E+00  0.0000E+00  0.7320E+03  0.7320E+03
     15.612  0.0000E+00  0.0000E+00  0.7320E+03  0.7320E+03
     15.851  0.0000E+00  0.0000E+00  0.7320E+03  0.7320E+03
     16.091  0.0000E+00  0.0000E+00  0.7320E+03  0.7320E+03
     16.330  0.0000E+00  0.0000E+00  0.7320E+03  0.7320E+03
     16.570  0.0000E+00  0.0000E+00  0.7320E+03  0.7320E+03
     16.809  0.0000E+00  0.0000E+00  0.7320E+03  0.7320E+03
     17.049  0.0000E+00  0.0000E+00  0.7320E+03  0.7320E+03
