 224 224   0   0
  0.1357572E+02  0.1537960E-08  0.1537962E-08  0.1395899E-08  0.5000000E-15
  1.000000000000000E-004
  CAR 
 unknown system                          
     17.69983648    -54.42982397  301      5.25747005      1.00000000
    -54.430  0.0000E+00  0.0000E+00  0.0000E+00  0.0000E+00
    -54.189  0.0000E+00  0.0000E+00  0.0000E+00  0.0000E+00
    -53.949  0.0000E+00  0.0000E+00  0.0000E+00  0.0000E+00
    -53.709  0.0000E+00  0.0000E+00  0.0000E+00  0.0000E+00
    -53.468  0.0000E+00  0.0000E+00  0.0000E+00  0.0000E+00
    -53.228  0.0000E+00  0.0000E+00  0.0000E+00  0.0000E+00
    -52.987  0.0000E+00  0.0000E+00  0.0000E+00  0.0000E+00
    -52.747  0.0000E+00  0.0000E+00  0.0000E+00  0.0000E+00
    -52.506  0.0000E+00  0.0000E+00  0.0000E+00  0.0000E+00
    -52.266  0.0000E+00  0.0000E+00  0.0000E+00  0.0000E+00
    -52.026  0.0000E+00  0.0000E+00  0.0000E+00  0.0000E+00
    -51.785  0.0000E+00  0.0000E+00  0.0000E+00  0.0000E+00
    -51.545  0.0000E+00  0.0000E+00  0.0000E+00  0.0000E+00
    -51.304  0.5019E-03  0.0000E+00  0.1207E-03  0.0000E+00
    -51.064  0.2622E+03  0.0000E+00  0.6304E+02  0.0000E+00
    -50.823  0.4012E+01  0.0000E+00  0.6400E+02  0.0000E+00
    -50.583  0.0000E+00  0.0000E+00  0.6400E+02  0.0000E+00
    -50.342  0.0000E+00  0.0000E+00  0.6400E+02  0.0000E+00
    -50.102  0.0000E+00  0.0000E+00  0.6400E+02  0.0000E+00
    -49.862  0.2912E-06  0.0000E+00  0.6400E+02  0.0000E+00
    -49.621  0.4027E+03  0.0000E+00  0.1608E+03  0.0000E+00
    -49.381  0.1297E+03  0.0000E+00  0.1920E+03  0.0000E+00
    -49.140  0.0000E+00  0.0000E+00  0.1920E+03  0.0000E+00
    -48.900  0.0000E+00  0.0000E+00  0.1920E+03  0.0000E+00
    -48.659  0.0000E+00  0.0000E+00  0.1920E+03  0.0000E+00
    -48.419  0.0000E+00  0.0000E+00  0.1920E+03  0.0000E+00
    -48.179  0.0000E+00  0.0000E+00  0.1920E+03  0.0000E+00
    -47.938  0.0000E+00  0.0000E+00  0.1920E+03  0.0000E+00
    -47.698  0.0000E+00  0.0000E+00  0.1920E+03  0.0000E+00
    -47.457  0.0000E+00  0.0000E+00  0.1920E+03  0.0000E+00
    -47.217  0.0000E+00  0.0000E+00  0.1920E+03  0.0000E+00
    -46.976  0.0000E+00  0.0000E+00  0.1920E+03  0.0000E+00
    -46.736  0.0000E+00  0.0000E+00  0.1920E+03  0.0000E+00
    -46.496  0.0000E+00  0.3584E+00  0.1920E+03  0.8617E-01
    -46.255  0.0000E+00  0.2658E+03  0.1920E+03  0.6400E+02
    -46.015  0.0000E+00  0.3634E+01  0.1920E+03  0.6487E+02
    -45.774  0.0000E+00  0.5288E+03  0.1920E+03  0.1920E+03
    -45.534  0.0000E+00  0.4020E-02  0.1920E+03  0.1920E+03
    -45.293  0.0000E+00  0.0000E+00  0.1920E+03  0.1920E+03
    -45.053  0.0000E+00  0.0000E+00  0.1920E+03  0.1920E+03
    -44.813  0.0000E+00  0.0000E+00  0.1920E+03  0.1920E+03
    -44.572  0.0000E+00  0.0000E+00  0.1920E+03  0.1920E+03
    -44.332  0.0000E+00  0.0000E+00  0.1920E+03  0.1920E+03
    -44.091  0.0000E+00  0.0000E+00  0.1920E+03  0.1920E+03
    -43.851  0.0000E+00  0.0000E+00  0.1920E+03  0.1920E+03
    -43.610  0.0000E+00  0.0000E+00  0.1920E+03  0.1920E+03
    -43.370  0.0000E+00  0.0000E+00  0.1920E+03  0.1920E+03
    -43.130  0.0000E+00  0.0000E+00  0.1920E+03  0.1920E+03
    -42.889  0.0000E+00  0.0000E+00  0.1920E+03  0.1920E+03
    -42.649  0.0000E+00  0.0000E+00  0.1920E+03  0.1920E+03
    -42.408  0.0000E+00  0.0000E+00  0.1920E+03  0.1920E+03
    -42.168  0.0000E+00  0.0000E+00  0.1920E+03  0.1920E+03
    -41.927  0.0000E+00  0.0000E+00  0.1920E+03  0.1920E+03
    -41.687  0.0000E+00  0.0000E+00  0.1920E+03  0.1920E+03
    -41.446  0.0000E+00  0.0000E+00  0.1920E+03  0.1920E+03
    -41.206  0.0000E+00  0.0000E+00  0.1920E+03  0.1920E+03
    -40.966  0.0000E+00  0.0000E+00  0.1920E+03  0.1920E+03
    -40.725  0.0000E+00  0.0000E+00  0.1920E+03  0.1920E+03
    -40.485  0.0000E+00  0.0000E+00  0.1920E+03  0.1920E+03
    -40.244  0.0000E+00  0.0000E+00  0.1920E+03  0.1920E+03
    -40.004  0.0000E+00  0.0000E+00  0.1920E+03  0.1920E+03
    -39.763  0.9794E-02  0.8890E-02  0.1920E+03  0.1920E+03
    -39.523  0.2644E+03  0.2643E+03  0.2556E+03  0.2556E+03
    -39.283  0.1731E+01  0.1830E+01  0.2560E+03  0.2560E+03
    -39.042  0.0000E+00  0.0000E+00  0.2560E+03  0.2560E+03
    -38.802  0.0000E+00  0.0000E+00  0.2560E+03  0.2560E+03
    -38.561  0.0000E+00  0.0000E+00  0.2560E+03  0.2560E+03
    -38.321  0.0000E+00  0.0000E+00  0.2560E+03  0.2560E+03
    -38.080  0.0000E+00  0.0000E+00  0.2560E+03  0.2560E+03
    -37.840  0.0000E+00  0.0000E+00  0.2560E+03  0.2560E+03
    -37.600  0.0000E+00  0.0000E+00  0.2560E+03  0.2560E+03
    -37.359  0.0000E+00  0.0000E+00  0.2560E+03  0.2560E+03
    -37.119  0.0000E+00  0.0000E+00  0.2560E+03  0.2560E+03
    -36.878  0.0000E+00  0.0000E+00  0.2560E+03  0.2560E+03
    -36.638  0.0000E+00  0.0000E+00  0.2560E+03  0.2560E+03
    -36.397  0.0000E+00  0.0000E+00  0.2560E+03  0.2560E+03
    -36.157  0.0000E+00  0.0000E+00  0.2560E+03  0.2560E+03
    -35.917  0.0000E+00  0.0000E+00  0.2560E+03  0.2560E+03
    -35.676  0.0000E+00  0.0000E+00  0.2560E+03  0.2560E+03
    -35.436  0.0000E+00  0.0000E+00  0.2560E+03  0.2560E+03
    -35.195  0.0000E+00  0.0000E+00  0.2560E+03  0.2560E+03
    -34.955  0.0000E+00  0.0000E+00  0.2560E+03  0.2560E+03
    -34.714  0.0000E+00  0.0000E+00  0.2560E+03  0.2560E+03
    -34.474  0.0000E+00  0.0000E+00  0.2560E+03  0.2560E+03
    -34.234  0.0000E+00  0.0000E+00  0.2560E+03  0.2560E+03
    -33.993  0.0000E+00  0.0000E+00  0.2560E+03  0.2560E+03
    -33.753  0.0000E+00  0.0000E+00  0.2560E+03  0.2560E+03
    -33.512  0.0000E+00  0.0000E+00  0.2560E+03  0.2560E+03
    -33.272  0.0000E+00  0.0000E+00  0.2560E+03  0.2560E+03
    -33.031  0.0000E+00  0.0000E+00  0.2560E+03  0.2560E+03
    -32.791  0.0000E+00  0.0000E+00  0.2560E+03  0.2560E+03
    -32.550  0.0000E+00  0.0000E+00  0.2560E+03  0.2560E+03
    -32.310  0.0000E+00  0.0000E+00  0.2560E+03  0.2560E+03
    -32.070  0.0000E+00  0.0000E+00  0.2560E+03  0.2560E+03
    -31.829  0.0000E+00  0.0000E+00  0.2560E+03  0.2560E+03
    -31.589  0.0000E+00  0.0000E+00  0.2560E+03  0.2560E+03
    -31.348  0.0000E+00  0.0000E+00  0.2560E+03  0.2560E+03
    -31.108  0.0000E+00  0.0000E+00  0.2560E+03  0.2560E+03
    -30.867  0.0000E+00  0.0000E+00  0.2560E+03  0.2560E+03
    -30.627  0.0000E+00  0.0000E+00  0.2560E+03  0.2560E+03
    -30.387  0.0000E+00  0.0000E+00  0.2560E+03  0.2560E+03
    -30.146  0.0000E+00  0.0000E+00  0.2560E+03  0.2560E+03
    -29.906  0.0000E+00  0.0000E+00  0.2560E+03  0.2560E+03
    -29.665  0.0000E+00  0.0000E+00  0.2560E+03  0.2560E+03
    -29.425  0.0000E+00  0.0000E+00  0.2560E+03  0.2560E+03
    -29.184  0.0000E+00  0.0000E+00  0.2560E+03  0.2560E+03
    -28.944  0.0000E+00  0.0000E+00  0.2560E+03  0.2560E+03
    -28.704  0.0000E+00  0.0000E+00  0.2560E+03  0.2560E+03
    -28.463  0.0000E+00  0.0000E+00  0.2560E+03  0.2560E+03
    -28.223  0.0000E+00  0.0000E+00  0.2560E+03  0.2560E+03
    -27.982  0.0000E+00  0.0000E+00  0.2560E+03  0.2560E+03
    -27.742  0.0000E+00  0.0000E+00  0.2560E+03  0.2560E+03
    -27.501  0.0000E+00  0.0000E+00  0.2560E+03  0.2560E+03
    -27.261  0.0000E+00  0.0000E+00  0.2560E+03  0.2560E+03
    -27.021  0.0000E+00  0.0000E+00  0.2560E+03  0.2560E+03
    -26.780  0.0000E+00  0.0000E+00  0.2560E+03  0.2560E+03
    -26.540  0.0000E+00  0.0000E+00  0.2560E+03  0.2560E+03
    -26.299  0.0000E+00  0.0000E+00  0.2560E+03  0.2560E+03
    -26.059  0.0000E+00  0.0000E+00  0.2560E+03  0.2560E+03
    -25.818  0.0000E+00  0.0000E+00  0.2560E+03  0.2560E+03
    -25.578  0.0000E+00  0.0000E+00  0.2560E+03  0.2560E+03
    -25.338  0.0000E+00  0.0000E+00  0.2560E+03  0.2560E+03
    -25.097  0.0000E+00  0.0000E+00  0.2560E+03  0.2560E+03
    -24.857  0.0000E+00  0.0000E+00  0.2560E+03  0.2560E+03
    -24.616  0.0000E+00  0.0000E+00  0.2560E+03  0.2560E+03
    -24.376  0.0000E+00  0.0000E+00  0.2560E+03  0.2560E+03
    -24.135  0.0000E+00  0.0000E+00  0.2560E+03  0.2560E+03
    -23.895  0.0000E+00  0.0000E+00  0.2560E+03  0.2560E+03
    -23.655  0.0000E+00  0.0000E+00  0.2560E+03  0.2560E+03
    -23.414  0.0000E+00  0.0000E+00  0.2560E+03  0.2560E+03
    -23.174  0.0000E+00  0.0000E+00  0.2560E+03  0.2560E+03
    -22.933  0.0000E+00  0.0000E+00  0.2560E+03  0.2560E+03
    -22.693  0.0000E+00  0.0000E+00  0.2560E+03  0.2560E+03
    -22.452  0.0000E+00  0.0000E+00  0.2560E+03  0.2560E+03
    -22.212  0.0000E+00  0.0000E+00  0.2560E+03  0.2560E+03
    -21.971  0.0000E+00  0.0000E+00  0.2560E+03  0.2560E+03
    -21.731  0.0000E+00  0.0000E+00  0.2560E+03  0.2560E+03
    -21.491  0.0000E+00  0.0000E+00  0.2560E+03  0.2560E+03
    -21.250  0.0000E+00  0.0000E+00  0.2560E+03  0.2560E+03
    -21.010  0.0000E+00  0.0000E+00  0.2560E+03  0.2560E+03
    -20.769  0.0000E+00  0.0000E+00  0.2560E+03  0.2560E+03
    -20.529  0.0000E+00  0.0000E+00  0.2560E+03  0.2560E+03
    -20.288  0.0000E+00  0.0000E+00  0.2560E+03  0.2560E+03
    -20.048  0.0000E+00  0.0000E+00  0.2560E+03  0.2560E+03
    -19.808  0.0000E+00  0.0000E+00  0.2560E+03  0.2560E+03
    -19.567  0.0000E+00  0.0000E+00  0.2560E+03  0.2560E+03
    -19.327  0.0000E+00  0.0000E+00  0.2560E+03  0.2560E+03
    -19.086  0.0000E+00  0.0000E+00  0.2560E+03  0.2560E+03
    -18.846  0.0000E+00  0.0000E+00  0.2560E+03  0.2560E+03
    -18.605  0.0000E+00  0.0000E+00  0.2560E+03  0.2560E+03
    -18.365  0.0000E+00  0.0000E+00  0.2560E+03  0.2560E+03
    -18.125  0.0000E+00  0.0000E+00  0.2560E+03  0.2560E+03
    -17.884  0.0000E+00  0.0000E+00  0.2560E+03  0.2560E+03
    -17.644  0.0000E+00  0.0000E+00  0.2560E+03  0.2560E+03
    -17.403  0.0000E+00  0.0000E+00  0.2560E+03  0.2560E+03
    -17.163  0.0000E+00  0.0000E+00  0.2560E+03  0.2560E+03
    -16.922  0.0000E+00  0.0000E+00  0.2560E+03  0.2560E+03
    -16.682  0.0000E+00  0.0000E+00  0.2560E+03  0.2560E+03
    -16.442  0.0000E+00  0.0000E+00  0.2560E+03  0.2560E+03
    -16.201  0.0000E+00  0.0000E+00  0.2560E+03  0.2560E+03
    -15.961  0.0000E+00  0.0000E+00  0.2560E+03  0.2560E+03
    -15.720  0.0000E+00  0.0000E+00  0.2560E+03  0.2560E+03
    -15.480  0.0000E+00  0.0000E+00  0.2560E+03  0.2560E+03
    -15.239  0.0000E+00  0.0000E+00  0.2560E+03  0.2560E+03
    -14.999  0.0000E+00  0.0000E+00  0.2560E+03  0.2560E+03
    -14.759  0.0000E+00  0.0000E+00  0.2560E+03  0.2560E+03
    -14.518  0.0000E+00  0.0000E+00  0.2560E+03  0.2560E+03
    -14.278  0.0000E+00  0.0000E+00  0.2560E+03  0.2560E+03
    -14.037  0.0000E+00  0.0000E+00  0.2560E+03  0.2560E+03
    -13.797  0.0000E+00  0.0000E+00  0.2560E+03  0.2560E+03
    -13.556  0.0000E+00  0.0000E+00  0.2560E+03  0.2560E+03
    -13.316  0.0000E+00  0.0000E+00  0.2560E+03  0.2560E+03
    -13.075  0.0000E+00  0.0000E+00  0.2560E+03  0.2560E+03
    -12.835  0.6444E-01  0.0000E+00  0.2560E+03  0.2560E+03
    -12.595  0.1318E+03  0.1191E-02  0.2877E+03  0.2560E+03
    -12.354  0.1195E+01  0.1227E+03  0.2880E+03  0.2855E+03
    -12.114  0.0000E+00  0.1038E+02  0.2880E+03  0.2880E+03
    -11.873  0.0000E+00  0.0000E+00  0.2880E+03  0.2880E+03
    -11.633  0.0000E+00  0.0000E+00  0.2880E+03  0.2880E+03
    -11.392  0.0000E+00  0.0000E+00  0.2880E+03  0.2880E+03
    -11.152  0.0000E+00  0.0000E+00  0.2880E+03  0.2880E+03
    -10.912  0.0000E+00  0.0000E+00  0.2880E+03  0.2880E+03
    -10.671  0.0000E+00  0.0000E+00  0.2880E+03  0.2880E+03
    -10.431  0.0000E+00  0.0000E+00  0.2880E+03  0.2880E+03
    -10.190  0.0000E+00  0.0000E+00  0.2880E+03  0.2880E+03
     -9.950  0.0000E+00  0.0000E+00  0.2880E+03  0.2880E+03
     -9.709  0.0000E+00  0.0000E+00  0.2880E+03  0.2880E+03
     -9.469  0.0000E+00  0.0000E+00  0.2880E+03  0.2880E+03
     -9.229  0.0000E+00  0.0000E+00  0.2880E+03  0.2880E+03
     -8.988  0.0000E+00  0.0000E+00  0.2880E+03  0.2880E+03
     -8.748  0.0000E+00  0.0000E+00  0.2880E+03  0.2880E+03
     -8.507  0.0000E+00  0.0000E+00  0.2880E+03  0.2880E+03
     -8.267  0.0000E+00  0.0000E+00  0.2880E+03  0.2880E+03
     -8.026  0.3900E-10  0.0000E+00  0.2880E+03  0.2880E+03
     -7.786  0.8948E+00  0.3289E-07  0.2882E+03  0.2880E+03
     -7.546  0.1876E+02  0.2766E+01  0.2927E+03  0.2887E+03
     -7.305  0.2809E+02  0.2223E+02  0.2995E+03  0.2940E+03
     -7.065  0.5346E+02  0.3098E+02  0.3123E+03  0.3015E+03
     -6.824  0.1469E+03  0.4885E+02  0.3476E+03  0.3132E+03
     -6.584  0.1811E+02  0.1389E+03  0.3520E+03  0.3466E+03
     -6.343  0.0000E+00  0.2250E+02  0.3520E+03  0.3520E+03
     -6.103  0.0000E+00  0.1320E-04  0.3520E+03  0.3520E+03
     -5.863  0.0000E+00  0.0000E+00  0.3520E+03  0.3520E+03
     -5.622  0.0000E+00  0.0000E+00  0.3520E+03  0.3520E+03
     -5.382  0.0000E+00  0.0000E+00  0.3520E+03  0.3520E+03
     -5.141  0.0000E+00  0.0000E+00  0.3520E+03  0.3520E+03
     -4.901  0.0000E+00  0.0000E+00  0.3520E+03  0.3520E+03
     -4.660  0.0000E+00  0.0000E+00  0.3520E+03  0.3520E+03
     -4.420  0.0000E+00  0.0000E+00  0.3520E+03  0.3520E+03
     -4.179  0.0000E+00  0.0000E+00  0.3520E+03  0.3520E+03
     -3.939  0.0000E+00  0.0000E+00  0.3520E+03  0.3520E+03
     -3.699  0.0000E+00  0.0000E+00  0.3520E+03  0.3520E+03
     -3.458  0.0000E+00  0.0000E+00  0.3520E+03  0.3520E+03
     -3.218  0.0000E+00  0.0000E+00  0.3520E+03  0.3520E+03
     -2.977  0.0000E+00  0.0000E+00  0.3520E+03  0.3520E+03
     -2.737  0.0000E+00  0.0000E+00  0.3520E+03  0.3520E+03
     -2.496  0.0000E+00  0.0000E+00  0.3520E+03  0.3520E+03
     -2.256  0.0000E+00  0.0000E+00  0.3520E+03  0.3520E+03
     -2.016  0.0000E+00  0.0000E+00  0.3520E+03  0.3520E+03
     -1.775  0.4592E-12  0.0000E+00  0.3520E+03  0.3520E+03
     -1.535  0.1225E+01  0.0000E+00  0.3523E+03  0.3520E+03
     -1.294  0.9983E+02  0.0000E+00  0.3763E+03  0.3520E+03
     -1.054  0.3204E+02  0.0000E+00  0.3840E+03  0.3520E+03
     -0.813  0.1242E+02  0.0000E+00  0.3870E+03  0.3520E+03
     -0.573  0.8937E+02  0.7662E-05  0.4085E+03  0.3520E+03
     -0.333  0.2237E+03  0.4051E+01  0.4622E+03  0.3530E+03
     -0.092  0.2018E+03  0.2469E+02  0.5108E+03  0.3589E+03
      0.148  0.1768E+03  0.4103E+02  0.5533E+03  0.3688E+03
      0.389  0.1517E+03  0.4235E+02  0.5898E+03  0.3790E+03
      0.629  0.1197E+03  0.7194E+02  0.6185E+03  0.3963E+03
      0.870  0.5440E+02  0.6050E+02  0.6316E+03  0.4108E+03
      1.110  0.6969E+02  0.6533E+02  0.6484E+03  0.4265E+03
      1.350  0.7344E+02  0.6772E+02  0.6660E+03  0.4428E+03
      1.591  0.6801E+02  0.7760E+02  0.6824E+03  0.4614E+03
      1.831  0.1107E+03  0.1110E+03  0.7090E+03  0.4881E+03
      2.072  0.2135E+03  0.6213E+02  0.7603E+03  0.5031E+03
      2.312  0.1398E+03  0.3786E+02  0.7939E+03  0.5122E+03
      2.553  0.8448E+02  0.7749E+02  0.8142E+03  0.5308E+03
      2.793  0.6867E+02  0.1040E+03  0.8308E+03  0.5558E+03
      3.033  0.3529E+02  0.7079E+02  0.8392E+03  0.5728E+03
      3.274  0.4046E+02  0.1313E+03  0.8490E+03  0.6044E+03
      3.514  0.5191E+02  0.1172E+03  0.8614E+03  0.6326E+03
      3.755  0.6738E+02  0.2513E+02  0.8777E+03  0.6386E+03
      3.995  0.7989E+02  0.4405E+02  0.8969E+03  0.6492E+03
      4.236  0.8006E+02  0.1786E+03  0.9161E+03  0.6922E+03
      4.476  0.7569E+02  0.4763E+02  0.9343E+03  0.7036E+03
      4.716  0.2870E+02  0.1649E+01  0.9412E+03  0.7040E+03
      4.957  0.6455E+02  0.0000E+00  0.9567E+03  0.7040E+03
      5.197  0.1361E+02  0.0000E+00  0.9600E+03  0.7040E+03
      5.438  0.0000E+00  0.0000E+00  0.9600E+03  0.7040E+03
      5.678  0.0000E+00  0.0000E+00  0.9600E+03  0.7040E+03
      5.919  0.0000E+00  0.0000E+00  0.9600E+03  0.7040E+03
      6.159  0.0000E+00  0.9805E-07  0.9600E+03  0.7040E+03
      6.400  0.0000E+00  0.1036E+01  0.9600E+03  0.7042E+03
      6.640  0.0000E+00  0.1016E+02  0.9600E+03  0.7067E+03
      6.880  0.0000E+00  0.2665E+02  0.9600E+03  0.7131E+03
      7.121  0.5772E-16  0.6600E+02  0.9600E+03  0.7290E+03
      7.361  0.6246E-01  0.1115E+03  0.9600E+03  0.7558E+03
      7.602  0.1497E+01  0.1393E+03  0.9604E+03  0.7893E+03
      7.842  0.5198E+01  0.1182E+03  0.9616E+03  0.8177E+03
      8.083  0.7090E+01  0.1788E+03  0.9633E+03  0.8607E+03
      8.323  0.9289E+01  0.1453E+03  0.9656E+03  0.8956E+03
      8.563  0.1253E+02  0.6225E+02  0.9686E+03  0.9106E+03
      8.804  0.1460E+02  0.8248E+02  0.9721E+03  0.9304E+03
      9.044  0.2709E+02  0.7281E+02  0.9786E+03  0.9479E+03
      9.285  0.3352E+02  0.5732E+02  0.9867E+03  0.9617E+03
      9.525  0.3561E+02  0.2302E+02  0.9952E+03  0.9672E+03
      9.766  0.5299E+02  0.3404E+02  0.1008E+04  0.9754E+03
     10.006  0.5120E+02  0.2269E+02  0.1020E+04  0.9809E+03
     10.246  0.3369E+02  0.3891E+02  0.1028E+04  0.9902E+03
     10.487  0.2163E+02  0.4325E+02  0.1034E+04  0.1001E+04
     10.727  0.4556E+02  0.6131E+02  0.1045E+04  0.1015E+04
     10.968  0.3307E+02  0.4332E+02  0.1052E+04  0.1026E+04
     11.208  0.4381E+02  0.4015E+02  0.1063E+04  0.1035E+04
     11.449  0.7801E+02  0.3458E+02  0.1082E+04  0.1044E+04
     11.689  0.4266E+02  0.4374E+02  0.1092E+04  0.1054E+04
     11.929  0.6454E+02  0.5217E+02  0.1108E+04  0.1067E+04
     12.170  0.6675E+02  0.5727E+02  0.1124E+04  0.1081E+04
     12.410  0.6916E+02  0.5324E+02  0.1140E+04  0.1093E+04
     12.651  0.6100E+02  0.6708E+02  0.1155E+04  0.1110E+04
     12.891  0.5273E+02  0.7971E+02  0.1168E+04  0.1129E+04
     13.132  0.5839E+02  0.6440E+02  0.1182E+04  0.1144E+04
     13.372  0.4848E+02  0.6642E+02  0.1193E+04  0.1160E+04
     13.612  0.4012E+02  0.6454E+02  0.1203E+04  0.1176E+04
     13.853  0.1870E+02  0.5723E+02  0.1207E+04  0.1189E+04
     14.093  0.2505E+01  0.5295E+02  0.1208E+04  0.1202E+04
     14.334  0.0000E+00  0.2135E+02  0.1208E+04  0.1207E+04
     14.574  0.0000E+00  0.3047E+01  0.1208E+04  0.1208E+04
     14.815  0.0000E+00  0.3919E-05  0.1208E+04  0.1208E+04
     15.055  0.0000E+00  0.0000E+00  0.1208E+04  0.1208E+04
     15.296  0.0000E+00  0.0000E+00  0.1208E+04  0.1208E+04
     15.536  0.0000E+00  0.0000E+00  0.1208E+04  0.1208E+04
     15.776  0.0000E+00  0.0000E+00  0.1208E+04  0.1208E+04
     16.017  0.0000E+00  0.0000E+00  0.1208E+04  0.1208E+04
     16.257  0.0000E+00  0.0000E+00  0.1208E+04  0.1208E+04
     16.498  0.0000E+00  0.0000E+00  0.1208E+04  0.1208E+04
     16.738  0.0000E+00  0.0000E+00  0.1208E+04  0.1208E+04
     16.979  0.0000E+00  0.0000E+00  0.1208E+04  0.1208E+04
     17.219  0.0000E+00  0.0000E+00  0.1208E+04  0.1208E+04
     17.459  0.0000E+00  0.0000E+00  0.1208E+04  0.1208E+04
     17.700  0.0000E+00  0.0000E+00  0.1208E+04  0.1208E+04
