  224  224    1    2
  0.1357572E+02  0.1537960E-08  0.1537962E-08  0.1395899E-08  0.5000000E-15
  1.000000000000000E-004
  CAR 
 unknown system                          
   1664      8   1208
 
  0.0000000E+00  0.0000000E+00  0.0000000E+00  0.1250000E+00
    1      -51.151201    -46.397846   1.000000   1.000000
    2      -51.142906    -46.391815   1.000000   1.000000
    3      -51.141790    -46.391187   1.000000   1.000000
    4      -51.141621    -46.390887   1.000000   1.000000
    5      -51.141574    -46.390754   1.000000   1.000000
    6      -51.141455    -46.390737   1.000000   1.000000
    7      -51.141379    -46.390614   1.000000   1.000000
    8      -51.141301    -46.390476   1.000000   1.000000
    9      -51.141234    -46.390470   1.000000   1.000000
   10      -51.141195    -46.390345   1.000000   1.000000
   11      -51.141144    -46.390252   1.000000   1.000000
   12      -51.141062    -46.390158   1.000000   1.000000
   13      -51.141016    -46.390132   1.000000   1.000000
   14      -51.141004    -46.390062   1.000000   1.000000
   15      -51.140967    -46.390034   1.000000   1.000000
   16      -51.140934    -46.390026   1.000000   1.000000
   17      -51.140900    -46.389993   1.000000   1.000000
   18      -51.140872    -46.389965   1.000000   1.000000
   19      -51.140801    -46.389873   1.000000   1.000000
   20      -51.140785    -46.389841   1.000000   1.000000
   21      -51.140756    -46.389803   1.000000   1.000000
   22      -51.140742    -46.389771   1.000000   1.000000
   23      -51.140712    -46.389721   1.000000   1.000000
   24      -51.140700    -46.389720   1.000000   1.000000
   25      -51.140654    -46.389674   1.000000   1.000000
   26      -51.140604    -46.389616   1.000000   1.000000
   27      -51.140593    -46.389561   1.000000   1.000000
   28      -51.140539    -46.389560   1.000000   1.000000
   29      -51.140451    -46.389471   1.000000   1.000000
   30      -51.140443    -46.389462   1.000000   1.000000
   31      -51.140412    -46.389362   1.000000   1.000000
   32      -51.140363    -46.389204   1.000000   1.000000
   33      -51.140292    -46.389160   1.000000   1.000000
   34      -51.140269    -46.389033   1.000000   1.000000
   35      -51.140240    -46.389007   1.000000   1.000000
   36      -51.140206    -46.388993   1.000000   1.000000
   37      -51.140195    -46.388957   1.000000   1.000000
   38      -51.140105    -46.388894   1.000000   1.000000
   39      -51.140099    -46.388855   1.000000   1.000000
   40      -51.140094    -46.388850   1.000000   1.000000
   41      -51.140082    -46.388824   1.000000   1.000000
   42      -51.140060    -46.388816   1.000000   1.000000
   43      -51.140015    -46.388741   1.000000   1.000000
   44      -51.139979    -46.388709   1.000000   1.000000
   45      -51.139956    -46.388694   1.000000   1.000000
   46      -51.139923    -46.388662   1.000000   1.000000
   47      -51.139907    -46.388632   1.000000   1.000000
   48      -51.139879    -46.388626   1.000000   1.000000
   49      -51.139848    -46.388590   1.000000   1.000000
   50      -51.139808    -46.388529   1.000000   1.000000
   51      -51.139779    -46.388481   1.000000   1.000000
   52      -51.139756    -46.388466   1.000000   1.000000
   53      -51.139696    -46.388399   1.000000   1.000000
   54      -51.139644    -46.388393   1.000000   1.000000
   55      -51.139619    -46.388248   1.000000   1.000000
   56      -51.139534    -46.388163   1.000000   1.000000
   57      -51.139529    -46.388090   1.000000   1.000000
   58      -51.139462    -46.387988   1.000000   1.000000
   59      -51.139256    -46.387926   1.000000   1.000000
   60      -51.139246    -46.387750   1.000000   1.000000
   61      -51.138893    -46.387576   1.000000   1.000000
   62      -51.138777    -46.387552   1.000000   1.000000
   63      -51.138456    -46.387154   1.000000   1.000000
   64      -51.137209    -46.386051   1.000000   1.000000
   65      -49.656070    -45.935477   1.000000   1.000000
   66      -49.653708    -45.935156   1.000000   1.000000
   67      -49.649484    -45.930145   1.000000   1.000000
   68      -49.648264    -45.929839   1.000000   1.000000
   69      -49.647977    -45.929333   1.000000   1.000000
   70      -49.647938    -45.929259   1.000000   1.000000
   71      -49.647722    -45.929131   1.000000   1.000000
   72      -49.647658    -45.929064   1.000000   1.000000
   73      -49.647580    -45.929003   1.000000   1.000000
   74      -49.647561    -45.928993   1.000000   1.000000
   75      -49.647520    -45.928942   1.000000   1.000000
   76      -49.647488    -45.928898   1.000000   1.000000
   77      -49.647475    -45.928797   1.000000   1.000000
   78      -49.647395    -45.928752   1.000000   1.000000
   79      -49.647299    -45.928705   1.000000   1.000000
   80      -49.647292    -45.928658   1.000000   1.000000
   81      -49.647274    -45.928611   1.000000   1.000000
   82      -49.647247    -45.928599   1.000000   1.000000
   83      -49.647203    -45.928562   1.000000   1.000000
   84      -49.647169    -45.928559   1.000000   1.000000
   85      -49.647164    -45.928514   1.000000   1.000000
   86      -49.647125    -45.928512   1.000000   1.000000
   87      -49.647108    -45.928498   1.000000   1.000000
   88      -49.647100    -45.928484   1.000000   1.000000
   89      -49.647064    -45.928425   1.000000   1.000000
   90      -49.647018    -45.928416   1.000000   1.000000
   91      -49.646939    -45.928396   1.000000   1.000000
   92      -49.646915    -45.928355   1.000000   1.000000
   93      -49.646909    -45.928326   1.000000   1.000000
   94      -49.646813    -45.928290   1.000000   1.000000
   95      -49.646777    -45.928282   1.000000   1.000000
   96      -49.646772    -45.928227   1.000000   1.000000
   97      -49.646718    -45.928187   1.000000   1.000000
   98      -49.646673    -45.928158   1.000000   1.000000
   99      -49.646603    -45.928139   1.000000   1.000000
  100      -49.646599    -45.928089   1.000000   1.000000
  101      -49.646590    -45.928026   1.000000   1.000000
  102      -49.646579    -45.928018   1.000000   1.000000
  103      -49.646501    -45.928001   1.000000   1.000000
  104      -49.646473    -45.927942   1.000000   1.000000
  105      -49.646397    -45.927889   1.000000   1.000000
  106      -49.646371    -45.927867   1.000000   1.000000
  107      -49.646358    -45.927846   1.000000   1.000000
  108      -49.646327    -45.927813   1.000000   1.000000
  109      -49.646254    -45.927803   1.000000   1.000000
  110      -49.646205    -45.927771   1.000000   1.000000
  111      -49.646159    -45.927709   1.000000   1.000000
  112      -49.646137    -45.927666   1.000000   1.000000
  113      -49.646100    -45.927637   1.000000   1.000000
  114      -49.646093    -45.927612   1.000000   1.000000
  115      -49.646049    -45.927581   1.000000   1.000000
  116      -49.646040    -45.927566   1.000000   1.000000
  117      -49.645961    -45.927527   1.000000   1.000000
  118      -49.645890    -45.927502   1.000000   1.000000
  119      -49.645857    -45.927417   1.000000   1.000000
  120      -49.645839    -45.927371   1.000000   1.000000
  121      -49.645806    -45.927333   1.000000   1.000000
  122      -49.645800    -45.927279   1.000000   1.000000
  123      -49.645743    -45.927269   1.000000   1.000000
  124      -49.645723    -45.927245   1.000000   1.000000
  125      -49.645700    -45.927239   1.000000   1.000000
  126      -49.645601    -45.927226   1.000000   1.000000
  127      -49.645592    -45.927204   1.000000   1.000000
  128      -49.645548    -45.927189   1.000000   1.000000
  129      -49.645515    -45.927168   1.000000   1.000000
  130      -49.645515    -45.927158   1.000000   1.000000
  131      -49.645499    -45.927128   1.000000   1.000000
  132      -49.645482    -45.927100   1.000000   1.000000
  133      -49.645434    -45.927047   1.000000   1.000000
  134      -49.645416    -45.927025   1.000000   1.000000
  135      -49.645414    -45.927007   1.000000   1.000000
  136      -49.645389    -45.926990   1.000000   1.000000
  137      -49.645379    -45.926973   1.000000   1.000000
  138      -49.645332    -45.926958   1.000000   1.000000
  139      -49.645325    -45.926938   1.000000   1.000000
  140      -49.645266    -45.926884   1.000000   1.000000
  141      -49.645239    -45.926866   1.000000   1.000000
  142      -49.645231    -45.926861   1.000000   1.000000
  143      -49.645192    -45.926828   1.000000   1.000000
  144      -49.645179    -45.926774   1.000000   1.000000
  145      -49.645155    -45.926770   1.000000   1.000000
  146      -49.645142    -45.926712   1.000000   1.000000
  147      -49.645108    -45.926702   1.000000   1.000000
  148      -49.645102    -45.926686   1.000000   1.000000
  149      -49.645067    -45.926666   1.000000   1.000000
  150      -49.645045    -45.926653   1.000000   1.000000
  151      -49.645029    -45.926621   1.000000   1.000000
  152      -49.644998    -45.926600   1.000000   1.000000
  153      -49.644938    -45.926556   1.000000   1.000000
  154      -49.644931    -45.926544   1.000000   1.000000
  155      -49.644868    -45.926523   1.000000   1.000000
  156      -49.644787    -45.926505   1.000000   1.000000
  157      -49.644763    -45.926469   1.000000   1.000000
  158      -49.644750    -45.926441   1.000000   1.000000
  159      -49.644734    -45.926419   1.000000   1.000000
  160      -49.644661    -45.926398   1.000000   1.000000
  161      -49.644657    -45.926376   1.000000   1.000000
  162      -49.644649    -45.926325   1.000000   1.000000
  163      -49.644595    -45.926325   1.000000   1.000000
  164      -49.644571    -45.926304   1.000000   1.000000
  165      -49.644551    -45.926276   1.000000   1.000000
  166      -49.644523    -45.926266   1.000000   1.000000
  167      -49.644503    -45.926242   1.000000   1.000000
  168      -49.644477    -45.926226   1.000000   1.000000
  169      -49.644431    -45.926209   1.000000   1.000000
  170      -49.644403    -45.926142   1.000000   1.000000
  171      -49.644380    -45.926125   1.000000   1.000000
  172      -49.644255    -45.926113   1.000000   1.000000
  173      -49.644226    -45.926062   1.000000   1.000000
  174      -49.644201    -45.926049   1.000000   1.000000
  175      -49.644140    -45.926025   1.000000   1.000000
  176      -49.644121    -45.926017   1.000000   1.000000
  177      -49.644103    -45.925905   1.000000   1.000000
  178      -49.644057    -45.925897   1.000000   1.000000
  179      -49.643989    -45.925864   1.000000   1.000000
  180      -49.643973    -45.925822   1.000000   1.000000
  181      -49.643930    -45.925750   1.000000   1.000000
  182      -49.643799    -45.925703   1.000000   1.000000
  183      -49.643768    -45.925684   1.000000   1.000000
  184      -49.643683    -45.925669   1.000000   1.000000
  185      -49.643671    -45.925570   1.000000   1.000000
  186      -49.643640    -45.925464   1.000000   1.000000
  187      -49.643515    -45.925328   1.000000   1.000000
  188      -49.643467    -45.925088   1.000000   1.000000
  189      -49.643434    -45.924913   1.000000   1.000000
  190      -49.643070    -45.924840   1.000000   1.000000
  191      -49.642601    -45.924248   1.000000   1.000000
  192      -49.641078    -45.923538   1.000000   1.000000
  193      -39.641453    -39.640536   1.000000   1.000000
  194      -39.640414    -39.639497   1.000000   1.000000
  195      -39.633973    -39.633100   1.000000   1.000000
  196      -39.633845    -39.632973   1.000000   1.000000
  197      -39.633757    -39.632884   1.000000   1.000000
  198      -39.633603    -39.632730   1.000000   1.000000
  199      -39.633237    -39.632364   1.000000   1.000000
  200      -39.632946    -39.632073   1.000000   1.000000
  201      -39.632848    -39.631976   1.000000   1.000000
  202      -39.631808    -39.630938   1.000000   1.000000
  203      -39.628232    -39.627395   1.000000   1.000000
  204      -39.628157    -39.627319   1.000000   1.000000
  205      -39.628116    -39.627278   1.000000   1.000000
  206      -39.628072    -39.627233   1.000000   1.000000
  207      -39.627370    -39.626532   1.000000   1.000000
  208      -39.627132    -39.626295   1.000000   1.000000
  209      -39.626915    -39.626078   1.000000   1.000000
  210      -39.626052    -39.625213   1.000000   1.000000
  211      -39.616497    -39.615721   1.000000   1.000000
  212      -39.616422    -39.615646   1.000000   1.000000
  213      -39.616107    -39.615329   1.000000   1.000000
  214      -39.616048    -39.615272   1.000000   1.000000
  215      -39.615765    -39.614997   1.000000   1.000000
  216      -39.615762    -39.614987   1.000000   1.000000
  217      -39.615663    -39.614894   1.000000   1.000000
  218      -39.615643    -39.614869   1.000000   1.000000
  219      -39.615624    -39.614856   1.000000   1.000000
  220      -39.615527    -39.614760   1.000000   1.000000
  221      -39.615329    -39.614552   1.000000   1.000000
  222      -39.615290    -39.614521   1.000000   1.000000
  223      -39.615283    -39.614514   1.000000   1.000000
  224      -39.615234    -39.614458   1.000000   1.000000
  225      -39.615220    -39.614450   1.000000   1.000000
  226      -39.615205    -39.614436   1.000000   1.000000
  227      -39.614995    -39.614228   1.000000   1.000000
  228      -39.614928    -39.614161   1.000000   1.000000
  229      -39.614689    -39.613925   1.000000   1.000000
  230      -39.614652    -39.613891   1.000000   1.000000
  231      -39.614603    -39.613838   1.000000   1.000000
  232      -39.614569    -39.613809   1.000000   1.000000
  233      -39.614341    -39.613572   1.000000   1.000000
  234      -39.614297    -39.613530   1.000000   1.000000
  235      -39.614180    -39.613416   1.000000   1.000000
  236      -39.613411    -39.612642   1.000000   1.000000
  237      -39.612497    -39.611731   1.000000   1.000000
  238      -39.610752    -39.609988   1.000000   1.000000
  239      -39.604303    -39.603584   1.000000   1.000000
  240      -39.604203    -39.603484   1.000000   1.000000
  241      -39.604188    -39.603468   1.000000   1.000000
  242      -39.604145    -39.603426   1.000000   1.000000
  243      -39.603411    -39.602692   1.000000   1.000000
  244      -39.603165    -39.602445   1.000000   1.000000
  245      -39.602924    -39.602206   1.000000   1.000000
  246      -39.602485    -39.601765   1.000000   1.000000
  247      -39.600109    -39.599403   1.000000   1.000000
  248      -39.599980    -39.599274   1.000000   1.000000
  249      -39.599893    -39.599187   1.000000   1.000000
  250      -39.599765    -39.599059   1.000000   1.000000
  251      -39.599372    -39.598666   1.000000   1.000000
  252      -39.598931    -39.598225   1.000000   1.000000
  253      -39.598357    -39.597651   1.000000   1.000000
  254      -39.597224    -39.596517   1.000000   1.000000
  255      -39.593663    -39.592980   1.000000   1.000000
  256      -39.591821    -39.591135   1.000000   1.000000
  257      -12.747603    -12.468129   1.000000   1.000000
  258      -12.746556    -12.467054   1.000000   1.000000
  259      -12.720033    -12.440205   1.000000   1.000000
  260      -12.719747    -12.440018   1.000000   1.000000
  261      -12.719649    -12.439928   1.000000   1.000000
  262      -12.719500    -12.439757   1.000000   1.000000
  263      -12.719238    -12.439480   1.000000   1.000000
  264      -12.718865    -12.439091   1.000000   1.000000
  265      -12.718674    -12.438891   1.000000   1.000000
  266      -12.717914    -12.438090   1.000000   1.000000
  267      -12.697204    -12.417030   1.000000   1.000000
  268      -12.697052    -12.416886   1.000000   1.000000
  269      -12.695286    -12.415660   1.000000   1.000000
  270      -12.695038    -12.415440   1.000000   1.000000
  271      -12.694188    -12.414556   1.000000   1.000000
  272      -12.694075    -12.414433   1.000000   1.000000
  273      -12.692318    -12.413147   1.000000   1.000000
  274      -12.692233    -12.413120   1.000000   1.000000
  275      -12.691695    -12.411694   1.000000   1.000000
  276      -12.691532    -12.411510   1.000000   1.000000
  277      -12.690441    -12.410403   1.000000   1.000000
  278      -12.690399    -12.410352   1.000000   1.000000
  279      -12.672770    -12.392766   1.000000   1.000000
  280      -12.672631    -12.392622   1.000000   1.000000
  281      -12.672529    -12.392521   1.000000   1.000000
  282      -12.672472    -12.392456   1.000000   1.000000
  283      -12.667680    -12.388791   1.000000   1.000000
  284      -12.667487    -12.388580   1.000000   1.000000
  285      -12.667357    -12.388432   1.000000   1.000000
  286      -12.667013    -12.387992   1.000000   1.000000
  287      -12.654391    -12.374430   1.000000   1.000000
  288      -12.643576    -12.365820   1.000000   1.000000
  289       -7.799878     -7.598899   1.000000   1.000000
  290       -7.748107     -7.551401   1.000000   1.000000
  291       -7.505490     -7.319237   1.000000   1.000000
  292       -7.505427     -7.319170   1.000000   1.000000
  293       -7.505382     -7.319127   1.000000   1.000000
  294       -7.504814     -7.318606   1.000000   1.000000
  295       -7.501033     -7.308915   1.000000   1.000000
  296       -7.500964     -7.308849   1.000000   1.000000
  297       -7.500948     -7.308809   1.000000   1.000000
  298       -7.500248     -7.308188   1.000000   1.000000
  299       -7.315241     -7.117800   1.000000   1.000000
  300       -7.314952     -7.117532   1.000000   1.000000
  301       -7.297185     -7.093937   1.000000   1.000000
  302       -7.296642     -7.093373   1.000000   1.000000
  303       -7.296623     -7.093352   1.000000   1.000000
  304       -7.296470     -7.093222   1.000000   1.000000
  305       -7.269321     -7.062035   1.000000   1.000000
  306       -7.268901     -7.061646   1.000000   1.000000
  307       -7.088735     -6.894221   1.000000   1.000000
  308       -7.085002     -6.894209   1.000000   1.000000
  309       -7.084977     -6.893673   1.000000   1.000000
  310       -7.084481     -6.893418   1.000000   1.000000
  311       -7.084143     -6.796885   1.000000   1.000000
  312       -7.046647     -6.783915   1.000000   1.000000
  313       -7.000419     -6.768338   1.000000   1.000000
  314       -7.000164     -6.768308   1.000000   1.000000
  315       -7.000015     -6.767754   1.000000   1.000000
  316       -6.999872     -6.767253   1.000000   1.000000
  317       -6.999773     -6.766734   1.000000   1.000000
  318       -6.999669     -6.766476   1.000000   1.000000
  319       -6.999528     -6.766343   1.000000   1.000000
  320       -6.998793     -6.766185   1.000000   1.000000
  321       -6.994317     -6.766080   1.000000   1.000000
  322       -6.994289     -6.766001   1.000000   1.000000
  323       -6.994183     -6.765839   1.000000   1.000000
  324       -6.994165     -6.765198   1.000000   1.000000
  325       -6.956110     -6.745172   1.000000   1.000000
  326       -6.956083     -6.745009   1.000000   1.000000
  327       -6.955600     -6.744897   1.000000   1.000000
  328       -6.955015     -6.744889   1.000000   1.000000
  329       -6.948415     -6.697583   1.000000   1.000000
  330       -6.948367     -6.697568   1.000000   1.000000
  331       -6.928722     -6.689246   1.000000   1.000000
  332       -6.928702     -6.689191   1.000000   1.000000
  333       -6.928631     -6.689103   1.000000   1.000000
  334       -6.928579     -6.689086   1.000000   1.000000
  335       -6.911665     -6.639840   1.000000   1.000000
  336       -6.910977     -6.639436   1.000000   1.000000
  337       -6.886029     -6.639411   1.000000   1.000000
  338       -6.885953     -6.639127   1.000000   1.000000
  339       -6.885452     -6.639032   1.000000   1.000000
  340       -6.885322     -6.638984   1.000000   1.000000
  341       -6.877433     -6.638785   1.000000   1.000000
  342       -6.877198     -6.638776   1.000000   1.000000
  343       -6.877042     -6.638707   1.000000   1.000000
  344       -6.876915     -6.638303   1.000000   1.000000
  345       -6.876821     -6.638169   1.000000   1.000000
  346       -6.876710     -6.637212   1.000000   1.000000
  347       -6.876577     -6.628434   1.000000   1.000000
  348       -6.875187     -6.627776   1.000000   1.000000
  349       -6.832694     -6.586746   1.000000   1.000000
  350       -6.832517     -6.586628   1.000000   1.000000
  351       -6.794609     -6.499458   1.000000   1.000000
  352       -6.793774     -6.498642   1.000000   1.000000
  353       -1.525480     -0.414832   1.000000   1.000000
  354       -1.467741     -0.414695   1.000000   1.000000
  355       -1.467716     -0.414325   1.000000   1.000000
  356       -1.467627     -0.414217   1.000000   1.000000
  357       -1.467483      0.026272   1.000000   1.000000
  358       -1.460490      0.026295   1.000000   1.000000
  359       -1.460319      0.026414   1.000000   1.000000
  360       -1.460133      0.026974   1.000000   1.000000
  361       -1.459995      0.037637   1.000000   1.000000
  362       -1.421375      0.037694   1.000000   1.000000
  363       -1.421309      0.037842   1.000000   1.000000
  364       -1.383099      0.037889   1.000000   1.000000
  365       -1.382925      0.038142   1.000000   1.000000
  366       -1.382515      0.038335   1.000000   1.000000
  367       -1.382495      0.038423   1.000000   1.000000
  368       -1.333075      0.038627   1.000000   1.000000
  369       -1.332798      0.102937   1.000000   1.000000
  370       -1.332607      0.103111   1.000000   1.000000
  371       -1.332574      0.207294   1.000000   1.000000
  372       -1.332501      0.207334   1.000000   1.000000
  373       -1.332455      0.207836   1.000000   1.000000
  374       -1.332201      0.208050   1.000000   1.000000
  375       -1.331736      0.304382   1.000000   1.000000
  376       -1.292549      0.392500   1.000000   1.000000
  377       -1.292501      0.392599   1.000000   1.000000
  378       -1.292438      0.392752   1.000000   1.000000
  379       -1.292355      0.392906   1.000000   1.000000
  380       -1.257109      0.490872   1.000000   1.000000
  381       -1.256465      0.490948   1.000000   1.000000
  382       -1.232220      0.497470   1.000000   1.000000
  383       -1.232110      0.497650   1.000000   1.000000
  384       -1.220383      0.497753   1.000000   1.000000
  385       -0.822960      0.497789   1.000000   1.000000
  386       -0.822739      0.510652   1.000000   1.000000
  387       -0.822608      0.510721   1.000000   1.000000
  388       -0.822510      0.530947   1.000000   1.000000
  389       -0.722670      0.531036   1.000000   1.000000
  390       -0.722602      0.531495   1.000000   1.000000
  391       -0.699191      0.531569   1.000000   1.000000
  392       -0.699122      0.574065   1.000000   1.000000
  393       -0.699040      0.574105   1.000000   1.000000
  394       -0.698921      0.574154   1.000000   1.000000
  395       -0.688756      0.574174   1.000000   1.000000
  396       -0.688415      0.574510   1.000000   1.000000
  397       -0.688238      0.574524   1.000000   1.000000
  398       -0.687957      0.574683   1.000000   1.000000
  399       -0.666761      0.574797   1.000000   1.000000
  400       -0.666703      0.638752   1.000000   1.000000
  401       -0.666425      0.666202   1.000000   1.000000
  402       -0.666399      0.666384   1.000000   1.000000
  403       -0.651983      0.732778   1.000000   1.000000
  404       -0.651920      0.733639   1.000000   1.000000
  405       -0.651826      0.931270   1.000000   1.000000
  406       -0.651714      0.932452   1.000000   1.000000
  407       -0.589481      0.935581   1.000000   1.000000
  408       -0.589336      0.935645   1.000000   1.000000
  409       -0.576753      0.948754   1.000000   1.000000
  410       -0.576676      0.948889   1.000000   1.000000
  411       -0.576439      0.948983   1.000000   1.000000
  412       -0.576380      0.949028   1.000000   1.000000
  413       -0.553464      0.985945   1.000000   1.000000
  414       -0.553381      0.986007   1.000000   1.000000
  415       -0.553089      0.986371   1.000000   1.000000
  416       -0.553044      0.986470   1.000000   1.000000
  417       -0.497739      0.992901   1.000000   1.000000
  418       -0.496986      0.993094   1.000000   1.000000
  419       -0.472966      1.008734   1.000000   1.000000
  420       -0.472735      1.008766   1.000000   1.000000
  421       -0.461777      1.009188   1.000000   1.000000
  422       -0.461637      1.009281   1.000000   1.000000
  423       -0.461354      1.018365   1.000000   1.000000
  424       -0.461278      1.049105   1.000000   1.000000
  425       -0.459909      1.049319   1.000000   1.000000
  426       -0.459758      1.051622   1.000000   1.000000
  427       -0.459474      1.051692   1.000000   1.000000
  428       -0.459381      1.051757   1.000000   1.000000
  429       -0.410197      1.052020   1.000000   1.000000
  430       -0.409995      1.078672   1.000000   1.000000
  431       -0.407937      1.078814   1.000000   1.000000
  432       -0.407753      1.078852   1.000000   1.000000
  433       -0.407634      1.078929   1.000000   1.000000
  434       -0.407383      1.079655   1.000000   1.000000
  435       -0.407316      1.079724   1.000000   1.000000
  436       -0.407133      1.080096   1.000000   1.000000
  437       -0.383333      1.080109   1.000000   1.000000
  438       -0.383330      1.192661   1.000000   1.000000
  439       -0.378034      1.192960   1.000000   1.000000
  440       -0.368796      1.376498   1.000000   1.000000
  441       -0.368783      1.390403   1.000000   1.000000
  442       -0.368758      1.391075   1.000000   1.000000
  443       -0.368707      1.391285   1.000000   1.000000
  444       -0.368701      1.391491   1.000000   1.000000
  445       -0.368666      1.391632   1.000000   1.000000
  446       -0.368441      1.437323   1.000000   1.000000
  447       -0.368399      1.450219   1.000000   1.000000
  448       -0.353657      1.526351   1.000000   1.000000
  449       -0.353465      1.526368   1.000000   1.000000
  450       -0.349104      1.526414   1.000000   1.000000
  451       -0.341850      1.526479   1.000000   1.000000
  452       -0.336005      1.528988   1.000000   1.000000
  453       -0.335662      1.529044   1.000000   1.000000
  454       -0.335606      1.529176   1.000000   1.000000
  455       -0.335241      1.529267   1.000000   1.000000
  456       -0.334467      1.558030   1.000000   1.000000
  457       -0.334339      1.558114   1.000000   1.000000
  458       -0.334038      1.558679   1.000000   1.000000
  459       -0.333842      1.558706   1.000000   1.000000
  460       -0.324395      1.566585   1.000000   1.000000
  461       -0.324326      1.566696   1.000000   1.000000
  462       -0.323968      1.566930   1.000000   1.000000
  463       -0.323921      1.567215   1.000000   1.000000
  464       -0.321725      1.568229   1.000000   1.000000
  465       -0.321629      1.568576   1.000000   1.000000
  466       -0.321244      1.568620   1.000000   1.000000
  467       -0.321149      1.568997   1.000000   1.000000
  468       -0.303904      1.586548   1.000000   1.000000
  469       -0.295985      1.586880   1.000000   1.000000
  470       -0.287988      1.695703   1.000000   1.000000
  471       -0.287908      1.695940   1.000000   1.000000
  472       -0.287876      1.741087   1.000000   1.000000
  473       -0.287556      1.741130   1.000000   1.000000
  474       -0.280488      1.741246   1.000000   1.000000
  475       -0.280379      1.741513   1.000000   1.000000
  476       -0.275247      1.746460   1.000000   1.000000
  477       -0.275009      1.746497   1.000000   1.000000
  478       -0.274952      1.747519   1.000000   1.000000
  479       -0.274670      1.747584   1.000000   1.000000
  480       -0.241856      1.779105   1.000000   1.000000
  481       -0.241679      1.780635   1.000000   1.000000
  482       -0.241602      1.780657   1.000000   1.000000
  483       -0.241518      1.836819   1.000000   1.000000
  484       -0.241498      1.837004   1.000000   1.000000
  485       -0.241327      1.837317   1.000000   1.000000
  486       -0.241221      1.837469   1.000000   1.000000
  487       -0.241113      1.837539   1.000000   1.000000
  488       -0.207363      1.838180   1.000000   1.000000
  489       -0.207357      1.838410   1.000000   1.000000
  490       -0.199862      1.839039   1.000000   1.000000
  491       -0.199631      1.866002   1.000000   1.000000
  492       -0.199500      1.866553   1.000000   1.000000
  493       -0.199282      1.913294   1.000000   1.000000
  494       -0.194190      1.913366   1.000000   1.000000
  495       -0.194024      1.913406   1.000000   1.000000
  496       -0.164018      1.913432   1.000000   1.000000
  497       -0.163904      1.913792   1.000000   1.000000
  498       -0.163778      1.913890   1.000000   1.000000
  499       -0.163676      1.914050   1.000000   1.000000
  500       -0.156760      1.914153   1.000000   1.000000
  501       -0.156661      1.926833   1.000000   1.000000
  502       -0.156273      1.926870   1.000000   1.000000
  503       -0.156167      1.927088   1.000000   1.000000
  504       -0.139311      1.927594   1.000000   1.000000
  505       -0.138987      2.133229   1.000000   1.000000
  506       -0.138928      2.133258   1.000000   1.000000
  507       -0.138728      2.190998   1.000000   1.000000
  508       -0.090991      2.192928   1.000000   1.000000
  509       -0.090966      2.300508   1.000000   1.000000
  510       -0.082628      2.300838   1.000000   1.000000
  511       -0.082597      2.300919   1.000000   1.000000
  512       -0.082559      2.301292   1.000000   1.000000