 120 120   0   0
  0.1228332E+02  0.1173587E-08  0.1121847E-08  0.1119562E-08  0.5000000E-15
  1.000000000000000E-004
  CAR 
 unknown system                          
     16.72085531    -54.72991286  301      4.39559780      1.00000000
    -54.730  0.0000E+00  0.0000E+00  0.0000E+00  0.0000E+00
    -54.492  0.0000E+00  0.0000E+00  0.0000E+00  0.0000E+00
    -54.254  0.0000E+00  0.0000E+00  0.0000E+00  0.0000E+00
    -54.015  0.0000E+00  0.0000E+00  0.0000E+00  0.0000E+00
    -53.777  0.0000E+00  0.0000E+00  0.0000E+00  0.0000E+00
    -53.539  0.0000E+00  0.0000E+00  0.0000E+00  0.0000E+00
    -53.301  0.0000E+00  0.0000E+00  0.0000E+00  0.0000E+00
    -53.063  0.0000E+00  0.0000E+00  0.0000E+00  0.0000E+00
    -52.825  0.0000E+00  0.0000E+00  0.0000E+00  0.0000E+00
    -52.586  0.0000E+00  0.0000E+00  0.0000E+00  0.0000E+00
    -52.348  0.0000E+00  0.0000E+00  0.0000E+00  0.0000E+00
    -52.110  0.0000E+00  0.0000E+00  0.0000E+00  0.0000E+00
    -51.872  0.0000E+00  0.0000E+00  0.0000E+00  0.0000E+00
    -51.634  0.2720E-03  0.0000E+00  0.6478E-04  0.0000E+00
    -51.396  0.9796E+02  0.0000E+00  0.2333E+02  0.0000E+00
    -51.157  0.2805E+01  0.0000E+00  0.2400E+02  0.0000E+00
    -50.919  0.0000E+00  0.0000E+00  0.2400E+02  0.0000E+00
    -50.681  0.0000E+00  0.0000E+00  0.2400E+02  0.0000E+00
    -50.443  0.2653E-09  0.0000E+00  0.2400E+02  0.0000E+00
    -50.205  0.4348E+02  0.0000E+00  0.3436E+02  0.0000E+00
    -49.967  0.1318E+03  0.0000E+00  0.6576E+02  0.0000E+00
    -49.728  0.2622E+02  0.0000E+00  0.7200E+02  0.0000E+00
    -49.490  0.0000E+00  0.0000E+00  0.7200E+02  0.0000E+00
    -49.252  0.0000E+00  0.0000E+00  0.7200E+02  0.0000E+00
    -49.014  0.0000E+00  0.0000E+00  0.7200E+02  0.0000E+00
    -48.776  0.0000E+00  0.0000E+00  0.7200E+02  0.0000E+00
    -48.538  0.0000E+00  0.0000E+00  0.7200E+02  0.0000E+00
    -48.299  0.0000E+00  0.0000E+00  0.7200E+02  0.0000E+00
    -48.061  0.0000E+00  0.0000E+00  0.7200E+02  0.0000E+00
    -47.823  0.0000E+00  0.0000E+00  0.7200E+02  0.0000E+00
    -47.585  0.0000E+00  0.0000E+00  0.7200E+02  0.0000E+00
    -47.347  0.0000E+00  0.0000E+00  0.7200E+02  0.0000E+00
    -47.108  0.0000E+00  0.0000E+00  0.7200E+02  0.0000E+00
    -46.870  0.0000E+00  0.6081E-01  0.7200E+02  0.1448E-01
    -46.632  0.0000E+00  0.1006E+03  0.7200E+02  0.2397E+02
    -46.394  0.0000E+00  0.9528E+02  0.7200E+02  0.4667E+02
    -46.156  0.0000E+00  0.1064E+03  0.7200E+02  0.7200E+02
    -45.918  0.0000E+00  0.0000E+00  0.7200E+02  0.7200E+02
    -45.679  0.0000E+00  0.0000E+00  0.7200E+02  0.7200E+02
    -45.441  0.0000E+00  0.0000E+00  0.7200E+02  0.7200E+02
    -45.203  0.0000E+00  0.0000E+00  0.7200E+02  0.7200E+02
    -44.965  0.0000E+00  0.0000E+00  0.7200E+02  0.7200E+02
    -44.727  0.0000E+00  0.0000E+00  0.7200E+02  0.7200E+02
    -44.489  0.0000E+00  0.0000E+00  0.7200E+02  0.7200E+02
    -44.250  0.0000E+00  0.0000E+00  0.7200E+02  0.7200E+02
    -44.012  0.0000E+00  0.0000E+00  0.7200E+02  0.7200E+02
    -43.774  0.0000E+00  0.0000E+00  0.7200E+02  0.7200E+02
    -43.536  0.0000E+00  0.0000E+00  0.7200E+02  0.7200E+02
    -43.298  0.0000E+00  0.0000E+00  0.7200E+02  0.7200E+02
    -43.060  0.0000E+00  0.0000E+00  0.7200E+02  0.7200E+02
    -42.821  0.0000E+00  0.0000E+00  0.7200E+02  0.7200E+02
    -42.583  0.0000E+00  0.0000E+00  0.7200E+02  0.7200E+02
    -42.345  0.0000E+00  0.0000E+00  0.7200E+02  0.7200E+02
    -42.107  0.0000E+00  0.0000E+00  0.7200E+02  0.7200E+02
    -41.869  0.0000E+00  0.0000E+00  0.7200E+02  0.7200E+02
    -41.631  0.0000E+00  0.0000E+00  0.7200E+02  0.7200E+02
    -41.392  0.0000E+00  0.0000E+00  0.7200E+02  0.7200E+02
    -41.154  0.0000E+00  0.0000E+00  0.7200E+02  0.7200E+02
    -40.916  0.0000E+00  0.0000E+00  0.7200E+02  0.7200E+02
    -40.678  0.2142E-03  0.6506E-04  0.7200E+02  0.7200E+02
    -40.440  0.9870E+02  0.9715E+02  0.9551E+02  0.9514E+02
    -40.202  0.1027E+03  0.1042E+03  0.1200E+03  0.1200E+03
    -39.963  0.1756E+00  0.1790E+00  0.1200E+03  0.1200E+03
    -39.725  0.0000E+00  0.0000E+00  0.1200E+03  0.1200E+03
    -39.487  0.0000E+00  0.0000E+00  0.1200E+03  0.1200E+03
    -39.249  0.0000E+00  0.0000E+00  0.1200E+03  0.1200E+03
    -39.011  0.0000E+00  0.0000E+00  0.1200E+03  0.1200E+03
    -38.773  0.0000E+00  0.0000E+00  0.1200E+03  0.1200E+03
    -38.534  0.0000E+00  0.0000E+00  0.1200E+03  0.1200E+03
    -38.296  0.0000E+00  0.0000E+00  0.1200E+03  0.1200E+03
    -38.058  0.0000E+00  0.0000E+00  0.1200E+03  0.1200E+03
    -37.820  0.0000E+00  0.0000E+00  0.1200E+03  0.1200E+03
    -37.582  0.0000E+00  0.0000E+00  0.1200E+03  0.1200E+03
    -37.344  0.0000E+00  0.0000E+00  0.1200E+03  0.1200E+03
    -37.105  0.0000E+00  0.0000E+00  0.1200E+03  0.1200E+03
    -36.867  0.0000E+00  0.0000E+00  0.1200E+03  0.1200E+03
    -36.629  0.0000E+00  0.0000E+00  0.1200E+03  0.1200E+03
    -36.391  0.0000E+00  0.0000E+00  0.1200E+03  0.1200E+03
    -36.153  0.0000E+00  0.0000E+00  0.1200E+03  0.1200E+03
    -35.915  0.0000E+00  0.0000E+00  0.1200E+03  0.1200E+03
    -35.676  0.0000E+00  0.0000E+00  0.1200E+03  0.1200E+03
    -35.438  0.0000E+00  0.0000E+00  0.1200E+03  0.1200E+03
    -35.200  0.0000E+00  0.0000E+00  0.1200E+03  0.1200E+03
    -34.962  0.0000E+00  0.0000E+00  0.1200E+03  0.1200E+03
    -34.724  0.0000E+00  0.0000E+00  0.1200E+03  0.1200E+03
    -34.486  0.0000E+00  0.0000E+00  0.1200E+03  0.1200E+03
    -34.247  0.0000E+00  0.0000E+00  0.1200E+03  0.1200E+03
    -34.009  0.0000E+00  0.0000E+00  0.1200E+03  0.1200E+03
    -33.771  0.0000E+00  0.0000E+00  0.1200E+03  0.1200E+03
    -33.533  0.0000E+00  0.0000E+00  0.1200E+03  0.1200E+03
    -33.295  0.0000E+00  0.0000E+00  0.1200E+03  0.1200E+03
    -33.057  0.0000E+00  0.0000E+00  0.1200E+03  0.1200E+03
    -32.818  0.0000E+00  0.0000E+00  0.1200E+03  0.1200E+03
    -32.580  0.0000E+00  0.0000E+00  0.1200E+03  0.1200E+03
    -32.342  0.0000E+00  0.0000E+00  0.1200E+03  0.1200E+03
    -32.104  0.0000E+00  0.0000E+00  0.1200E+03  0.1200E+03
    -31.866  0.0000E+00  0.0000E+00  0.1200E+03  0.1200E+03
    -31.627  0.0000E+00  0.0000E+00  0.1200E+03  0.1200E+03
    -31.389  0.0000E+00  0.0000E+00  0.1200E+03  0.1200E+03
    -31.151  0.0000E+00  0.0000E+00  0.1200E+03  0.1200E+03
    -30.913  0.0000E+00  0.0000E+00  0.1200E+03  0.1200E+03
    -30.675  0.0000E+00  0.0000E+00  0.1200E+03  0.1200E+03
    -30.437  0.0000E+00  0.0000E+00  0.1200E+03  0.1200E+03
    -30.198  0.0000E+00  0.0000E+00  0.1200E+03  0.1200E+03
    -29.960  0.0000E+00  0.0000E+00  0.1200E+03  0.1200E+03
    -29.722  0.0000E+00  0.0000E+00  0.1200E+03  0.1200E+03
    -29.484  0.0000E+00  0.0000E+00  0.1200E+03  0.1200E+03
    -29.246  0.0000E+00  0.0000E+00  0.1200E+03  0.1200E+03
    -29.008  0.0000E+00  0.0000E+00  0.1200E+03  0.1200E+03
    -28.769  0.0000E+00  0.0000E+00  0.1200E+03  0.1200E+03
    -28.531  0.0000E+00  0.0000E+00  0.1200E+03  0.1200E+03
    -28.293  0.0000E+00  0.0000E+00  0.1200E+03  0.1200E+03
    -28.055  0.0000E+00  0.0000E+00  0.1200E+03  0.1200E+03
    -27.817  0.0000E+00  0.0000E+00  0.1200E+03  0.1200E+03
    -27.579  0.0000E+00  0.0000E+00  0.1200E+03  0.1200E+03
    -27.340  0.0000E+00  0.0000E+00  0.1200E+03  0.1200E+03
    -27.102  0.0000E+00  0.0000E+00  0.1200E+03  0.1200E+03
    -26.864  0.0000E+00  0.0000E+00  0.1200E+03  0.1200E+03
    -26.626  0.0000E+00  0.0000E+00  0.1200E+03  0.1200E+03
    -26.388  0.0000E+00  0.0000E+00  0.1200E+03  0.1200E+03
    -26.150  0.0000E+00  0.0000E+00  0.1200E+03  0.1200E+03
    -25.911  0.0000E+00  0.0000E+00  0.1200E+03  0.1200E+03
    -25.673  0.0000E+00  0.0000E+00  0.1200E+03  0.1200E+03
    -25.435  0.0000E+00  0.0000E+00  0.1200E+03  0.1200E+03
    -25.197  0.0000E+00  0.0000E+00  0.1200E+03  0.1200E+03
    -24.959  0.0000E+00  0.0000E+00  0.1200E+03  0.1200E+03
    -24.721  0.0000E+00  0.0000E+00  0.1200E+03  0.1200E+03
    -24.482  0.0000E+00  0.0000E+00  0.1200E+03  0.1200E+03
    -24.244  0.0000E+00  0.0000E+00  0.1200E+03  0.1200E+03
    -24.006  0.0000E+00  0.0000E+00  0.1200E+03  0.1200E+03
    -23.768  0.0000E+00  0.0000E+00  0.1200E+03  0.1200E+03
    -23.530  0.0000E+00  0.0000E+00  0.1200E+03  0.1200E+03
    -23.292  0.0000E+00  0.0000E+00  0.1200E+03  0.1200E+03
    -23.053  0.0000E+00  0.0000E+00  0.1200E+03  0.1200E+03
    -22.815  0.0000E+00  0.0000E+00  0.1200E+03  0.1200E+03
    -22.577  0.0000E+00  0.0000E+00  0.1200E+03  0.1200E+03
    -22.339  0.0000E+00  0.0000E+00  0.1200E+03  0.1200E+03
    -22.101  0.0000E+00  0.0000E+00  0.1200E+03  0.1200E+03
    -21.863  0.0000E+00  0.0000E+00  0.1200E+03  0.1200E+03
    -21.624  0.0000E+00  0.0000E+00  0.1200E+03  0.1200E+03
    -21.386  0.0000E+00  0.0000E+00  0.1200E+03  0.1200E+03
    -21.148  0.0000E+00  0.0000E+00  0.1200E+03  0.1200E+03
    -20.910  0.0000E+00  0.0000E+00  0.1200E+03  0.1200E+03
    -20.672  0.0000E+00  0.0000E+00  0.1200E+03  0.1200E+03
    -20.434  0.0000E+00  0.0000E+00  0.1200E+03  0.1200E+03
    -20.195  0.0000E+00  0.0000E+00  0.1200E+03  0.1200E+03
    -19.957  0.0000E+00  0.0000E+00  0.1200E+03  0.1200E+03
    -19.719  0.0000E+00  0.0000E+00  0.1200E+03  0.1200E+03
    -19.481  0.0000E+00  0.0000E+00  0.1200E+03  0.1200E+03
    -19.243  0.0000E+00  0.0000E+00  0.1200E+03  0.1200E+03
    -19.005  0.0000E+00  0.0000E+00  0.1200E+03  0.1200E+03
    -18.766  0.0000E+00  0.0000E+00  0.1200E+03  0.1200E+03
    -18.528  0.0000E+00  0.0000E+00  0.1200E+03  0.1200E+03
    -18.290  0.0000E+00  0.0000E+00  0.1200E+03  0.1200E+03
    -18.052  0.0000E+00  0.0000E+00  0.1200E+03  0.1200E+03
    -17.814  0.0000E+00  0.0000E+00  0.1200E+03  0.1200E+03
    -17.576  0.0000E+00  0.0000E+00  0.1200E+03  0.1200E+03
    -17.337  0.0000E+00  0.0000E+00  0.1200E+03  0.1200E+03
    -17.099  0.0000E+00  0.0000E+00  0.1200E+03  0.1200E+03
    -16.861  0.0000E+00  0.0000E+00  0.1200E+03  0.1200E+03
    -16.623  0.0000E+00  0.0000E+00  0.1200E+03  0.1200E+03
    -16.385  0.0000E+00  0.0000E+00  0.1200E+03  0.1200E+03
    -16.146  0.0000E+00  0.0000E+00  0.1200E+03  0.1200E+03
    -15.908  0.0000E+00  0.0000E+00  0.1200E+03  0.1200E+03
    -15.670  0.0000E+00  0.0000E+00  0.1200E+03  0.1200E+03
    -15.432  0.0000E+00  0.0000E+00  0.1200E+03  0.1200E+03
    -15.194  0.0000E+00  0.0000E+00  0.1200E+03  0.1200E+03
    -14.956  0.0000E+00  0.0000E+00  0.1200E+03  0.1200E+03
    -14.717  0.0000E+00  0.0000E+00  0.1200E+03  0.1200E+03
    -14.479  0.0000E+00  0.0000E+00  0.1200E+03  0.1200E+03
    -14.241  0.0000E+00  0.0000E+00  0.1200E+03  0.1200E+03
    -14.003  0.0000E+00  0.0000E+00  0.1200E+03  0.1200E+03
    -13.765  0.4906E-09  0.0000E+00  0.1200E+03  0.1200E+03
    -13.527  0.7529E+01  0.3453E-16  0.1218E+03  0.1200E+03
    -13.288  0.5983E+02  0.2213E+00  0.1360E+03  0.1201E+03
    -13.050  0.3341E+02  0.6516E+02  0.1440E+03  0.1356E+03
    -12.812  0.5055E-03  0.3539E+02  0.1440E+03  0.1440E+03
    -12.574  0.0000E+00  0.7227E-04  0.1440E+03  0.1440E+03
    -12.336  0.0000E+00  0.0000E+00  0.1440E+03  0.1440E+03
    -12.098  0.0000E+00  0.0000E+00  0.1440E+03  0.1440E+03
    -11.859  0.0000E+00  0.0000E+00  0.1440E+03  0.1440E+03
    -11.621  0.0000E+00  0.0000E+00  0.1440E+03  0.1440E+03
    -11.383  0.0000E+00  0.0000E+00  0.1440E+03  0.1440E+03
    -11.145  0.0000E+00  0.0000E+00  0.1440E+03  0.1440E+03
    -10.907  0.0000E+00  0.0000E+00  0.1440E+03  0.1440E+03
    -10.669  0.0000E+00  0.0000E+00  0.1440E+03  0.1440E+03
    -10.430  0.0000E+00  0.0000E+00  0.1440E+03  0.1440E+03
    -10.192  0.0000E+00  0.0000E+00  0.1440E+03  0.1440E+03
     -9.954  0.0000E+00  0.0000E+00  0.1440E+03  0.1440E+03
     -9.716  0.0000E+00  0.0000E+00  0.1440E+03  0.1440E+03
     -9.478  0.0000E+00  0.0000E+00  0.1440E+03  0.1440E+03
     -9.240  0.0000E+00  0.0000E+00  0.1440E+03  0.1440E+03
     -9.001  0.0000E+00  0.0000E+00  0.1440E+03  0.1440E+03
     -8.763  0.0000E+00  0.0000E+00  0.1440E+03  0.1440E+03
     -8.525  0.0000E+00  0.0000E+00  0.1440E+03  0.1440E+03
     -8.287  0.0000E+00  0.0000E+00  0.1440E+03  0.1440E+03
     -8.049  0.0000E+00  0.0000E+00  0.1440E+03  0.1440E+03
     -7.811  0.7030E-02  0.6043E-16  0.1440E+03  0.1440E+03
     -7.572  0.1752E+02  0.8708E-01  0.1482E+03  0.1440E+03
     -7.334  0.4748E+02  0.2778E+02  0.1595E+03  0.1506E+03
     -7.096  0.3468E+02  0.4937E+02  0.1677E+03  0.1624E+03
     -6.858  0.1079E+01  0.2271E+02  0.1680E+03  0.1678E+03
     -6.620  0.0000E+00  0.8163E+00  0.1680E+03  0.1680E+03
     -6.382  0.0000E+00  0.0000E+00  0.1680E+03  0.1680E+03
     -6.143  0.0000E+00  0.0000E+00  0.1680E+03  0.1680E+03
     -5.905  0.0000E+00  0.0000E+00  0.1680E+03  0.1680E+03
     -5.667  0.0000E+00  0.0000E+00  0.1680E+03  0.1680E+03
     -5.429  0.0000E+00  0.0000E+00  0.1680E+03  0.1680E+03
     -5.191  0.0000E+00  0.0000E+00  0.1680E+03  0.1680E+03
     -4.953  0.0000E+00  0.0000E+00  0.1680E+03  0.1680E+03
     -4.714  0.0000E+00  0.0000E+00  0.1680E+03  0.1680E+03
     -4.476  0.0000E+00  0.0000E+00  0.1680E+03  0.1680E+03
     -4.238  0.0000E+00  0.0000E+00  0.1680E+03  0.1680E+03
     -4.000  0.0000E+00  0.0000E+00  0.1680E+03  0.1680E+03
     -3.762  0.0000E+00  0.0000E+00  0.1680E+03  0.1680E+03
     -3.524  0.0000E+00  0.0000E+00  0.1680E+03  0.1680E+03
     -3.285  0.0000E+00  0.0000E+00  0.1680E+03  0.1680E+03
     -3.047  0.0000E+00  0.0000E+00  0.1680E+03  0.1680E+03
     -2.809  0.0000E+00  0.0000E+00  0.1680E+03  0.1680E+03
     -2.571  0.0000E+00  0.0000E+00  0.1680E+03  0.1680E+03
     -2.333  0.0000E+00  0.0000E+00  0.1680E+03  0.1680E+03
     -2.095  0.8202E-06  0.0000E+00  0.1680E+03  0.1680E+03
     -1.856  0.6858E+01  0.0000E+00  0.1696E+03  0.1680E+03
     -1.618  0.5711E+02  0.0000E+00  0.1832E+03  0.1680E+03
     -1.380  0.4312E+02  0.0000E+00  0.1935E+03  0.1680E+03
     -1.142  0.3209E+02  0.0000E+00  0.2011E+03  0.1680E+03
     -0.904  0.5299E+02  0.6464E-09  0.2138E+03  0.1680E+03
     -0.665  0.5380E+02  0.1492E+01  0.2266E+03  0.1684E+03
     -0.427  0.6626E+02  0.1657E+02  0.2424E+03  0.1723E+03
     -0.189  0.5552E+02  0.3857E+02  0.2556E+03  0.1815E+03
      0.049  0.3414E+02  0.3591E+02  0.2637E+03  0.1900E+03
      0.287  0.5469E+02  0.2182E+02  0.2767E+03  0.1952E+03
      0.525  0.4826E+02  0.4859E+02  0.2882E+03  0.2068E+03
      0.764  0.3256E+02  0.4817E+02  0.2960E+03  0.2183E+03
      1.002  0.4971E+02  0.6825E+02  0.3078E+03  0.2345E+03
      1.240  0.4807E+02  0.2784E+02  0.3193E+03  0.2412E+03
      1.478  0.5467E+02  0.2228E+02  0.3323E+03  0.2465E+03
      1.716  0.6192E+02  0.3752E+02  0.3470E+03  0.2554E+03
      1.954  0.3500E+02  0.4609E+02  0.3554E+03  0.2664E+03
      2.193  0.2512E+02  0.3000E+02  0.3614E+03  0.2735E+03
      2.431  0.1316E+02  0.3590E+02  0.3645E+03  0.2821E+03
      2.669  0.3760E+02  0.2528E+02  0.3735E+03  0.2881E+03
      2.907  0.3844E+02  0.4563E+02  0.3826E+03  0.2990E+03
      3.145  0.3006E+02  0.4185E+02  0.3898E+03  0.3089E+03
      3.383  0.4342E+02  0.1535E+02  0.4001E+03  0.3126E+03
      3.622  0.5305E+02  0.2889E+02  0.4127E+03  0.3195E+03
      3.860  0.4802E+02  0.5773E+02  0.4242E+03  0.3332E+03
      4.098  0.3024E+02  0.1166E+02  0.4314E+03  0.3360E+03
      4.336  0.2579E+01  0.2583E-04  0.4320E+03  0.3360E+03
      4.574  0.0000E+00  0.0000E+00  0.4320E+03  0.3360E+03
      4.812  0.0000E+00  0.0000E+00  0.4320E+03  0.3360E+03
      5.051  0.0000E+00  0.0000E+00  0.4320E+03  0.3360E+03
      5.289  0.0000E+00  0.0000E+00  0.4320E+03  0.3360E+03
      5.527  0.0000E+00  0.0000E+00  0.4320E+03  0.3360E+03
      5.765  0.0000E+00  0.0000E+00  0.4320E+03  0.3360E+03
      6.003  0.0000E+00  0.1915E-02  0.4320E+03  0.3360E+03
      6.241  0.0000E+00  0.1760E+01  0.4320E+03  0.3364E+03
      6.480  0.0000E+00  0.1294E+02  0.4320E+03  0.3395E+03
      6.718  0.0000E+00  0.2680E+02  0.4320E+03  0.3459E+03
      6.956  0.0000E+00  0.2485E+02  0.4320E+03  0.3518E+03
      7.194  0.2776E-05  0.5566E+02  0.4320E+03  0.3651E+03
      7.432  0.1548E+00  0.7719E+02  0.4320E+03  0.3834E+03
      7.670  0.6643E+00  0.2988E+02  0.4322E+03  0.3906E+03
      7.909  0.1409E+01  0.4080E+02  0.4325E+03  0.4003E+03
      8.147  0.4767E+01  0.7651E+02  0.4337E+03  0.4185E+03
      8.385  0.6756E+01  0.5271E+02  0.4353E+03  0.4310E+03
      8.623  0.1578E+02  0.4385E+01  0.4390E+03  0.4321E+03
      8.861  0.2362E+02  0.1046E+01  0.4447E+03  0.4323E+03
      9.099  0.1955E+02  0.4397E+01  0.4493E+03  0.4334E+03
      9.338  0.1942E+02  0.1023E+02  0.4539E+03  0.4358E+03
      9.576  0.2004E+02  0.2038E+02  0.4587E+03  0.4407E+03
      9.814  0.2432E+02  0.2865E+02  0.4645E+03  0.4475E+03
     10.052  0.2223E+02  0.3000E+02  0.4698E+03  0.4546E+03
     10.290  0.1771E+02  0.3035E+02  0.4740E+03  0.4619E+03
     10.528  0.2443E+02  0.2586E+02  0.4798E+03  0.4680E+03
     10.767  0.1562E+02  0.2605E+02  0.4836E+03  0.4742E+03
     11.005  0.2639E+02  0.2483E+02  0.4898E+03  0.4802E+03
     11.243  0.4524E+02  0.1001E+02  0.5006E+03  0.4825E+03
     11.481  0.4882E+02  0.2543E+02  0.5122E+03  0.4886E+03
     11.719  0.3590E+02  0.2938E+02  0.5208E+03  0.4956E+03
     11.957  0.2021E+02  0.5708E+02  0.5256E+03  0.5092E+03
     12.196  0.2096E+02  0.4470E+02  0.5306E+03  0.5198E+03
     12.434  0.2923E+02  0.2720E+02  0.5376E+03  0.5263E+03
     12.672  0.3321E+02  0.2352E+02  0.5455E+03  0.5319E+03
     12.910  0.1977E+02  0.2796E+02  0.5502E+03  0.5386E+03
     13.148  0.7575E+01  0.3290E+02  0.5520E+03  0.5464E+03
     13.386  0.8342E-01  0.1961E+02  0.5520E+03  0.5511E+03
     13.625  0.0000E+00  0.3894E+01  0.5520E+03  0.5520E+03
     13.863  0.0000E+00  0.4673E-05  0.5520E+03  0.5520E+03
     14.101  0.0000E+00  0.0000E+00  0.5520E+03  0.5520E+03
     14.339  0.0000E+00  0.0000E+00  0.5520E+03  0.5520E+03
     14.577  0.0000E+00  0.0000E+00  0.5520E+03  0.5520E+03
     14.816  0.0000E+00  0.0000E+00  0.5520E+03  0.5520E+03
     15.054  0.0000E+00  0.0000E+00  0.5520E+03  0.5520E+03
     15.292  0.0000E+00  0.0000E+00  0.5520E+03  0.5520E+03
     15.530  0.0000E+00  0.0000E+00  0.5520E+03  0.5520E+03
     15.768  0.0000E+00  0.0000E+00  0.5520E+03  0.5520E+03
     16.006  0.0000E+00  0.0000E+00  0.5520E+03  0.5520E+03
     16.245  0.0000E+00  0.0000E+00  0.5520E+03  0.5520E+03
     16.483  0.0000E+00  0.0000E+00  0.5520E+03  0.5520E+03
     16.721  0.0000E+00  0.0000E+00  0.5520E+03  0.5520E+03
