<?xml version="1.0" encoding="ISO-8859-1"?>
<modeling>
 <generator>
  <i name="program" type="string">vasp </i>
  <i name="version" type="string">5.4.4.18Apr17-6-g9f103f2a35  </i>
  <i name="subversion" type="string">(build Oct 25 2017 14:42:18) complex            parallel </i>
  <i name="platform" type="string">LinuxIFC </i>
  <i name="date" type="string">2021 04 16 </i>
  <i name="time" type="string">13:14:46 </i>
 </generator>
 <incar>
  <i type="string" name="PREC">accurate</i>
  <i type="string" name="ALGO"> normal</i>
  <i type="logical" name="ADDGRID"> T  </i>
  <i type="int" name="ISPIN">     2</i>
  <i type="int" name="ICHARG">     1</i>
  <i type="int" name="NELM">   200</i>
  <i type="int" name="NELMIN">     8</i>
  <i name="EDIFF">      0.00000100</i>
  <i type="int" name="ISIF">     3</i>
  <i type="int" name="ISYM">     0</i>
  <i name="ENCUT">    650.00000000</i>
  <v name="MAGMOM">      0.60000000      0.60000000      0.60000000      0.60000000      0.60000000      0.60000000      0.60000000      0.60000000      0.60000000      0.60000000      0.60000000      0.60000000      0.60000000      0.60000000      0.60000000      0.60000000      0.60000000      0.60000000      0.60000000      0.60000000
      0.60000000      0.60000000      0.60000000      0.60000000      0.60000000      0.60000000      0.60000000      0.60000000      0.60000000      0.60000000      0.60000000      0.60000000      0.60000000      0.60000000      0.60000000      0.60000000      0.60000000      0.60000000      0.60000000      0.60000000
      0.60000000      0.60000000      0.60000000      0.60000000      0.60000000      0.60000000      0.60000000      0.60000000      0.60000000      0.60000000      0.60000000      0.60000000      0.60000000      0.60000000      0.60000000      0.60000000      0.60000000      0.60000000      0.60000000      0.60000000
      0.60000000      0.60000000      0.60000000      0.60000000      0.60000000      0.60000000      0.60000000      0.60000000      0.60000000      0.60000000      0.60000000      0.60000000      0.60000000      0.60000000      0.60000000      0.60000000      0.60000000      0.60000000      0.60000000      0.60000000
      0.60000000      0.60000000      0.60000000      0.60000000      0.60000000      0.60000000      0.60000000      0.60000000      0.60000000      0.60000000      0.60000000      0.60000000      0.60000000      0.60000000      0.60000000      0.60000000      5.00000000      5.00000000      5.00000000      5.00000000
      5.00000000      5.00000000      5.00000000      5.00000000      5.00000000      5.00000000      5.00000000      5.00000000      5.00000000      5.00000000      5.00000000      5.00000000      5.00000000      5.00000000      5.00000000      5.00000000      5.00000000      5.00000000      5.00000000      5.00000000
</v>
  <i type="logical" name="LREAL"> F  </i>
  <i type="int" name="ISMEAR">     0</i>
  <i name="SIGMA">      0.05000000</i>
  <i type="int" name="NWRITE">     1</i>
  <i type="int" name="LMAXMIX">     4</i>
  <i type="logical" name="LWAVE"> F  </i>
  <i type="logical" name="LASPH"> T  </i>
  <v type="int" name="KPOINT_BSE">    -1     0     0     0</v>
  <i type="int" name="NELM">   200</i>
  <i type="string" name="GGA"> pe</i>
  <i type="logical" name="LDAU"> T  </i>
  <v type="int" name="LDAUTYPE">     2</v>
  <v type="int" name="LDAUL">    -1    -1    -1     2</v>
  <v name="LDAUU">      0.00000000      0.00000000      0.00000000      4.00000000</v>
  <v name="LDAUJ">      0.00000000      0.00000000      0.00000000      0.00000000</v>
  <i type="logical" name="LASPH"> T  </i>
 </incar>
 <structure name="primitive_cell" >
  <crystal>
   <varray name="basis" >
    <v>      11.73572724      -0.05744286       0.00000000 </v>
    <v>       0.05480788      11.21833490       0.00000000 </v>
    <v>       0.00000000       0.00000000      11.19562010 </v>
   </varray>
   <i name="volume">   1473.99817718 </i>
   <varray name="rec_basis" >
    <v>       0.08520785      -0.00041629       0.00000000 </v>
    <v>       0.00043630       0.08913766       0.00000000 </v>
    <v>       0.00000000       0.00000000       0.08932064 </v>
   </varray>
  </crystal>
  <varray name="positions" >
   <v>       0.03541706       0.36188408       0.35648149 </v>
   <v>      -0.13124269       0.36769238       0.37376509 </v>
   <v>       0.20209064       0.36769238       0.37376509 </v>
   <v>       0.03542751       0.37011947       0.12029448 </v>
   <v>      -0.13123875       0.21898060       0.27246215 </v>
   <v>       0.20209458       0.21898060       0.27246215 </v>
   <v>      -0.13123875       0.46898060       0.22753785 </v>
   <v>       0.20209458       0.46898060       0.22753785 </v>
   <v>       0.03542751       0.12011947       0.37970552 </v>
   <v>      -0.13123946       0.26225309      -0.48003463 </v>
   <v>       0.20209387       0.26225309      -0.48003463 </v>
   <v>       0.03542751      -0.37988053       0.37970552 </v>
   <v>      -0.13123946      -0.48774691       0.48003463 </v>
   <v>       0.20209387      -0.48774691       0.48003463 </v>
   <v>       0.03542751       0.37011947      -0.37970552 </v>
   <v>       0.03541706       0.11277547       0.14351851 </v>
   <v>       0.03541706      -0.38722453       0.14351851 </v>
   <v>       0.36875039       0.36277547       0.35648149 </v>
   <v>      -0.29791628       0.36277547       0.35648149 </v>
   <v>      -0.13124269       0.11769238       0.12623491 </v>
   <v>       0.20209064       0.11769238       0.12623491 </v>
   <v>       0.03541706       0.11277547      -0.35648149 </v>
   <v>       0.03541706      -0.38722453      -0.35648149 </v>
   <v>      -0.13124269      -0.38230762       0.12623491 </v>
   <v>       0.20209064      -0.38230762       0.12623491 </v>
   <v>      -0.13123946       0.26225309       0.01996537 </v>
   <v>       0.20209387       0.26225309       0.01996537 </v>
   <v>      -0.13124269       0.11769238      -0.37376509 </v>
   <v>       0.20209064       0.11769238      -0.37376509 </v>
   <v>      -0.13123875      -0.28101940       0.27246215 </v>
   <v>       0.20209458      -0.28101940       0.27246215 </v>
   <v>      -0.13123946       0.01225309       0.48003463 </v>
   <v>       0.20209387       0.01225309       0.48003463 </v>
   <v>      -0.13124269      -0.38230762      -0.37376509 </v>
   <v>       0.20209064      -0.38230762      -0.37376509 </v>
   <v>      -0.29790582       0.37011947       0.12029448 </v>
   <v>       0.36876084       0.37011947       0.12029448 </v>
   <v>      -0.13123875       0.46898060      -0.27246215 </v>
   <v>       0.20209458       0.46898060      -0.27246215 </v>
   <v>      -0.29790582       0.12011947       0.37970552 </v>
   <v>       0.36876084       0.12011947       0.37970552 </v>
   <v>      -0.29790582      -0.37988053       0.37970552 </v>
   <v>       0.36876084      -0.37988053       0.37970552 </v>
   <v>      -0.29790582       0.37011947      -0.37970552 </v>
   <v>       0.36876084       0.37011947      -0.37970552 </v>
   <v>      -0.13123946      -0.48774691      -0.01996537 </v>
   <v>       0.20209387      -0.48774691      -0.01996537 </v>
   <v>      -0.13123875      -0.03101940       0.22753785 </v>
   <v>       0.20209458      -0.03101940       0.22753785 </v>
   <v>      -0.13123946      -0.23774691      -0.48003463 </v>
   <v>       0.20209387      -0.23774691      -0.48003463 </v>
   <v>      -0.13123875       0.21898060      -0.22753785 </v>
   <v>       0.20209458       0.21898060      -0.22753785 </v>
   <v>      -0.29791628       0.11277547       0.14351851 </v>
   <v>       0.36875039       0.11277547       0.14351851 </v>
   <v>       0.36875039      -0.38722453       0.14351851 </v>
   <v>      -0.29791628      -0.38722453       0.14351851 </v>
   <v>       0.03541706       0.36277547      -0.14351851 </v>
   <v>       0.03541706      -0.13722453       0.35648149 </v>
   <v>      -0.13124269       0.36769238      -0.12623491 </v>
   <v>       0.20209064       0.36769238      -0.12623491 </v>
   <v>      -0.29791628       0.11277547      -0.35648149 </v>
   <v>       0.36875039       0.11277547      -0.35648149 </v>
   <v>       0.36875039      -0.38722453      -0.35648149 </v>
   <v>      -0.29791628      -0.38722453      -0.35648149 </v>
   <v>      -0.46457602       0.36769238       0.37376509 </v>
   <v>      -0.13124269      -0.13230762       0.37376509 </v>
   <v>       0.20209064      -0.13230762       0.37376509 </v>
   <v>       0.03542751       0.12011947      -0.12029448 </v>
   <v>       0.03542751      -0.37988053      -0.12029448 </v>
   <v>      -0.13123946       0.01225309      -0.01996537 </v>
   <v>       0.20209387       0.01225309      -0.01996537 </v>
   <v>       0.03542751      -0.12988053       0.12029448 </v>
   <v>      -0.46457208       0.21898060       0.27246215 </v>
   <v>      -0.46457208       0.46898060       0.22753785 </v>
   <v>      -0.13123946      -0.23774691       0.01996537 </v>
   <v>       0.20209387      -0.23774691       0.01996537 </v>
   <v>      -0.46457280       0.26225309      -0.48003463 </v>
   <v>       0.03542751      -0.12988053      -0.37970552 </v>
   <v>      -0.46457280      -0.48774691       0.48003463 </v>
   <v>      -0.13123875      -0.03101940      -0.27246215 </v>
   <v>       0.20209458      -0.03101940      -0.27246215 </v>
   <v>      -0.13123875      -0.28101940      -0.22753785 </v>
   <v>       0.20209458      -0.28101940      -0.22753785 </v>
   <v>       0.36875039       0.36277547      -0.14351851 </v>
   <v>      -0.29791628       0.36277547      -0.14351851 </v>
   <v>      -0.29791628      -0.13722453       0.35648149 </v>
   <v>       0.36875039      -0.13722453       0.35648149 </v>
   <v>      -0.46457602       0.11769238       0.12623491 </v>
   <v>      -0.46457602      -0.38230762       0.12623491 </v>
   <v>      -0.46457280       0.26225309       0.01996537 </v>
   <v>      -0.46457602       0.11769238      -0.37376509 </v>
   <v>      -0.29790582       0.12011947      -0.12029448 </v>
   <v>       0.36876084       0.12011947      -0.12029448 </v>
   <v>      -0.46457208      -0.28101940       0.27246215 </v>
   <v>      -0.46457280       0.01225309       0.48003463 </v>
   <v>      -0.46457602      -0.38230762      -0.37376509 </v>
   <v>      -0.29790582      -0.37988053      -0.12029448 </v>
   <v>       0.36876084      -0.37988053      -0.12029448 </v>
   <v>      -0.29790582      -0.12988053       0.12029448 </v>
   <v>       0.36876084      -0.12988053       0.12029448 </v>
   <v>      -0.46457208       0.46898060      -0.27246215 </v>
   <v>      -0.29790582      -0.12988053      -0.37970552 </v>
   <v>       0.36876084      -0.12988053      -0.37970552 </v>
   <v>      -0.46457280      -0.48774691      -0.01996537 </v>
   <v>      -0.46457208      -0.03101940       0.22753785 </v>
   <v>      -0.46457280      -0.23774691      -0.48003463 </v>
   <v>      -0.46457208       0.21898060      -0.22753785 </v>
   <v>       0.03541706      -0.13722453      -0.14351851 </v>
   <v>      -0.46457602       0.36769238      -0.12623491 </v>
   <v>      -0.13124269      -0.13230762      -0.12623491 </v>
   <v>       0.20209064      -0.13230762      -0.12623491 </v>
   <v>      -0.46457602      -0.13230762       0.37376509 </v>
   <v>      -0.46457280       0.01225309      -0.01996537 </v>
   <v>      -0.46457280      -0.23774691       0.01996537 </v>
   <v>      -0.46457208      -0.03101940      -0.27246215 </v>
   <v>      -0.46457208      -0.28101940      -0.22753785 </v>
   <v>      -0.29791628      -0.13722453      -0.14351851 </v>
   <v>       0.36875039      -0.13722453      -0.14351851 </v>
   <v>      -0.46457602      -0.13230762      -0.12623491 </v>
  </varray>
 </structure>
 <varray name="primitive_index" >
  <v type="int" >        1 </v>
  <v type="int" >       51 </v>
  <v type="int" >       49 </v>
  <v type="int" >       73 </v>
  <v type="int" >       27 </v>
  <v type="int" >       25 </v>
  <v type="int" >       39 </v>
  <v type="int" >       37 </v>
  <v type="int" >       85 </v>
  <v type="int" >      117 </v>
  <v type="int" >      115 </v>
  <v type="int" >       88 </v>
  <v type="int" >      102 </v>
  <v type="int" >      100 </v>
  <v type="int" >       79 </v>
  <v type="int" >       13 </v>
  <v type="int" >       16 </v>
  <v type="int" >        2 </v>
  <v type="int" >        3 </v>
  <v type="int" >       63 </v>
  <v type="int" >       61 </v>
  <v type="int" >       19 </v>
  <v type="int" >       22 </v>
  <v type="int" >       66 </v>
  <v type="int" >       64 </v>
  <v type="int" >      111 </v>
  <v type="int" >      109 </v>
  <v type="int" >       69 </v>
  <v type="int" >       67 </v>
  <v type="int" >       30 </v>
  <v type="int" >       28 </v>
  <v type="int" >       99 </v>
  <v type="int" >       97 </v>
  <v type="int" >       72 </v>
  <v type="int" >       70 </v>
  <v type="int" >       75 </v>
  <v type="int" >       74 </v>
  <v type="int" >       45 </v>
  <v type="int" >       43 </v>
  <v type="int" >       87 </v>
  <v type="int" >       86 </v>
  <v type="int" >       90 </v>
  <v type="int" >       89 </v>
  <v type="int" >       81 </v>
  <v type="int" >       80 </v>
  <v type="int" >      108 </v>
  <v type="int" >      106 </v>
  <v type="int" >       42 </v>
  <v type="int" >       40 </v>
  <v type="int" >      120 </v>
  <v type="int" >      118 </v>
  <v type="int" >       33 </v>
  <v type="int" >       31 </v>
  <v type="int" >       15 </v>
  <v type="int" >       14 </v>
  <v type="int" >       17 </v>
  <v type="int" >       18 </v>
  <v type="int" >        7 </v>
  <v type="int" >        4 </v>
  <v type="int" >       57 </v>
  <v type="int" >       55 </v>
  <v type="int" >       21 </v>
  <v type="int" >       20 </v>
  <v type="int" >       23 </v>
  <v type="int" >       24 </v>
  <v type="int" >       50 </v>
  <v type="int" >       54 </v>
  <v type="int" >       52 </v>
  <v type="int" >       91 </v>
  <v type="int" >       94 </v>
  <v type="int" >      105 </v>
  <v type="int" >      103 </v>
  <v type="int" >       76 </v>
  <v type="int" >       26 </v>
  <v type="int" >       38 </v>
  <v type="int" >      114 </v>
  <v type="int" >      112 </v>
  <v type="int" >      116 </v>
  <v type="int" >       82 </v>
  <v type="int" >      101 </v>
  <v type="int" >       48 </v>
  <v type="int" >       46 </v>
  <v type="int" >       36 </v>
  <v type="int" >       34 </v>
  <v type="int" >        8 </v>
  <v type="int" >        9 </v>
  <v type="int" >        6 </v>
  <v type="int" >        5 </v>
  <v type="int" >       62 </v>
  <v type="int" >       65 </v>
  <v type="int" >      110 </v>
  <v type="int" >       68 </v>
  <v type="int" >       93 </v>
  <v type="int" >       92 </v>
  <v type="int" >       29 </v>
  <v type="int" >       98 </v>
  <v type="int" >       71 </v>
  <v type="int" >       96 </v>
  <v type="int" >       95 </v>
  <v type="int" >       78 </v>
  <v type="int" >       77 </v>
  <v type="int" >       44 </v>
  <v type="int" >       84 </v>
  <v type="int" >       83 </v>
  <v type="int" >      107 </v>
  <v type="int" >       41 </v>
  <v type="int" >      119 </v>
  <v type="int" >       32 </v>
  <v type="int" >       10 </v>
  <v type="int" >       56 </v>
  <v type="int" >       60 </v>
  <v type="int" >       58 </v>
  <v type="int" >       53 </v>
  <v type="int" >      104 </v>
  <v type="int" >      113 </v>
  <v type="int" >       47 </v>
  <v type="int" >       35 </v>
  <v type="int" >       12 </v>
  <v type="int" >       11 </v>
  <v type="int" >       59 </v>
 </varray>
 <kpoints>
  <generation param="Gamma">
   <v type="int" name="divisions">       3        3        3 </v>
   <v name="usershift">      0.00000000       0.00000000       0.00000000 </v>
   <v name="genvec1">      0.33333333       0.00000000       0.00000000 </v>
   <v name="genvec2">     -0.00000000       0.33333333       0.00000000 </v>
   <v name="genvec3">      0.00000000       0.00000000       0.33333333 </v>
   <v name="shift">      0.00000000       0.00000000       0.00000000 </v>
  </generation>
  <varray name="kpointlist" >
   <v>       0.00000000       0.00000000       0.00000000 </v>
   <v>       0.33333333       0.00000000       0.00000000 </v>
   <v>       0.00000000       0.33333333       0.00000000 </v>
   <v>       0.33333333       0.33333333       0.00000000 </v>
   <v>      -0.33333333       0.33333333       0.00000000 </v>
   <v>       0.00000000       0.00000000       0.33333333 </v>
   <v>       0.33333333       0.00000000       0.33333333 </v>
   <v>      -0.33333333       0.00000000       0.33333333 </v>
   <v>       0.00000000       0.33333333       0.33333333 </v>
   <v>       0.33333333       0.33333333       0.33333333 </v>
   <v>      -0.33333333       0.33333333       0.33333333 </v>
   <v>      -0.00000000      -0.33333333       0.33333333 </v>
   <v>       0.33333333      -0.33333333       0.33333333 </v>
   <v>      -0.33333333      -0.33333333       0.33333333 </v>
  </varray>
  <varray name="weights" >
   <v>       0.03703704 </v>
   <v>       0.07407407 </v>
   <v>       0.07407407 </v>
   <v>       0.07407407 </v>
   <v>       0.07407407 </v>
   <v>       0.07407407 </v>
   <v>       0.07407407 </v>
   <v>       0.07407407 </v>
   <v>       0.07407407 </v>
   <v>       0.07407407 </v>
   <v>       0.07407407 </v>
   <v>       0.07407407 </v>
   <v>       0.07407407 </v>
   <v>       0.07407407 </v>
  </varray>
 </kpoints>
 <parameters>
  <separator name="general" >
   <i type="string" name="SYSTEM">unknown system</i>
   <i type="logical" name="LCOMPAT"> F  </i>
  </separator>
  <separator name="electronic" >
   <i type="string" name="PREC">accura</i>
   <i name="ENMAX">    650.00000000</i>
   <i name="ENAUG">    628.94500000</i>
   <i name="EDIFF">      0.00000100</i>
   <i type="int" name="IALGO">    38</i>
   <i type="int" name="IWAVPR">    10</i>
   <i type="int" name="NBANDS">   552</i>
   <i name="NELECT">    768.00000000</i>
   <i type="int" name="TURBO">     0</i>
   <i type="int" name="IRESTART">     0</i>
   <i type="int" name="NREBOOT">     0</i>
   <i type="int" name="NMIN">     0</i>
   <i name="EREF">      0.00000000</i>
   <separator name="electronic smearing" >
    <i type="int" name="ISMEAR">     0</i>
    <i name="SIGMA">      0.05000000</i>
    <i name="KSPACING">      0.50000000</i>
    <i type="logical" name="KGAMMA"> T  </i>
   </separator>
   <separator name="electronic projectors" >
    <i type="logical" name="LREAL"> F  </i>
    <v name="ROPT">      0.00000000      0.00000000      0.00000000      0.00000000</v>
    <i type="int" name="LMAXPAW">  -100</i>
    <i type="int" name="LMAXMIX">     4</i>
    <i type="logical" name="NLSPLINE"> F  </i>
   </separator>
   <separator name="electronic startup" >
    <i type="int" name="ISTART">     0</i>
    <i type="int" name="ICHARG">     1</i>
    <i type="int" name="INIWAV">     1</i>
   </separator>
   <separator name="electronic spin" >
    <i type="int" name="ISPIN">     2</i>
    <i type="logical" name="LNONCOLLINEAR"> F  </i>
    <v name="MAGMOM">      0.60000000      0.60000000      0.60000000      0.60000000      0.60000000      0.60000000      0.60000000      0.60000000      0.60000000      0.60000000      0.60000000      0.60000000      0.60000000      0.60000000      0.60000000      0.60000000      0.60000000      0.60000000      0.60000000      0.60000000
      0.60000000      0.60000000      0.60000000      0.60000000      0.60000000      0.60000000      0.60000000      0.60000000      0.60000000      0.60000000      0.60000000      0.60000000      0.60000000      0.60000000      0.60000000      0.60000000      0.60000000      0.60000000      0.60000000      0.60000000
      0.60000000      0.60000000      0.60000000      0.60000000      0.60000000      0.60000000      0.60000000      0.60000000      0.60000000      0.60000000      0.60000000      0.60000000      0.60000000      0.60000000      0.60000000      0.60000000      0.60000000      0.60000000      0.60000000      0.60000000
      0.60000000      0.60000000      0.60000000      0.60000000      0.60000000      0.60000000      0.60000000      0.60000000      0.60000000      0.60000000      0.60000000      0.60000000      0.60000000      0.60000000      0.60000000      0.60000000      0.60000000      0.60000000      0.60000000      0.60000000
      0.60000000      0.60000000      0.60000000      0.60000000      0.60000000      0.60000000      0.60000000      0.60000000      0.60000000      0.60000000      0.60000000      0.60000000      0.60000000      0.60000000      0.60000000      0.60000000      5.00000000      5.00000000      5.00000000      5.00000000
      5.00000000      5.00000000      5.00000000      5.00000000      5.00000000      5.00000000      5.00000000      5.00000000      5.00000000      5.00000000      5.00000000      5.00000000      5.00000000      5.00000000      5.00000000      5.00000000      5.00000000      5.00000000      5.00000000      5.00000000
</v>
    <i name="NUPDOWN">     -1.00000000</i>
    <i type="logical" name="LSORBIT"> F  </i>
    <v name="SAXIS">      0.00000000      0.00000000      1.00000000</v>
    <i type="logical" name="LSPIRAL"> F  </i>
    <v name="QSPIRAL">      0.00000000      0.00000000      0.00000000</v>
    <i type="logical" name="LZEROZ"> F  </i>
   </separator>
   <separator name="electronic exchange-correlation" >
    <i type="logical" name="LASPH"> T  </i>
    <i type="logical" name="LMETAGGA"> F  </i>
   </separator>
   <separator name="electronic convergence" >
    <i type="int" name="NELM">   200</i>
    <i type="int" name="NELMDL">     0</i>
    <i type="int" name="NELMIN">     8</i>
    <i name="ENINI">    650.00000000</i>
    <separator name="electronic convergence detail" >
     <i type="logical" name="LDIAG"> T  </i>
     <i type="logical" name="LSUBROT"> F  </i>
     <i name="WEIMIN">      0.00000000</i>
     <i name="EBREAK">      0.00000000</i>
     <i name="DEPER">      0.30000000</i>
     <i type="int" name="NRMM">     4</i>
     <i name="TIME">      0.40000000</i>
    </separator>
   </separator>
   <separator name="electronic mixer" >
    <i name="AMIX">      0.40000000</i>
    <i name="BMIX">      1.00000000</i>
    <i name="AMIN">      0.10000000</i>
    <i name="AMIX_MAG">      1.60000000</i>
    <i name="BMIX_MAG">      1.00000000</i>
    <separator name="electronic mixer details" >
     <i type="int" name="IMIX">     4</i>
     <i type="logical" name="MIXFIRST"> F  </i>
     <i type="int" name="MAXMIX">   -45</i>
     <i name="WC">    100.00000000</i>
     <i type="int" name="INIMIX">     1</i>
     <i type="int" name="MIXPRE">     1</i>
     <i type="int" name="MREMOVE">     5</i>
    </separator>
   </separator>
   <separator name="electronic dipolcorrection" >
    <i type="logical" name="LDIPOL"> F  </i>
    <i type="logical" name="LMONO"> F  </i>
    <i type="int" name="IDIPOL">     0</i>
    <i name="EPSILON">      1.00000000</i>
    <v name="DIPOL">   -100.00000000   -100.00000000   -100.00000000</v>
    <i name="EFIELD">      0.00000000</i>
   </separator>
  </separator>
  <separator name="grids" >
   <i type="int" name="NGX">    98</i>
   <i type="int" name="NGY">    96</i>
   <i type="int" name="NGZ">    96</i>
   <i type="int" name="NGXF">   196</i>
   <i type="int" name="NGYF">   192</i>
   <i type="int" name="NGZF">   192</i>
   <i type="logical" name="ADDGRID"> T  </i>
  </separator>
  <separator name="ionic" >
   <i type="int" name="NSW">     0</i>
   <i type="int" name="IBRION">    -1</i>
   <i type="int" name="MDALGO">     0</i>
   <i type="int" name="ISIF">     3</i>
   <i name="PSTRESS">      0.00000000</i>
   <i name="EDIFFG">      0.00001000</i>
   <i type="int" name="NFREE">     0</i>
   <i name="POTIM">      0.50000000</i>
   <i name="SMASS">     -3.00000000</i>
   <i name="SCALEE">      1.00000000</i>
  </separator>
  <separator name="ionic md" >
   <i name="TEBEG">      0.00010000</i>
   <i name="TEEND">      0.00010000</i>
   <i type="int" name="NBLOCK">     1</i>
   <i type="int" name="KBLOCK">     1</i>
   <i type="int" name="NPACO">   256</i>
   <i name="APACO">     16.00000000</i>
  </separator>
  <separator name="symmetry" >
   <i type="int" name="ISYM">     0</i>
   <i name="SYMPREC">      0.00001000</i>
  </separator>
  <separator name="dos" >
   <i type="int" name="LORBIT">     0</i>
   <v name="RWIGS">     -1.00000000     -1.00000000     -1.00000000     -1.00000000</v>
   <i type="int" name="NEDOS">   301</i>
   <i name="EMIN">     10.00000000</i>
   <i name="EMAX">    -10.00000000</i>
   <i name="EFERMI">      0.00000000</i>
  </separator>
  <separator name="writing" >
   <i type="int" name="NWRITE">     1</i>
   <i type="logical" name="LWAVE"> F  </i>
   <i type="logical" name="LDOWNSAMPLE"> F  </i>
   <i type="logical" name="LCHARG"> T  </i>
   <i type="logical" name="LPARD"> F  </i>
   <i type="logical" name="LVTOT"> F  </i>
   <i type="logical" name="LVHAR"> F  </i>
   <i type="logical" name="LELF"> F  </i>
   <i type="logical" name="LOPTICS"> F  </i>
   <v name="STM">      0.00000000      0.00000000      0.00000000      0.00000000      0.00000000      0.00000000      0.00000000</v>
  </separator>
  <separator name="performance" >
   <i type="int" name="NPAR">     4</i>
   <i type="int" name="NSIM">     4</i>
   <i type="int" name="NBLK">    -1</i>
   <i type="logical" name="LPLANE"> T  </i>
   <i type="logical" name="LSCALAPACK"> T  </i>
   <i type="logical" name="LSCAAWARE"> F  </i>
   <i type="logical" name="LSCALU"> F  </i>
   <i type="logical" name="LASYNC"> F  </i>
   <i type="logical" name="LORBITALREAL"> F  </i>
  </separator>
  <separator name="miscellaneous" >
   <i type="int" name="IDIOT">     3</i>
   <i type="int" name="ISPECIAL">     0</i>
   <i type="logical" name="LMUSIC"> F  </i>
   <v name="POMASS">      7.01000000     16.00000000     32.06600000     55.84700000</v>
   <v name="DARWINR">      0.00000000      0.00000000      0.00000000      0.00000000</v>
   <v name="DARWINV">      1.00000000      1.00000000      1.00000000      1.00000000</v>
   <i type="logical" name="LCORR"> T  </i>
  </separator>
  <i type="logical" name="GGA_COMPAT"> T  </i>
  <i type="logical" name="LBERRY"> F  </i>
  <i type="int" name="ICORELEVEL">     0</i>
  <i type="logical" name="LDAU"> T  </i>
  <v type="int" name="LDAUTYPE">     2</v>
  <v type="int" name="LDAUL">    -1</v>
  <v name="LDAUU">      0.00000000</v>
  <v name="LDAUJ">      0.00000000</v>
  <i type="int" name="LDAUPRINT">     0</i>
  <i type="int" name="I_CONSTRAINED_M">     0</i>
  <separator name="electronic exchange-correlation" >
   <i type="string" name="GGA">PE</i>
   <i type="int" name="VOSKOWN">     0</i>
   <i type="logical" name="LHFCALC"> F  </i>
   <i type="string" name="PRECFOCK"></i>
   <i type="logical" name="LSYMGRAD"> F  </i>
   <i type="logical" name="LHFONE"> F  </i>
   <i type="logical" name="LRHFCALC"> F  </i>
   <i type="logical" name="LTHOMAS"> F  </i>
   <i type="logical" name="LMODELHF"> F  </i>
   <i name="ENCUT4O">     -1.00000000</i>
   <i type="int" name="EXXOEP">     0</i>
   <i type="int" name="FOURORBIT">     0</i>
   <i name="AEXX">      0.00000000</i>
   <i name="HFALPHA">      0.00000000</i>
   <i name="MCALPHA">      0.00000000</i>
   <i name="ALDAX">      1.00000000</i>
   <i name="AGGAX">      1.00000000</i>
   <i name="ALDAC">      1.00000000</i>
   <i name="AGGAC">      1.00000000</i>
   <i type="int" name="NKREDX">     1</i>
   <i type="int" name="NKREDY">     1</i>
   <i type="int" name="NKREDZ">     1</i>
   <i type="logical" name="SHIFTRED"> F  </i>
   <i type="logical" name="ODDONLY"> F  </i>
   <i type="logical" name="EVENONLY"> F  </i>
   <i type="int" name="LMAXFOCK">     0</i>
   <i type="int" name="NMAXFOCKAE">     0</i>
   <i type="logical" name="LFOCKAEDFT"> F  </i>
   <i name="HFSCREEN">      0.00000000</i>
   <i name="HFSCREENC">      0.00000000</i>
   <i type="int" name="NBANDSGWLOW">     0</i>
  </separator>
  <separator name="vdW DFT" >
   <i type="logical" name="LUSE_VDW"> F  </i>
   <i name="Zab_VDW">     -0.84910000</i>
   <i name="PARAM1">      0.12340000</i>
   <i name="PARAM2">      1.00000000</i>
   <i name="PARAM3">      0.00000000</i>
  </separator>
  <separator name="model GW" >
   <i type="int" name="MODEL_GW">     0</i>
   <i name="MODEL_EPS0">      7.36999089</i>
   <i name="MODEL_ALPHA">      1.00000000</i>
  </separator>
  <separator name="linear response parameters" >
   <i type="logical" name="LEPSILON"> F  </i>
   <i type="logical" name="LRPA"> F  </i>
   <i type="logical" name="LNABLA"> F  </i>
   <i type="logical" name="LVEL"> F  </i>
   <i type="int" name="KINTER">     0</i>
   <i name="CSHIFT">      0.10000000</i>
   <i name="OMEGAMAX">     -1.00000000</i>
   <i name="DEG_THRESHOLD">      0.00200000</i>
   <i name="RTIME">     -0.10000000</i>
   <i name="WPLASMAI">      0.00000000</i>
   <v name="DFIELD">      0.00000000      0.00000000      0.00000000</v>
   <v name="WPLASMA">      0.00000000      0.00000000      0.00000000      0.00000000      0.00000000      0.00000000      0.00000000      0.00000000      0.00000000</v>
  </separator>
  <separator name="orbital magnetization" >
   <i type="logical" name="NUCIND"> F  </i>
   <v name="MAGPOS">      0.00000000      0.00000000      0.00000000</v>
   <i type="logical" name="LNICSALL"> T  </i>
   <i type="logical" name="ORBITALMAG"> F  </i>
   <i type="logical" name="LMAGBLOCH"> F  </i>
   <i type="logical" name="LCHIMAG"> F  </i>
   <i type="logical" name="LGAUGE"> T  </i>
   <i type="int" name="MAGATOM">     0</i>
   <v name="MAGDIPOL">      0.00000000      0.00000000      0.00000000</v>
   <v name="AVECCONST">      0.00000000      0.00000000      0.00000000</v>
  </separator>
  <separator name="response functions" >
   <i type="logical" name="LADDER"> F  </i>
   <i type="logical" name="LRPAFORCE"> F  </i>
   <i type="logical" name="LFXC"> F  </i>
   <i type="logical" name="LHARTREE"> T  </i>
   <i type="int" name="IBSE">     0</i>
   <v type="int" name="KPOINT">    -1     0     0     0</v>
   <i type="logical" name="LTCTE"> F  </i>
   <i type="logical" name="LTETE"> F  </i>
   <i type="logical" name="LTRIPLET"> F  </i>
   <i type="logical" name="LFXCEPS"> F  </i>
   <i type="logical" name="LFXHEG"> F  </i>
   <i type="int" name="NATURALO">     2</i>
   <i type="logical" name="L2ORDER"> F  </i>
   <i type="logical" name="LMP2LT"> F  </i>
   <i type="logical" name="LUSEW"> F  </i>
   <i name="ENCUTGW">     -2.00000000</i>
   <i name="ENCUTGWSOFT">     -2.00000000</i>
   <i name="ENCUTLF">     -1.00000000</i>
   <i type="int" name="LMAXMP2">    -1</i>
   <i name="SCISSOR">      0.00000000</i>
   <i type="int" name="NOMEGA">     0</i>
   <i type="int" name="NOMEGAR">     0</i>
   <i type="int" name="NBANDSGW">    -1</i>
   <i type="int" name="NBANDSO">    -1</i>
   <i type="int" name="NBANDSV">    -1</i>
   <i type="int" name="NELM">   200</i>
   <i type="int" name="NELMHF">     1</i>
   <i type="int" name="DIM">     3</i>
   <i type="int" name="ANTIRES">     0</i>
   <i name="OMEGAMAX">    -30.00000000</i>
   <i name="OMEGAMIN">    -30.00000000</i>
   <i name="OMEGATL">   -200.00000000</i>
   <i type="int" name="OMEGAGRID">   140</i>
   <i name="CSHIFT">     -0.10000000</i>
   <i type="logical" name="SELFENERGY"> F  </i>
   <i type="logical" name="LSPECTRAL"> F  </i>
   <i type="logical" name="LSPECTRALGW"> F  </i>
   <i type="logical" name="LSINGLES"> F  </i>
   <i type="logical" name="LFERMIGW"> F  </i>
   <i type="logical" name="ODDONLYGW"> F  </i>
   <i type="logical" name="EVENONLYGW"> F  </i>
   <i type="int" name="NKREDLFX">     1</i>
   <i type="int" name="NKREDLFY">     1</i>
   <i type="int" name="NKREDLFZ">     1</i>
   <i type="int" name="MAXMEM">  2800</i>
   <i type="int" name="TELESCOPE">     0</i>
   <i type="int" name="TAUPAR">     1</i>
   <i type="int" name="OMEGAPAR">    -1</i>
   <i name="LAMBDA">      1.00000000</i>
  </separator>
  <separator name="External order field" >
   <i name="OFIELD_KAPPA">      0.00000000</i>
   <v name="OFIELD_K">      0.00000000      0.00000000      0.00000000</v>
   <i name="OFIELD_Q6_NEAR">      0.00000000</i>
   <i name="OFIELD_Q6_FAR">      0.00000000</i>
   <i name="OFIELD_A">      0.00000000</i>
  </separator>
 </parameters>
 <atominfo>
  <atoms>     120 </atoms>
  <types>       4 </types>
  <array name="atoms" >
   <dimension dim="1">ion</dimension>
   <field type="string">element</field>
   <field type="int">atomtype</field>
   <set>
    <rc><c>Li</c><c>   1</c></rc>
    <rc><c>Li</c><c>   1</c></rc>
    <rc><c>Li</c><c>   1</c></rc>
    <rc><c>Li</c><c>   1</c></rc>
    <rc><c>Li</c><c>   1</c></rc>
    <rc><c>Li</c><c>   1</c></rc>
    <rc><c>Li</c><c>   1</c></rc>
    <rc><c>Li</c><c>   1</c></rc>
    <rc><c>Li</c><c>   1</c></rc>
    <rc><c>Li</c><c>   1</c></rc>
    <rc><c>Li</c><c>   1</c></rc>
    <rc><c>Li</c><c>   1</c></rc>
    <rc><c>Li</c><c>   1</c></rc>
    <rc><c>Li</c><c>   1</c></rc>
    <rc><c>Li</c><c>   1</c></rc>
    <rc><c>Li</c><c>   1</c></rc>
    <rc><c>Li</c><c>   1</c></rc>
    <rc><c>Li</c><c>   1</c></rc>
    <rc><c>Li</c><c>   1</c></rc>
    <rc><c>Li</c><c>   1</c></rc>
    <rc><c>Li</c><c>   1</c></rc>
    <rc><c>Li</c><c>   1</c></rc>
    <rc><c>Li</c><c>   1</c></rc>
    <rc><c>Li</c><c>   1</c></rc>
    <rc><c>Li</c><c>   1</c></rc>
    <rc><c>Li</c><c>   1</c></rc>
    <rc><c>Li</c><c>   1</c></rc>
    <rc><c>Li</c><c>   1</c></rc>
    <rc><c>Li</c><c>   1</c></rc>
    <rc><c>Li</c><c>   1</c></rc>
    <rc><c>Li</c><c>   1</c></rc>
    <rc><c>Li</c><c>   1</c></rc>
    <rc><c>Li</c><c>   1</c></rc>
    <rc><c>Li</c><c>   1</c></rc>
    <rc><c>Li</c><c>   1</c></rc>
    <rc><c>Li</c><c>   1</c></rc>
    <rc><c>Li</c><c>   1</c></rc>
    <rc><c>Li</c><c>   1</c></rc>
    <rc><c>Li</c><c>   1</c></rc>
    <rc><c>Li</c><c>   1</c></rc>
    <rc><c>Li</c><c>   1</c></rc>
    <rc><c>Li</c><c>   1</c></rc>
    <rc><c>Li</c><c>   1</c></rc>
    <rc><c>Li</c><c>   1</c></rc>
    <rc><c>Li</c><c>   1</c></rc>
    <rc><c>Li</c><c>   1</c></rc>
    <rc><c>Li</c><c>   1</c></rc>
    <rc><c>Li</c><c>   1</c></rc>
    <rc><c>O </c><c>   2</c></rc>
    <rc><c>O </c><c>   2</c></rc>
    <rc><c>O </c><c>   2</c></rc>
    <rc><c>O </c><c>   2</c></rc>
    <rc><c>O </c><c>   2</c></rc>
    <rc><c>O </c><c>   2</c></rc>
    <rc><c>O </c><c>   2</c></rc>
    <rc><c>O </c><c>   2</c></rc>
    <rc><c>O </c><c>   2</c></rc>
    <rc><c>O </c><c>   2</c></rc>
    <rc><c>O </c><c>   2</c></rc>
    <rc><c>O </c><c>   2</c></rc>
    <rc><c>O </c><c>   2</c></rc>
    <rc><c>O </c><c>   2</c></rc>
    <rc><c>O </c><c>   2</c></rc>
    <rc><c>O </c><c>   2</c></rc>
    <rc><c>O </c><c>   2</c></rc>
    <rc><c>O </c><c>   2</c></rc>
    <rc><c>O </c><c>   2</c></rc>
    <rc><c>O </c><c>   2</c></rc>
    <rc><c>O </c><c>   2</c></rc>
    <rc><c>O </c><c>   2</c></rc>
    <rc><c>O </c><c>   2</c></rc>
    <rc><c>O </c><c>   2</c></rc>
    <rc><c>S </c><c>   3</c></rc>
    <rc><c>S </c><c>   3</c></rc>
    <rc><c>S </c><c>   3</c></rc>
    <rc><c>S </c><c>   3</c></rc>
    <rc><c>S </c><c>   3</c></rc>
    <rc><c>S </c><c>   3</c></rc>
    <rc><c>S </c><c>   3</c></rc>
    <rc><c>S </c><c>   3</c></rc>
    <rc><c>S </c><c>   3</c></rc>
    <rc><c>S </c><c>   3</c></rc>
    <rc><c>S </c><c>   3</c></rc>
    <rc><c>S </c><c>   3</c></rc>
    <rc><c>S </c><c>   3</c></rc>
    <rc><c>S </c><c>   3</c></rc>
    <rc><c>S </c><c>   3</c></rc>
    <rc><c>S </c><c>   3</c></rc>
    <rc><c>S </c><c>   3</c></rc>
    <rc><c>S </c><c>   3</c></rc>
    <rc><c>S </c><c>   3</c></rc>
    <rc><c>S </c><c>   3</c></rc>
    <rc><c>S </c><c>   3</c></rc>
    <rc><c>S </c><c>   3</c></rc>
    <rc><c>S </c><c>   3</c></rc>
    <rc><c>S </c><c>   3</c></rc>
    <rc><c>Fe</c><c>   4</c></rc>
    <rc><c>Fe</c><c>   4</c></rc>
    <rc><c>Fe</c><c>   4</c></rc>
    <rc><c>Fe</c><c>   4</c></rc>
    <rc><c>Fe</c><c>   4</c></rc>
    <rc><c>Fe</c><c>   4</c></rc>
    <rc><c>Fe</c><c>   4</c></rc>
    <rc><c>Fe</c><c>   4</c></rc>
    <rc><c>Fe</c><c>   4</c></rc>
    <rc><c>Fe</c><c>   4</c></rc>
    <rc><c>Fe</c><c>   4</c></rc>
    <rc><c>Fe</c><c>   4</c></rc>
    <rc><c>Fe</c><c>   4</c></rc>
    <rc><c>Fe</c><c>   4</c></rc>
    <rc><c>Fe</c><c>   4</c></rc>
    <rc><c>Fe</c><c>   4</c></rc>
    <rc><c>Fe</c><c>   4</c></rc>
    <rc><c>Fe</c><c>   4</c></rc>
    <rc><c>Fe</c><c>   4</c></rc>
    <rc><c>Fe</c><c>   4</c></rc>
    <rc><c>Fe</c><c>   4</c></rc>
    <rc><c>Fe</c><c>   4</c></rc>
    <rc><c>Fe</c><c>   4</c></rc>
    <rc><c>Fe</c><c>   4</c></rc>
   </set>
  </array>
  <array name="atomtypes" >
   <dimension dim="1">type</dimension>
   <field type="int">atomspertype</field>
   <field type="string">element</field>
   <field>mass</field>
   <field>valence</field>
   <field type="string">pseudopotential</field>
   <set>
    <rc><c>  48</c><c>Li</c><c>      7.01000000</c><c>      3.00000000</c><c>  PAW_PBE Li_sv 10Sep2004               </c></rc>
    <rc><c>  24</c><c>O </c><c>     16.00000000</c><c>      6.00000000</c><c>  PAW_PBE O 08Apr2002                   </c></rc>
    <rc><c>  24</c><c>S </c><c>     32.06600000</c><c>      6.00000000</c><c>  PAW_PBE S 06Sep2000                   </c></rc>
    <rc><c>  24</c><c>Fe</c><c>     55.84700000</c><c>     14.00000000</c><c>  PAW_PBE Fe_pv 02Aug2007               </c></rc>
   </set>
  </array>
 </atominfo>
 <structure name="initialpos" >
  <crystal>
   <varray name="basis" >
    <v>      11.73572724      -0.05744286       0.00000000 </v>
    <v>       0.05480788      11.21833490       0.00000000 </v>
    <v>       0.00000000       0.00000000      11.19562010 </v>
   </varray>
   <i name="volume">   1473.99817718 </i>
   <varray name="rec_basis" >
    <v>       0.08520785      -0.00041629       0.00000000 </v>
    <v>       0.00043630       0.08913766       0.00000000 </v>
    <v>       0.00000000       0.00000000       0.08932064 </v>
   </varray>
  </crystal>
  <varray name="positions" >
   <v>       0.03541706       0.36188408       0.35648149 </v>
   <v>       0.36875039       0.36277547       0.35648149 </v>
   <v>       0.70208372       0.36277547       0.35648149 </v>
   <v>       0.03541706       0.86277547       0.35648149 </v>
   <v>       0.36875039       0.86277547       0.35648149 </v>
   <v>       0.70208372       0.86277547       0.35648149 </v>
   <v>       0.03541706       0.36277547       0.85648149 </v>
   <v>       0.36875039       0.36277547       0.85648149 </v>
   <v>       0.70208372       0.36277547       0.85648149 </v>
   <v>       0.03541706       0.86277547       0.85648149 </v>
   <v>       0.36875039       0.86277547       0.85648149 </v>
   <v>       0.70208372       0.86277547       0.85648149 </v>
   <v>       0.03541706       0.11277547       0.14351851 </v>
   <v>       0.36875039       0.11277547       0.14351851 </v>
   <v>       0.70208372       0.11277547       0.14351851 </v>
   <v>       0.03541706       0.61277547       0.14351851 </v>
   <v>       0.36875039       0.61277547       0.14351851 </v>
   <v>       0.70208372       0.61277547       0.14351851 </v>
   <v>       0.03541706       0.11277547       0.64351851 </v>
   <v>       0.36875039       0.11277547       0.64351851 </v>
   <v>       0.70208372       0.11277547       0.64351851 </v>
   <v>       0.03541706       0.61277547       0.64351851 </v>
   <v>       0.36875039       0.61277547       0.64351851 </v>
   <v>       0.70208372       0.61277547       0.64351851 </v>
   <v>       0.20209458       0.21898060       0.27246215 </v>
   <v>       0.53542792       0.21898060       0.27246215 </v>
   <v>       0.86876125       0.21898060       0.27246215 </v>
   <v>       0.20209458       0.71898060       0.27246215 </v>
   <v>       0.53542792       0.71898060       0.27246215 </v>
   <v>       0.86876125       0.71898060       0.27246215 </v>
   <v>       0.20209458       0.21898060       0.77246215 </v>
   <v>       0.53542792       0.21898060       0.77246215 </v>
   <v>       0.86876125       0.21898060       0.77246215 </v>
   <v>       0.20209458       0.71898060       0.77246215 </v>
   <v>       0.53542792       0.71898060       0.77246215 </v>
   <v>       0.86876125       0.71898060       0.77246215 </v>
   <v>       0.20209458       0.46898060       0.22753785 </v>
   <v>       0.53542792       0.46898060       0.22753785 </v>
   <v>       0.86876125       0.46898060       0.22753785 </v>
   <v>       0.20209458       0.96898060       0.22753785 </v>
   <v>       0.53542792       0.96898060       0.22753785 </v>
   <v>       0.86876125       0.96898060       0.22753785 </v>
   <v>       0.20209458       0.46898060       0.72753785 </v>
   <v>       0.53542792       0.46898060       0.72753785 </v>
   <v>       0.86876125       0.46898060       0.72753785 </v>
   <v>       0.20209458       0.96898060       0.72753785 </v>
   <v>       0.53542792       0.96898060       0.72753785 </v>
   <v>       0.86876125       0.96898060       0.72753785 </v>
   <v>       0.20209064       0.36769237       0.37376509 </v>
   <v>       0.53542398       0.36769237       0.37376509 </v>
   <v>       0.86875731       0.36769237       0.37376509 </v>
   <v>       0.20209064       0.86769237       0.37376509 </v>
   <v>       0.53542398       0.86769237       0.37376509 </v>
   <v>       0.86875731       0.86769237       0.37376509 </v>
   <v>       0.20209064       0.36769237       0.87376509 </v>
   <v>       0.53542398       0.36769237       0.87376509 </v>
   <v>       0.86875731       0.36769237       0.87376509 </v>
   <v>       0.20209064       0.86769237       0.87376509 </v>
   <v>       0.53542398       0.86769237       0.87376509 </v>
   <v>       0.86875731       0.86769237       0.87376509 </v>
   <v>       0.20209064       0.11769237       0.12623491 </v>
   <v>       0.53542398       0.11769237       0.12623491 </v>
   <v>       0.86875731       0.11769237       0.12623491 </v>
   <v>       0.20209064       0.61769237       0.12623491 </v>
   <v>       0.53542398       0.61769237       0.12623491 </v>
   <v>       0.86875731       0.61769237       0.12623491 </v>
   <v>       0.20209064       0.11769237       0.62623491 </v>
   <v>       0.53542398       0.11769237       0.62623491 </v>
   <v>       0.86875731       0.11769237       0.62623491 </v>
   <v>       0.20209064       0.61769237       0.62623491 </v>
   <v>       0.53542398       0.61769237       0.62623491 </v>
   <v>       0.86875731       0.61769237       0.62623491 </v>
   <v>       0.03542751       0.37011947       0.12029448 </v>
   <v>       0.36876084       0.37011947       0.12029448 </v>
   <v>       0.70209418       0.37011947       0.12029448 </v>
   <v>       0.03542751       0.87011947       0.12029448 </v>
   <v>       0.36876084       0.87011947       0.12029448 </v>
   <v>       0.70209418       0.87011947       0.12029448 </v>
   <v>       0.03542751       0.37011947       0.62029448 </v>
   <v>       0.36876084       0.37011947       0.62029448 </v>
   <v>       0.70209418       0.37011947       0.62029448 </v>
   <v>       0.03542751       0.87011947       0.62029448 </v>
   <v>       0.36876084       0.87011947       0.62029448 </v>
   <v>       0.70209418       0.87011947       0.62029448 </v>
   <v>       0.03542751       0.12011947       0.37970552 </v>
   <v>       0.36876084       0.12011947       0.37970552 </v>
   <v>       0.70209418       0.12011947       0.37970552 </v>
   <v>       0.03542751       0.62011947       0.37970552 </v>
   <v>       0.36876084       0.62011947       0.37970552 </v>
   <v>       0.70209418       0.62011947       0.37970552 </v>
   <v>       0.03542751       0.12011947       0.87970552 </v>
   <v>       0.36876084       0.12011947       0.87970552 </v>
   <v>       0.70209418       0.12011947       0.87970552 </v>
   <v>       0.03542751       0.62011947       0.87970552 </v>
   <v>       0.36876084       0.62011947       0.87970552 </v>
   <v>       0.70209418       0.62011947       0.87970552 </v>
   <v>       0.20209387       0.01225309       0.48003463 </v>
   <v>       0.53542720       0.01225309       0.48003463 </v>
   <v>       0.86876054       0.01225309       0.48003463 </v>
   <v>       0.20209387       0.51225309       0.48003463 </v>
   <v>       0.53542720       0.51225309       0.48003463 </v>
   <v>       0.86876054       0.51225309       0.48003463 </v>
   <v>       0.20209387       0.01225309       0.98003463 </v>
   <v>       0.53542720       0.01225309       0.98003463 </v>
   <v>       0.86876054       0.01225309       0.98003463 </v>
   <v>       0.20209387       0.51225309       0.98003463 </v>
   <v>       0.53542720       0.51225309       0.98003463 </v>
   <v>       0.86876054       0.51225309       0.98003463 </v>
   <v>       0.20209387       0.26225309       0.01996537 </v>
   <v>       0.53542720       0.26225309       0.01996537 </v>
   <v>       0.86876054       0.26225309       0.01996537 </v>
   <v>       0.20209387       0.76225309       0.01996537 </v>
   <v>       0.53542720       0.76225309       0.01996537 </v>
   <v>       0.86876054       0.76225309       0.01996537 </v>
   <v>       0.20209387       0.26225309       0.51996537 </v>
   <v>       0.53542720       0.26225309       0.51996537 </v>
   <v>       0.86876054       0.26225309       0.51996537 </v>
   <v>       0.20209387       0.76225309       0.51996537 </v>
   <v>       0.53542720       0.76225309       0.51996537 </v>
   <v>       0.86876054       0.76225309       0.51996537 </v>
  </varray>
 </structure>
 <calculation>
  <scstep>
   <time name="dav">  215.95  220.59</time>
   <time name="total">  217.90  222.60</time>
   <energy>
    <i name="alphaZ">   1915.67052055 </i>
    <i name="ewald"> -48532.31467432 </i>
    <i name="hartreedc"> -28983.25475970 </i>
    <i name="XCdc">   3297.26481611 </i>
    <i name="pawpsdc">  81710.32686745 </i>
    <i name="pawaedc"> -84426.12035439 </i>
    <i name="eentropy">     -0.01827051 </i>
    <i name="bandstr">   -670.13854246 </i>
    <i name="atom">  85731.96378919 </i>
    <i name="e_fr_energy">  10043.37939192 </i>
    <i name="e_wo_entrp">  10043.39766244 </i>
    <i name="e_0_energy">  10043.38852718 </i>
   </energy>
  </scstep>
  <scstep>
   <time name="dav">  210.26  214.69</time>
   <time name="total">  210.26  214.69</time>
   <energy>
    <i name="e_fr_energy">   1037.05949477 </i>
    <i name="e_wo_entrp">   1037.11155527 </i>
    <i name="e_0_energy">   1037.08552502 </i>
   </energy>
  </scstep>
  <scstep>
   <time name="dav">  228.26  232.95</time>
   <time name="total">  228.27  232.95</time>
   <energy>
    <i name="e_fr_energy">   -399.89428424 </i>
    <i name="e_wo_entrp">   -399.89428424 </i>
    <i name="e_0_energy">   -399.89428424 </i>
   </energy>
  </scstep>
  <scstep>
   <time name="dav">  260.84  266.61</time>
   <time name="total">  260.85  266.61</time>
   <energy>
    <i name="e_fr_energy">   -590.27323290 </i>
    <i name="e_wo_entrp">   -590.27323290 </i>
    <i name="e_0_energy">   -590.27323290 </i>
   </energy>
  </scstep>
  <scstep>
   <time name="dav">  329.12  335.90</time>
   <time name="total">  334.69  341.62</time>
   <energy>
    <i name="e_fr_energy">   -615.44557768 </i>
    <i name="e_wo_entrp">   -615.44557768 </i>
    <i name="e_0_energy">   -615.44557768 </i>
   </energy>
  </scstep>
  <scstep>
   <time name="dav">  266.00  271.31</time>
   <time name="total">  273.51  278.97</time>
   <energy>
    <i name="e_fr_energy">   -616.38664845 </i>
    <i name="e_wo_entrp">   -616.38664845 </i>
    <i name="e_0_energy">   -616.38664845 </i>
   </energy>
  </scstep>
  <scstep>
   <time name="dav">  303.24  309.85</time>
   <time name="total">  310.66  317.48</time>
   <energy>
    <i name="e_fr_energy">   -616.43554424 </i>
    <i name="e_wo_entrp">   -616.43554424 </i>
    <i name="e_0_energy">   -616.43554424 </i>
   </energy>
  </scstep>
  <scstep>
   <time name="dav">  291.39  297.30</time>
   <time name="total">  298.82  304.87</time>
   <energy>
    <i name="e_fr_energy">   -616.43570618 </i>
    <i name="e_wo_entrp">   -616.43570618 </i>
    <i name="e_0_energy">   -616.43570618 </i>
   </energy>
  </scstep>
  <scstep>
   <time name="dav">  300.92  308.06</time>
   <time name="total">  308.39  315.64</time>
   <energy>
    <i name="e_fr_energy">   -616.43507681 </i>
    <i name="e_wo_entrp">   -616.43507681 </i>
    <i name="e_0_energy">   -616.43507681 </i>
   </energy>
  </scstep>
  <scstep>
   <time name="dav">  297.33  304.72</time>
   <time name="total">  304.75  312.29</time>
   <energy>
    <i name="e_fr_energy">   -616.43515306 </i>
    <i name="e_wo_entrp">   -616.43515306 </i>
    <i name="e_0_energy">   -616.43515306 </i>
   </energy>
  </scstep>
  <scstep>
   <time name="dav">  205.76  210.36</time>
   <time name="total">  213.42  218.09</time>
   <energy>
    <i name="e_fr_energy">   -616.43501593 </i>
    <i name="e_wo_entrp">   -616.43501593 </i>
    <i name="e_0_energy">   -616.43501593 </i>
   </energy>
  </scstep>
  <scstep>
   <time name="dav">  203.47  207.69</time>
   <time name="total">  211.15  215.51</time>
   <energy>
    <i name="e_fr_energy">   -616.43511499 </i>
    <i name="e_wo_entrp">   -616.43511499 </i>
    <i name="e_0_energy">   -616.43511499 </i>
   </energy>
  </scstep>
  <scstep>
   <time name="dav">  324.98  332.74</time>
   <time name="total">  332.62  340.55</time>
   <energy>
    <i name="e_fr_energy">   -616.43269785 </i>
    <i name="e_wo_entrp">   -616.43269785 </i>
    <i name="e_0_energy">   -616.43269785 </i>
   </energy>
  </scstep>
  <scstep>
   <time name="dav">  281.80  287.65</time>
   <time name="total">  289.49  295.39</time>
   <energy>
    <i name="e_fr_energy">   -616.43226857 </i>
    <i name="e_wo_entrp">   -616.43226857 </i>
    <i name="e_0_energy">   -616.43226857 </i>
   </energy>
  </scstep>
  <scstep>
   <time name="dav">  233.05  237.85</time>
   <time name="total">  240.61  245.61</time>
   <energy>
    <i name="e_fr_energy">   -616.43237649 </i>
    <i name="e_wo_entrp">   -616.43237649 </i>
    <i name="e_0_energy">   -616.43237649 </i>
   </energy>
  </scstep>
  <scstep>
   <time name="dav">  265.50  271.51</time>
   <time name="total">  273.04  279.34</time>
   <energy>
    <i name="e_fr_energy">   -616.43239442 </i>
    <i name="e_wo_entrp">   -616.43239442 </i>
    <i name="e_0_energy">   -616.43239442 </i>
   </energy>
  </scstep>
  <scstep>
   <time name="dav">  200.71  205.65</time>
   <time name="total">  208.24  213.42</time>
   <energy>
    <i name="e_fr_energy">   -616.43244355 </i>
    <i name="e_wo_entrp">   -616.43244355 </i>
    <i name="e_0_energy">   -616.43244355 </i>
   </energy>
  </scstep>
  <scstep>
   <time name="dav">  221.79  226.48</time>
   <time name="total">  229.49  234.38</time>
   <energy>
    <i name="e_fr_energy">   -616.43251097 </i>
    <i name="e_wo_entrp">   -616.43251097 </i>
    <i name="e_0_energy">   -616.43251097 </i>
   </energy>
  </scstep>
  <scstep>
   <time name="dav">  235.62  240.73</time>
   <time name="total">  243.18  248.52</time>
   <energy>
    <i name="e_fr_energy">   -616.43252269 </i>
    <i name="e_wo_entrp">   -616.43252269 </i>
    <i name="e_0_energy">   -616.43252269 </i>
   </energy>
  </scstep>
  <scstep>
   <time name="dav">  211.40  216.45</time>
   <time name="total">  219.12  224.25</time>
   <energy>
    <i name="e_fr_energy">   -616.43246113 </i>
    <i name="e_wo_entrp">   -616.43246113 </i>
    <i name="e_0_energy">   -616.43246113 </i>
   </energy>
  </scstep>
  <scstep>
   <time name="dav">  232.37  237.47</time>
   <time name="total">  240.02  245.29</time>
   <energy>
    <i name="e_fr_energy">   -616.43245967 </i>
    <i name="e_wo_entrp">   -616.43245967 </i>
    <i name="e_0_energy">   -616.43245967 </i>
   </energy>
  </scstep>
  <scstep>
   <time name="dav">  162.23  165.75</time>
   <time name="total">  169.64  173.44</time>
   <energy>
    <i name="e_fr_energy">   -616.43245548 </i>
    <i name="e_wo_entrp">   -616.43245548 </i>
    <i name="e_0_energy">   -616.43245548 </i>
   </energy>
  </scstep>
  <scstep>
   <time name="dav">  160.01  163.12</time>
   <time name="total">  167.56  170.83</time>
   <energy>
    <i name="e_fr_energy">   -616.43244665 </i>
    <i name="e_wo_entrp">   -616.43244665 </i>
    <i name="e_0_energy">   -616.43244665 </i>
   </energy>
  </scstep>
  <scstep>
   <time name="dav">  172.66  176.71</time>
   <time name="total">  180.24  184.52</time>
   <energy>
    <i name="e_fr_energy">   -616.43243540 </i>
    <i name="e_wo_entrp">   -616.43243540 </i>
    <i name="e_0_energy">   -616.43243540 </i>
   </energy>
  </scstep>
  <scstep>
   <time name="dav">  229.52  235.02</time>
   <time name="total">  237.16  242.86</time>
   <energy>
    <i name="e_fr_energy">   -616.43243509 </i>
    <i name="e_wo_entrp">   -616.43243509 </i>
    <i name="e_0_energy">   -616.43243509 </i>
   </energy>
  </scstep>
  <scstep>
   <time name="dav">  147.47  150.48</time>
   <time name="total">  149.36  152.42</time>
   <energy>
    <i name="alphaZ">   1915.67052055 </i>
    <i name="ewald"> -48532.31467432 </i>
    <i name="hartreedc"> -28983.28901640 </i>
    <i name="XCdc">   3297.26795268 </i>
    <i name="pawpsdc">  81709.81506637 </i>
    <i name="pawaedc"> -84425.60151120 </i>
    <i name="eentropy">     -0.00000000 </i>
    <i name="bandstr"> -11329.94456139 </i>
    <i name="atom">  85731.96378919 </i>
    <i name="e_fr_energy">   -616.43243452 </i>
    <i name="e_wo_entrp">   -616.43243452 </i>
    <i name="e_0_energy">   -616.43243452 </i>
   </energy>
  </scstep>
  <structure>
   <crystal>
    <varray name="basis" >
     <v>      11.73572724      -0.05744286       0.00000000 </v>
     <v>       0.05480788      11.21833490       0.00000000 </v>
     <v>       0.00000000       0.00000000      11.19562010 </v>
    </varray>
    <i name="volume">   1473.99817718 </i>
    <varray name="rec_basis" >
     <v>       0.08520785      -0.00041629       0.00000000 </v>
     <v>       0.00043630       0.08913766       0.00000000 </v>
     <v>       0.00000000       0.00000000       0.08932064 </v>
    </varray>
   </crystal>
   <varray name="positions" >
    <v>       0.03541706       0.36188408       0.35648149 </v>
    <v>       0.36875039       0.36277547       0.35648149 </v>
    <v>       0.70208372       0.36277547       0.35648149 </v>
    <v>       0.03541706       0.86277547       0.35648149 </v>
    <v>       0.36875039       0.86277547       0.35648149 </v>
    <v>       0.70208372       0.86277547       0.35648149 </v>
    <v>       0.03541706       0.36277547       0.85648149 </v>
    <v>       0.36875039       0.36277547       0.85648149 </v>
    <v>       0.70208372       0.36277547       0.85648149 </v>
    <v>       0.03541706       0.86277547       0.85648149 </v>
    <v>       0.36875039       0.86277547       0.85648149 </v>
    <v>       0.70208372       0.86277547       0.85648149 </v>
    <v>       0.03541706       0.11277547       0.14351851 </v>
    <v>       0.36875039       0.11277547       0.14351851 </v>
    <v>       0.70208372       0.11277547       0.14351851 </v>
    <v>       0.03541706       0.61277547       0.14351851 </v>
    <v>       0.36875039       0.61277547       0.14351851 </v>
    <v>       0.70208372       0.61277547       0.14351851 </v>
    <v>       0.03541706       0.11277547       0.64351851 </v>
    <v>       0.36875039       0.11277547       0.64351851 </v>
    <v>       0.70208372       0.11277547       0.64351851 </v>
    <v>       0.03541706       0.61277547       0.64351851 </v>
    <v>       0.36875039       0.61277547       0.64351851 </v>
    <v>       0.70208372       0.61277547       0.64351851 </v>
    <v>       0.20209458       0.21898060       0.27246215 </v>
    <v>       0.53542792       0.21898060       0.27246215 </v>
    <v>       0.86876125       0.21898060       0.27246215 </v>
    <v>       0.20209458       0.71898060       0.27246215 </v>
    <v>       0.53542792       0.71898060       0.27246215 </v>
    <v>       0.86876125       0.71898060       0.27246215 </v>
    <v>       0.20209458       0.21898060       0.77246215 </v>
    <v>       0.53542792       0.21898060       0.77246215 </v>
    <v>       0.86876125       0.21898060       0.77246215 </v>
    <v>       0.20209458       0.71898060       0.77246215 </v>
    <v>       0.53542792       0.71898060       0.77246215 </v>
    <v>       0.86876125       0.71898060       0.77246215 </v>
    <v>       0.20209458       0.46898060       0.22753785 </v>
    <v>       0.53542792       0.46898060       0.22753785 </v>
    <v>       0.86876125       0.46898060       0.22753785 </v>
    <v>       0.20209458       0.96898060       0.22753785 </v>
    <v>       0.53542792       0.96898060       0.22753785 </v>
    <v>       0.86876125       0.96898060       0.22753785 </v>
    <v>       0.20209458       0.46898060       0.72753785 </v>
    <v>       0.53542792       0.46898060       0.72753785 </v>
    <v>       0.86876125       0.46898060       0.72753785 </v>
    <v>       0.20209458       0.96898060       0.72753785 </v>
    <v>       0.53542792       0.96898060       0.72753785 </v>
    <v>       0.86876125       0.96898060       0.72753785 </v>
    <v>       0.20209064       0.36769237       0.37376509 </v>
    <v>       0.53542398       0.36769237       0.37376509 </v>
    <v>       0.86875731       0.36769237       0.37376509 </v>
    <v>       0.20209064       0.86769237       0.37376509 </v>
    <v>       0.53542398       0.86769237       0.37376509 </v>
    <v>       0.86875731       0.86769237       0.37376509 </v>
    <v>       0.20209064       0.36769237       0.87376509 </v>
    <v>       0.53542398       0.36769237       0.87376509 </v>
    <v>       0.86875731       0.36769237       0.87376509 </v>
    <v>       0.20209064       0.86769237       0.87376509 </v>
    <v>       0.53542398       0.86769237       0.87376509 </v>
    <v>       0.86875731       0.86769237       0.87376509 </v>
    <v>       0.20209064       0.11769237       0.12623491 </v>
    <v>       0.53542398       0.11769237       0.12623491 </v>
    <v>       0.86875731       0.11769237       0.12623491 </v>
    <v>       0.20209064       0.61769237       0.12623491 </v>
    <v>       0.53542398       0.61769237       0.12623491 </v>
    <v>       0.86875731       0.61769237       0.12623491 </v>
    <v>       0.20209064       0.11769237       0.62623491 </v>
    <v>       0.53542398       0.11769237       0.62623491 </v>
    <v>       0.86875731       0.11769237       0.62623491 </v>
    <v>       0.20209064       0.61769237       0.62623491 </v>
    <v>       0.53542398       0.61769237       0.62623491 </v>
    <v>       0.86875731       0.61769237       0.62623491 </v>
    <v>       0.03542751       0.37011947       0.12029448 </v>
    <v>       0.36876084       0.37011947       0.12029448 </v>
    <v>       0.70209418       0.37011947       0.12029448 </v>
    <v>       0.03542751       0.87011947       0.12029448 </v>
    <v>       0.36876084       0.87011947       0.12029448 </v>
    <v>       0.70209418       0.87011947       0.12029448 </v>
    <v>       0.03542751       0.37011947       0.62029448 </v>
    <v>       0.36876084       0.37011947       0.62029448 </v>
    <v>       0.70209418       0.37011947       0.62029448 </v>
    <v>       0.03542751       0.87011947       0.62029448 </v>
    <v>       0.36876084       0.87011947       0.62029448 </v>
    <v>       0.70209418       0.87011947       0.62029448 </v>
    <v>       0.03542751       0.12011947       0.37970552 </v>
    <v>       0.36876084       0.12011947       0.37970552 </v>
    <v>       0.70209418       0.12011947       0.37970552 </v>
    <v>       0.03542751       0.62011947       0.37970552 </v>
    <v>       0.36876084       0.62011947       0.37970552 </v>
    <v>       0.70209418       0.62011947       0.37970552 </v>
    <v>       0.03542751       0.12011947       0.87970552 </v>
    <v>       0.36876084       0.12011947       0.87970552 </v>
    <v>       0.70209418       0.12011947       0.87970552 </v>
    <v>       0.03542751       0.62011947       0.87970552 </v>
    <v>       0.36876084       0.62011947       0.87970552 </v>
    <v>       0.70209418       0.62011947       0.87970552 </v>
    <v>       0.20209387       0.01225309       0.48003463 </v>
    <v>       0.53542720       0.01225309       0.48003463 </v>
    <v>       0.86876054       0.01225309       0.48003463 </v>
    <v>       0.20209387       0.51225309       0.48003463 </v>
    <v>       0.53542720       0.51225309       0.48003463 </v>
    <v>       0.86876054       0.51225309       0.48003463 </v>
    <v>       0.20209387       0.01225309       0.98003463 </v>
    <v>       0.53542720       0.01225309       0.98003463 </v>
    <v>       0.86876054       0.01225309       0.98003463 </v>
    <v>       0.20209387       0.51225309       0.98003463 </v>
    <v>       0.53542720       0.51225309       0.98003463 </v>
    <v>       0.86876054       0.51225309       0.98003463 </v>
    <v>       0.20209387       0.26225309       0.01996537 </v>
    <v>       0.53542720       0.26225309       0.01996537 </v>
    <v>       0.86876054       0.26225309       0.01996537 </v>
    <v>       0.20209387       0.76225309       0.01996537 </v>
    <v>       0.53542720       0.76225309       0.01996537 </v>
    <v>       0.86876054       0.76225309       0.01996537 </v>
    <v>       0.20209387       0.26225309       0.51996537 </v>
    <v>       0.53542720       0.26225309       0.51996537 </v>
    <v>       0.86876054       0.26225309       0.51996537 </v>
    <v>       0.20209387       0.76225309       0.51996537 </v>
    <v>       0.53542720       0.76225309       0.51996537 </v>
    <v>       0.86876054       0.76225309       0.51996537 </v>
   </varray>
  </structure>
  <varray name="forces" >
   <v>       0.00018719       0.01525870      -0.00037578 </v>
   <v>       0.00197549       0.00008638      -0.00009327 </v>
   <v>      -0.00019919       0.00011548      -0.00008877 </v>
   <v>       0.00010235      -0.00275654      -0.00004986 </v>
   <v>       0.00206655      -0.00021757      -0.00010671 </v>
   <v>      -0.00029565      -0.00018902      -0.00010325 </v>
   <v>       0.00010941      -0.00022863      -0.00013323 </v>
   <v>       0.00201733      -0.00002873      -0.00008460 </v>
   <v>      -0.00023904      -0.00000040      -0.00008103 </v>
   <v>       0.00011314       0.00002664      -0.00009432 </v>
   <v>       0.00202292      -0.00008726      -0.00008753 </v>
   <v>      -0.00024770      -0.00005915      -0.00008394 </v>
   <v>       0.00011361      -0.00029567      -0.00127531 </v>
   <v>       0.00210666      -0.00006208       0.00001883 </v>
   <v>      -0.00033280      -0.00003274       0.00001540 </v>
   <v>       0.00011465      -0.00029736       0.00136697 </v>
   <v>       0.00195063      -0.00006312       0.00016028 </v>
   <v>      -0.00017773      -0.00003318       0.00015804 </v>
   <v>       0.00011347      -0.00006628       0.00110023 </v>
   <v>       0.00216419      -0.00004590       0.00014676 </v>
   <v>      -0.00038629      -0.00001538       0.00014301 </v>
   <v>       0.00011241      -0.00006986      -0.00079374 </v>
   <v>       0.00190112      -0.00004575       0.00006106 </v>
   <v>      -0.00012366      -0.00001818       0.00005686 </v>
   <v>       0.00423942      -0.00123354      -0.00185209 </v>
   <v>      -0.00018105       0.00024728      -0.00015240 </v>
   <v>      -0.00461481      -0.00119540      -0.00185089 </v>
   <v>      -0.00098411      -0.00045073       0.00040740 </v>
   <v>      -0.00018382      -0.00005047       0.00005991 </v>
   <v>       0.00061510      -0.00046099       0.00041008 </v>
   <v>      -0.00025414       0.00026980       0.00004628 </v>
   <v>      -0.00018166       0.00014957      -0.00004534 </v>
   <v>      -0.00010876       0.00027175       0.00006478 </v>
   <v>      -0.00009099      -0.00004915      -0.00014787 </v>
   <v>      -0.00018094       0.00003534      -0.00003014 </v>
   <v>      -0.00027469      -0.00005216      -0.00012887 </v>
   <v>      -0.00335303      -0.00003601       0.00228063 </v>
   <v>      -0.00018123       0.00018450       0.00009767 </v>
   <v>       0.00298990      -0.00006947       0.00228367 </v>
   <v>       0.00036064      -0.00040520      -0.00039645 </v>
   <v>      -0.00018177      -0.00000488      -0.00002445 </v>
   <v>      -0.00072974      -0.00040541      -0.00040981 </v>
   <v>      -0.00011398       0.00021006      -0.00006637 </v>
   <v>      -0.00018149       0.00012812       0.00005815 </v>
   <v>      -0.00024933       0.00020268      -0.00008582 </v>
   <v>      -0.00019935      -0.00004519       0.00018207 </v>
   <v>      -0.00018249       0.00006495       0.00004283 </v>
   <v>      -0.00016970      -0.00004685       0.00016637 </v>
   <v>      -0.00074767      -0.00594553       0.00019994 </v>
   <v>      -0.00001636      -0.00038035       0.00019577 </v>
   <v>       0.00046705      -0.00595656       0.00024207 </v>
   <v>      -0.00003547       0.00254229       0.00001540 </v>
   <v>      -0.00001452       0.00033329       0.00018686 </v>
   <v>      -0.00016281       0.00253082       0.00005751 </v>
   <v>       0.00006158      -0.00002306       0.00012178 </v>
   <v>      -0.00001536      -0.00009536       0.00016962 </v>
   <v>      -0.00028383      -0.00000337       0.00013376 </v>
   <v>      -0.00000341       0.00000179       0.00009178 </v>
   <v>      -0.00001112       0.00003275       0.00017110 </v>
   <v>      -0.00022214       0.00002925       0.00010867 </v>
   <v>      -0.00033756      -0.00008991       0.00089323 </v>
   <v>      -0.00001120      -0.00004803      -0.00002749 </v>
   <v>       0.00011217      -0.00009455       0.00083681 </v>
   <v>       0.00031696       0.00010034      -0.00093316 </v>
   <v>      -0.00000711       0.00000780      -0.00031015 </v>
   <v>      -0.00054378       0.00008828      -0.00098345 </v>
   <v>      -0.00057458      -0.00014315      -0.00113849 </v>
   <v>      -0.00000594      -0.00004456      -0.00033657 </v>
   <v>       0.00034455      -0.00013198      -0.00115235 </v>
   <v>       0.00056896       0.00011081       0.00082981 </v>
   <v>      -0.00000890       0.00000504      -0.00005715 </v>
   <v>      -0.00079188       0.00014288       0.00080335 </v>
   <v>      -0.00017797      -0.00254002      -0.00015634 </v>
   <v>      -0.00012384      -0.00024546      -0.00011114 </v>
   <v>      -0.00021125      -0.00023651      -0.00010570 </v>
   <v>      -0.00016132       0.00067723       0.00001004 </v>
   <v>      -0.00019584       0.00009026      -0.00005827 </v>
   <v>      -0.00014222       0.00009636      -0.00005840 </v>
   <v>      -0.00017091      -0.00180018       0.00010452 </v>
   <v>      -0.00018648      -0.00036209      -0.00006248 </v>
   <v>      -0.00015217      -0.00036567      -0.00006530 </v>
   <v>      -0.00015559       0.00127584      -0.00014133 </v>
   <v>      -0.00020289       0.00025767      -0.00009593 </v>
   <v>      -0.00012649       0.00025516      -0.00009290 </v>
   <v>      -0.00015916       0.00188067      -0.00140191 </v>
   <v>      -0.00061659      -0.00017058       0.00007080 </v>
   <v>       0.00027883      -0.00017326       0.00007071 </v>
   <v>      -0.00014812       0.00390079       0.00153731 </v>
   <v>       0.00025659      -0.00005893       0.00008975 </v>
   <v>      -0.00059230      -0.00004981       0.00008667 </v>
   <v>      -0.00016889      -0.00027099       0.00000021 </v>
   <v>      -0.00023552      -0.00008786       0.00005816 </v>
   <v>      -0.00009745      -0.00009298       0.00005683 </v>
   <v>      -0.00016413      -0.00015019       0.00015218 </v>
   <v>      -0.00010941      -0.00004816       0.00007925 </v>
   <v>      -0.00022431      -0.00005075       0.00007754 </v>
   <v>       0.00179809      -0.00118503       0.00095774 </v>
   <v>      -0.00023983      -0.00021225       0.00019800 </v>
   <v>      -0.00217720      -0.00117798       0.00095709 </v>
   <v>      -0.00507768      -0.00048728      -0.00284684 </v>
   <v>      -0.00023703       0.00032310      -0.00011659 </v>
   <v>       0.00470715      -0.00055630      -0.00285926 </v>
   <v>      -0.00014079      -0.00011381      -0.00017617 </v>
   <v>      -0.00023735      -0.00002236       0.00001972 </v>
   <v>      -0.00023191      -0.00012426      -0.00015681 </v>
   <v>       0.00010902       0.00023269       0.00019125 </v>
   <v>      -0.00023676       0.00012819       0.00006483 </v>
   <v>      -0.00047657       0.00022246       0.00021405 </v>
   <v>      -0.00023023       0.00032621      -0.00033324 </v>
   <v>      -0.00023751       0.00018853      -0.00004711 </v>
   <v>      -0.00013617       0.00030790      -0.00031789 </v>
   <v>      -0.00002688      -0.00019384       0.00009820 </v>
   <v>      -0.00023895      -0.00005624      -0.00003822 </v>
   <v>      -0.00034456      -0.00021423       0.00011699 </v>
   <v>       0.00336246       0.00106263       0.00229955 </v>
   <v>      -0.00023589       0.00031626       0.00009572 </v>
   <v>      -0.00372107       0.00108145       0.00228395 </v>
   <v>      -0.00117833      -0.00123284      -0.00063052 </v>
   <v>      -0.00023840      -0.00019209      -0.00018278 </v>
   <v>       0.00079922      -0.00125333      -0.00064006 </v>
  </varray>
  <varray name="stress" >
   <v>      -0.13508672       0.00473080       0.00001042 </v>
   <v>       0.00399904      -0.11977236       0.00515988 </v>
   <v>       0.00001013       0.00515974      -0.13074609 </v>
  </varray>
  <energy>
   <i name="e_fr_energy">   -616.43243452 </i>
   <i name="e_wo_entrp">   -616.43243452 </i>
   <i name="e_0_energy">     -0.00000000 </i>
  </energy>
  <time name="totalsc"> 6723.46 6868.64</time>
  <eigenvalues>
   <array>
    <dimension dim="1">band</dimension>
    <dimension dim="2">kpoint</dimension>
    <dimension dim="3">spin</dimension>
    <field>eigene</field>
    <field>occ</field>
    <set>
     <set comment="spin 1">
      <set comment="kpoint 1">
       <r>  -51.4822    1.0000 </r>
       <r>  -51.4821    1.0000 </r>
       <r>  -51.4821    1.0000 </r>
       <r>  -51.4820    1.0000 </r>
       <r>  -51.4820    1.0000 </r>
       <r>  -51.4820    1.0000 </r>
       <r>  -51.4665    1.0000 </r>
       <r>  -51.4664    1.0000 </r>
       <r>  -51.4664    1.0000 </r>
       <r>  -51.4664    1.0000 </r>
       <r>  -51.4664    1.0000 </r>
       <r>  -51.4664    1.0000 </r>
       <r>  -51.4663    1.0000 </r>
       <r>  -51.4663    1.0000 </r>
       <r>  -51.4663    1.0000 </r>
       <r>  -51.4663    1.0000 </r>
       <r>  -51.4663    1.0000 </r>
       <r>  -51.4663    1.0000 </r>
       <r>  -51.4508    1.0000 </r>
       <r>  -51.4508    1.0000 </r>
       <r>  -51.4508    1.0000 </r>
       <r>  -51.4508    1.0000 </r>
       <r>  -51.4508    1.0000 </r>
       <r>  -51.4508    1.0000 </r>
       <r>  -50.2018    1.0000 </r>
       <r>  -50.2017    1.0000 </r>
       <r>  -50.2015    1.0000 </r>
       <r>  -50.2015    1.0000 </r>
       <r>  -50.2010    1.0000 </r>
       <r>  -50.2008    1.0000 </r>
       <r>  -50.1991    1.0000 </r>
       <r>  -50.1989    1.0000 </r>
       <r>  -50.1988    1.0000 </r>
       <r>  -50.1988    1.0000 </r>
       <r>  -50.1988    1.0000 </r>
       <r>  -50.1988    1.0000 </r>
       <r>  -50.1987    1.0000 </r>
       <r>  -50.1986    1.0000 </r>
       <r>  -50.1983    1.0000 </r>
       <r>  -50.1981    1.0000 </r>
       <r>  -50.1981    1.0000 </r>
       <r>  -50.1980    1.0000 </r>
       <r>  -50.1961    1.0000 </r>
       <r>  -50.1961    1.0000 </r>
       <r>  -50.1960    1.0000 </r>
       <r>  -50.1958    1.0000 </r>
       <r>  -50.1955    1.0000 </r>
       <r>  -50.1953    1.0000 </r>
       <r>  -50.0070    1.0000 </r>
       <r>  -50.0069    1.0000 </r>
       <r>  -50.0068    1.0000 </r>
       <r>  -50.0068    1.0000 </r>
       <r>  -50.0067    1.0000 </r>
       <r>  -50.0067    1.0000 </r>
       <r>  -49.9907    1.0000 </r>
       <r>  -49.9907    1.0000 </r>
       <r>  -49.9906    1.0000 </r>
       <r>  -49.9906    1.0000 </r>
       <r>  -49.9906    1.0000 </r>
       <r>  -49.9906    1.0000 </r>
       <r>  -49.9906    1.0000 </r>
       <r>  -49.9905    1.0000 </r>
       <r>  -49.9905    1.0000 </r>
       <r>  -49.9905    1.0000 </r>
       <r>  -49.9905    1.0000 </r>
       <r>  -49.9904    1.0000 </r>
       <r>  -49.9741    1.0000 </r>
       <r>  -49.9741    1.0000 </r>
       <r>  -49.9740    1.0000 </r>
       <r>  -49.9740    1.0000 </r>
       <r>  -49.9740    1.0000 </r>
       <r>  -49.9740    1.0000 </r>
       <r>  -40.5234    1.0000 </r>
       <r>  -40.5233    1.0000 </r>
       <r>  -40.5210    1.0000 </r>
       <r>  -40.5208    1.0000 </r>
       <r>  -40.5207    1.0000 </r>
       <r>  -40.5206    1.0000 </r>
       <r>  -40.5144    1.0000 </r>
       <r>  -40.5140    1.0000 </r>
       <r>  -40.5140    1.0000 </r>
       <r>  -40.5137    1.0000 </r>
       <r>  -40.5130    1.0000 </r>
       <r>  -40.5126    1.0000 </r>
       <r>  -40.5126    1.0000 </r>
       <r>  -40.5126    1.0000 </r>
       <r>  -40.5126    1.0000 </r>
       <r>  -40.5124    1.0000 </r>
       <r>  -40.5123    1.0000 </r>
       <r>  -40.5121    1.0000 </r>
       <r>  -40.5046    1.0000 </r>
       <r>  -40.5045    1.0000 </r>
       <r>  -40.5043    1.0000 </r>
       <r>  -40.5043    1.0000 </r>
       <r>  -40.5042    1.0000 </r>
       <r>  -40.5042    1.0000 </r>
       <r>  -40.3063    1.0000 </r>
       <r>  -40.3060    1.0000 </r>
       <r>  -40.3057    1.0000 </r>
       <r>  -40.3056    1.0000 </r>
       <r>  -40.3054    1.0000 </r>
       <r>  -40.3053    1.0000 </r>
       <r>  -40.3051    1.0000 </r>
       <r>  -40.3051    1.0000 </r>
       <r>  -40.3051    1.0000 </r>
       <r>  -40.3050    1.0000 </r>
       <r>  -40.3050    1.0000 </r>
       <r>  -40.3050    1.0000 </r>
       <r>  -40.3050    1.0000 </r>
       <r>  -40.3049    1.0000 </r>
       <r>  -40.3048    1.0000 </r>
       <r>  -40.3048    1.0000 </r>
       <r>  -40.3047    1.0000 </r>
       <r>  -40.3046    1.0000 </r>
       <r>  -40.3046    1.0000 </r>
       <r>  -40.3044    1.0000 </r>
       <r>  -40.3044    1.0000 </r>
       <r>  -40.3041    1.0000 </r>
       <r>  -40.3034    1.0000 </r>
       <r>  -40.3032    1.0000 </r>
       <r>  -13.5425    1.0000 </r>
       <r>  -13.5424    1.0000 </r>
       <r>  -13.5119    1.0000 </r>
       <r>  -13.5119    1.0000 </r>
       <r>  -13.5116    1.0000 </r>
       <r>  -13.4889    1.0000 </r>
       <r>  -13.3744    1.0000 </r>
       <r>  -13.3744    1.0000 </r>
       <r>  -13.3743    1.0000 </r>
       <r>  -13.3743    1.0000 </r>
       <r>  -13.3731    1.0000 </r>
       <r>  -13.3730    1.0000 </r>
       <r>  -13.3730    1.0000 </r>
       <r>  -13.3729    1.0000 </r>
       <r>  -13.3405    1.0000 </r>
       <r>  -13.3404    1.0000 </r>
       <r>  -13.3368    1.0000 </r>
       <r>  -13.3368    1.0000 </r>
       <r>  -13.2385    1.0000 </r>
       <r>  -13.2385    1.0000 </r>
       <r>  -13.2018    1.0000 </r>
       <r>  -13.2018    1.0000 </r>
       <r>  -13.1975    1.0000 </r>
       <r>  -13.1649    1.0000 </r>
       <r>   -7.7341    1.0000 </r>
       <r>   -7.6692    1.0000 </r>
       <r>   -7.5822    1.0000 </r>
       <r>   -7.5821    1.0000 </r>
       <r>   -7.5404    1.0000 </r>
       <r>   -7.5402    1.0000 </r>
       <r>   -7.5300    1.0000 </r>
       <r>   -7.5300    1.0000 </r>
       <r>   -7.4081    1.0000 </r>
       <r>   -7.3741    1.0000 </r>
       <r>   -7.3739    1.0000 </r>
       <r>   -7.3514    1.0000 </r>
       <r>   -7.3513    1.0000 </r>
       <r>   -7.3513    1.0000 </r>
       <r>   -7.3512    1.0000 </r>
       <r>   -7.3426    1.0000 </r>
       <r>   -7.3425    1.0000 </r>
       <r>   -7.3425    1.0000 </r>
       <r>   -7.3424    1.0000 </r>
       <r>   -7.3144    1.0000 </r>
       <r>   -7.3143    1.0000 </r>
       <r>   -7.2336    1.0000 </r>
       <r>   -7.1157    1.0000 </r>
       <r>   -7.1157    1.0000 </r>
       <r>   -1.9249    1.0000 </r>
       <r>   -1.9144    1.0000 </r>
       <r>   -1.8863    1.0000 </r>
       <r>   -1.8445    1.0000 </r>
       <r>   -1.8445    1.0000 </r>
       <r>   -1.7993    1.0000 </r>
       <r>   -1.7993    1.0000 </r>
       <r>   -1.7913    1.0000 </r>
       <r>   -1.7913    1.0000 </r>
       <r>   -1.7913    1.0000 </r>
       <r>   -1.7777    1.0000 </r>
       <r>   -1.7777    1.0000 </r>
       <r>   -1.5319    1.0000 </r>
       <r>   -1.5319    1.0000 </r>
       <r>   -1.5145    1.0000 </r>
       <r>   -1.5145    1.0000 </r>
       <r>   -1.4874    1.0000 </r>
       <r>   -1.4874    1.0000 </r>
       <r>   -1.4874    1.0000 </r>
       <r>   -1.4873    1.0000 </r>
       <r>   -1.4730    1.0000 </r>
       <r>   -1.4730    1.0000 </r>
       <r>   -1.4730    1.0000 </r>
       <r>   -1.4729    1.0000 </r>
       <r>   -1.4338    1.0000 </r>
       <r>   -1.4338    1.0000 </r>
       <r>   -1.3243    1.0000 </r>
       <r>   -1.3243    1.0000 </r>
       <r>   -1.2048    1.0000 </r>
       <r>   -1.1834    1.0000 </r>
       <r>   -1.1561    1.0000 </r>
       <r>   -1.1560    1.0000 </r>
       <r>   -1.1560    1.0000 </r>
       <r>   -1.1559    1.0000 </r>
       <r>   -1.0795    1.0000 </r>
       <r>   -1.0794    1.0000 </r>
       <r>   -1.0580    1.0000 </r>
       <r>   -1.0579    1.0000 </r>
       <r>   -1.0578    1.0000 </r>
       <r>   -1.0578    1.0000 </r>
       <r>   -0.9973    1.0000 </r>
       <r>   -0.9972    1.0000 </r>
       <r>   -0.9795    1.0000 </r>
       <r>   -0.9794    1.0000 </r>
       <r>   -0.9376    1.0000 </r>
       <r>   -0.9376    1.0000 </r>
       <r>   -0.9376    1.0000 </r>
       <r>   -0.9375    1.0000 </r>
       <r>   -0.9173    1.0000 </r>
       <r>   -0.9172    1.0000 </r>
       <r>   -0.9172    1.0000 </r>
       <r>   -0.9172    1.0000 </r>
       <r>   -0.9074    1.0000 </r>
       <r>   -0.9074    1.0000 </r>
       <r>   -0.8207    1.0000 </r>
       <r>   -0.8206    1.0000 </r>
       <r>   -0.8181    1.0000 </r>
       <r>   -0.8180    1.0000 </r>
       <r>   -0.6978    1.0000 </r>
       <r>   -0.6676    1.0000 </r>
       <r>   -0.6390    1.0000 </r>
       <r>   -0.6022    1.0000 </r>
       <r>   -0.5697    1.0000 </r>
       <r>   -0.5059    1.0000 </r>
       <r>   -0.5048    1.0000 </r>
       <r>   -0.5048    1.0000 </r>
       <r>   -0.5048    1.0000 </r>
       <r>   -0.5048    1.0000 </r>
       <r>   -0.4616    1.0000 </r>
       <r>   -0.4616    1.0000 </r>
       <r>   -0.4590    1.0000 </r>
       <r>   -0.4589    1.0000 </r>
       <r>   -0.3993    1.0000 </r>
       <r>   -0.3993    1.0000 </r>
       <r>   -0.3978    1.0000 </r>
       <r>   -0.3978    1.0000 </r>
       <r>   -0.3978    1.0000 </r>
       <r>   -0.3978    1.0000 </r>
       <r>   -0.2856    1.0000 </r>
       <r>   -0.2856    1.0000 </r>
       <r>   -0.2820    1.0000 </r>
       <r>   -0.2820    1.0000 </r>
       <r>   -0.2795    1.0000 </r>
       <r>   -0.2794    1.0000 </r>
       <r>   -0.1798    1.0000 </r>
       <r>   -0.1759    1.0000 </r>
       <r>   -0.1462    1.0000 </r>
       <r>   -0.1462    1.0000 </r>
       <r>   -0.1329    1.0000 </r>
       <r>   -0.1328    1.0000 </r>
       <r>   -0.0907    1.0000 </r>
       <r>   -0.0907    1.0000 </r>
       <r>   -0.0023    1.0000 </r>
       <r>    0.0236    1.0000 </r>
       <r>    0.0858    1.0000 </r>
       <r>    0.0860    1.0000 </r>
       <r>    0.0919    1.0000 </r>
[...]
       <r>   -39.9634     0.1790   120.0000 </r>
       <r>   -39.7253     0.0000   120.0000 </r>
       <r>   -39.4871     0.0000   120.0000 </r>
       <r>   -39.2489     0.0000   120.0000 </r>
       <r>   -39.0107     0.0000   120.0000 </r>
       <r>   -38.7726     0.0000   120.0000 </r>
       <r>   -38.5344     0.0000   120.0000 </r>
       <r>   -38.2962     0.0000   120.0000 </r>
       <r>   -38.0581     0.0000   120.0000 </r>
       <r>   -37.8199     0.0000   120.0000 </r>
       <r>   -37.5817     0.0000   120.0000 </r>
       <r>   -37.3436     0.0000   120.0000 </r>
       <r>   -37.1054     0.0000   120.0000 </r>
       <r>   -36.8672     0.0000   120.0000 </r>
       <r>   -36.6291     0.0000   120.0000 </r>
       <r>   -36.3909     0.0000   120.0000 </r>
       <r>   -36.1527     0.0000   120.0000 </r>
       <r>   -35.9145     0.0000   120.0000 </r>
       <r>   -35.6764     0.0000   120.0000 </r>
       <r>   -35.4382     0.0000   120.0000 </r>
       <r>   -35.2000     0.0000   120.0000 </r>
       <r>   -34.9619     0.0000   120.0000 </r>
       <r>   -34.7237     0.0000   120.0000 </r>
       <r>   -34.4855     0.0000   120.0000 </r>
       <r>   -34.2474     0.0000   120.0000 </r>
       <r>   -34.0092     0.0000   120.0000 </r>
       <r>   -33.7710     0.0000   120.0000 </r>
       <r>   -33.5329     0.0000   120.0000 </r>
       <r>   -33.2947     0.0000   120.0000 </r>
       <r>   -33.0565     0.0000   120.0000 </r>
       <r>   -32.8183     0.0000   120.0000 </r>
       <r>   -32.5802     0.0000   120.0000 </r>
       <r>   -32.3420     0.0000   120.0000 </r>
       <r>   -32.1038     0.0000   120.0000 </r>
       <r>   -31.8657     0.0000   120.0000 </r>
       <r>   -31.6275     0.0000   120.0000 </r>
       <r>   -31.3893     0.0000   120.0000 </r>
       <r>   -31.1512     0.0000   120.0000 </r>
       <r>   -30.9130     0.0000   120.0000 </r>
       <r>   -30.6748     0.0000   120.0000 </r>
       <r>   -30.4367     0.0000   120.0000 </r>
       <r>   -30.1985     0.0000   120.0000 </r>
       <r>   -29.9603     0.0000   120.0000 </r>
       <r>   -29.7221     0.0000   120.0000 </r>
       <r>   -29.4840     0.0000   120.0000 </r>
       <r>   -29.2458     0.0000   120.0000 </r>
       <r>   -29.0076     0.0000   120.0000 </r>
       <r>   -28.7695     0.0000   120.0000 </r>
       <r>   -28.5313     0.0000   120.0000 </r>
       <r>   -28.2931     0.0000   120.0000 </r>
       <r>   -28.0550     0.0000   120.0000 </r>
       <r>   -27.8168     0.0000   120.0000 </r>
       <r>   -27.5786     0.0000   120.0000 </r>
       <r>   -27.3405     0.0000   120.0000 </r>
       <r>   -27.1023     0.0000   120.0000 </r>
       <r>   -26.8641     0.0000   120.0000 </r>
       <r>   -26.6259     0.0000   120.0000 </r>
       <r>   -26.3878     0.0000   120.0000 </r>
       <r>   -26.1496     0.0000   120.0000 </r>
       <r>   -25.9114     0.0000   120.0000 </r>
       <r>   -25.6733     0.0000   120.0000 </r>
       <r>   -25.4351     0.0000   120.0000 </r>
       <r>   -25.1969     0.0000   120.0000 </r>
       <r>   -24.9588     0.0000   120.0000 </r>
       <r>   -24.7206     0.0000   120.0000 </r>
       <r>   -24.4824     0.0000   120.0000 </r>
       <r>   -24.2443     0.0000   120.0000 </r>
       <r>   -24.0061     0.0000   120.0000 </r>
       <r>   -23.7679     0.0000   120.0000 </r>
       <r>   -23.5297     0.0000   120.0000 </r>
       <r>   -23.2916     0.0000   120.0000 </r>
       <r>   -23.0534     0.0000   120.0000 </r>
       <r>   -22.8152     0.0000   120.0000 </r>
       <r>   -22.5771     0.0000   120.0000 </r>
       <r>   -22.3389     0.0000   120.0000 </r>
       <r>   -22.1007     0.0000   120.0000 </r>
       <r>   -21.8626     0.0000   120.0000 </r>
       <r>   -21.6244     0.0000   120.0000 </r>
       <r>   -21.3862     0.0000   120.0000 </r>
       <r>   -21.1481     0.0000   120.0000 </r>
       <r>   -20.9099     0.0000   120.0000 </r>
       <r>   -20.6717     0.0000   120.0000 </r>
       <r>   -20.4335     0.0000   120.0000 </r>
       <r>   -20.1954     0.0000   120.0000 </r>
       <r>   -19.9572     0.0000   120.0000 </r>
       <r>   -19.7190     0.0000   120.0000 </r>
       <r>   -19.4809     0.0000   120.0000 </r>
       <r>   -19.2427     0.0000   120.0000 </r>
       <r>   -19.0045     0.0000   120.0000 </r>
       <r>   -18.7664     0.0000   120.0000 </r>
       <r>   -18.5282     0.0000   120.0000 </r>
       <r>   -18.2900     0.0000   120.0000 </r>
       <r>   -18.0519     0.0000   120.0000 </r>
       <r>   -17.8137     0.0000   120.0000 </r>
       <r>   -17.5755     0.0000   120.0000 </r>
       <r>   -17.3373     0.0000   120.0000 </r>
       <r>   -17.0992     0.0000   120.0000 </r>
       <r>   -16.8610     0.0000   120.0000 </r>
       <r>   -16.6228     0.0000   120.0000 </r>
       <r>   -16.3847     0.0000   120.0000 </r>
       <r>   -16.1465     0.0000   120.0000 </r>
       <r>   -15.9083     0.0000   120.0000 </r>
       <r>   -15.6702     0.0000   120.0000 </r>
       <r>   -15.4320     0.0000   120.0000 </r>
       <r>   -15.1938     0.0000   120.0000 </r>
       <r>   -14.9557     0.0000   120.0000 </r>
       <r>   -14.7175     0.0000   120.0000 </r>
       <r>   -14.4793     0.0000   120.0000 </r>
       <r>   -14.2411     0.0000   120.0000 </r>
       <r>   -14.0030     0.0000   120.0000 </r>
       <r>   -13.7648     0.0000   120.0000 </r>
       <r>   -13.5266     0.0000   120.0000 </r>
       <r>   -13.2885     0.2213   120.0527 </r>
       <r>   -13.0503    65.1597   135.5717 </r>
       <r>   -12.8121    35.3876   144.0000 </r>
       <r>   -12.5740     0.0001   144.0000 </r>
       <r>   -12.3358     0.0000   144.0000 </r>
       <r>   -12.0976     0.0000   144.0000 </r>
       <r>   -11.8595     0.0000   144.0000 </r>
       <r>   -11.6213     0.0000   144.0000 </r>
       <r>   -11.3831     0.0000   144.0000 </r>
       <r>   -11.1449     0.0000   144.0000 </r>
       <r>   -10.9068     0.0000   144.0000 </r>
       <r>   -10.6686     0.0000   144.0000 </r>
       <r>   -10.4304     0.0000   144.0000 </r>
       <r>   -10.1923     0.0000   144.0000 </r>
       <r>    -9.9541     0.0000   144.0000 </r>
       <r>    -9.7159     0.0000   144.0000 </r>
       <r>    -9.4778     0.0000   144.0000 </r>
       <r>    -9.2396     0.0000   144.0000 </r>
       <r>    -9.0014     0.0000   144.0000 </r>
       <r>    -8.7633     0.0000   144.0000 </r>
       <r>    -8.5251     0.0000   144.0000 </r>
       <r>    -8.2869     0.0000   144.0000 </r>
       <r>    -8.0487     0.0000   144.0000 </r>
       <r>    -7.8106     0.0000   144.0000 </r>
       <r>    -7.5724     0.0871   144.0207 </r>
       <r>    -7.3342    27.7801   150.6371 </r>
       <r>    -7.0961    49.3735   162.3963 </r>
       <r>    -6.8579    22.7117   167.8056 </r>
       <r>    -6.6197     0.8163   168.0000 </r>
       <r>    -6.3816     0.0000   168.0000 </r>
       <r>    -6.1434     0.0000   168.0000 </r>
       <r>    -5.9052     0.0000   168.0000 </r>
       <r>    -5.6671     0.0000   168.0000 </r>
       <r>    -5.4289     0.0000   168.0000 </r>
       <r>    -5.1907     0.0000   168.0000 </r>
       <r>    -4.9525     0.0000   168.0000 </r>
       <r>    -4.7144     0.0000   168.0000 </r>
       <r>    -4.4762     0.0000   168.0000 </r>
       <r>    -4.2380     0.0000   168.0000 </r>
       <r>    -3.9999     0.0000   168.0000 </r>
       <r>    -3.7617     0.0000   168.0000 </r>
       <r>    -3.5235     0.0000   168.0000 </r>
       <r>    -3.2854     0.0000   168.0000 </r>
       <r>    -3.0472     0.0000   168.0000 </r>
       <r>    -2.8090     0.0000   168.0000 </r>
       <r>    -2.5709     0.0000   168.0000 </r>
       <r>    -2.3327     0.0000   168.0000 </r>
       <r>    -2.0945     0.0000   168.0000 </r>
       <r>    -1.8563     0.0000   168.0000 </r>
       <r>    -1.6182     0.0000   168.0000 </r>
       <r>    -1.3800     0.0000   168.0000 </r>
       <r>    -1.1418     0.0000   168.0000 </r>
       <r>    -0.9037     0.0000   168.0000 </r>
       <r>    -0.6655     1.4920   168.3554 </r>
       <r>    -0.4273    16.5669   172.3011 </r>
       <r>    -0.1892    38.5674   181.4866 </r>
       <r>     0.0490    35.9055   190.0382 </r>
       <r>     0.2872    21.8170   195.2344 </r>
       <r>     0.5253    48.5927   206.8077 </r>
       <r>     0.7635    48.1661   218.2793 </r>
       <r>     1.0017    68.2450   234.5332 </r>
       <r>     1.2399    27.8400   241.1638 </r>
       <r>     1.4780    22.2829   246.4709 </r>
       <r>     1.7162    37.5196   255.4070 </r>
       <r>     1.9544    46.0870   266.3835 </r>
       <r>     2.1925    30.0007   273.5287 </r>
       <r>     2.4307    35.8966   282.0782 </r>
       <r>     2.6689    25.2762   288.0982 </r>
       <r>     2.9070    45.6310   298.9661 </r>
       <r>     3.1452    41.8528   308.9342 </r>
       <r>     3.3834    15.3496   312.5900 </r>
       <r>     3.6215    28.8946   319.4718 </r>
       <r>     3.8597    57.7322   333.2218 </r>
       <r>     4.0979    11.6648   336.0000 </r>
       <r>     4.3361     0.0000   336.0000 </r>
       <r>     4.5742     0.0000   336.0000 </r>
       <r>     4.8124     0.0000   336.0000 </r>
       <r>     5.0506     0.0000   336.0000 </r>
       <r>     5.2887     0.0000   336.0000 </r>
       <r>     5.5269     0.0000   336.0000 </r>
       <r>     5.7651     0.0000   336.0000 </r>
       <r>     6.0032     0.0019   336.0005 </r>
       <r>     6.2414     1.7602   336.4197 </r>
       <r>     6.4796    12.9371   339.5009 </r>
       <r>     6.7177    26.7997   345.8838 </r>
       <r>     6.9559    24.8459   351.8013 </r>
       <r>     7.1941    55.6569   365.0571 </r>
       <r>     7.4323    77.1872   383.4407 </r>
       <r>     7.6704    29.8756   390.5562 </r>
       <r>     7.9086    40.8021   400.2740 </r>
       <r>     8.1468    76.5097   418.4962 </r>
       <r>     8.3849    52.7058   431.0491 </r>
       <r>     8.6231     4.3846   432.0934 </r>
       <r>     8.8613     1.0462   432.3426 </r>
       <r>     9.0994     4.3974   433.3899 </r>
       <r>     9.3376    10.2269   435.8256 </r>
       <r>     9.5758    20.3751   440.6784 </r>
       <r>     9.8139    28.6516   447.5023 </r>
       <r>    10.0521    30.0016   454.6477 </r>
       <r>    10.2903    30.3526   461.8768 </r>
       <r>    10.5285    25.8574   468.0352 </r>
       <r>    10.7666    26.0479   474.2391 </r>
       <r>    11.0048    24.8266   480.1520 </r>
       <r>    11.2430    10.0145   482.5371 </r>
       <r>    11.4811    25.4269   488.5931 </r>
       <r>    11.7193    29.3781   495.5900 </r>
       <r>    11.9575    57.0756   509.1837 </r>
       <r>    12.1956    44.7034   519.8306 </r>
       <r>    12.4338    27.2004   526.3089 </r>
       <r>    12.6720    23.5155   531.9096 </r>
       <r>    12.9101    27.9567   538.5680 </r>
       <r>    13.1483    32.8962   546.4029 </r>
       <r>    13.3865    19.6063   551.0725 </r>
       <r>    13.6247     3.8943   552.0000 </r>
       <r>    13.8628     0.0000   552.0000 </r>
       <r>    14.1010     0.0000   552.0000 </r>
       <r>    14.3392     0.0000   552.0000 </r>
       <r>    14.5773     0.0000   552.0000 </r>
       <r>    14.8155     0.0000   552.0000 </r>
       <r>    15.0537     0.0000   552.0000 </r>
       <r>    15.2918     0.0000   552.0000 </r>
       <r>    15.5300     0.0000   552.0000 </r>
       <r>    15.7682     0.0000   552.0000 </r>
       <r>    16.0063     0.0000   552.0000 </r>
       <r>    16.2445     0.0000   552.0000 </r>
       <r>    16.4827     0.0000   552.0000 </r>
       <r>    16.7209     0.0000   552.0000 </r>
      </set>
     </set>
    </array>
   </total>
  </dos>
 </calculation>
 <structure name="finalpos" >
  <crystal>
   <varray name="basis" >
    <v>      11.73572724      -0.05744286       0.00000000 </v>
    <v>       0.05480788      11.21833490       0.00000000 </v>
    <v>       0.00000000       0.00000000      11.19562010 </v>
   </varray>
   <i name="volume">   1473.99817718 </i>
   <varray name="rec_basis" >
    <v>       0.08520785      -0.00041629       0.00000000 </v>
    <v>       0.00043630       0.08913766       0.00000000 </v>
    <v>       0.00000000       0.00000000       0.08932064 </v>
   </varray>
  </crystal>
  <varray name="positions" >
   <v>       0.03541706       0.36188408       0.35648149 </v>
   <v>       0.36875039       0.36277547       0.35648149 </v>
   <v>       0.70208372       0.36277547       0.35648149 </v>
   <v>       0.03541706       0.86277547       0.35648149 </v>
   <v>       0.36875039       0.86277547       0.35648149 </v>
   <v>       0.70208372       0.86277547       0.35648149 </v>
   <v>       0.03541706       0.36277547       0.85648149 </v>
   <v>       0.36875039       0.36277547       0.85648149 </v>
   <v>       0.70208372       0.36277547       0.85648149 </v>
   <v>       0.03541706       0.86277547       0.85648149 </v>
   <v>       0.36875039       0.86277547       0.85648149 </v>
   <v>       0.70208372       0.86277547       0.85648149 </v>
   <v>       0.03541706       0.11277547       0.14351851 </v>
   <v>       0.36875039       0.11277547       0.14351851 </v>
   <v>       0.70208372       0.11277547       0.14351851 </v>
   <v>       0.03541706       0.61277547       0.14351851 </v>
   <v>       0.36875039       0.61277547       0.14351851 </v>
   <v>       0.70208372       0.61277547       0.14351851 </v>
   <v>       0.03541706       0.11277547       0.64351851 </v>
   <v>       0.36875039       0.11277547       0.64351851 </v>
   <v>       0.70208372       0.11277547       0.64351851 </v>
   <v>       0.03541706       0.61277547       0.64351851 </v>
   <v>       0.36875039       0.61277547       0.64351851 </v>
   <v>       0.70208372       0.61277547       0.64351851 </v>
   <v>       0.20209458       0.21898060       0.27246215 </v>
   <v>       0.53542792       0.21898060       0.27246215 </v>
   <v>       0.86876125       0.21898060       0.27246215 </v>
   <v>       0.20209458       0.71898060       0.27246215 </v>
   <v>       0.53542792       0.71898060       0.27246215 </v>
   <v>       0.86876125       0.71898060       0.27246215 </v>
   <v>       0.20209458       0.21898060       0.77246215 </v>
   <v>       0.53542792       0.21898060       0.77246215 </v>
   <v>       0.86876125       0.21898060       0.77246215 </v>
   <v>       0.20209458       0.71898060       0.77246215 </v>
   <v>       0.53542792       0.71898060       0.77246215 </v>
   <v>       0.86876125       0.71898060       0.77246215 </v>
   <v>       0.20209458       0.46898060       0.22753785 </v>
   <v>       0.53542792       0.46898060       0.22753785 </v>
   <v>       0.86876125       0.46898060       0.22753785 </v>
   <v>       0.20209458       0.96898060       0.22753785 </v>
   <v>       0.53542792       0.96898060       0.22753785 </v>
   <v>       0.86876125       0.96898060       0.22753785 </v>
   <v>       0.20209458       0.46898060       0.72753785 </v>
   <v>       0.53542792       0.46898060       0.72753785 </v>
   <v>       0.86876125       0.46898060       0.72753785 </v>
   <v>       0.20209458       0.96898060       0.72753785 </v>
   <v>       0.53542792       0.96898060       0.72753785 </v>
   <v>       0.86876125       0.96898060       0.72753785 </v>
   <v>       0.20209064       0.36769237       0.37376509 </v>
   <v>       0.53542398       0.36769237       0.37376509 </v>
   <v>       0.86875731       0.36769237       0.37376509 </v>
   <v>       0.20209064       0.86769237       0.37376509 </v>
   <v>       0.53542398       0.86769237       0.37376509 </v>
   <v>       0.86875731       0.86769237       0.37376509 </v>
   <v>       0.20209064       0.36769237       0.87376509 </v>
   <v>       0.53542398       0.36769237       0.87376509 </v>
   <v>       0.86875731       0.36769237       0.87376509 </v>
   <v>       0.20209064       0.86769237       0.87376509 </v>
   <v>       0.53542398       0.86769237       0.87376509 </v>
   <v>       0.86875731       0.86769237       0.87376509 </v>
   <v>       0.20209064       0.11769237       0.12623491 </v>
   <v>       0.53542398       0.11769237       0.12623491 </v>
   <v>       0.86875731       0.11769237       0.12623491 </v>
   <v>       0.20209064       0.61769237       0.12623491 </v>
   <v>       0.53542398       0.61769237       0.12623491 </v>
   <v>       0.86875731       0.61769237       0.12623491 </v>
   <v>       0.20209064       0.11769237       0.62623491 </v>
   <v>       0.53542398       0.11769237       0.62623491 </v>
   <v>       0.86875731       0.11769237       0.62623491 </v>
   <v>       0.20209064       0.61769237       0.62623491 </v>
   <v>       0.53542398       0.61769237       0.62623491 </v>
   <v>       0.86875731       0.61769237       0.62623491 </v>
   <v>       0.03542751       0.37011947       0.12029448 </v>
   <v>       0.36876084       0.37011947       0.12029448 </v>
   <v>       0.70209418       0.37011947       0.12029448 </v>
   <v>       0.03542751       0.87011947       0.12029448 </v>
   <v>       0.36876084       0.87011947       0.12029448 </v>
   <v>       0.70209418       0.87011947       0.12029448 </v>
   <v>       0.03542751       0.37011947       0.62029448 </v>
   <v>       0.36876084       0.37011947       0.62029448 </v>
   <v>       0.70209418       0.37011947       0.62029448 </v>
   <v>       0.03542751       0.87011947       0.62029448 </v>
   <v>       0.36876084       0.87011947       0.62029448 </v>
   <v>       0.70209418       0.87011947       0.62029448 </v>
   <v>       0.03542751       0.12011947       0.37970552 </v>
   <v>       0.36876084       0.12011947       0.37970552 </v>
   <v>       0.70209418       0.12011947       0.37970552 </v>
   <v>       0.03542751       0.62011947       0.37970552 </v>
   <v>       0.36876084       0.62011947       0.37970552 </v>
   <v>       0.70209418       0.62011947       0.37970552 </v>
   <v>       0.03542751       0.12011947       0.87970552 </v>
   <v>       0.36876084       0.12011947       0.87970552 </v>
   <v>       0.70209418       0.12011947       0.87970552 </v>
   <v>       0.03542751       0.62011947       0.87970552 </v>
   <v>       0.36876084       0.62011947       0.87970552 </v>
   <v>       0.70209418       0.62011947       0.87970552 </v>
   <v>       0.20209387       0.01225309       0.48003463 </v>
   <v>       0.53542720       0.01225309       0.48003463 </v>
   <v>       0.86876054       0.01225309       0.48003463 </v>
   <v>       0.20209387       0.51225309       0.48003463 </v>
   <v>       0.53542720       0.51225309       0.48003463 </v>
   <v>       0.86876054       0.51225309       0.48003463 </v>
   <v>       0.20209387       0.01225309       0.98003463 </v>
   <v>       0.53542720       0.01225309       0.98003463 </v>
   <v>       0.86876054       0.01225309       0.98003463 </v>
   <v>       0.20209387       0.51225309       0.98003463 </v>
   <v>       0.53542720       0.51225309       0.98003463 </v>
   <v>       0.86876054       0.51225309       0.98003463 </v>
   <v>       0.20209387       0.26225309       0.01996537 </v>
   <v>       0.53542720       0.26225309       0.01996537 </v>
   <v>       0.86876054       0.26225309       0.01996537 </v>
   <v>       0.20209387       0.76225309       0.01996537 </v>
   <v>       0.53542720       0.76225309       0.01996537 </v>
   <v>       0.86876054       0.76225309       0.01996537 </v>
   <v>       0.20209387       0.26225309       0.51996537 </v>
   <v>       0.53542720       0.26225309       0.51996537 </v>
   <v>       0.86876054       0.26225309       0.51996537 </v>
   <v>       0.20209387       0.76225309       0.51996537 </v>
   <v>       0.53542720       0.76225309       0.51996537 </v>
   <v>       0.86876054       0.76225309       0.51996537 </v>
  </varray>
 </structure>
</modeling>
