 144 144   0   0
  0.1325381E+02  0.1546422E-08  0.1214491E-08  0.1054520E-08  0.5000000E-15
  1.000000000000000E-004
  CAR 
 unknown system                          
     17.01265829    -54.87171884  301      5.09183242      1.00000000
    -54.872  0.0000E+00  0.0000E+00  0.0000E+00  0.0000E+00
    -54.632  0.0000E+00  0.0000E+00  0.0000E+00  0.0000E+00
    -54.392  0.0000E+00  0.0000E+00  0.0000E+00  0.0000E+00
    -54.153  0.0000E+00  0.0000E+00  0.0000E+00  0.0000E+00
    -53.913  0.0000E+00  0.0000E+00  0.0000E+00  0.0000E+00
    -53.674  0.0000E+00  0.0000E+00  0.0000E+00  0.0000E+00
    -53.434  0.0000E+00  0.0000E+00  0.0000E+00  0.0000E+00
    -53.194  0.0000E+00  0.0000E+00  0.0000E+00  0.0000E+00
    -52.955  0.0000E+00  0.0000E+00  0.0000E+00  0.0000E+00
    -52.715  0.0000E+00  0.0000E+00  0.0000E+00  0.0000E+00
    -52.476  0.0000E+00  0.0000E+00  0.0000E+00  0.0000E+00
    -52.236  0.0000E+00  0.0000E+00  0.0000E+00  0.0000E+00
    -51.996  0.0000E+00  0.0000E+00  0.0000E+00  0.0000E+00
    -51.757  0.3080E-03  0.0000E+00  0.7381E-04  0.0000E+00
    -51.517  0.4978E+02  0.0000E+00  0.1193E+02  0.0000E+00
    -51.277  0.8642E+02  0.0000E+00  0.3264E+02  0.0000E+00
    -51.038  0.1404E+02  0.0000E+00  0.3600E+02  0.0000E+00
    -50.798  0.0000E+00  0.0000E+00  0.3600E+02  0.0000E+00
    -50.559  0.0000E+00  0.0000E+00  0.3600E+02  0.0000E+00
    -50.319  0.1154E-03  0.0000E+00  0.3600E+02  0.0000E+00
    -50.079  0.6649E+02  0.0000E+00  0.5193E+02  0.0000E+00
    -49.840  0.2091E+03  0.0000E+00  0.1020E+03  0.0000E+00
    -49.600  0.2489E+02  0.0000E+00  0.1080E+03  0.0000E+00
    -49.361  0.0000E+00  0.0000E+00  0.1080E+03  0.0000E+00
    -49.121  0.0000E+00  0.0000E+00  0.1080E+03  0.0000E+00
    -48.881  0.0000E+00  0.0000E+00  0.1080E+03  0.0000E+00
    -48.642  0.0000E+00  0.0000E+00  0.1080E+03  0.0000E+00
    -48.402  0.0000E+00  0.0000E+00  0.1080E+03  0.0000E+00
    -48.163  0.0000E+00  0.0000E+00  0.1080E+03  0.0000E+00
    -47.923  0.0000E+00  0.0000E+00  0.1080E+03  0.0000E+00
    -47.683  0.0000E+00  0.0000E+00  0.1080E+03  0.0000E+00
    -47.444  0.0000E+00  0.0000E+00  0.1080E+03  0.0000E+00
    -47.204  0.0000E+00  0.0000E+00  0.1080E+03  0.0000E+00
    -46.964  0.0000E+00  0.6099E-01  0.1080E+03  0.1461E-01
    -46.725  0.0000E+00  0.5089E+02  0.1080E+03  0.1221E+02
    -46.485  0.0000E+00  0.9555E+02  0.1080E+03  0.3510E+02
    -46.246  0.0000E+00  0.1452E+03  0.1080E+03  0.6990E+02
    -46.006  0.0000E+00  0.1590E+03  0.1080E+03  0.1080E+03
    -45.766  0.0000E+00  0.4459E-02  0.1080E+03  0.1080E+03
    -45.527  0.0000E+00  0.0000E+00  0.1080E+03  0.1080E+03
    -45.287  0.0000E+00  0.0000E+00  0.1080E+03  0.1080E+03
    -45.048  0.0000E+00  0.0000E+00  0.1080E+03  0.1080E+03
    -44.808  0.0000E+00  0.0000E+00  0.1080E+03  0.1080E+03
    -44.568  0.0000E+00  0.0000E+00  0.1080E+03  0.1080E+03
    -44.329  0.0000E+00  0.0000E+00  0.1080E+03  0.1080E+03
    -44.089  0.0000E+00  0.0000E+00  0.1080E+03  0.1080E+03
    -43.849  0.0000E+00  0.0000E+00  0.1080E+03  0.1080E+03
    -43.610  0.0000E+00  0.0000E+00  0.1080E+03  0.1080E+03
    -43.370  0.0000E+00  0.0000E+00  0.1080E+03  0.1080E+03
    -43.131  0.0000E+00  0.0000E+00  0.1080E+03  0.1080E+03
    -42.891  0.0000E+00  0.0000E+00  0.1080E+03  0.1080E+03
    -42.651  0.0000E+00  0.0000E+00  0.1080E+03  0.1080E+03
    -42.412  0.0000E+00  0.0000E+00  0.1080E+03  0.1080E+03
    -42.172  0.0000E+00  0.0000E+00  0.1080E+03  0.1080E+03
    -41.933  0.0000E+00  0.0000E+00  0.1080E+03  0.1080E+03
    -41.693  0.0000E+00  0.0000E+00  0.1080E+03  0.1080E+03
    -41.453  0.0000E+00  0.0000E+00  0.1080E+03  0.1080E+03
    -41.214  0.0000E+00  0.0000E+00  0.1080E+03  0.1080E+03
    -40.974  0.0000E+00  0.0000E+00  0.1080E+03  0.1080E+03
    -40.734  0.2048E-08  0.6752E-09  0.1080E+03  0.1080E+03
    -40.495  0.3010E+02  0.2685E+02  0.1152E+03  0.1144E+03
    -40.255  0.4574E+02  0.4934E+02  0.1262E+03  0.1263E+03
    -40.016  0.1001E+03  0.1000E+03  0.1501E+03  0.1502E+03
    -39.776  0.2442E+02  0.2410E+02  0.1560E+03  0.1560E+03
    -39.536  0.0000E+00  0.0000E+00  0.1560E+03  0.1560E+03
    -39.297  0.0000E+00  0.0000E+00  0.1560E+03  0.1560E+03
    -39.057  0.0000E+00  0.0000E+00  0.1560E+03  0.1560E+03
    -38.818  0.0000E+00  0.0000E+00  0.1560E+03  0.1560E+03
    -38.578  0.0000E+00  0.0000E+00  0.1560E+03  0.1560E+03
    -38.338  0.0000E+00  0.0000E+00  0.1560E+03  0.1560E+03
    -38.099  0.0000E+00  0.0000E+00  0.1560E+03  0.1560E+03
    -37.859  0.0000E+00  0.0000E+00  0.1560E+03  0.1560E+03
    -37.619  0.0000E+00  0.0000E+00  0.1560E+03  0.1560E+03
    -37.380  0.0000E+00  0.0000E+00  0.1560E+03  0.1560E+03
    -37.140  0.0000E+00  0.0000E+00  0.1560E+03  0.1560E+03
    -36.901  0.0000E+00  0.0000E+00  0.1560E+03  0.1560E+03
    -36.661  0.0000E+00  0.0000E+00  0.1560E+03  0.1560E+03
    -36.421  0.0000E+00  0.0000E+00  0.1560E+03  0.1560E+03
    -36.182  0.0000E+00  0.0000E+00  0.1560E+03  0.1560E+03
    -35.942  0.0000E+00  0.0000E+00  0.1560E+03  0.1560E+03
    -35.703  0.0000E+00  0.0000E+00  0.1560E+03  0.1560E+03
    -35.463  0.0000E+00  0.0000E+00  0.1560E+03  0.1560E+03
    -35.223  0.0000E+00  0.0000E+00  0.1560E+03  0.1560E+03
    -34.984  0.0000E+00  0.0000E+00  0.1560E+03  0.1560E+03
    -34.744  0.0000E+00  0.0000E+00  0.1560E+03  0.1560E+03
    -34.504  0.0000E+00  0.0000E+00  0.1560E+03  0.1560E+03
    -34.265  0.0000E+00  0.0000E+00  0.1560E+03  0.1560E+03
    -34.025  0.0000E+00  0.0000E+00  0.1560E+03  0.1560E+03
    -33.786  0.0000E+00  0.0000E+00  0.1560E+03  0.1560E+03
    -33.546  0.0000E+00  0.0000E+00  0.1560E+03  0.1560E+03
    -33.306  0.0000E+00  0.0000E+00  0.1560E+03  0.1560E+03
    -33.067  0.0000E+00  0.0000E+00  0.1560E+03  0.1560E+03
    -32.827  0.0000E+00  0.0000E+00  0.1560E+03  0.1560E+03
    -32.588  0.0000E+00  0.0000E+00  0.1560E+03  0.1560E+03
    -32.348  0.0000E+00  0.0000E+00  0.1560E+03  0.1560E+03
    -32.108  0.0000E+00  0.0000E+00  0.1560E+03  0.1560E+03
    -31.869  0.0000E+00  0.0000E+00  0.1560E+03  0.1560E+03
    -31.629  0.0000E+00  0.0000E+00  0.1560E+03  0.1560E+03
    -31.389  0.0000E+00  0.0000E+00  0.1560E+03  0.1560E+03
    -31.150  0.0000E+00  0.0000E+00  0.1560E+03  0.1560E+03
    -30.910  0.0000E+00  0.0000E+00  0.1560E+03  0.1560E+03
    -30.671  0.0000E+00  0.0000E+00  0.1560E+03  0.1560E+03
    -30.431  0.0000E+00  0.0000E+00  0.1560E+03  0.1560E+03
    -30.191  0.0000E+00  0.0000E+00  0.1560E+03  0.1560E+03
    -29.952  0.0000E+00  0.0000E+00  0.1560E+03  0.1560E+03
    -29.712  0.0000E+00  0.0000E+00  0.1560E+03  0.1560E+03
    -29.473  0.0000E+00  0.0000E+00  0.1560E+03  0.1560E+03
    -29.233  0.0000E+00  0.0000E+00  0.1560E+03  0.1560E+03
    -28.993  0.0000E+00  0.0000E+00  0.1560E+03  0.1560E+03
    -28.754  0.0000E+00  0.0000E+00  0.1560E+03  0.1560E+03
    -28.514  0.0000E+00  0.0000E+00  0.1560E+03  0.1560E+03
    -28.274  0.0000E+00  0.0000E+00  0.1560E+03  0.1560E+03
    -28.035  0.0000E+00  0.0000E+00  0.1560E+03  0.1560E+03
    -27.795  0.0000E+00  0.0000E+00  0.1560E+03  0.1560E+03
    -27.556  0.0000E+00  0.0000E+00  0.1560E+03  0.1560E+03
    -27.316  0.0000E+00  0.0000E+00  0.1560E+03  0.1560E+03
    -27.076  0.0000E+00  0.0000E+00  0.1560E+03  0.1560E+03
    -26.837  0.0000E+00  0.0000E+00  0.1560E+03  0.1560E+03
    -26.597  0.0000E+00  0.0000E+00  0.1560E+03  0.1560E+03
    -26.358  0.0000E+00  0.0000E+00  0.1560E+03  0.1560E+03
    -26.118  0.0000E+00  0.0000E+00  0.1560E+03  0.1560E+03
    -25.878  0.0000E+00  0.0000E+00  0.1560E+03  0.1560E+03
    -25.639  0.0000E+00  0.0000E+00  0.1560E+03  0.1560E+03
    -25.399  0.0000E+00  0.0000E+00  0.1560E+03  0.1560E+03
    -25.160  0.0000E+00  0.0000E+00  0.1560E+03  0.1560E+03
    -24.920  0.0000E+00  0.0000E+00  0.1560E+03  0.1560E+03
    -24.680  0.0000E+00  0.0000E+00  0.1560E+03  0.1560E+03
    -24.441  0.0000E+00  0.0000E+00  0.1560E+03  0.1560E+03
    -24.201  0.0000E+00  0.0000E+00  0.1560E+03  0.1560E+03
    -23.961  0.0000E+00  0.0000E+00  0.1560E+03  0.1560E+03
    -23.722  0.0000E+00  0.0000E+00  0.1560E+03  0.1560E+03
    -23.482  0.0000E+00  0.0000E+00  0.1560E+03  0.1560E+03
    -23.243  0.0000E+00  0.0000E+00  0.1560E+03  0.1560E+03
    -23.003  0.0000E+00  0.0000E+00  0.1560E+03  0.1560E+03
    -22.763  0.0000E+00  0.0000E+00  0.1560E+03  0.1560E+03
    -22.524  0.0000E+00  0.0000E+00  0.1560E+03  0.1560E+03
    -22.284  0.0000E+00  0.0000E+00  0.1560E+03  0.1560E+03
    -22.045  0.0000E+00  0.0000E+00  0.1560E+03  0.1560E+03
    -21.805  0.0000E+00  0.0000E+00  0.1560E+03  0.1560E+03
    -21.565  0.0000E+00  0.0000E+00  0.1560E+03  0.1560E+03
    -21.326  0.0000E+00  0.0000E+00  0.1560E+03  0.1560E+03
    -21.086  0.0000E+00  0.0000E+00  0.1560E+03  0.1560E+03
    -20.846  0.0000E+00  0.0000E+00  0.1560E+03  0.1560E+03
    -20.607  0.0000E+00  0.0000E+00  0.1560E+03  0.1560E+03
    -20.367  0.0000E+00  0.0000E+00  0.1560E+03  0.1560E+03
    -20.128  0.0000E+00  0.0000E+00  0.1560E+03  0.1560E+03
    -19.888  0.0000E+00  0.0000E+00  0.1560E+03  0.1560E+03
    -19.648  0.0000E+00  0.0000E+00  0.1560E+03  0.1560E+03
    -19.409  0.0000E+00  0.0000E+00  0.1560E+03  0.1560E+03
    -19.169  0.0000E+00  0.0000E+00  0.1560E+03  0.1560E+03
    -18.930  0.0000E+00  0.0000E+00  0.1560E+03  0.1560E+03
    -18.690  0.0000E+00  0.0000E+00  0.1560E+03  0.1560E+03
    -18.450  0.0000E+00  0.0000E+00  0.1560E+03  0.1560E+03
    -18.211  0.0000E+00  0.0000E+00  0.1560E+03  0.1560E+03
    -17.971  0.0000E+00  0.0000E+00  0.1560E+03  0.1560E+03
    -17.731  0.0000E+00  0.0000E+00  0.1560E+03  0.1560E+03
    -17.492  0.0000E+00  0.0000E+00  0.1560E+03  0.1560E+03
    -17.252  0.0000E+00  0.0000E+00  0.1560E+03  0.1560E+03
    -17.013  0.0000E+00  0.0000E+00  0.1560E+03  0.1560E+03
    -16.773  0.0000E+00  0.0000E+00  0.1560E+03  0.1560E+03
    -16.533  0.0000E+00  0.0000E+00  0.1560E+03  0.1560E+03
    -16.294  0.0000E+00  0.0000E+00  0.1560E+03  0.1560E+03
    -16.054  0.0000E+00  0.0000E+00  0.1560E+03  0.1560E+03
    -15.815  0.0000E+00  0.0000E+00  0.1560E+03  0.1560E+03
    -15.575  0.0000E+00  0.0000E+00  0.1560E+03  0.1560E+03
    -15.335  0.0000E+00  0.0000E+00  0.1560E+03  0.1560E+03
    -15.096  0.0000E+00  0.0000E+00  0.1560E+03  0.1560E+03
    -14.856  0.0000E+00  0.0000E+00  0.1560E+03  0.1560E+03
    -14.616  0.0000E+00  0.0000E+00  0.1560E+03  0.1560E+03
    -14.377  0.0000E+00  0.0000E+00  0.1560E+03  0.1560E+03
    -14.137  0.0000E+00  0.0000E+00  0.1560E+03  0.1560E+03
    -13.898  0.1439E-02  0.0000E+00  0.1560E+03  0.1560E+03
    -13.658  0.2236E+02  0.7828E-13  0.1614E+03  0.1560E+03
    -13.418  0.2755E+02  0.1906E+01  0.1680E+03  0.1565E+03
    -13.179  0.9338E+01  0.4452E+02  0.1702E+03  0.1671E+03
    -12.939  0.3143E+02  0.4469E+01  0.1777E+03  0.1682E+03
    -12.700  0.9479E+01  0.4243E+02  0.1800E+03  0.1784E+03
    -12.460  0.0000E+00  0.6829E+01  0.1800E+03  0.1800E+03
    -12.220  0.0000E+00  0.0000E+00  0.1800E+03  0.1800E+03
    -11.981  0.0000E+00  0.0000E+00  0.1800E+03  0.1800E+03
    -11.741  0.0000E+00  0.0000E+00  0.1800E+03  0.1800E+03
    -11.501  0.0000E+00  0.0000E+00  0.1800E+03  0.1800E+03
    -11.262  0.0000E+00  0.0000E+00  0.1800E+03  0.1800E+03
    -11.022  0.0000E+00  0.0000E+00  0.1800E+03  0.1800E+03
    -10.783  0.0000E+00  0.0000E+00  0.1800E+03  0.1800E+03
    -10.543  0.0000E+00  0.0000E+00  0.1800E+03  0.1800E+03
    -10.303  0.0000E+00  0.0000E+00  0.1800E+03  0.1800E+03
    -10.064  0.0000E+00  0.0000E+00  0.1800E+03  0.1800E+03
     -9.824  0.0000E+00  0.0000E+00  0.1800E+03  0.1800E+03
     -9.585  0.0000E+00  0.0000E+00  0.1800E+03  0.1800E+03
     -9.345  0.0000E+00  0.0000E+00  0.1800E+03  0.1800E+03
     -9.105  0.0000E+00  0.0000E+00  0.1800E+03  0.1800E+03
     -8.866  0.0000E+00  0.0000E+00  0.1800E+03  0.1800E+03
     -8.626  0.0000E+00  0.0000E+00  0.1800E+03  0.1800E+03
     -8.386  0.0000E+00  0.0000E+00  0.1800E+03  0.1800E+03
     -8.147  0.0000E+00  0.0000E+00  0.1800E+03  0.1800E+03
     -7.907  0.2790E-02  0.0000E+00  0.1800E+03  0.1800E+03
     -7.668  0.9586E+01  0.2019E-01  0.1823E+03  0.1800E+03
     -7.428  0.2327E+02  0.1216E+02  0.1879E+03  0.1829E+03
     -7.188  0.5618E+02  0.2889E+02  0.2013E+03  0.1898E+03
     -6.949  0.5742E+02  0.6014E+02  0.2151E+03  0.2043E+03
     -6.709  0.3774E+01  0.4587E+02  0.2160E+03  0.2152E+03
     -6.470  0.0000E+00  0.3152E+01  0.2160E+03  0.2160E+03
     -6.230  0.0000E+00  0.0000E+00  0.2160E+03  0.2160E+03
     -5.990  0.0000E+00  0.0000E+00  0.2160E+03  0.2160E+03
     -5.751  0.0000E+00  0.0000E+00  0.2160E+03  0.2160E+03
     -5.511  0.0000E+00  0.0000E+00  0.2160E+03  0.2160E+03
     -5.271  0.0000E+00  0.0000E+00  0.2160E+03  0.2160E+03
     -5.032  0.0000E+00  0.0000E+00  0.2160E+03  0.2160E+03
     -4.792  0.0000E+00  0.0000E+00  0.2160E+03  0.2160E+03
     -4.553  0.0000E+00  0.0000E+00  0.2160E+03  0.2160E+03
     -4.313  0.0000E+00  0.0000E+00  0.2160E+03  0.2160E+03
     -4.073  0.0000E+00  0.0000E+00  0.2160E+03  0.2160E+03
     -3.834  0.0000E+00  0.0000E+00  0.2160E+03  0.2160E+03
     -3.594  0.0000E+00  0.0000E+00  0.2160E+03  0.2160E+03
     -3.355  0.0000E+00  0.0000E+00  0.2160E+03  0.2160E+03
     -3.115  0.0000E+00  0.0000E+00  0.2160E+03  0.2160E+03
     -2.875  0.2649E-13  0.0000E+00  0.2160E+03  0.2160E+03
     -2.636  0.9346E+00  0.0000E+00  0.2162E+03  0.2160E+03
     -2.396  0.1020E+02  0.0000E+00  0.2187E+03  0.2160E+03
     -2.157  0.2069E+02  0.0000E+00  0.2236E+03  0.2160E+03
     -1.917  0.1665E+01  0.0000E+00  0.2240E+03  0.2160E+03
     -1.677  0.3478E+02  0.0000E+00  0.2324E+03  0.2160E+03
     -1.438  0.1975E+02  0.7465E-15  0.2371E+03  0.2160E+03
     -1.198  0.4418E+02  0.9802E-01  0.2477E+03  0.2160E+03
     -0.958  0.4991E+02  0.4433E+01  0.2596E+03  0.2171E+03
     -0.719  0.7521E+02  0.1420E+02  0.2777E+03  0.2205E+03
     -0.479  0.1036E+03  0.1539E+02  0.3025E+03  0.2242E+03
     -0.240  0.8549E+02  0.1979E+02  0.3230E+03  0.2289E+03
      0.000  0.1104E+03  0.4119E+02  0.3494E+03  0.2388E+03
      0.240  0.6924E+02  0.3394E+02  0.3660E+03  0.2469E+03
      0.479  0.3800E+02  0.4228E+02  0.3751E+03  0.2570E+03
      0.719  0.4572E+02  0.3363E+02  0.3861E+03  0.2651E+03
      0.958  0.4867E+02  0.5335E+02  0.3977E+03  0.2779E+03
      1.198  0.5569E+02  0.6015E+02  0.4111E+03  0.2923E+03
      1.438  0.6467E+02  0.4445E+02  0.4266E+03  0.3030E+03
      1.677  0.1008E+03  0.3988E+02  0.4507E+03  0.3125E+03
      1.917  0.5179E+02  0.3855E+02  0.4631E+03  0.3218E+03
      2.157  0.3907E+02  0.3733E+02  0.4725E+03  0.3307E+03
      2.396  0.4648E+02  0.3835E+02  0.4836E+03  0.3399E+03
      2.636  0.4785E+02  0.4977E+02  0.4951E+03  0.3518E+03
      2.875  0.4341E+02  0.6269E+02  0.5055E+03  0.3668E+03
      3.115  0.4009E+02  0.5875E+02  0.5151E+03  0.3809E+03
      3.355  0.4778E+02  0.4764E+02  0.5266E+03  0.3923E+03
      3.594  0.5238E+02  0.3023E+02  0.5391E+03  0.3996E+03
      3.834  0.4522E+02  0.6188E+02  0.5500E+03  0.4144E+03
      4.073  0.3205E+02  0.7221E+02  0.5576E+03  0.4317E+03
      4.313  0.4229E+02  0.1271E+01  0.5678E+03  0.4320E+03
      4.553  0.2345E+02  0.0000E+00  0.5734E+03  0.4320E+03
      4.792  0.1009E+02  0.0000E+00  0.5758E+03  0.4320E+03
      5.032  0.8160E+00  0.0000E+00  0.5760E+03  0.4320E+03
      5.272  0.0000E+00  0.0000E+00  0.5760E+03  0.4320E+03
      5.511  0.0000E+00  0.0000E+00  0.5760E+03  0.4320E+03
      5.751  0.0000E+00  0.0000E+00  0.5760E+03  0.4320E+03
      5.990  0.0000E+00  0.8791E-11  0.5760E+03  0.4320E+03
      6.230  0.0000E+00  0.1547E+00  0.5760E+03  0.4320E+03
      6.470  0.0000E+00  0.8290E+01  0.5760E+03  0.4340E+03
      6.709  0.0000E+00  0.3047E+02  0.5760E+03  0.4413E+03
      6.949  0.1341E-11  0.4374E+02  0.5760E+03  0.4518E+03
      7.188  0.1152E+00  0.7361E+02  0.5760E+03  0.4694E+03
      7.428  0.1246E+00  0.8064E+02  0.5761E+03  0.4888E+03
      7.668  0.9243E+00  0.6542E+02  0.5763E+03  0.5044E+03
      7.907  0.3534E+01  0.8790E+02  0.5771E+03  0.5255E+03
      8.147  0.4259E+01  0.7106E+02  0.5781E+03  0.5425E+03
      8.387  0.7106E+01  0.5419E+02  0.5798E+03  0.5555E+03
      8.626  0.1651E+02  0.3726E+02  0.5838E+03  0.5644E+03
      8.866  0.2519E+02  0.3889E+02  0.5898E+03  0.5738E+03
      9.105  0.1924E+02  0.1918E+02  0.5944E+03  0.5784E+03
      9.345  0.2557E+02  0.1406E+02  0.6006E+03  0.5817E+03
      9.585  0.3137E+02  0.2059E+02  0.6081E+03  0.5867E+03
      9.824  0.2649E+02  0.3009E+02  0.6144E+03  0.5939E+03
     10.064  0.2957E+02  0.2656E+02  0.6215E+03  0.6002E+03
     10.303  0.2276E+02  0.3499E+02  0.6270E+03  0.6086E+03
     10.543  0.2038E+02  0.3517E+02  0.6319E+03  0.6170E+03
     10.783  0.2880E+02  0.2801E+02  0.6388E+03  0.6238E+03
     11.022  0.3888E+02  0.2226E+02  0.6481E+03  0.6291E+03
     11.262  0.3947E+02  0.2179E+02  0.6575E+03  0.6343E+03
     11.502  0.3716E+02  0.3234E+02  0.6664E+03  0.6421E+03
     11.741  0.4504E+02  0.3869E+02  0.6772E+03  0.6513E+03
     11.981  0.3838E+02  0.4271E+02  0.6864E+03  0.6616E+03
     12.220  0.3859E+02  0.5210E+02  0.6957E+03  0.6741E+03
     12.460  0.3995E+02  0.4662E+02  0.7052E+03  0.6852E+03
     12.700  0.3639E+02  0.3593E+02  0.7140E+03  0.6938E+03
     12.939  0.3427E+02  0.4133E+02  0.7222E+03  0.7037E+03
     13.179  0.2244E+02  0.3953E+02  0.7276E+03  0.7132E+03
     13.418  0.1852E+01  0.3428E+02  0.7280E+03  0.7214E+03
     13.658  0.0000E+00  0.2355E+02  0.7280E+03  0.7271E+03
     13.898  0.0000E+00  0.3895E+01  0.7280E+03  0.7280E+03
     14.137  0.0000E+00  0.3737E-05  0.7280E+03  0.7280E+03
     14.377  0.0000E+00  0.0000E+00  0.7280E+03  0.7280E+03
     14.617  0.0000E+00  0.0000E+00  0.7280E+03  0.7280E+03
     14.856  0.0000E+00  0.0000E+00  0.7280E+03  0.7280E+03
     15.096  0.0000E+00  0.0000E+00  0.7280E+03  0.7280E+03
     15.335  0.0000E+00  0.0000E+00  0.7280E+03  0.7280E+03
     15.575  0.0000E+00  0.0000E+00  0.7280E+03  0.7280E+03
     15.815  0.0000E+00  0.0000E+00  0.7280E+03  0.7280E+03
     16.054  0.0000E+00  0.0000E+00  0.7280E+03  0.7280E+03
     16.294  0.0000E+00  0.0000E+00  0.7280E+03  0.7280E+03
     16.533  0.0000E+00  0.0000E+00  0.7280E+03  0.7280E+03
     16.773  0.0000E+00  0.0000E+00  0.7280E+03  0.7280E+03
     17.013  0.0000E+00  0.0000E+00  0.7280E+03  0.7280E+03
