<?xml version="1.0" encoding="ISO-8859-1"?>
<modeling>
 <generator>
  <i name="program" type="string">vasp </i>
  <i name="version" type="string">5.4.4.18Apr17-6-g9f103f2a35  </i>
  <i name="subversion" type="string">(build Oct 25 2017 14:42:18) complex            parallel </i>
  <i name="platform" type="string">LinuxIFC </i>
  <i name="date" type="string">2021 04 18 </i>
  <i name="time" type="string">02:48:02 </i>
 </generator>
 <incar>
  <i type="string" name="PREC">accurate</i>
  <i type="string" name="ALGO"> normal</i>
  <i type="logical" name="ADDGRID"> T  </i>
  <i type="int" name="ISPIN">     2</i>
  <i type="int" name="ICHARG">     1</i>
  <i type="int" name="NELM">   200</i>
  <i type="int" name="NELMIN">     8</i>
  <i name="EDIFF">      0.00000100</i>
  <i type="int" name="ISYM">     0</i>
  <i name="ENCUT">    650.00000000</i>
  <v name="MAGMOM">      0.60000000      0.60000000      0.60000000      0.60000000      0.60000000      0.60000000      0.60000000      0.60000000      0.60000000      0.60000000      0.60000000      0.60000000      0.60000000      0.60000000      0.60000000      0.60000000      0.60000000      0.60000000      0.60000000      0.60000000
      0.60000000      0.60000000      0.60000000      0.60000000      0.60000000      0.60000000      0.60000000      0.60000000      0.60000000      0.60000000      0.60000000      0.60000000      0.60000000      0.60000000      0.60000000      0.60000000      0.60000000      0.60000000      0.60000000      0.60000000
      0.60000000      0.60000000      0.60000000      0.60000000      0.60000000      0.60000000      0.60000000      0.60000000      5.00000000      5.00000000      5.00000000      5.00000000      5.00000000      5.00000000      5.00000000      5.00000000      5.00000000      5.00000000      5.00000000      5.00000000
      5.00000000      5.00000000      5.00000000      5.00000000      5.00000000      5.00000000      5.00000000      5.00000000      5.00000000      5.00000000      5.00000000      5.00000000      5.00000000      5.00000000      5.00000000      5.00000000      5.00000000      5.00000000      5.00000000      5.00000000
      5.00000000      5.00000000      5.00000000      5.00000000      0.60000000      0.60000000      0.60000000      0.60000000      0.60000000      0.60000000      0.60000000      0.60000000      0.60000000      0.60000000      0.60000000      0.60000000      0.60000000      0.60000000      0.60000000      0.60000000
      0.60000000      0.60000000      0.60000000      0.60000000      0.60000000      0.60000000      0.60000000      0.60000000      0.60000000      0.60000000      0.60000000      0.60000000      0.60000000      0.60000000      0.60000000      0.60000000      0.60000000      0.60000000      0.60000000      0.60000000
      0.60000000      0.60000000      0.60000000      0.60000000      0.60000000      0.60000000      0.60000000      0.60000000      0.60000000      0.60000000      0.60000000      0.60000000      0.60000000      0.60000000      0.60000000      0.60000000      0.60000000      0.60000000      0.60000000      0.60000000
      0.60000000      0.60000000      0.60000000      0.60000000</v>
  <i type="logical" name="LREAL"> F  </i>
  <i type="int" name="ISMEAR">     0</i>
  <i name="SIGMA">      0.05000000</i>
  <i type="int" name="NWRITE">     1</i>
  <i type="int" name="LMAXMIX">     4</i>
  <i type="logical" name="LWAVE"> F  </i>
  <i type="logical" name="LASPH"> T  </i>
  <v type="int" name="KPOINT_BSE">    -1     0     0     0</v>
  <i type="int" name="NELM">   200</i>
  <i type="string" name="GGA"> pe</i>
  <i type="logical" name="LDAU"> T  </i>
  <v type="int" name="LDAUTYPE">     2</v>
  <v type="int" name="LDAUL">    -1     2    -1    -1</v>
  <v name="LDAUU">      0.00000000      4.00000000      0.00000000      0.00000000</v>
  <v name="LDAUJ">      0.00000000      0.00000000      0.00000000      0.00000000</v>
  <i type="logical" name="LASPH"> T  </i>
 </incar>
 <structure name="primitive_cell" >
  <crystal>
   <varray name="basis" >
    <v>      15.21162830       0.00516956      -2.78361592 </v>
    <v>      -0.40798665      11.93565774      -2.20735884 </v>
    <v>      -0.06175567      -0.11168197      10.54442638 </v>
   </varray>
   <i name="volume">   1908.54869108 </i>
   <varray name="rec_basis" >
    <v>       0.06581343       0.00232549       0.00041008 </v>
    <v>       0.00013433       0.08395174       0.00088997 </v>
    <v>       0.01740216       0.01818827       0.09513139 </v>
   </varray>
  </crystal>
  <varray name="positions" >
   <v>       0.47527516       0.00074367       0.00446200 </v>
   <v>      -0.47527003       0.03239991       0.19439947 </v>
   <v>       0.47618324      -0.03189981      -0.19139884 </v>
   <v>       0.37500000       0.16666667       0.00000000 </v>
   <v>       0.37500000      -0.16666667       0.00000000 </v>
   <v>       0.40535584       0.03794021       0.22764128 </v>
   <v>      -0.35733875       0.02567762       0.15406572 </v>
   <v>       0.47796480       0.13582521      -0.18504874 </v>
   <v>       0.47796480      -0.19750812      -0.18504874 </v>
   <v>       0.34464416      -0.03794021      -0.22764128 </v>
   <v>      -0.39266125      -0.02567762      -0.15406572 </v>
   <v>      -0.47447416       0.19979622       0.19877732 </v>
   <v>      -0.47447416      -0.13353711       0.19877732 </v>
   <v>      -0.37500000       0.16666667       0.00000000 </v>
   <v>      -0.37500000      -0.16666667       0.00000000 </v>
   <v>       0.27472484      -0.00074367      -0.00446200 </v>
   <v>       0.27381676       0.03189981       0.19139884 </v>
   <v>      -0.42788806       0.06536154       0.39216926 </v>
   <v>       0.22527003      -0.03239991      -0.19439947 </v>
   <v>       0.47527516      -0.33258966       0.00446200 </v>
   <v>       0.47527516       0.33407700       0.00446200 </v>
   <v>       0.46517249      -0.06641917      -0.39851502 </v>
   <v>       0.27203520       0.19750812       0.18504874 </v>
   <v>       0.27203520      -0.13582521       0.18504874 </v>
   <v>      -0.47527003       0.36573324       0.19439947 </v>
   <v>      -0.47527003      -0.30093342       0.19439947 </v>
   <v>       0.41542107       0.22793643       0.36761855 </v>
   <v>       0.41542107      -0.10539691       0.36761855 </v>
   <v>       0.22447416       0.13353711      -0.19877732 </v>
   <v>       0.22447416      -0.19979622      -0.19877732 </v>
   <v>       0.33457893       0.10539691      -0.36761855 </v>
   <v>       0.33457893      -0.22793643      -0.36761855 </v>
   <v>       0.47618324       0.30143353      -0.19139884 </v>
   <v>       0.47618324      -0.36523314      -0.19139884 </v>
   <v>      -0.22527516      -0.00074367      -0.00446200 </v>
   <v>      -0.22618324       0.03189981       0.19139884 </v>
   <v>      -0.27472997      -0.03239991      -0.19439947 </v>
   <v>      -0.32385262       0.22809805       0.36858830 </v>
   <v>      -0.32385262      -0.10523528       0.36858830 </v>
   <v>      -0.42614738       0.10523528      -0.36858830 </v>
   <v>      -0.42614738      -0.22809805      -0.36858830 </v>
   <v>       0.40535584       0.37127355       0.22764128 </v>
   <v>       0.40535584      -0.29539312       0.22764128 </v>
   <v>      -0.35733875       0.35901095       0.15406572 </v>
   <v>      -0.35733875      -0.30765571       0.15406572 </v>
   <v>       0.34464416       0.29539312      -0.22764128 </v>
   <v>       0.34464416      -0.37127355      -0.22764128 </v>
   <v>      -0.39266125       0.30765571      -0.15406572 </v>
   <v>      -0.39266125      -0.35901095      -0.15406572 </v>
   <v>      -0.22796480       0.19750812       0.18504874 </v>
   <v>      -0.22796480      -0.13582521       0.18504874 </v>
   <v>       0.27472484       0.33258966      -0.00446200 </v>
   <v>       0.27472484      -0.33407700      -0.00446200 </v>
   <v>      -0.27552584       0.13353711      -0.19877732 </v>
   <v>      -0.27552584      -0.19979622      -0.19877732 </v>
   <v>       0.28482751       0.06641917       0.39851502 </v>
   <v>       0.17788806      -0.06536154      -0.39216926 </v>
   <v>       0.10733875      -0.02567762      -0.15406572 </v>
   <v>      -0.32211194      -0.06536154      -0.39216926 </v>
   <v>       0.14266125       0.02567762       0.15406572 </v>
   <v>       0.27381676       0.36523314       0.19139884 </v>
   <v>       0.27381676      -0.30143353       0.19139884 </v>
   <v>      -0.21517249       0.06641917       0.39851502 </v>
   <v>      -0.42788806       0.39869487       0.39216926 </v>
   <v>      -0.42788806      -0.26797179       0.39216926 </v>
   <v>       0.22527003       0.30093342      -0.19439947 </v>
   <v>       0.22527003      -0.36573324      -0.19439947 </v>
   <v>       0.12500000       0.16666667       0.00000000 </v>
   <v>       0.12500000      -0.16666667       0.00000000 </v>
   <v>       0.46517249       0.26691416      -0.39851502 </v>
   <v>       0.46517249      -0.39975250      -0.39851502 </v>
   <v>      -0.22527516       0.33258966      -0.00446200 </v>
   <v>      -0.22527516      -0.33407700      -0.00446200 </v>
   <v>      -0.22618324       0.36523314       0.19139884 </v>
   <v>      -0.22618324      -0.30143353       0.19139884 </v>
   <v>      -0.27472997       0.30093342      -0.19439947 </v>
   <v>      -0.27472997      -0.36573324      -0.19439947 </v>
   <v>       0.37500000      -0.50000000       0.00000000 </v>
   <v>       0.47796480       0.46915854      -0.18504874 </v>
   <v>      -0.47447416      -0.46687045       0.19877732 </v>
   <v>      -0.37500000      -0.50000000       0.00000000 </v>
   <v>      -0.12500000       0.16666667       0.00000000 </v>
   <v>      -0.12500000      -0.16666667       0.00000000 </v>
   <v>      -0.15535584      -0.03794021      -0.22764128 </v>
   <v>      -0.09464416       0.03794021       0.22764128 </v>
   <v>       0.28482751      -0.26691416       0.39851502 </v>
   <v>      -0.32211194       0.26797179      -0.39216926 </v>
   <v>       0.17679403       0.22809805       0.36858830 </v>
   <v>       0.28482751       0.39975250       0.39851502 </v>
   <v>       0.17614738      -0.10523528       0.36858830 </v>
   <v>       0.17788806       0.26797179      -0.39216926 </v>
   <v>       0.17788806      -0.39869487      -0.39216926 </v>
   <v>       0.10733875       0.30765571      -0.15406572 </v>
   <v>       0.10733875      -0.35901095      -0.15406572 </v>
   <v>      -0.32211194      -0.39869487      -0.39216926 </v>
   <v>       0.14266125       0.35901095       0.15406572 </v>
   <v>       0.14266125      -0.30765571       0.15406572 </v>
   <v>       0.07385262       0.10523528      -0.36858830 </v>
   <v>       0.07385262      -0.22809805      -0.36858830 </v>
   <v>      -0.21517249       0.39975250       0.39851502 </v>
   <v>      -0.21517249      -0.26691416       0.39851502 </v>
   <v>       0.27203520      -0.46915854       0.18504874 </v>
   <v>       0.41542107      -0.43873024       0.36761855 </v>
   <v>       0.22447416       0.46687045      -0.19877732 </v>
   <v>       0.33457893       0.43873024      -0.36761855 </v>
   <v>      -0.08457893       0.22793643       0.36761855 </v>
   <v>      -0.08457893      -0.10539691       0.36761855 </v>
   <v>      -0.32385262      -0.43856862       0.36858830 </v>
   <v>      -0.42614738       0.43856862      -0.36858830 </v>
   <v>       0.02472997       0.03239991       0.19439947 </v>
   <v>      -0.02381676      -0.03189981      -0.19139884 </v>
   <v>      -0.16542107       0.10539691      -0.36761855 </v>
   <v>      -0.16542107      -0.22793643      -0.36761855 </v>
   <v>      -0.22796480      -0.46915854       0.18504874 </v>
   <v>      -0.27552584       0.46687045      -0.19877732 </v>
   <v>      -0.02472484       0.00074367       0.00446200 </v>
   <v>      -0.15535584       0.29539312      -0.22764128 </v>
   <v>      -0.15535584      -0.37127355      -0.22764128 </v>
   <v>      -0.09464416       0.37127355       0.22764128 </v>
   <v>      -0.09464416      -0.29539312       0.22764128 </v>
   <v>      -0.02203520       0.13582521      -0.18504874 </v>
   <v>      -0.02203520      -0.19750812      -0.18504874 </v>
   <v>       0.02552584       0.19979622       0.19877732 </v>
   <v>       0.02552584      -0.13353711       0.19877732 </v>
   <v>       0.07211194       0.06536154       0.39216926 </v>
   <v>       0.12500000      -0.50000000       0.00000000 </v>
   <v>      -0.03482751      -0.06641917      -0.39851502 </v>
   <v>       0.07211194      -0.26797179       0.39216926 </v>
   <v>       0.17614738      -0.43856862       0.36858830 </v>
   <v>       0.02472997       0.36573324       0.19439947 </v>
   <v>       0.02472997      -0.30093342       0.19439947 </v>
   <v>      -0.02381676       0.30143353      -0.19139884 </v>
   <v>      -0.02381676      -0.36523314      -0.19139884 </v>
   <v>      -0.12500000      -0.50000000       0.00000000 </v>
   <v>      -0.16542107       0.43873024      -0.36761855 </v>
   <v>      -0.02472484      -0.33258966       0.00446200 </v>
   <v>      -0.02472484       0.33407700       0.00446200 </v>
   <v>       0.07211194       0.39869487       0.39216926 </v>
   <v>       0.07385262       0.43856862      -0.36858830 </v>
   <v>      -0.03482751       0.26691416      -0.39851502 </v>
   <v>      -0.03482751      -0.39975250      -0.39851502 </v>
   <v>      -0.08457893      -0.43873024       0.36761855 </v>
   <v>      -0.02203520       0.46915854      -0.18504874 </v>
   <v>       0.02552584      -0.46687045       0.19877732 </v>
  </varray>
 </structure>
 <varray name="primitive_index" >
  <v type="int" >        1 </v>
  <v type="int" >      134 </v>
  <v type="int" >      131 </v>
  <v type="int" >       91 </v>
  <v type="int" >       95 </v>
  <v type="int" >       43 </v>
  <v type="int" >       38 </v>
  <v type="int" >       67 </v>
  <v type="int" >       71 </v>
  <v type="int" >       35 </v>
  <v type="int" >       30 </v>
  <v type="int" >       74 </v>
  <v type="int" >       78 </v>
  <v type="int" >       86 </v>
  <v type="int" >       90 </v>
  <v type="int" >       11 </v>
  <v type="int" >      139 </v>
  <v type="int" >       20 </v>
  <v type="int" >      125 </v>
  <v type="int" >        5 </v>
  <v type="int" >        3 </v>
  <v type="int" >       53 </v>
  <v type="int" >       79 </v>
  <v type="int" >       83 </v>
  <v type="int" >      136 </v>
  <v type="int" >      138 </v>
  <v type="int" >      103 </v>
  <v type="int" >      107 </v>
  <v type="int" >       61 </v>
  <v type="int" >       65 </v>
  <v type="int" >      115 </v>
  <v type="int" >      119 </v>
  <v type="int" >      127 </v>
  <v type="int" >      129 </v>
  <v type="int" >       12 </v>
  <v type="int" >      140 </v>
  <v type="int" >      126 </v>
  <v type="int" >       98 </v>
  <v type="int" >      102 </v>
  <v type="int" >      110 </v>
  <v type="int" >      114 </v>
  <v type="int" >       45 </v>
  <v type="int" >       47 </v>
  <v type="int" >       40 </v>
  <v type="int" >       42 </v>
  <v type="int" >       31 </v>
  <v type="int" >       33 </v>
  <v type="int" >       26 </v>
  <v type="int" >       28 </v>
  <v type="int" >       80 </v>
  <v type="int" >       84 </v>
  <v type="int" >        7 </v>
  <v type="int" >        9 </v>
  <v type="int" >       62 </v>
  <v type="int" >       66 </v>
  <v type="int" >       55 </v>
  <v type="int" >       17 </v>
  <v type="int" >       29 </v>
  <v type="int" >       18 </v>
  <v type="int" >       37 </v>
  <v type="int" >      141 </v>
  <v type="int" >      143 </v>
  <v type="int" >       56 </v>
  <v type="int" >       22 </v>
  <v type="int" >       24 </v>
  <v type="int" >      121 </v>
  <v type="int" >      123 </v>
  <v type="int" >       85 </v>
  <v type="int" >       89 </v>
  <v type="int" >       49 </v>
  <v type="int" >       51 </v>
  <v type="int" >        8 </v>
  <v type="int" >       10 </v>
  <v type="int" >      142 </v>
  <v type="int" >      144 </v>
  <v type="int" >      122 </v>
  <v type="int" >      124 </v>
  <v type="int" >       93 </v>
  <v type="int" >       69 </v>
  <v type="int" >       76 </v>
  <v type="int" >       88 </v>
  <v type="int" >       92 </v>
  <v type="int" >       96 </v>
  <v type="int" >       36 </v>
  <v type="int" >       44 </v>
  <v type="int" >       59 </v>
  <v type="int" >       14 </v>
  <v type="int" >       97 </v>
  <v type="int" >       57 </v>
  <v type="int" >      101 </v>
  <v type="int" >       13 </v>
  <v type="int" >       15 </v>
  <v type="int" >       25 </v>
  <v type="int" >       27 </v>
  <v type="int" >       16 </v>
  <v type="int" >       39 </v>
  <v type="int" >       41 </v>
  <v type="int" >      109 </v>
  <v type="int" >      113 </v>
  <v type="int" >       58 </v>
  <v type="int" >       60 </v>
  <v type="int" >       81 </v>
  <v type="int" >      105 </v>
  <v type="int" >       63 </v>
  <v type="int" >      117 </v>
  <v type="int" >      104 </v>
  <v type="int" >      108 </v>
  <v type="int" >      100 </v>
  <v type="int" >      112 </v>
  <v type="int" >      133 </v>
  <v type="int" >      132 </v>
  <v type="int" >      116 </v>
  <v type="int" >      120 </v>
  <v type="int" >       82 </v>
  <v type="int" >       64 </v>
  <v type="int" >        2 </v>
  <v type="int" >       32 </v>
  <v type="int" >       34 </v>
  <v type="int" >       46 </v>
  <v type="int" >       48 </v>
  <v type="int" >       68 </v>
  <v type="int" >       72 </v>
  <v type="int" >       73 </v>
  <v type="int" >       77 </v>
  <v type="int" >       19 </v>
  <v type="int" >       87 </v>
  <v type="int" >       54 </v>
  <v type="int" >       23 </v>
  <v type="int" >       99 </v>
  <v type="int" >      135 </v>
  <v type="int" >      137 </v>
  <v type="int" >      128 </v>
  <v type="int" >      130 </v>
  <v type="int" >       94 </v>
  <v type="int" >      118 </v>
  <v type="int" >        6 </v>
  <v type="int" >        4 </v>
  <v type="int" >       21 </v>
  <v type="int" >      111 </v>
  <v type="int" >       50 </v>
  <v type="int" >       52 </v>
  <v type="int" >      106 </v>
  <v type="int" >       70 </v>
  <v type="int" >       75 </v>
 </varray>
 <kpoints>
  <generation param="Gamma">
   <v type="int" name="divisions">       2        3        3 </v>
   <v name="usershift">      0.00000000       0.00000000       0.00000000 </v>
   <v name="genvec1">      0.50000000       0.00000000      -0.00000000 </v>
   <v name="genvec2">      0.00000000       0.33333333       0.00000000 </v>
   <v name="genvec3">      0.00000000       0.00000000       0.33333333 </v>
   <v name="shift">      0.00000000       0.00000000       0.00000000 </v>
  </generation>
  <varray name="kpointlist" >
   <v>       0.00000000       0.00000000       0.00000000 </v>
   <v>       0.50000000      -0.00000000       0.00000000 </v>
   <v>      -0.00000000       0.33333333      -0.00000000 </v>
   <v>       0.50000000       0.33333333      -0.00000000 </v>
   <v>      -0.00000000       0.00000000       0.33333333 </v>
   <v>       0.50000000       0.00000000       0.33333333 </v>
   <v>      -0.00000000       0.33333333       0.33333333 </v>
   <v>       0.50000000       0.33333333       0.33333333 </v>
   <v>      -0.00000000      -0.33333333       0.33333333 </v>
   <v>       0.50000000      -0.33333333       0.33333333 </v>
  </varray>
  <varray name="weights" >
   <v>       0.05555556 </v>
   <v>       0.05555556 </v>
   <v>       0.11111111 </v>
   <v>       0.11111111 </v>
   <v>       0.11111111 </v>
   <v>       0.11111111 </v>
   <v>       0.11111111 </v>
   <v>       0.11111111 </v>
   <v>       0.11111111 </v>
   <v>       0.11111111 </v>
  </varray>
 </kpoints>
 <parameters>
  <separator name="general" >
   <i type="string" name="SYSTEM">unknown system</i>
   <i type="logical" name="LCOMPAT"> F  </i>
  </separator>
  <separator name="electronic" >
   <i type="string" name="PREC">accura</i>
   <i name="ENMAX">    650.00000000</i>
   <i name="ENAUG">    628.94500000</i>
   <i name="EDIFF">      0.00000100</i>
   <i type="int" name="IALGO">    38</i>
   <i type="int" name="IWAVPR">    10</i>
   <i type="int" name="NBANDS">   728</i>
   <i name="NELECT">   1008.00000000</i>
   <i type="int" name="TURBO">     0</i>
   <i type="int" name="IRESTART">     0</i>
   <i type="int" name="NREBOOT">     0</i>
   <i type="int" name="NMIN">     0</i>
   <i name="EREF">      0.00000000</i>
   <separator name="electronic smearing" >
    <i type="int" name="ISMEAR">     0</i>
    <i name="SIGMA">      0.05000000</i>
    <i name="KSPACING">      0.50000000</i>
    <i type="logical" name="KGAMMA"> T  </i>
   </separator>
   <separator name="electronic projectors" >
    <i type="logical" name="LREAL"> F  </i>
    <v name="ROPT">      0.00000000      0.00000000      0.00000000      0.00000000</v>
    <i type="int" name="LMAXPAW">  -100</i>
    <i type="int" name="LMAXMIX">     4</i>
    <i type="logical" name="NLSPLINE"> F  </i>
   </separator>
   <separator name="electronic startup" >
    <i type="int" name="ISTART">     0</i>
    <i type="int" name="ICHARG">     1</i>
    <i type="int" name="INIWAV">     1</i>
   </separator>
   <separator name="electronic spin" >
    <i type="int" name="ISPIN">     2</i>
    <i type="logical" name="LNONCOLLINEAR"> F  </i>
    <v name="MAGMOM">      0.60000000      0.60000000      0.60000000      0.60000000      0.60000000      0.60000000      0.60000000      0.60000000      0.60000000      0.60000000      0.60000000      0.60000000      0.60000000      0.60000000      0.60000000      0.60000000      0.60000000      0.60000000      0.60000000      0.60000000
      0.60000000      0.60000000      0.60000000      0.60000000      0.60000000      0.60000000      0.60000000      0.60000000      0.60000000      0.60000000      0.60000000      0.60000000      0.60000000      0.60000000      0.60000000      0.60000000      0.60000000      0.60000000      0.60000000      0.60000000
      0.60000000      0.60000000      0.60000000      0.60000000      0.60000000      0.60000000      0.60000000      0.60000000      5.00000000      5.00000000      5.00000000      5.00000000      5.00000000      5.00000000      5.00000000      5.00000000      5.00000000      5.00000000      5.00000000      5.00000000
      5.00000000      5.00000000      5.00000000      5.00000000      5.00000000      5.00000000      5.00000000      5.00000000      5.00000000      5.00000000      5.00000000      5.00000000      5.00000000      5.00000000      5.00000000      5.00000000      5.00000000      5.00000000      5.00000000      5.00000000
      5.00000000      5.00000000      5.00000000      5.00000000      0.60000000      0.60000000      0.60000000      0.60000000      0.60000000      0.60000000      0.60000000      0.60000000      0.60000000      0.60000000      0.60000000      0.60000000      0.60000000      0.60000000      0.60000000      0.60000000
      0.60000000      0.60000000      0.60000000      0.60000000      0.60000000      0.60000000      0.60000000      0.60000000      0.60000000      0.60000000      0.60000000      0.60000000      0.60000000      0.60000000      0.60000000      0.60000000      0.60000000      0.60000000      0.60000000      0.60000000
      0.60000000      0.60000000      0.60000000      0.60000000      0.60000000      0.60000000      0.60000000      0.60000000      0.60000000      0.60000000      0.60000000      0.60000000      0.60000000      0.60000000      0.60000000      0.60000000      0.60000000      0.60000000      0.60000000      0.60000000
      0.60000000      0.60000000      0.60000000      0.60000000</v>
    <i name="NUPDOWN">     -1.00000000</i>
    <i type="logical" name="LSORBIT"> F  </i>
    <v name="SAXIS">      0.00000000      0.00000000      1.00000000</v>
    <i type="logical" name="LSPIRAL"> F  </i>
    <v name="QSPIRAL">      0.00000000      0.00000000      0.00000000</v>
    <i type="logical" name="LZEROZ"> F  </i>
   </separator>
   <separator name="electronic exchange-correlation" >
    <i type="logical" name="LASPH"> T  </i>
    <i type="logical" name="LMETAGGA"> F  </i>
   </separator>
   <separator name="electronic convergence" >
    <i type="int" name="NELM">   200</i>
    <i type="int" name="NELMDL">     0</i>
    <i type="int" name="NELMIN">     8</i>
    <i name="ENINI">    650.00000000</i>
    <separator name="electronic convergence detail" >
     <i type="logical" name="LDIAG"> T  </i>
     <i type="logical" name="LSUBROT"> F  </i>
     <i name="WEIMIN">      0.00000000</i>
     <i name="EBREAK">      0.00000000</i>
     <i name="DEPER">      0.30000000</i>
     <i type="int" name="NRMM">     4</i>
     <i name="TIME">      0.40000000</i>
    </separator>
   </separator>
   <separator name="electronic mixer" >
    <i name="AMIX">      0.40000000</i>
    <i name="BMIX">      1.00000000</i>
    <i name="AMIN">      0.10000000</i>
    <i name="AMIX_MAG">      1.60000000</i>
    <i name="BMIX_MAG">      1.00000000</i>
    <separator name="electronic mixer details" >
     <i type="int" name="IMIX">     4</i>
     <i type="logical" name="MIXFIRST"> F  </i>
     <i type="int" name="MAXMIX">   -45</i>
     <i name="WC">    100.00000000</i>
     <i type="int" name="INIMIX">     1</i>
     <i type="int" name="MIXPRE">     1</i>
     <i type="int" name="MREMOVE">     5</i>
    </separator>
   </separator>
   <separator name="electronic dipolcorrection" >
    <i type="logical" name="LDIPOL"> F  </i>
    <i type="logical" name="LMONO"> F  </i>
    <i type="int" name="IDIPOL">     0</i>
    <i name="EPSILON">      1.00000000</i>
    <v name="DIPOL">   -100.00000000   -100.00000000   -100.00000000</v>
    <i name="EFIELD">      0.00000000</i>
   </separator>
  </separator>
  <separator name="grids" >
   <i type="int" name="NGX">   140</i>
   <i type="int" name="NGY">   108</i>
   <i type="int" name="NGZ">    90</i>
   <i type="int" name="NGXF">   280</i>
   <i type="int" name="NGYF">   216</i>
   <i type="int" name="NGZF">   180</i>
   <i type="logical" name="ADDGRID"> T  </i>
  </separator>
  <separator name="ionic" >
   <i type="int" name="NSW">     0</i>
   <i type="int" name="IBRION">    -1</i>
   <i type="int" name="MDALGO">     0</i>
   <i type="int" name="ISIF">     2</i>
   <i name="PSTRESS">      0.00000000</i>
   <i name="EDIFFG">      0.00001000</i>
   <i type="int" name="NFREE">     0</i>
   <i name="POTIM">      0.50000000</i>
   <i name="SMASS">     -3.00000000</i>
   <i name="SCALEE">      1.00000000</i>
  </separator>
  <separator name="ionic md" >
   <i name="TEBEG">      0.00010000</i>
   <i name="TEEND">      0.00010000</i>
   <i type="int" name="NBLOCK">     1</i>
   <i type="int" name="KBLOCK">     1</i>
   <i type="int" name="NPACO">   256</i>
   <i name="APACO">     16.00000000</i>
  </separator>
  <separator name="symmetry" >
   <i type="int" name="ISYM">     0</i>
   <i name="SYMPREC">      0.00001000</i>
  </separator>
  <separator name="dos" >
   <i type="int" name="LORBIT">     0</i>
   <v name="RWIGS">     -1.00000000     -1.00000000     -1.00000000     -1.00000000</v>
   <i type="int" name="NEDOS">   301</i>
   <i name="EMIN">     10.00000000</i>
   <i name="EMAX">    -10.00000000</i>
   <i name="EFERMI">      0.00000000</i>
  </separator>
  <separator name="writing" >
   <i type="int" name="NWRITE">     1</i>
   <i type="logical" name="LWAVE"> F  </i>
   <i type="logical" name="LDOWNSAMPLE"> F  </i>
   <i type="logical" name="LCHARG"> T  </i>
   <i type="logical" name="LPARD"> F  </i>
   <i type="logical" name="LVTOT"> F  </i>
   <i type="logical" name="LVHAR"> F  </i>
   <i type="logical" name="LELF"> F  </i>
   <i type="logical" name="LOPTICS"> F  </i>
   <v name="STM">      0.00000000      0.00000000      0.00000000      0.00000000      0.00000000      0.00000000      0.00000000</v>
  </separator>
  <separator name="performance" >
   <i type="int" name="NPAR">     4</i>
   <i type="int" name="NSIM">     4</i>
   <i type="int" name="NBLK">    -1</i>
   <i type="logical" name="LPLANE"> T  </i>
   <i type="logical" name="LSCALAPACK"> T  </i>
   <i type="logical" name="LSCAAWARE"> F  </i>
   <i type="logical" name="LSCALU"> F  </i>
   <i type="logical" name="LASYNC"> F  </i>
   <i type="logical" name="LORBITALREAL"> F  </i>
  </separator>
  <separator name="miscellaneous" >
   <i type="int" name="IDIOT">     3</i>
   <i type="int" name="ISPECIAL">     0</i>
   <i type="logical" name="LMUSIC"> F  </i>
   <v name="POMASS">      7.01000000     55.84700000     32.06600000     16.00000000</v>
   <v name="DARWINR">      0.00000000      0.00000000      0.00000000      0.00000000</v>
   <v name="DARWINV">      1.00000000      1.00000000      1.00000000      1.00000000</v>
   <i type="logical" name="LCORR"> T  </i>
  </separator>
  <i type="logical" name="GGA_COMPAT"> T  </i>
  <i type="logical" name="LBERRY"> F  </i>
  <i type="int" name="ICORELEVEL">     0</i>
  <i type="logical" name="LDAU"> T  </i>
  <v type="int" name="LDAUTYPE">     2</v>
  <v type="int" name="LDAUL">    -1</v>
  <v name="LDAUU">      0.00000000</v>
  <v name="LDAUJ">      0.00000000</v>
  <i type="int" name="LDAUPRINT">     0</i>
  <i type="int" name="I_CONSTRAINED_M">     0</i>
  <separator name="electronic exchange-correlation" >
   <i type="string" name="GGA">PE</i>
   <i type="int" name="VOSKOWN">     0</i>
   <i type="logical" name="LHFCALC"> F  </i>
   <i type="string" name="PRECFOCK"></i>
   <i type="logical" name="LSYMGRAD"> F  </i>
   <i type="logical" name="LHFONE"> F  </i>
   <i type="logical" name="LRHFCALC"> F  </i>
   <i type="logical" name="LTHOMAS"> F  </i>
   <i type="logical" name="LMODELHF"> F  </i>
   <i name="ENCUT4O">     -1.00000000</i>
   <i type="int" name="EXXOEP">     0</i>
   <i type="int" name="FOURORBIT">     0</i>
   <i name="AEXX">      0.00000000</i>
   <i name="HFALPHA">      0.00000000</i>
   <i name="MCALPHA">      0.00000000</i>
   <i name="ALDAX">      1.00000000</i>
   <i name="AGGAX">      1.00000000</i>
   <i name="ALDAC">      1.00000000</i>
   <i name="AGGAC">      1.00000000</i>
   <i type="int" name="NKREDX">     1</i>
   <i type="int" name="NKREDY">     1</i>
   <i type="int" name="NKREDZ">     1</i>
   <i type="logical" name="SHIFTRED"> F  </i>
   <i type="logical" name="ODDONLY"> F  </i>
   <i type="logical" name="EVENONLY"> F  </i>
   <i type="int" name="LMAXFOCK">     0</i>
   <i type="int" name="NMAXFOCKAE">     0</i>
   <i type="logical" name="LFOCKAEDFT"> F  </i>
   <i name="HFSCREEN">      0.00000000</i>
   <i name="HFSCREENC">      0.00000000</i>
   <i type="int" name="NBANDSGWLOW">     0</i>
  </separator>
  <separator name="vdW DFT" >
   <i type="logical" name="LUSE_VDW"> F  </i>
   <i name="Zab_VDW">     -0.84910000</i>
   <i name="PARAM1">      0.12340000</i>
   <i name="PARAM2">      1.00000000</i>
   <i name="PARAM3">      0.00000000</i>
  </separator>
  <separator name="model GW" >
   <i type="int" name="MODEL_GW">     0</i>
   <i name="MODEL_EPS0">      7.95228621</i>
   <i name="MODEL_ALPHA">      1.00000000</i>
  </separator>
  <separator name="linear response parameters" >
   <i type="logical" name="LEPSILON"> F  </i>
   <i type="logical" name="LRPA"> F  </i>
   <i type="logical" name="LNABLA"> F  </i>
   <i type="logical" name="LVEL"> F  </i>
   <i type="int" name="KINTER">     0</i>
   <i name="CSHIFT">      0.10000000</i>
   <i name="OMEGAMAX">     -1.00000000</i>
   <i name="DEG_THRESHOLD">      0.00200000</i>
   <i name="RTIME">     -0.10000000</i>
   <i name="WPLASMAI">      0.00000000</i>
   <v name="DFIELD">      0.00000000      0.00000000      0.00000000</v>
   <v name="WPLASMA">      0.00000000      0.00000000      0.00000000      0.00000000      0.00000000      0.00000000      0.00000000      0.00000000      0.00000000</v>
  </separator>
  <separator name="orbital magnetization" >
   <i type="logical" name="NUCIND"> F  </i>
   <v name="MAGPOS">      0.00000000      0.00000000      0.00000000</v>
   <i type="logical" name="LNICSALL"> T  </i>
   <i type="logical" name="ORBITALMAG"> F  </i>
   <i type="logical" name="LMAGBLOCH"> F  </i>
   <i type="logical" name="LCHIMAG"> F  </i>
   <i type="logical" name="LGAUGE"> T  </i>
   <i type="int" name="MAGATOM">     0</i>
   <v name="MAGDIPOL">      0.00000000      0.00000000      0.00000000</v>
   <v name="AVECCONST">      0.00000000      0.00000000      0.00000000</v>
  </separator>
  <separator name="response functions" >
   <i type="logical" name="LADDER"> F  </i>
   <i type="logical" name="LRPAFORCE"> F  </i>
   <i type="logical" name="LFXC"> F  </i>
   <i type="logical" name="LHARTREE"> T  </i>
   <i type="int" name="IBSE">     0</i>
   <v type="int" name="KPOINT">    -1     0     0     0</v>
   <i type="logical" name="LTCTE"> F  </i>
   <i type="logical" name="LTETE"> F  </i>
   <i type="logical" name="LTRIPLET"> F  </i>
   <i type="logical" name="LFXCEPS"> F  </i>
   <i type="logical" name="LFXHEG"> F  </i>
   <i type="int" name="NATURALO">     2</i>
   <i type="logical" name="L2ORDER"> F  </i>
   <i type="logical" name="LMP2LT"> F  </i>
   <i type="logical" name="LUSEW"> F  </i>
   <i name="ENCUTGW">     -2.00000000</i>
   <i name="ENCUTGWSOFT">     -2.00000000</i>
   <i name="ENCUTLF">     -1.00000000</i>
   <i type="int" name="LMAXMP2">    -1</i>
   <i name="SCISSOR">      0.00000000</i>
   <i type="int" name="NOMEGA">     0</i>
   <i type="int" name="NOMEGAR">     0</i>
   <i type="int" name="NBANDSGW">    -1</i>
   <i type="int" name="NBANDSO">    -1</i>
   <i type="int" name="NBANDSV">    -1</i>
   <i type="int" name="NELM">   200</i>
   <i type="int" name="NELMHF">     1</i>
   <i type="int" name="DIM">     3</i>
   <i type="int" name="ANTIRES">     0</i>
   <i name="OMEGAMAX">    -30.00000000</i>
   <i name="OMEGAMIN">    -30.00000000</i>
   <i name="OMEGATL">   -200.00000000</i>
   <i type="int" name="OMEGAGRID">   140</i>
   <i name="CSHIFT">     -0.10000000</i>
   <i type="logical" name="SELFENERGY"> F  </i>
   <i type="logical" name="LSPECTRAL"> F  </i>
   <i type="logical" name="LSPECTRALGW"> F  </i>
   <i type="logical" name="LSINGLES"> F  </i>
   <i type="logical" name="LFERMIGW"> F  </i>
   <i type="logical" name="ODDONLYGW"> F  </i>
   <i type="logical" name="EVENONLYGW"> F  </i>
   <i type="int" name="NKREDLFX">     1</i>
   <i type="int" name="NKREDLFY">     1</i>
   <i type="int" name="NKREDLFZ">     1</i>
   <i type="int" name="MAXMEM">  2800</i>
   <i type="int" name="TELESCOPE">     0</i>
   <i type="int" name="TAUPAR">     1</i>
   <i type="int" name="OMEGAPAR">    -1</i>
   <i name="LAMBDA">      1.00000000</i>
  </separator>
  <separator name="External order field" >
   <i name="OFIELD_KAPPA">      0.00000000</i>
   <v name="OFIELD_K">      0.00000000      0.00000000      0.00000000</v>
   <i name="OFIELD_Q6_NEAR">      0.00000000</i>
   <i name="OFIELD_Q6_FAR">      0.00000000</i>
   <i name="OFIELD_A">      0.00000000</i>
  </separator>
 </parameters>
 <atominfo>
  <atoms>     144 </atoms>
  <types>       4 </types>
  <array name="atoms" >
   <dimension dim="1">ion</dimension>
   <field type="string">element</field>
   <field type="int">atomtype</field>
   <set>
    <rc><c>Li</c><c>   1</c></rc>
    <rc><c>Li</c><c>   1</c></rc>
    <rc><c>Li</c><c>   1</c></rc>
    <rc><c>Li</c><c>   1</c></rc>
    <rc><c>Li</c><c>   1</c></rc>
    <rc><c>Li</c><c>   1</c></rc>
    <rc><c>Li</c><c>   1</c></rc>
    <rc><c>Li</c><c>   1</c></rc>
    <rc><c>Li</c><c>   1</c></rc>
    <rc><c>Li</c><c>   1</c></rc>
    <rc><c>Li</c><c>   1</c></rc>
    <rc><c>Li</c><c>   1</c></rc>
    <rc><c>Li</c><c>   1</c></rc>
    <rc><c>Li</c><c>   1</c></rc>
    <rc><c>Li</c><c>   1</c></rc>
    <rc><c>Li</c><c>   1</c></rc>
    <rc><c>Li</c><c>   1</c></rc>
    <rc><c>Li</c><c>   1</c></rc>
    <rc><c>Li</c><c>   1</c></rc>
    <rc><c>Li</c><c>   1</c></rc>
    <rc><c>Li</c><c>   1</c></rc>
    <rc><c>Li</c><c>   1</c></rc>
    <rc><c>Li</c><c>   1</c></rc>
    <rc><c>Li</c><c>   1</c></rc>
    <rc><c>Li</c><c>   1</c></rc>
    <rc><c>Li</c><c>   1</c></rc>
    <rc><c>Li</c><c>   1</c></rc>
    <rc><c>Li</c><c>   1</c></rc>
    <rc><c>Li</c><c>   1</c></rc>
    <rc><c>Li</c><c>   1</c></rc>
    <rc><c>Li</c><c>   1</c></rc>
    <rc><c>Li</c><c>   1</c></rc>
    <rc><c>Li</c><c>   1</c></rc>
    <rc><c>Li</c><c>   1</c></rc>
    <rc><c>Li</c><c>   1</c></rc>
    <rc><c>Li</c><c>   1</c></rc>
    <rc><c>Li</c><c>   1</c></rc>
    <rc><c>Li</c><c>   1</c></rc>
    <rc><c>Li</c><c>   1</c></rc>
    <rc><c>Li</c><c>   1</c></rc>
    <rc><c>Li</c><c>   1</c></rc>
    <rc><c>Li</c><c>   1</c></rc>
    <rc><c>Li</c><c>   1</c></rc>
    <rc><c>Li</c><c>   1</c></rc>
    <rc><c>Li</c><c>   1</c></rc>
    <rc><c>Li</c><c>   1</c></rc>
    <rc><c>Li</c><c>   1</c></rc>
    <rc><c>Li</c><c>   1</c></rc>
    <rc><c>Fe</c><c>   2</c></rc>
    <rc><c>Fe</c><c>   2</c></rc>
    <rc><c>Fe</c><c>   2</c></rc>
    <rc><c>Fe</c><c>   2</c></rc>
    <rc><c>Fe</c><c>   2</c></rc>
    <rc><c>Fe</c><c>   2</c></rc>
    <rc><c>Fe</c><c>   2</c></rc>
    <rc><c>Fe</c><c>   2</c></rc>
    <rc><c>Fe</c><c>   2</c></rc>
    <rc><c>Fe</c><c>   2</c></rc>
    <rc><c>Fe</c><c>   2</c></rc>
    <rc><c>Fe</c><c>   2</c></rc>
    <rc><c>Fe</c><c>   2</c></rc>
    <rc><c>Fe</c><c>   2</c></rc>
    <rc><c>Fe</c><c>   2</c></rc>
    <rc><c>Fe</c><c>   2</c></rc>
    <rc><c>Fe</c><c>   2</c></rc>
    <rc><c>Fe</c><c>   2</c></rc>
    <rc><c>Fe</c><c>   2</c></rc>
    <rc><c>Fe</c><c>   2</c></rc>
    <rc><c>Fe</c><c>   2</c></rc>
    <rc><c>Fe</c><c>   2</c></rc>
    <rc><c>Fe</c><c>   2</c></rc>
    <rc><c>Fe</c><c>   2</c></rc>
    <rc><c>Fe</c><c>   2</c></rc>
    <rc><c>Fe</c><c>   2</c></rc>
    <rc><c>Fe</c><c>   2</c></rc>
    <rc><c>Fe</c><c>   2</c></rc>
    <rc><c>Fe</c><c>   2</c></rc>
    <rc><c>Fe</c><c>   2</c></rc>
    <rc><c>Fe</c><c>   2</c></rc>
    <rc><c>Fe</c><c>   2</c></rc>
    <rc><c>Fe</c><c>   2</c></rc>
    <rc><c>Fe</c><c>   2</c></rc>
    <rc><c>Fe</c><c>   2</c></rc>
    <rc><c>Fe</c><c>   2</c></rc>
    <rc><c>S </c><c>   3</c></rc>
    <rc><c>S </c><c>   3</c></rc>
    <rc><c>S </c><c>   3</c></rc>
    <rc><c>S </c><c>   3</c></rc>
    <rc><c>S </c><c>   3</c></rc>
    <rc><c>S </c><c>   3</c></rc>
    <rc><c>S </c><c>   3</c></rc>
    <rc><c>S </c><c>   3</c></rc>
    <rc><c>S </c><c>   3</c></rc>
    <rc><c>S </c><c>   3</c></rc>
    <rc><c>S </c><c>   3</c></rc>
    <rc><c>S </c><c>   3</c></rc>
    <rc><c>S </c><c>   3</c></rc>
    <rc><c>S </c><c>   3</c></rc>
    <rc><c>S </c><c>   3</c></rc>
    <rc><c>S </c><c>   3</c></rc>
    <rc><c>S </c><c>   3</c></rc>
    <rc><c>S </c><c>   3</c></rc>
    <rc><c>S </c><c>   3</c></rc>
    <rc><c>S </c><c>   3</c></rc>
    <rc><c>S </c><c>   3</c></rc>
    <rc><c>S </c><c>   3</c></rc>
    <rc><c>S </c><c>   3</c></rc>
    <rc><c>S </c><c>   3</c></rc>
    <rc><c>S </c><c>   3</c></rc>
    <rc><c>S </c><c>   3</c></rc>
    <rc><c>S </c><c>   3</c></rc>
    <rc><c>S </c><c>   3</c></rc>
    <rc><c>S </c><c>   3</c></rc>
    <rc><c>S </c><c>   3</c></rc>
    <rc><c>S </c><c>   3</c></rc>
    <rc><c>S </c><c>   3</c></rc>
    <rc><c>S </c><c>   3</c></rc>
    <rc><c>S </c><c>   3</c></rc>
    <rc><c>S </c><c>   3</c></rc>
    <rc><c>S </c><c>   3</c></rc>
    <rc><c>O </c><c>   4</c></rc>
    <rc><c>O </c><c>   4</c></rc>
    <rc><c>O </c><c>   4</c></rc>
    <rc><c>O </c><c>   4</c></rc>
    <rc><c>O </c><c>   4</c></rc>
    <rc><c>O </c><c>   4</c></rc>
    <rc><c>O </c><c>   4</c></rc>
    <rc><c>O </c><c>   4</c></rc>
    <rc><c>O </c><c>   4</c></rc>
    <rc><c>O </c><c>   4</c></rc>
    <rc><c>O </c><c>   4</c></rc>
    <rc><c>O </c><c>   4</c></rc>
    <rc><c>O </c><c>   4</c></rc>
    <rc><c>O </c><c>   4</c></rc>
    <rc><c>O </c><c>   4</c></rc>
    <rc><c>O </c><c>   4</c></rc>
    <rc><c>O </c><c>   4</c></rc>
    <rc><c>O </c><c>   4</c></rc>
    <rc><c>O </c><c>   4</c></rc>
    <rc><c>O </c><c>   4</c></rc>
    <rc><c>O </c><c>   4</c></rc>
    <rc><c>O </c><c>   4</c></rc>
    <rc><c>O </c><c>   4</c></rc>
    <rc><c>O </c><c>   4</c></rc>
   </set>
  </array>
  <array name="atomtypes" >
   <dimension dim="1">type</dimension>
   <field type="int">atomspertype</field>
   <field type="string">element</field>
   <field>mass</field>
   <field>valence</field>
   <field type="string">pseudopotential</field>
   <set>
    <rc><c>  48</c><c>Li</c><c>      7.01000000</c><c>      3.00000000</c><c>  PAW_PBE Li_sv 10Sep2004               </c></rc>
    <rc><c>  36</c><c>Fe</c><c>     55.84700000</c><c>     14.00000000</c><c>  PAW_PBE Fe_pv 02Aug2007               </c></rc>
    <rc><c>  36</c><c>S </c><c>     32.06600000</c><c>      6.00000000</c><c>  PAW_PBE S 06Sep2000                   </c></rc>
    <rc><c>  24</c><c>O </c><c>     16.00000000</c><c>      6.00000000</c><c>  PAW_PBE O 08Apr2002                   </c></rc>
   </set>
  </array>
 </atominfo>
 <structure name="initialpos" >
  <crystal>
   <varray name="basis" >
    <v>      15.21162830       0.00516956      -2.78361592 </v>
    <v>      -0.40798665      11.93565774      -2.20735884 </v>
    <v>      -0.06175567      -0.11168197      10.54442638 </v>
   </varray>
   <i name="volume">   1908.54869108 </i>
   <varray name="rec_basis" >
    <v>       0.06581343       0.00232549       0.00041008 </v>
    <v>       0.00013433       0.08395174       0.00088997 </v>
    <v>       0.01740216       0.01818827       0.09513139 </v>
   </varray>
  </crystal>
  <varray name="positions" >
   <v>       0.47527516       0.00074367       0.00446200 </v>
   <v>       0.97527516       0.00074367       0.00446200 </v>
   <v>       0.47527516       0.33407700       0.00446200 </v>
   <v>       0.97527516       0.33407700       0.00446200 </v>
   <v>       0.47527516       0.66741034       0.00446200 </v>
   <v>       0.97527516       0.66741034       0.00446200 </v>
   <v>       0.27472484       0.33258966       0.99553800 </v>
   <v>       0.77472484       0.33258966       0.99553800 </v>
   <v>       0.27472484       0.66592300       0.99553800 </v>
   <v>       0.77472484       0.66592300       0.99553800 </v>
   <v>       0.27472484       0.99925633       0.99553800 </v>
   <v>       0.77472484       0.99925633       0.99553800 </v>
   <v>       0.17788805       0.26797179       0.60783074 </v>
   <v>       0.67788805       0.26797179       0.60783074 </v>
   <v>       0.17788805       0.60130513       0.60783074 </v>
   <v>       0.67788805       0.60130513       0.60783074 </v>
   <v>       0.17788805       0.93463846       0.60783074 </v>
   <v>       0.67788805       0.93463846       0.60783074 </v>
   <v>       0.07211195       0.06536154       0.39216926 </v>
   <v>       0.57211195       0.06536154       0.39216926 </v>
   <v>       0.07211195       0.39869487       0.39216926 </v>
   <v>       0.57211195       0.39869487       0.39216926 </v>
   <v>       0.07211195       0.73202821       0.39216926 </v>
   <v>       0.57211195       0.73202821       0.39216926 </v>
   <v>       0.10733875       0.30765571       0.84593428 </v>
   <v>       0.60733875       0.30765571       0.84593428 </v>
   <v>       0.10733875       0.64098905       0.84593428 </v>
   <v>       0.60733875       0.64098905       0.84593428 </v>
   <v>       0.10733875       0.97432238       0.84593428 </v>
   <v>       0.60733875       0.97432238       0.84593428 </v>
   <v>       0.34464416       0.29539312       0.77235872 </v>
   <v>       0.84464416       0.29539312       0.77235872 </v>
   <v>       0.34464416       0.62872645       0.77235872 </v>
   <v>       0.84464416       0.62872645       0.77235872 </v>
   <v>       0.34464416       0.96205979       0.77235872 </v>
   <v>       0.84464416       0.96205979       0.77235872 </v>
   <v>       0.14266125       0.02567762       0.15406572 </v>
   <v>       0.64266125       0.02567762       0.15406572 </v>
   <v>       0.14266125       0.35901095       0.15406572 </v>
   <v>       0.64266125       0.35901095       0.15406572 </v>
   <v>       0.14266125       0.69234429       0.15406572 </v>
   <v>       0.64266125       0.69234429       0.15406572 </v>
   <v>       0.40535584       0.03794021       0.22764128 </v>
   <v>       0.90535584       0.03794021       0.22764128 </v>
   <v>       0.40535584       0.37127355       0.22764128 </v>
   <v>       0.90535584       0.37127355       0.22764128 </v>
   <v>       0.40535584       0.70460688       0.22764128 </v>
   <v>       0.90535584       0.70460688       0.22764128 </v>
   <v>       0.46517249       0.26691416       0.60148498 </v>
   <v>       0.96517249       0.26691416       0.60148498 </v>
   <v>       0.46517249       0.60024750       0.60148498 </v>
   <v>       0.96517249       0.60024750       0.60148498 </v>
   <v>       0.46517249       0.93358083       0.60148498 </v>
   <v>       0.96517249       0.93358083       0.60148498 </v>
   <v>       0.28482751       0.06641917       0.39851502 </v>
   <v>       0.78482751       0.06641917       0.39851502 </v>
   <v>       0.28482751       0.39975250       0.39851502 </v>
   <v>       0.78482751       0.39975250       0.39851502 </v>
   <v>       0.28482751       0.73308584       0.39851502 </v>
   <v>       0.78482751       0.73308584       0.39851502 </v>
   <v>       0.22447416       0.13353711       0.80122268 </v>
   <v>       0.72447416       0.13353711       0.80122268 </v>
   <v>       0.22447416       0.46687045       0.80122268 </v>
   <v>       0.72447416       0.46687045       0.80122268 </v>
   <v>       0.22447416       0.80020378       0.80122268 </v>
   <v>       0.72447416       0.80020378       0.80122268 </v>
   <v>       0.47796479       0.13582521       0.81495126 </v>
   <v>       0.97796479       0.13582521       0.81495126 </v>
   <v>       0.47796479       0.46915854       0.81495126 </v>
   <v>       0.97796479       0.46915854       0.81495126 </v>
   <v>       0.47796479       0.80249188       0.81495126 </v>
   <v>       0.97796479       0.80249188       0.81495126 </v>
   <v>       0.02552584       0.19979622       0.19877732 </v>
   <v>       0.52552584       0.19979622       0.19877732 </v>
   <v>       0.02552584       0.53312955       0.19877732 </v>
   <v>       0.52552584       0.53312955       0.19877732 </v>
   <v>       0.02552584       0.86646289       0.19877732 </v>
   <v>       0.52552584       0.86646289       0.19877732 </v>
   <v>       0.27203521       0.19750812       0.18504874 </v>
   <v>       0.77203521       0.19750812       0.18504874 </v>
   <v>       0.27203521       0.53084146       0.18504874 </v>
   <v>       0.77203521       0.53084146       0.18504874 </v>
   <v>       0.27203521       0.86417479       0.18504874 </v>
   <v>       0.77203521       0.86417479       0.18504874 </v>
   <v>       0.12500000       0.16666667       0.00000000 </v>
   <v>       0.62500000       0.16666667       0.00000000 </v>
   <v>       0.12500000       0.50000000       0.00000000 </v>
   <v>       0.62500000       0.50000000       0.00000000 </v>
   <v>       0.12500000       0.83333333       0.00000000 </v>
   <v>       0.62500000       0.83333333       0.00000000 </v>
   <v>       0.37500000       0.16666667       0.00000000 </v>
   <v>       0.87500000       0.16666667       0.00000000 </v>
   <v>       0.37500000       0.50000000       0.00000000 </v>
   <v>       0.87500000       0.50000000       0.00000000 </v>
   <v>       0.37500000       0.83333333       0.00000000 </v>
   <v>       0.87500000       0.83333333       0.00000000 </v>
   <v>       0.17679403       0.22809805       0.36858830 </v>
   <v>       0.67614737       0.22809805       0.36858830 </v>
   <v>       0.17614737       0.56143138       0.36858830 </v>
   <v>       0.67614737       0.56143138       0.36858830 </v>
   <v>       0.17614737       0.89476472       0.36858830 </v>
   <v>       0.67614737       0.89476472       0.36858830 </v>
   <v>       0.41542106       0.22793643       0.36761855 </v>
   <v>       0.91542106       0.22793643       0.36761855 </v>
   <v>       0.41542106       0.56126976       0.36761855 </v>
   <v>       0.91542106       0.56126976       0.36761855 </v>
   <v>       0.41542106       0.89460309       0.36761855 </v>
   <v>       0.91542106       0.89460309       0.36761855 </v>
   <v>       0.07385263       0.10523528       0.63141170 </v>
   <v>       0.57385263       0.10523528       0.63141170 </v>
   <v>       0.07385263       0.43856862       0.63141170 </v>
   <v>       0.57385263       0.43856862       0.63141170 </v>
   <v>       0.07385263       0.77190195       0.63141170 </v>
   <v>       0.57385263       0.77190195       0.63141170 </v>
   <v>       0.33457894       0.10539691       0.63238145 </v>
   <v>       0.83457894       0.10539691       0.63238145 </v>
   <v>       0.33457894       0.43873024       0.63238145 </v>
   <v>       0.83457894       0.43873024       0.63238145 </v>
   <v>       0.33457894       0.77206357       0.63238145 </v>
   <v>       0.83457894       0.77206357       0.63238145 </v>
   <v>       0.22527003       0.30093342       0.80560053 </v>
   <v>       0.72527003       0.30093342       0.80560053 </v>
   <v>       0.22527003       0.63426676       0.80560053 </v>
   <v>       0.72527003       0.63426676       0.80560053 </v>
   <v>       0.22527003       0.96760009       0.80560053 </v>
   <v>       0.72527003       0.96760009       0.80560053 </v>
   <v>       0.47618324       0.30143353       0.80860116 </v>
   <v>       0.97618324       0.30143353       0.80860116 </v>
   <v>       0.47618324       0.63476686       0.80860116 </v>
   <v>       0.97618324       0.63476686       0.80860116 </v>
   <v>       0.47618324       0.96810019       0.80860116 </v>
   <v>       0.97618324       0.96810019       0.80860116 </v>
   <v>       0.02472997       0.03239991       0.19439947 </v>
   <v>       0.52472997       0.03239991       0.19439947 </v>
   <v>       0.02472997       0.36573324       0.19439947 </v>
   <v>       0.52472997       0.36573324       0.19439947 </v>
   <v>       0.02472997       0.69906658       0.19439947 </v>
   <v>       0.52472997       0.69906658       0.19439947 </v>
   <v>       0.27381676       0.03189981       0.19139884 </v>
   <v>       0.77381676       0.03189981       0.19139884 </v>
   <v>       0.27381676       0.36523314       0.19139884 </v>
   <v>       0.77381676       0.36523314       0.19139884 </v>
   <v>       0.27381676       0.69856647       0.19139884 </v>
   <v>       0.77381676       0.69856647       0.19139884 </v>
  </varray>
 </structure>
 <calculation>
  <scstep>
   <time name="dav">  342.64  346.43</time>
   <time name="total">  345.30  349.13</time>
   <energy>
    <i name="alphaZ">   2668.72143546 </i>
    <i name="ewald"> -68024.54097470 </i>
    <i name="hartreedc"> -39876.69477111 </i>
    <i name="XCdc">   4298.62587045 </i>
    <i name="pawpsdc"> 114383.84820647 </i>
    <i name="pawaedc">-118048.71515856 </i>
    <i name="eentropy">     -0.02986457 </i>
    <i name="bandstr">   -564.34578951 </i>
    <i name="atom"> 118542.86816856 </i>
    <i name="e_fr_energy">  13379.73712249 </i>
    <i name="e_wo_entrp">  13379.76698706 </i>
    <i name="e_0_energy">  13379.75205478 </i>
   </energy>
  </scstep>
  <scstep>
   <time name="dav">  330.41  333.69</time>
   <time name="total">  330.42  333.69</time>
   <energy>
    <i name="e_fr_energy">   1421.87386401 </i>
    <i name="e_wo_entrp">   1421.95857639 </i>
    <i name="e_0_energy">   1421.91622020 </i>
   </energy>
  </scstep>
  <scstep>
   <time name="dav">  354.77  358.33</time>
   <time name="total">  354.77  358.33</time>
   <energy>
    <i name="e_fr_energy">   -473.19466289 </i>
    <i name="e_wo_entrp">   -473.19466289 </i>
    <i name="e_0_energy">   -473.19466289 </i>
   </energy>
  </scstep>
  <scstep>
   <time name="dav">  399.55  403.77</time>
   <time name="total">  399.55  403.77</time>
   <energy>
    <i name="e_fr_energy">   -716.02569306 </i>
    <i name="e_wo_entrp">   -716.02569306 </i>
    <i name="e_0_energy">   -716.02569306 </i>
   </energy>
  </scstep>
  <scstep>
   <time name="dav">  524.40  529.66</time>
   <time name="total">  535.20  540.59</time>
   <energy>
    <i name="e_fr_energy">   -745.36852683 </i>
    <i name="e_wo_entrp">   -745.36852683 </i>
    <i name="e_0_energy">   -745.36852683 </i>
   </energy>
  </scstep>
  <scstep>
   <time name="dav">  417.25  421.01</time>
   <time name="total">  430.65  434.63</time>
   <energy>
    <i name="e_fr_energy">   -746.58253590 </i>
    <i name="e_wo_entrp">   -746.58253590 </i>
    <i name="e_0_energy">   -746.58253590 </i>
   </energy>
  </scstep>
  <scstep>
   <time name="dav">  475.34  479.93</time>
   <time name="total">  488.78  493.57</time>
   <energy>
    <i name="e_fr_energy">   -746.63639973 </i>
    <i name="e_wo_entrp">   -746.63639973 </i>
    <i name="e_0_energy">   -746.63639973 </i>
   </energy>
  </scstep>
  <scstep>
   <time name="dav">  446.69  451.36</time>
   <time name="total">  460.13  464.94</time>
   <energy>
    <i name="e_fr_energy">   -746.63562303 </i>
    <i name="e_wo_entrp">   -746.63562303 </i>
    <i name="e_0_energy">   -746.63562303 </i>
   </energy>
  </scstep>
  <scstep>
   <time name="dav">  477.02  481.42</time>
   <time name="total">  490.42  495.03</time>
   <energy>
    <i name="e_fr_energy">   -746.63492815 </i>
    <i name="e_wo_entrp">   -746.63492815 </i>
    <i name="e_0_energy">   -746.63492815 </i>
   </energy>
  </scstep>
  <scstep>
   <time name="dav">  495.99  501.07</time>
   <time name="total">  509.43  514.66</time>
   <energy>
    <i name="e_fr_energy">   -746.63362701 </i>
    <i name="e_wo_entrp">   -746.63362701 </i>
    <i name="e_0_energy">   -746.63362701 </i>
   </energy>
  </scstep>
  <scstep>
   <time name="dav">  474.07  478.40</time>
   <time name="total">  487.50  492.07</time>
   <energy>
    <i name="e_fr_energy">   -746.63173646 </i>
    <i name="e_wo_entrp">   -746.63173646 </i>
    <i name="e_0_energy">   -746.63173646 </i>
   </energy>
  </scstep>
  <scstep>
   <time name="dav">  400.71  404.03</time>
   <time name="total">  414.23  417.58</time>
   <energy>
    <i name="e_fr_energy">   -746.63123618 </i>
    <i name="e_wo_entrp">   -746.63123618 </i>
    <i name="e_0_energy">   -746.63123618 </i>
   </energy>
  </scstep>
  <scstep>
   <time name="dav">  435.57  439.07</time>
   <time name="total">  448.97  452.57</time>
   <energy>
    <i name="e_fr_energy">   -746.63108867 </i>
    <i name="e_wo_entrp">   -746.63108867 </i>
    <i name="e_0_energy">   -746.63108867 </i>
   </energy>
  </scstep>
  <scstep>
   <time name="dav">  454.37  458.53</time>
   <time name="total">  467.81  472.13</time>
   <energy>
    <i name="e_fr_energy">   -746.63102248 </i>
    <i name="e_wo_entrp">   -746.63102248 </i>
    <i name="e_0_energy">   -746.63102248 </i>
   </energy>
  </scstep>
  <scstep>
   <time name="dav">  365.53  368.92</time>
   <time name="total">  378.89  382.51</time>
   <energy>
    <i name="e_fr_energy">   -746.63094810 </i>
    <i name="e_wo_entrp">   -746.63094810 </i>
    <i name="e_0_energy">   -746.63094810 </i>
   </energy>
  </scstep>
  <scstep>
   <time name="dav">  429.73  433.69</time>
   <time name="total">  443.24  447.27</time>
   <energy>
    <i name="e_fr_energy">   -746.63091380 </i>
    <i name="e_wo_entrp">   -746.63091380 </i>
    <i name="e_0_energy">   -746.63091380 </i>
   </energy>
  </scstep>
  <scstep>
   <time name="dav">  425.96  429.73</time>
   <time name="total">  439.42  443.23</time>
   <energy>
    <i name="e_fr_energy">   -746.63091337 </i>
    <i name="e_wo_entrp">   -746.63091337 </i>
    <i name="e_0_energy">   -746.63091337 </i>
   </energy>
  </scstep>
  <scstep>
   <time name="dav">  311.43  313.96</time>
   <time name="total">  314.01  316.54</time>
   <energy>
    <i name="alphaZ">   2668.72143546 </i>
    <i name="ewald"> -68024.54097470 </i>
    <i name="hartreedc"> -39876.77498182 </i>
    <i name="XCdc">   4298.61893021 </i>
    <i name="pawpsdc"> 114382.79271490 </i>
    <i name="pawaedc">-118047.59662150 </i>
    <i name="eentropy">     -0.00000000 </i>
    <i name="bandstr"> -14690.71958515 </i>
    <i name="atom"> 118542.86816856 </i>
    <i name="e_fr_energy">   -746.63091404 </i>
    <i name="e_wo_entrp">   -746.63091404 </i>
    <i name="e_0_energy">   -746.63091404 </i>
   </energy>
  </scstep>
  <structure>
   <crystal>
    <varray name="basis" >
     <v>      15.21162830       0.00516956      -2.78361592 </v>
     <v>      -0.40798665      11.93565774      -2.20735884 </v>
     <v>      -0.06175567      -0.11168197      10.54442638 </v>
    </varray>
    <i name="volume">   1908.54869108 </i>
    <varray name="rec_basis" >
     <v>       0.06581343       0.00232549       0.00041008 </v>
     <v>       0.00013433       0.08395174       0.00088997 </v>
     <v>       0.01740216       0.01818827       0.09513139 </v>
    </varray>
   </crystal>
   <varray name="positions" >
    <v>       0.47527516       0.00074367       0.00446200 </v>
    <v>       0.97527516       0.00074367       0.00446200 </v>
    <v>       0.47527516       0.33407700       0.00446200 </v>
    <v>       0.97527516       0.33407700       0.00446200 </v>
    <v>       0.47527516       0.66741034       0.00446200 </v>
    <v>       0.97527516       0.66741034       0.00446200 </v>
    <v>       0.27472484       0.33258966       0.99553800 </v>
    <v>       0.77472484       0.33258966       0.99553800 </v>
    <v>       0.27472484       0.66592300       0.99553800 </v>
    <v>       0.77472484       0.66592300       0.99553800 </v>
    <v>       0.27472484       0.99925633       0.99553800 </v>
    <v>       0.77472484       0.99925633       0.99553800 </v>
    <v>       0.17788805       0.26797179       0.60783074 </v>
    <v>       0.67788805       0.26797179       0.60783074 </v>
    <v>       0.17788805       0.60130513       0.60783074 </v>
    <v>       0.67788805       0.60130513       0.60783074 </v>
    <v>       0.17788805       0.93463846       0.60783074 </v>
    <v>       0.67788805       0.93463846       0.60783074 </v>
    <v>       0.07211195       0.06536154       0.39216926 </v>
    <v>       0.57211195       0.06536154       0.39216926 </v>
    <v>       0.07211195       0.39869487       0.39216926 </v>
    <v>       0.57211195       0.39869487       0.39216926 </v>
    <v>       0.07211195       0.73202821       0.39216926 </v>
    <v>       0.57211195       0.73202821       0.39216926 </v>
    <v>       0.10733875       0.30765571       0.84593428 </v>
    <v>       0.60733875       0.30765571       0.84593428 </v>
    <v>       0.10733875       0.64098905       0.84593428 </v>
    <v>       0.60733875       0.64098905       0.84593428 </v>
    <v>       0.10733875       0.97432238       0.84593428 </v>
    <v>       0.60733875       0.97432238       0.84593428 </v>
    <v>       0.34464416       0.29539312       0.77235872 </v>
    <v>       0.84464416       0.29539312       0.77235872 </v>
    <v>       0.34464416       0.62872645       0.77235872 </v>
    <v>       0.84464416       0.62872645       0.77235872 </v>
    <v>       0.34464416       0.96205979       0.77235872 </v>
    <v>       0.84464416       0.96205979       0.77235872 </v>
    <v>       0.14266125       0.02567762       0.15406572 </v>
    <v>       0.64266125       0.02567762       0.15406572 </v>
    <v>       0.14266125       0.35901095       0.15406572 </v>
    <v>       0.64266125       0.35901095       0.15406572 </v>
    <v>       0.14266125       0.69234429       0.15406572 </v>
    <v>       0.64266125       0.69234429       0.15406572 </v>
    <v>       0.40535584       0.03794021       0.22764128 </v>
    <v>       0.90535584       0.03794021       0.22764128 </v>
    <v>       0.40535584       0.37127355       0.22764128 </v>
    <v>       0.90535584       0.37127355       0.22764128 </v>
    <v>       0.40535584       0.70460688       0.22764128 </v>
    <v>       0.90535584       0.70460688       0.22764128 </v>
    <v>       0.46517249       0.26691416       0.60148498 </v>
    <v>       0.96517249       0.26691416       0.60148498 </v>
    <v>       0.46517249       0.60024750       0.60148498 </v>
    <v>       0.96517249       0.60024750       0.60148498 </v>
    <v>       0.46517249       0.93358083       0.60148498 </v>
    <v>       0.96517249       0.93358083       0.60148498 </v>
    <v>       0.28482751       0.06641917       0.39851502 </v>
    <v>       0.78482751       0.06641917       0.39851502 </v>
    <v>       0.28482751       0.39975250       0.39851502 </v>
    <v>       0.78482751       0.39975250       0.39851502 </v>
    <v>       0.28482751       0.73308584       0.39851502 </v>
    <v>       0.78482751       0.73308584       0.39851502 </v>
    <v>       0.22447416       0.13353711       0.80122268 </v>
    <v>       0.72447416       0.13353711       0.80122268 </v>
    <v>       0.22447416       0.46687045       0.80122268 </v>
    <v>       0.72447416       0.46687045       0.80122268 </v>
    <v>       0.22447416       0.80020378       0.80122268 </v>
    <v>       0.72447416       0.80020378       0.80122268 </v>
    <v>       0.47796479       0.13582521       0.81495126 </v>
    <v>       0.97796479       0.13582521       0.81495126 </v>
    <v>       0.47796479       0.46915854       0.81495126 </v>
    <v>       0.97796479       0.46915854       0.81495126 </v>
    <v>       0.47796479       0.80249188       0.81495126 </v>
    <v>       0.97796479       0.80249188       0.81495126 </v>
    <v>       0.02552584       0.19979622       0.19877732 </v>
    <v>       0.52552584       0.19979622       0.19877732 </v>
    <v>       0.02552584       0.53312955       0.19877732 </v>
    <v>       0.52552584       0.53312955       0.19877732 </v>
    <v>       0.02552584       0.86646289       0.19877732 </v>
    <v>       0.52552584       0.86646289       0.19877732 </v>
    <v>       0.27203521       0.19750812       0.18504874 </v>
    <v>       0.77203521       0.19750812       0.18504874 </v>
    <v>       0.27203521       0.53084146       0.18504874 </v>
    <v>       0.77203521       0.53084146       0.18504874 </v>
    <v>       0.27203521       0.86417479       0.18504874 </v>
    <v>       0.77203521       0.86417479       0.18504874 </v>
    <v>       0.12500000       0.16666667       0.00000000 </v>
    <v>       0.62500000       0.16666667       0.00000000 </v>
    <v>       0.12500000       0.50000000       0.00000000 </v>
    <v>       0.62500000       0.50000000       0.00000000 </v>
    <v>       0.12500000       0.83333333       0.00000000 </v>
    <v>       0.62500000       0.83333333       0.00000000 </v>
    <v>       0.37500000       0.16666667       0.00000000 </v>
    <v>       0.87500000       0.16666667       0.00000000 </v>
    <v>       0.37500000       0.50000000       0.00000000 </v>
    <v>       0.87500000       0.50000000       0.00000000 </v>
    <v>       0.37500000       0.83333333       0.00000000 </v>
    <v>       0.87500000       0.83333333       0.00000000 </v>
    <v>       0.17679403       0.22809805       0.36858830 </v>
    <v>       0.67614737       0.22809805       0.36858830 </v>
    <v>       0.17614737       0.56143138       0.36858830 </v>
    <v>       0.67614737       0.56143138       0.36858830 </v>
    <v>       0.17614737       0.89476472       0.36858830 </v>
    <v>       0.67614737       0.89476472       0.36858830 </v>
    <v>       0.41542106       0.22793643       0.36761855 </v>
    <v>       0.91542106       0.22793643       0.36761855 </v>
    <v>       0.41542106       0.56126976       0.36761855 </v>
    <v>       0.91542106       0.56126976       0.36761855 </v>
    <v>       0.41542106       0.89460309       0.36761855 </v>
    <v>       0.91542106       0.89460309       0.36761855 </v>
    <v>       0.07385263       0.10523528       0.63141170 </v>
    <v>       0.57385263       0.10523528       0.63141170 </v>
    <v>       0.07385263       0.43856862       0.63141170 </v>
    <v>       0.57385263       0.43856862       0.63141170 </v>
    <v>       0.07385263       0.77190195       0.63141170 </v>
    <v>       0.57385263       0.77190195       0.63141170 </v>
    <v>       0.33457894       0.10539691       0.63238145 </v>
    <v>       0.83457894       0.10539691       0.63238145 </v>
    <v>       0.33457894       0.43873024       0.63238145 </v>
    <v>       0.83457894       0.43873024       0.63238145 </v>
    <v>       0.33457894       0.77206357       0.63238145 </v>
    <v>       0.83457894       0.77206357       0.63238145 </v>
    <v>       0.22527003       0.30093342       0.80560053 </v>
    <v>       0.72527003       0.30093342       0.80560053 </v>
    <v>       0.22527003       0.63426676       0.80560053 </v>
    <v>       0.72527003       0.63426676       0.80560053 </v>
    <v>       0.22527003       0.96760009       0.80560053 </v>
    <v>       0.72527003       0.96760009       0.80560053 </v>
    <v>       0.47618324       0.30143353       0.80860116 </v>
    <v>       0.97618324       0.30143353       0.80860116 </v>
    <v>       0.47618324       0.63476686       0.80860116 </v>
    <v>       0.97618324       0.63476686       0.80860116 </v>
    <v>       0.47618324       0.96810019       0.80860116 </v>
    <v>       0.97618324       0.96810019       0.80860116 </v>
    <v>       0.02472997       0.03239991       0.19439947 </v>
    <v>       0.52472997       0.03239991       0.19439947 </v>
    <v>       0.02472997       0.36573324       0.19439947 </v>
    <v>       0.52472997       0.36573324       0.19439947 </v>
    <v>       0.02472997       0.69906658       0.19439947 </v>
    <v>       0.52472997       0.69906658       0.19439947 </v>
    <v>       0.27381676       0.03189981       0.19139884 </v>
    <v>       0.77381676       0.03189981       0.19139884 </v>
    <v>       0.27381676       0.36523314       0.19139884 </v>
    <v>       0.77381676       0.36523314       0.19139884 </v>
    <v>       0.27381676       0.69856647       0.19139884 </v>
    <v>       0.77381676       0.69856647       0.19139884 </v>
   </varray>
  </structure>
  <varray name="forces" >
   <v>      -0.00012634       0.00002146      -0.00012361 </v>
   <v>       0.00011250      -0.00033955      -0.00087088 </v>
   <v>      -0.00012936      -0.00021718      -0.00012040 </v>
   <v>       0.00011208      -0.00017341      -0.00085590 </v>
   <v>      -0.00008333      -0.00015588      -0.00021163 </v>
   <v>       0.00031560      -0.00008254      -0.00013013 </v>
   <v>       0.00038381       0.00023088       0.00087784 </v>
   <v>      -0.00055551       0.00019583       0.00007004 </v>
   <v>       0.00023571       0.00010842       0.00018987 </v>
   <v>      -0.00046929       0.00011107       0.00016789 </v>
   <v>       0.00034599       0.00029138       0.00085036 </v>
   <v>      -0.00053378      -0.00004136       0.00010948 </v>
   <v>       0.00177804       0.00034317      -0.00075125 </v>
   <v>      -0.00093547       0.00042110       0.00016072 </v>
   <v>       0.00018349       0.00054374      -0.00005880 </v>
   <v>      -0.00083331       0.00039545       0.00018380 </v>
   <v>       0.00020036       0.00028696      -0.00002068 </v>
   <v>      -0.00084433       0.00044347       0.00016574 </v>
   <v>       0.00205927      -0.00065508      -0.00015240 </v>
   <v>      -0.00033342      -0.00005717      -0.00006988 </v>
   <v>       0.00203571      -0.00012473      -0.00024832 </v>
   <v>      -0.00031156      -0.00080357       0.00006203 </v>
   <v>       0.00083496      -0.00041232      -0.00013625 </v>
   <v>       0.00001711      -0.00042849      -0.00003794 </v>
   <v>      -0.00001626       0.00021504       0.00008367 </v>
   <v>      -0.00064565       0.00006960      -0.00029451 </v>
   <v>      -0.00003560       0.00039387       0.00001235 </v>
   <v>      -0.00057495       0.00002516      -0.00028396 </v>
   <v>       0.00001270      -0.00013686       0.00008932 </v>
   <v>      -0.00059879       0.00012190      -0.00029497 </v>
   <v>      -0.00104848      -0.00036427      -0.00030388 </v>
   <v>      -0.00153984      -0.00017470      -0.00006577 </v>
   <v>      -0.00105626      -0.00064418      -0.00013597 </v>
   <v>      -0.00147878      -0.00019365      -0.00007190 </v>
   <v>      -0.00108411       0.00018740      -0.00024987 </v>
   <v>      -0.00149006      -0.00040834      -0.00007090 </v>
   <v>       0.00244714      -0.00074605      -0.00069588 </v>
   <v>      -0.00011560      -0.00010733       0.00018040 </v>
   <v>       0.00240370       0.00029656      -0.00086972 </v>
   <v>      -0.00011808      -0.00011949       0.00017571 </v>
   <v>       0.00061255      -0.00004453       0.00028633 </v>
   <v>       0.00005122      -0.00012771       0.00014967 </v>
   <v>       0.00071578       0.00082909       0.00036349 </v>
   <v>       0.00049709      -0.00020570       0.00014472 </v>
   <v>       0.00075117      -0.00020367       0.00053590 </v>
   <v>       0.00047153       0.00065099      -0.00001623 </v>
   <v>       0.00136508       0.00025773       0.00018749 </v>
   <v>       0.00126562       0.00023781      -0.00002522 </v>
   <v>      -0.00089386       0.00015067      -0.00161108 </v>
   <v>      -0.00040038       0.00067332       0.00096681 </v>
   <v>      -0.00042611       0.00001230      -0.00015284 </v>
   <v>      -0.00038422       0.00100732      -0.00031541 </v>
   <v>      -0.00045064       0.00084774      -0.00028118 </v>
   <v>      -0.00034428      -0.00017171      -0.00013769 </v>
   <v>       0.00626788      -0.00311059       0.00085129 </v>
   <v>      -0.00096913      -0.00107257       0.00042496 </v>
   <v>       0.00606463       0.00266350      -0.00024606 </v>
   <v>      -0.00099416       0.00016513       0.00023493 </v>
   <v>       0.00056937      -0.00044971       0.00005901 </v>
   <v>      -0.00054243      -0.00046710       0.00023384 </v>
   <v>       0.00189845      -0.00031374      -0.00014753 </v>
   <v>      -0.00111824      -0.00027834       0.00004689 </v>
   <v>       0.00154461      -0.00011003       0.00002335 </v>
   <v>      -0.00080644      -0.00021164       0.00017236 </v>
   <v>       0.00070185      -0.00016341       0.00016443 </v>
   <v>      -0.00061536      -0.00026571       0.00015167 </v>
   <v>      -0.00134893      -0.00002162      -0.00033092 </v>
   <v>      -0.00018167       0.00013609       0.00041921 </v>
   <v>      -0.00108384      -0.00013590      -0.00052307 </v>
   <v>      -0.00041577       0.00018496       0.00043434 </v>
   <v>      -0.00049470       0.00001376      -0.00013347 </v>
   <v>       0.00003188      -0.00004818      -0.00011664 </v>
   <v>       0.00514412       0.00033550      -0.00045724 </v>
   <v>      -0.00133024       0.00039413       0.00096557 </v>
   <v>       0.00039872       0.00244140      -0.00055329 </v>
   <v>      -0.00062262      -0.00002482      -0.00005140 </v>
   <v>       0.00057913      -0.00197618       0.00022063 </v>
   <v>      -0.00060610       0.00043156      -0.00010095 </v>
   <v>       0.00757723      -0.00084296      -0.00576267 </v>
   <v>      -0.00106777      -0.00014061      -0.00033037 </v>
   <v>       0.00113928      -0.00169182       0.00055822 </v>
   <v>      -0.00040019       0.00015670       0.00007830 </v>
   <v>       0.00089691       0.00179435      -0.00006053 </v>
   <v>      -0.00034452      -0.00024107       0.00013870 </v>
   <v>      -0.00288678       0.00000594       0.00051718 </v>
   <v>       0.00096370       0.00002473       0.00006751 </v>
   <v>      -0.00115419      -0.00013817      -0.00015627 </v>
   <v>       0.00073392       0.00006887       0.00010313 </v>
   <v>      -0.00104163       0.00002893       0.00003783 </v>
   <v>       0.00068121       0.00002944       0.00005994 </v>
   <v>       0.00009493      -0.00015184      -0.00087793 </v>
   <v>       0.00113551       0.00021626       0.00085346 </v>
   <v>      -0.00000727       0.00028191      -0.00019973 </v>
   <v>       0.00068530      -0.00031283       0.00032431 </v>
   <v>       0.00006263      -0.00039229      -0.00035365 </v>
   <v>       0.00061610       0.00044157       0.00025058 </v>
   <v>      -0.05731852       0.00001206       0.01291213 </v>
   <v>       0.00168801      -0.00038422      -0.00006852 </v>
   <v>      -0.00139847      -0.00039303       0.00034030 </v>
   <v>       0.00068150      -0.00040285       0.00011108 </v>
   <v>      -0.00139249      -0.00042876       0.00037087 </v>
   <v>       0.00067944      -0.00034397       0.00009673 </v>
   <v>       0.00764456      -0.00024704      -0.00112004 </v>
   <v>       0.00468071      -0.00038265      -0.00117568 </v>
   <v>       0.00039800       0.00049787      -0.00014256 </v>
   <v>       0.00047740      -0.00076843      -0.00008005 </v>
   <v>       0.00045471      -0.00108913       0.00010552 </v>
   <v>       0.00044553       0.00012752      -0.00022046 </v>
   <v>       0.00066258       0.00168352      -0.00288591 </v>
   <v>       0.00086944       0.00020220       0.00007570 </v>
   <v>       0.00075458      -0.00176602      -0.00228660 </v>
   <v>       0.00082245       0.00070751      -0.00001036 </v>
   <v>      -0.00048476       0.00039196      -0.00008273 </v>
   <v>       0.00053706       0.00042544      -0.00009225 </v>
   <v>       0.00142377      -0.00095845       0.00293960 </v>
   <v>       0.00047721       0.00045759      -0.00020852 </v>
   <v>       0.00132811       0.00264780       0.00236866 </v>
   <v>       0.00047268       0.00010581      -0.00025169 </v>
   <v>      -0.00047905       0.00029291       0.00003458 </v>
   <v>       0.00022303       0.00032234      -0.00007383 </v>
   <v>      -0.00131858      -0.00005512      -0.00013351 </v>
   <v>       0.00075491      -0.00001541       0.00008557 </v>
   <v>      -0.00095977       0.00008634       0.00014945 </v>
   <v>       0.00069687       0.00013651       0.00005672 </v>
   <v>      -0.00106183       0.00014918       0.00009067 </v>
   <v>       0.00073866       0.00026754       0.00006055 </v>
   <v>       0.00012372       0.00005477       0.00006054 </v>
   <v>      -0.00047584      -0.00020689      -0.00059241 </v>
   <v>       0.00010891       0.00051811      -0.00012582 </v>
   <v>      -0.00032709      -0.00073448      -0.00054648 </v>
   <v>       0.00017527      -0.00079383       0.00006990 </v>
   <v>      -0.00039428       0.00035473      -0.00064806 </v>
   <v>       0.00376520       0.00819574       0.00232677 </v>
   <v>       0.00083029      -0.00084770      -0.00036124 </v>
   <v>       0.00426495      -0.00671233       0.00502040 </v>
   <v>       0.00080733       0.00050782      -0.00059190 </v>
   <v>      -0.00042606      -0.00013629      -0.00000696 </v>
   <v>       0.00052324      -0.00007273      -0.00019834 </v>
   <v>       0.00224920      -0.00713820      -0.00389977 </v>
   <v>       0.00126974       0.00066966       0.00037060 </v>
   <v>       0.00177311       0.00555639      -0.00624845 </v>
   <v>       0.00130293      -0.00026813       0.00054313 </v>
   <v>      -0.00011185       0.00011827       0.00020250 </v>
   <v>       0.00093758       0.00017253       0.00032170 </v>
  </varray>
  <varray name="stress" >
   <v>      -0.10916119       0.01242437      -0.00129639 </v>
   <v>       0.00246610      -0.12811739      -0.07541600 </v>
   <v>      -0.03980849      -0.04652988      -0.08498669 </v>
  </varray>
  <energy>
   <i name="e_fr_energy">   -746.63091404 </i>
   <i name="e_wo_entrp">   -746.63091404 </i>
   <i name="e_0_energy">     -0.00000000 </i>
  </energy>
  <time name="totalsc"> 8318.14 8396.13</time>
  <eigenvalues>
   <array>
    <dimension dim="1">band</dimension>
    <dimension dim="2">kpoint</dimension>
    <dimension dim="3">spin</dimension>
    <field>eigene</field>
    <field>occ</field>
    <set>
     <set comment="spin 1">
      <set comment="kpoint 1">
       <r>  -51.6042    1.0000 </r>
       <r>  -51.6036    1.0000 </r>
       <r>  -51.6034    1.0000 </r>
       <r>  -51.6034    1.0000 </r>
       <r>  -51.6033    1.0000 </r>
       <r>  -51.6029    1.0000 </r>
       <r>  -51.6021    1.0000 </r>
       <r>  -51.6017    1.0000 </r>
       <r>  -51.6015    1.0000 </r>
       <r>  -51.6008    1.0000 </r>
       <r>  -51.5983    1.0000 </r>
       <r>  -51.5980    1.0000 </r>
       <r>  -51.4188    1.0000 </r>
       <r>  -51.4186    1.0000 </r>
       <r>  -51.4186    1.0000 </r>
       <r>  -51.4182    1.0000 </r>
       <r>  -51.4181    1.0000 </r>
       <r>  -51.4179    1.0000 </r>
       <r>  -51.4170    1.0000 </r>
       <r>  -51.4166    1.0000 </r>
       <r>  -51.4166    1.0000 </r>
       <r>  -51.4163    1.0000 </r>
       <r>  -51.4163    1.0000 </r>
       <r>  -51.4128    1.0000 </r>
       <r>  -51.3035    1.0000 </r>
       <r>  -51.2992    1.0000 </r>
       <r>  -51.2986    1.0000 </r>
       <r>  -51.2981    1.0000 </r>
       <r>  -51.2980    1.0000 </r>
       <r>  -51.2977    1.0000 </r>
       <r>  -51.2977    1.0000 </r>
       <r>  -51.2972    1.0000 </r>
       <r>  -51.2972    1.0000 </r>
       <r>  -51.2969    1.0000 </r>
       <r>  -51.2969    1.0000 </r>
       <r>  -51.2961    1.0000 </r>
       <r>  -50.1589    1.0000 </r>
       <r>  -50.1584    1.0000 </r>
       <r>  -50.1582    1.0000 </r>
       <r>  -50.1581    1.0000 </r>
       <r>  -50.1579    1.0000 </r>
       <r>  -50.1573    1.0000 </r>
       <r>  -50.1567    1.0000 </r>
       <r>  -50.1565    1.0000 </r>
       <r>  -50.1562    1.0000 </r>
       <r>  -50.1554    1.0000 </r>
       <r>  -50.1550    1.0000 </r>
       <r>  -50.1544    1.0000 </r>
       <r>  -50.0674    1.0000 </r>
       <r>  -50.0668    1.0000 </r>
       <r>  -50.0667    1.0000 </r>
       <r>  -50.0663    1.0000 </r>
       <r>  -50.0663    1.0000 </r>
       <r>  -50.0660    1.0000 </r>
       <r>  -50.0653    1.0000 </r>
       <r>  -50.0648    1.0000 </r>
       <r>  -50.0647    1.0000 </r>
       <r>  -50.0641    1.0000 </r>
       <r>  -50.0605    1.0000 </r>
       <r>  -50.0604    1.0000 </r>
       <r>  -49.9626    1.0000 </r>
       <r>  -49.9625    1.0000 </r>
       <r>  -49.9624    1.0000 </r>
       <r>  -49.9620    1.0000 </r>
       <r>  -49.9620    1.0000 </r>
       <r>  -49.9619    1.0000 </r>
       <r>  -49.9609    1.0000 </r>
       <r>  -49.9606    1.0000 </r>
       <r>  -49.9605    1.0000 </r>
       <r>  -49.9605    1.0000 </r>
       <r>  -49.9603    1.0000 </r>
       <r>  -49.9574    1.0000 </r>
       <r>  -49.9536    1.0000 </r>
       <r>  -49.9534    1.0000 </r>
       <r>  -49.9533    1.0000 </r>
       <r>  -49.9530    1.0000 </r>
       <r>  -49.9529    1.0000 </r>
       <r>  -49.9528    1.0000 </r>
       <r>  -49.9517    1.0000 </r>
       <r>  -49.9514    1.0000 </r>
       <r>  -49.9514    1.0000 </r>
       <r>  -49.9513    1.0000 </r>
       <r>  -49.9512    1.0000 </r>
       <r>  -49.9466    1.0000 </r>
       <r>  -49.8951    1.0000 </r>
       <r>  -49.8898    1.0000 </r>
       <r>  -49.8898    1.0000 </r>
       <r>  -49.8890    1.0000 </r>
       <r>  -49.8889    1.0000 </r>
       <r>  -49.8888    1.0000 </r>
       <r>  -49.8886    1.0000 </r>
       <r>  -49.8886    1.0000 </r>
       <r>  -49.8885    1.0000 </r>
       <r>  -49.8881    1.0000 </r>
       <r>  -49.8881    1.0000 </r>
       <r>  -49.8873    1.0000 </r>
       <r>  -49.8527    1.0000 </r>
       <r>  -49.8481    1.0000 </r>
       <r>  -49.8481    1.0000 </r>
       <r>  -49.8472    1.0000 </r>
       <r>  -49.8471    1.0000 </r>
       <r>  -49.8471    1.0000 </r>
       <r>  -49.8469    1.0000 </r>
       <r>  -49.8468    1.0000 </r>
[...]
       <r>   -32.5876     0.0000   156.0000 </r>
       <r>   -32.3479     0.0000   156.0000 </r>
       <r>   -32.1083     0.0000   156.0000 </r>
       <r>   -31.8687     0.0000   156.0000 </r>
       <r>   -31.6291     0.0000   156.0000 </r>
       <r>   -31.3895     0.0000   156.0000 </r>
       <r>   -31.1499     0.0000   156.0000 </r>
       <r>   -30.9103     0.0000   156.0000 </r>
       <r>   -30.6706     0.0000   156.0000 </r>
       <r>   -30.4310     0.0000   156.0000 </r>
       <r>   -30.1914     0.0000   156.0000 </r>
       <r>   -29.9518     0.0000   156.0000 </r>
       <r>   -29.7122     0.0000   156.0000 </r>
       <r>   -29.4726     0.0000   156.0000 </r>
       <r>   -29.2330     0.0000   156.0000 </r>
       <r>   -28.9933     0.0000   156.0000 </r>
       <r>   -28.7537     0.0000   156.0000 </r>
       <r>   -28.5141     0.0000   156.0000 </r>
       <r>   -28.2745     0.0000   156.0000 </r>
       <r>   -28.0349     0.0000   156.0000 </r>
       <r>   -27.7953     0.0000   156.0000 </r>
       <r>   -27.5557     0.0000   156.0000 </r>
       <r>   -27.3160     0.0000   156.0000 </r>
       <r>   -27.0764     0.0000   156.0000 </r>
       <r>   -26.8368     0.0000   156.0000 </r>
       <r>   -26.5972     0.0000   156.0000 </r>
       <r>   -26.3576     0.0000   156.0000 </r>
       <r>   -26.1180     0.0000   156.0000 </r>
       <r>   -25.8784     0.0000   156.0000 </r>
       <r>   -25.6387     0.0000   156.0000 </r>
       <r>   -25.3991     0.0000   156.0000 </r>
       <r>   -25.1595     0.0000   156.0000 </r>
       <r>   -24.9199     0.0000   156.0000 </r>
       <r>   -24.6803     0.0000   156.0000 </r>
       <r>   -24.4407     0.0000   156.0000 </r>
       <r>   -24.2011     0.0000   156.0000 </r>
       <r>   -23.9614     0.0000   156.0000 </r>
       <r>   -23.7218     0.0000   156.0000 </r>
       <r>   -23.4822     0.0000   156.0000 </r>
       <r>   -23.2426     0.0000   156.0000 </r>
       <r>   -23.0030     0.0000   156.0000 </r>
       <r>   -22.7634     0.0000   156.0000 </r>
       <r>   -22.5237     0.0000   156.0000 </r>
       <r>   -22.2841     0.0000   156.0000 </r>
       <r>   -22.0445     0.0000   156.0000 </r>
       <r>   -21.8049     0.0000   156.0000 </r>
       <r>   -21.5653     0.0000   156.0000 </r>
       <r>   -21.3257     0.0000   156.0000 </r>
       <r>   -21.0861     0.0000   156.0000 </r>
       <r>   -20.8464     0.0000   156.0000 </r>
       <r>   -20.6068     0.0000   156.0000 </r>
       <r>   -20.3672     0.0000   156.0000 </r>
       <r>   -20.1276     0.0000   156.0000 </r>
       <r>   -19.8880     0.0000   156.0000 </r>
       <r>   -19.6484     0.0000   156.0000 </r>
       <r>   -19.4088     0.0000   156.0000 </r>
       <r>   -19.1691     0.0000   156.0000 </r>
       <r>   -18.9295     0.0000   156.0000 </r>
       <r>   -18.6899     0.0000   156.0000 </r>
       <r>   -18.4503     0.0000   156.0000 </r>
       <r>   -18.2107     0.0000   156.0000 </r>
       <r>   -17.9711     0.0000   156.0000 </r>
       <r>   -17.7315     0.0000   156.0000 </r>
       <r>   -17.4918     0.0000   156.0000 </r>
       <r>   -17.2522     0.0000   156.0000 </r>
       <r>   -17.0126     0.0000   156.0000 </r>
       <r>   -16.7730     0.0000   156.0000 </r>
       <r>   -16.5334     0.0000   156.0000 </r>
       <r>   -16.2938     0.0000   156.0000 </r>
       <r>   -16.0542     0.0000   156.0000 </r>
       <r>   -15.8145     0.0000   156.0000 </r>
       <r>   -15.5749     0.0000   156.0000 </r>
       <r>   -15.3353     0.0000   156.0000 </r>
       <r>   -15.0957     0.0000   156.0000 </r>
       <r>   -14.8561     0.0000   156.0000 </r>
       <r>   -14.6165     0.0000   156.0000 </r>
       <r>   -14.3769     0.0000   156.0000 </r>
       <r>   -14.1372     0.0000   156.0000 </r>
       <r>   -13.8976     0.0000   156.0000 </r>
       <r>   -13.6580     0.0000   156.0000 </r>
       <r>   -13.4184     1.9061   156.4567 </r>
       <r>   -13.1788    44.5244   167.1254 </r>
       <r>   -12.9392     4.4690   168.1963 </r>
       <r>   -12.6996    42.4328   178.3638 </r>
       <r>   -12.4599     6.8285   180.0000 </r>
       <r>   -12.2203     0.0000   180.0000 </r>
       <r>   -11.9807     0.0000   180.0000 </r>
       <r>   -11.7411     0.0000   180.0000 </r>
       <r>   -11.5015     0.0000   180.0000 </r>
       <r>   -11.2619     0.0000   180.0000 </r>
       <r>   -11.0222     0.0000   180.0000 </r>
       <r>   -10.7826     0.0000   180.0000 </r>
       <r>   -10.5430     0.0000   180.0000 </r>
       <r>   -10.3034     0.0000   180.0000 </r>
       <r>   -10.0638     0.0000   180.0000 </r>
       <r>    -9.8242     0.0000   180.0000 </r>
       <r>    -9.5846     0.0000   180.0000 </r>
       <r>    -9.3449     0.0000   180.0000 </r>
       <r>    -9.1053     0.0000   180.0000 </r>
       <r>    -8.8657     0.0000   180.0000 </r>
       <r>    -8.6261     0.0000   180.0000 </r>
       <r>    -8.3865     0.0000   180.0000 </r>
       <r>    -8.1469     0.0000   180.0000 </r>
       <r>    -7.9073     0.0000   180.0000 </r>
       <r>    -7.6676     0.0202   180.0048 </r>
       <r>    -7.4280    12.1626   182.9192 </r>
       <r>    -7.1884    28.8934   189.8424 </r>
       <r>    -6.9488    60.1385   204.2525 </r>
       <r>    -6.7092    45.8743   215.2447 </r>
       <r>    -6.4696     3.1523   216.0000 </r>
       <r>    -6.2300     0.0000   216.0000 </r>
       <r>    -5.9903     0.0000   216.0000 </r>
       <r>    -5.7507     0.0000   216.0000 </r>
       <r>    -5.5111     0.0000   216.0000 </r>
       <r>    -5.2715     0.0000   216.0000 </r>
       <r>    -5.0319     0.0000   216.0000 </r>
       <r>    -4.7923     0.0000   216.0000 </r>
       <r>    -4.5527     0.0000   216.0000 </r>
       <r>    -4.3130     0.0000   216.0000 </r>
       <r>    -4.0734     0.0000   216.0000 </r>
       <r>    -3.8338     0.0000   216.0000 </r>
       <r>    -3.5942     0.0000   216.0000 </r>
       <r>    -3.3546     0.0000   216.0000 </r>
       <r>    -3.1150     0.0000   216.0000 </r>
       <r>    -2.8754     0.0000   216.0000 </r>
       <r>    -2.6357     0.0000   216.0000 </r>
       <r>    -2.3961     0.0000   216.0000 </r>
       <r>    -2.1565     0.0000   216.0000 </r>
       <r>    -1.9169     0.0000   216.0000 </r>
       <r>    -1.6773     0.0000   216.0000 </r>
       <r>    -1.4377     0.0000   216.0000 </r>
       <r>    -1.1981     0.0980   216.0235 </r>
       <r>    -0.9584     4.4331   217.0857 </r>
       <r>    -0.7188    14.2013   220.4886 </r>
       <r>    -0.4792    15.3874   224.1756 </r>
       <r>    -0.2396    19.7896   228.9175 </r>
       <r>     0.0000    41.1876   238.7866 </r>
       <r>     0.2396    33.9404   246.9192 </r>
       <r>     0.4793    42.2794   257.0500 </r>
       <r>     0.7189    33.6344   265.1093 </r>
       <r>     0.9585    53.3539   277.8937 </r>
       <r>     1.1981    60.1529   292.3072 </r>
       <r>     1.4377    44.4488   302.9578 </r>
       <r>     1.6773    39.8815   312.5140 </r>
       <r>     1.9169    38.5458   321.7501 </r>
       <r>     2.1566    37.3269   330.6941 </r>
       <r>     2.3962    38.3477   339.8828 </r>
       <r>     2.6358    49.7656   351.8074 </r>
       <r>     2.8754    62.6907   366.8290 </r>
       <r>     3.1150    58.7527   380.9070 </r>
       <r>     3.3546    47.6392   392.3220 </r>
       <r>     3.5942    30.2314   399.5659 </r>
       <r>     3.8339    61.8797   414.3932 </r>
       <r>     4.0735    72.2087   431.6955 </r>
       <r>     4.3131     1.2709   432.0000 </r>
       <r>     4.5527     0.0000   432.0000 </r>
       <r>     4.7923     0.0000   432.0000 </r>
       <r>     5.0319     0.0000   432.0000 </r>
       <r>     5.2715     0.0000   432.0000 </r>
       <r>     5.5112     0.0000   432.0000 </r>
       <r>     5.7508     0.0000   432.0000 </r>
       <r>     5.9904     0.0000   432.0000 </r>
       <r>     6.2300     0.1547   432.0371 </r>
       <r>     6.4696     8.2904   434.0236 </r>
       <r>     6.7092    30.4683   441.3242 </r>
       <r>     6.9488    43.7377   451.8044 </r>
       <r>     7.1885    73.6119   469.4429 </r>
       <r>     7.4281    80.6433   488.7662 </r>
       <r>     7.6677    65.4163   504.4409 </r>
       <r>     7.9073    87.8953   525.5019 </r>
       <r>     8.1469    71.0565   542.5281 </r>
       <r>     8.3865    54.1934   555.5136 </r>
       <r>     8.6261    37.2637   564.4425 </r>
       <r>     8.8658    38.8937   573.7620 </r>
       <r>     9.1054    19.1811   578.3581 </r>
       <r>     9.3450    14.0640   581.7281 </r>
       <r>     9.5846    20.5855   586.6606 </r>
       <r>     9.8242    30.0917   593.8710 </r>
       <r>    10.0638    26.5606   600.2353 </r>
       <r>    10.3034    34.9902   608.6195 </r>
       <r>    10.5431    35.1744   617.0478 </r>
       <r>    10.7827    28.0142   623.7604 </r>
       <r>    11.0223    22.2628   629.0949 </r>
       <r>    11.2619    21.7857   634.3151 </r>
       <r>    11.5015    32.3424   642.0648 </r>
       <r>    11.7411    38.6936   651.3363 </r>
       <r>    11.9808    42.7077   661.5697 </r>
       <r>    12.2204    52.1007   674.0538 </r>
       <r>    12.4600    46.6175   685.2241 </r>
       <r>    12.6996    35.9340   693.8344 </r>
       <r>    12.9392    41.3341   703.7386 </r>
       <r>    13.1788    39.5330   713.2113 </r>
       <r>    13.4184    34.2761   721.4244 </r>
       <r>    13.6581    23.5477   727.0668 </r>
       <r>    13.8977     3.8948   728.0000 </r>
       <r>    14.1373     0.0000   728.0000 </r>
       <r>    14.3769     0.0000   728.0000 </r>
       <r>    14.6165     0.0000   728.0000 </r>
       <r>    14.8561     0.0000   728.0000 </r>
       <r>    15.0957     0.0000   728.0000 </r>
       <r>    15.3354     0.0000   728.0000 </r>
       <r>    15.5750     0.0000   728.0000 </r>
       <r>    15.8146     0.0000   728.0000 </r>
       <r>    16.0542     0.0000   728.0000 </r>
       <r>    16.2938     0.0000   728.0000 </r>
       <r>    16.5334     0.0000   728.0000 </r>
       <r>    16.7730     0.0000   728.0000 </r>
       <r>    17.0127     0.0000   728.0000 </r>
      </set>
     </set>
    </array>
   </total>
  </dos>
 </calculation>
 <structure name="finalpos" >
  <crystal>
   <varray name="basis" >
    <v>      15.21162830       0.00516956      -2.78361592 </v>
    <v>      -0.40798665      11.93565774      -2.20735884 </v>
    <v>      -0.06175567      -0.11168197      10.54442638 </v>
   </varray>
   <i name="volume">   1908.54869108 </i>
   <varray name="rec_basis" >
    <v>       0.06581343       0.00232549       0.00041008 </v>
    <v>       0.00013433       0.08395174       0.00088997 </v>
    <v>       0.01740216       0.01818827       0.09513139 </v>
   </varray>
  </crystal>
  <varray name="positions" >
   <v>       0.47527516       0.00074367       0.00446200 </v>
   <v>       0.97527516       0.00074367       0.00446200 </v>
   <v>       0.47527516       0.33407700       0.00446200 </v>
   <v>       0.97527516       0.33407700       0.00446200 </v>
   <v>       0.47527516       0.66741034       0.00446200 </v>
   <v>       0.97527516       0.66741034       0.00446200 </v>
   <v>       0.27472484       0.33258966       0.99553800 </v>
   <v>       0.77472484       0.33258966       0.99553800 </v>
   <v>       0.27472484       0.66592300       0.99553800 </v>
   <v>       0.77472484       0.66592300       0.99553800 </v>
   <v>       0.27472484       0.99925633       0.99553800 </v>
   <v>       0.77472484       0.99925633       0.99553800 </v>
   <v>       0.17788805       0.26797179       0.60783074 </v>
   <v>       0.67788805       0.26797179       0.60783074 </v>
   <v>       0.17788805       0.60130513       0.60783074 </v>
   <v>       0.67788805       0.60130513       0.60783074 </v>
   <v>       0.17788805       0.93463846       0.60783074 </v>
   <v>       0.67788805       0.93463846       0.60783074 </v>
   <v>       0.07211195       0.06536154       0.39216926 </v>
   <v>       0.57211195       0.06536154       0.39216926 </v>
   <v>       0.07211195       0.39869487       0.39216926 </v>
   <v>       0.57211195       0.39869487       0.39216926 </v>
   <v>       0.07211195       0.73202821       0.39216926 </v>
   <v>       0.57211195       0.73202821       0.39216926 </v>
   <v>       0.10733875       0.30765571       0.84593428 </v>
   <v>       0.60733875       0.30765571       0.84593428 </v>
   <v>       0.10733875       0.64098905       0.84593428 </v>
   <v>       0.60733875       0.64098905       0.84593428 </v>
   <v>       0.10733875       0.97432238       0.84593428 </v>
   <v>       0.60733875       0.97432238       0.84593428 </v>
   <v>       0.34464416       0.29539312       0.77235872 </v>
   <v>       0.84464416       0.29539312       0.77235872 </v>
   <v>       0.34464416       0.62872645       0.77235872 </v>
   <v>       0.84464416       0.62872645       0.77235872 </v>
   <v>       0.34464416       0.96205979       0.77235872 </v>
   <v>       0.84464416       0.96205979       0.77235872 </v>
   <v>       0.14266125       0.02567762       0.15406572 </v>
   <v>       0.64266125       0.02567762       0.15406572 </v>
   <v>       0.14266125       0.35901095       0.15406572 </v>
   <v>       0.64266125       0.35901095       0.15406572 </v>
   <v>       0.14266125       0.69234429       0.15406572 </v>
   <v>       0.64266125       0.69234429       0.15406572 </v>
   <v>       0.40535584       0.03794021       0.22764128 </v>
   <v>       0.90535584       0.03794021       0.22764128 </v>
   <v>       0.40535584       0.37127355       0.22764128 </v>
   <v>       0.90535584       0.37127355       0.22764128 </v>
   <v>       0.40535584       0.70460688       0.22764128 </v>
   <v>       0.90535584       0.70460688       0.22764128 </v>
   <v>       0.46517249       0.26691416       0.60148498 </v>
   <v>       0.96517249       0.26691416       0.60148498 </v>
   <v>       0.46517249       0.60024750       0.60148498 </v>
   <v>       0.96517249       0.60024750       0.60148498 </v>
   <v>       0.46517249       0.93358083       0.60148498 </v>
   <v>       0.96517249       0.93358083       0.60148498 </v>
   <v>       0.28482751       0.06641917       0.39851502 </v>
   <v>       0.78482751       0.06641917       0.39851502 </v>
   <v>       0.28482751       0.39975250       0.39851502 </v>
   <v>       0.78482751       0.39975250       0.39851502 </v>
   <v>       0.28482751       0.73308584       0.39851502 </v>
   <v>       0.78482751       0.73308584       0.39851502 </v>
   <v>       0.22447416       0.13353711       0.80122268 </v>
   <v>       0.72447416       0.13353711       0.80122268 </v>
   <v>       0.22447416       0.46687045       0.80122268 </v>
   <v>       0.72447416       0.46687045       0.80122268 </v>
   <v>       0.22447416       0.80020378       0.80122268 </v>
   <v>       0.72447416       0.80020378       0.80122268 </v>
   <v>       0.47796479       0.13582521       0.81495126 </v>
   <v>       0.97796479       0.13582521       0.81495126 </v>
   <v>       0.47796479       0.46915854       0.81495126 </v>
   <v>       0.97796479       0.46915854       0.81495126 </v>
   <v>       0.47796479       0.80249188       0.81495126 </v>
   <v>       0.97796479       0.80249188       0.81495126 </v>
   <v>       0.02552584       0.19979622       0.19877732 </v>
   <v>       0.52552584       0.19979622       0.19877732 </v>
   <v>       0.02552584       0.53312955       0.19877732 </v>
   <v>       0.52552584       0.53312955       0.19877732 </v>
   <v>       0.02552584       0.86646289       0.19877732 </v>
   <v>       0.52552584       0.86646289       0.19877732 </v>
   <v>       0.27203521       0.19750812       0.18504874 </v>
   <v>       0.77203521       0.19750812       0.18504874 </v>
   <v>       0.27203521       0.53084146       0.18504874 </v>
   <v>       0.77203521       0.53084146       0.18504874 </v>
   <v>       0.27203521       0.86417479       0.18504874 </v>
   <v>       0.77203521       0.86417479       0.18504874 </v>
   <v>       0.12500000       0.16666667       0.00000000 </v>
   <v>       0.62500000       0.16666667       0.00000000 </v>
   <v>       0.12500000       0.50000000       0.00000000 </v>
   <v>       0.62500000       0.50000000       0.00000000 </v>
   <v>       0.12500000       0.83333333       0.00000000 </v>
   <v>       0.62500000       0.83333333       0.00000000 </v>
   <v>       0.37500000       0.16666667       0.00000000 </v>
   <v>       0.87500000       0.16666667       0.00000000 </v>
   <v>       0.37500000       0.50000000       0.00000000 </v>
   <v>       0.87500000       0.50000000       0.00000000 </v>
   <v>       0.37500000       0.83333333       0.00000000 </v>
   <v>       0.87500000       0.83333333       0.00000000 </v>
   <v>       0.17679403       0.22809805       0.36858830 </v>
   <v>       0.67614737       0.22809805       0.36858830 </v>
   <v>       0.17614737       0.56143138       0.36858830 </v>
   <v>       0.67614737       0.56143138       0.36858830 </v>
   <v>       0.17614737       0.89476472       0.36858830 </v>
   <v>       0.67614737       0.89476472       0.36858830 </v>
   <v>       0.41542106       0.22793643       0.36761855 </v>
   <v>       0.91542106       0.22793643       0.36761855 </v>
   <v>       0.41542106       0.56126976       0.36761855 </v>
   <v>       0.91542106       0.56126976       0.36761855 </v>
   <v>       0.41542106       0.89460309       0.36761855 </v>
   <v>       0.91542106       0.89460309       0.36761855 </v>
   <v>       0.07385263       0.10523528       0.63141170 </v>
   <v>       0.57385263       0.10523528       0.63141170 </v>
   <v>       0.07385263       0.43856862       0.63141170 </v>
   <v>       0.57385263       0.43856862       0.63141170 </v>
   <v>       0.07385263       0.77190195       0.63141170 </v>
   <v>       0.57385263       0.77190195       0.63141170 </v>
   <v>       0.33457894       0.10539691       0.63238145 </v>
   <v>       0.83457894       0.10539691       0.63238145 </v>
   <v>       0.33457894       0.43873024       0.63238145 </v>
   <v>       0.83457894       0.43873024       0.63238145 </v>
   <v>       0.33457894       0.77206357       0.63238145 </v>
   <v>       0.83457894       0.77206357       0.63238145 </v>
   <v>       0.22527003       0.30093342       0.80560053 </v>
   <v>       0.72527003       0.30093342       0.80560053 </v>
   <v>       0.22527003       0.63426676       0.80560053 </v>
   <v>       0.72527003       0.63426676       0.80560053 </v>
   <v>       0.22527003       0.96760009       0.80560053 </v>
   <v>       0.72527003       0.96760009       0.80560053 </v>
   <v>       0.47618324       0.30143353       0.80860116 </v>
   <v>       0.97618324       0.30143353       0.80860116 </v>
   <v>       0.47618324       0.63476686       0.80860116 </v>
   <v>       0.97618324       0.63476686       0.80860116 </v>
   <v>       0.47618324       0.96810019       0.80860116 </v>
   <v>       0.97618324       0.96810019       0.80860116 </v>
   <v>       0.02472997       0.03239991       0.19439947 </v>
   <v>       0.52472997       0.03239991       0.19439947 </v>
   <v>       0.02472997       0.36573324       0.19439947 </v>
   <v>       0.52472997       0.36573324       0.19439947 </v>
   <v>       0.02472997       0.69906658       0.19439947 </v>
   <v>       0.52472997       0.69906658       0.19439947 </v>
   <v>       0.27381676       0.03189981       0.19139884 </v>
   <v>       0.77381676       0.03189981       0.19139884 </v>
   <v>       0.27381676       0.36523314       0.19139884 </v>
   <v>       0.77381676       0.36523314       0.19139884 </v>
   <v>       0.27381676       0.69856647       0.19139884 </v>
   <v>       0.77381676       0.69856647       0.19139884 </v>
  </varray>
 </structure>
</modeling>
