 126 126   0   0
  0.1357194E+02  0.1157659E-08  0.1157660E-08  0.1387803E-08  0.5000000E-15
  1.000000000000000E-004
  CAR 
 unknown system                          
     17.62733213    -54.41775112  301      5.40968677      1.00000000
    -54.418  0.0000E+00  0.0000E+00  0.0000E+00  0.0000E+00
    -54.178  0.0000E+00  0.0000E+00  0.0000E+00  0.0000E+00
    -53.937  0.0000E+00  0.0000E+00  0.0000E+00  0.0000E+00
    -53.697  0.0000E+00  0.0000E+00  0.0000E+00  0.0000E+00
    -53.457  0.0000E+00  0.0000E+00  0.0000E+00  0.0000E+00
    -53.217  0.0000E+00  0.0000E+00  0.0000E+00  0.0000E+00
    -52.977  0.0000E+00  0.0000E+00  0.0000E+00  0.0000E+00
    -52.737  0.0000E+00  0.0000E+00  0.0000E+00  0.0000E+00
    -52.497  0.0000E+00  0.0000E+00  0.0000E+00  0.0000E+00
    -52.256  0.0000E+00  0.0000E+00  0.0000E+00  0.0000E+00
    -52.016  0.0000E+00  0.0000E+00  0.0000E+00  0.0000E+00
    -51.776  0.0000E+00  0.0000E+00  0.0000E+00  0.0000E+00
    -51.536  0.0000E+00  0.0000E+00  0.0000E+00  0.0000E+00
    -51.296  0.7460E-03  0.0000E+00  0.1792E-03  0.0000E+00
    -51.056  0.1486E+03  0.0000E+00  0.3568E+02  0.0000E+00
    -50.815  0.1341E+01  0.0000E+00  0.3600E+02  0.0000E+00
    -50.575  0.0000E+00  0.0000E+00  0.3600E+02  0.0000E+00
    -50.335  0.0000E+00  0.0000E+00  0.3600E+02  0.0000E+00
    -50.095  0.0000E+00  0.0000E+00  0.3600E+02  0.0000E+00
    -49.855  0.1833E-05  0.0000E+00  0.3600E+02  0.0000E+00
    -49.615  0.2583E+03  0.0000E+00  0.9804E+02  0.0000E+00
    -49.375  0.4146E+02  0.0000E+00  0.1080E+03  0.0000E+00
    -49.134  0.0000E+00  0.0000E+00  0.1080E+03  0.0000E+00
    -48.894  0.0000E+00  0.0000E+00  0.1080E+03  0.0000E+00
    -48.654  0.0000E+00  0.0000E+00  0.1080E+03  0.0000E+00
    -48.414  0.0000E+00  0.0000E+00  0.1080E+03  0.0000E+00
    -48.174  0.0000E+00  0.0000E+00  0.1080E+03  0.0000E+00
    -47.934  0.0000E+00  0.0000E+00  0.1080E+03  0.0000E+00
    -47.694  0.0000E+00  0.0000E+00  0.1080E+03  0.0000E+00
    -47.453  0.0000E+00  0.0000E+00  0.1080E+03  0.0000E+00
    -47.213  0.0000E+00  0.0000E+00  0.1080E+03  0.0000E+00
    -46.973  0.0000E+00  0.0000E+00  0.1080E+03  0.0000E+00
    -46.733  0.0000E+00  0.0000E+00  0.1080E+03  0.0000E+00
    -46.493  0.0000E+00  0.3518E+00  0.1080E+03  0.8449E-01
    -46.253  0.0000E+00  0.1495E+03  0.1080E+03  0.3600E+02
    -46.012  0.0000E+00  0.4760E+01  0.1080E+03  0.3714E+02
    -45.772  0.0000E+00  0.2951E+03  0.1080E+03  0.1080E+03
    -45.532  0.0000E+00  0.3082E-04  0.1080E+03  0.1080E+03
    -45.292  0.0000E+00  0.0000E+00  0.1080E+03  0.1080E+03
    -45.052  0.0000E+00  0.0000E+00  0.1080E+03  0.1080E+03
    -44.812  0.0000E+00  0.0000E+00  0.1080E+03  0.1080E+03
    -44.572  0.0000E+00  0.0000E+00  0.1080E+03  0.1080E+03
    -44.331  0.0000E+00  0.0000E+00  0.1080E+03  0.1080E+03
    -44.091  0.0000E+00  0.0000E+00  0.1080E+03  0.1080E+03
    -43.851  0.0000E+00  0.0000E+00  0.1080E+03  0.1080E+03
    -43.611  0.0000E+00  0.0000E+00  0.1080E+03  0.1080E+03
    -43.371  0.0000E+00  0.0000E+00  0.1080E+03  0.1080E+03
    -43.131  0.0000E+00  0.0000E+00  0.1080E+03  0.1080E+03
    -42.891  0.0000E+00  0.0000E+00  0.1080E+03  0.1080E+03
    -42.650  0.0000E+00  0.0000E+00  0.1080E+03  0.1080E+03
    -42.410  0.0000E+00  0.0000E+00  0.1080E+03  0.1080E+03
    -42.170  0.0000E+00  0.0000E+00  0.1080E+03  0.1080E+03
    -41.930  0.0000E+00  0.0000E+00  0.1080E+03  0.1080E+03
    -41.690  0.0000E+00  0.0000E+00  0.1080E+03  0.1080E+03
    -41.450  0.0000E+00  0.0000E+00  0.1080E+03  0.1080E+03
    -41.209  0.0000E+00  0.0000E+00  0.1080E+03  0.1080E+03
    -40.969  0.0000E+00  0.0000E+00  0.1080E+03  0.1080E+03
    -40.729  0.0000E+00  0.0000E+00  0.1080E+03  0.1080E+03
    -40.489  0.0000E+00  0.0000E+00  0.1080E+03  0.1080E+03
    -40.249  0.0000E+00  0.0000E+00  0.1080E+03  0.1080E+03
    -40.009  0.0000E+00  0.0000E+00  0.1080E+03  0.1080E+03
    -39.769  0.1986E-02  0.1835E-02  0.1080E+03  0.1080E+03
    -39.528  0.1477E+03  0.1477E+03  0.1435E+03  0.1435E+03
    -39.288  0.2156E+01  0.2235E+01  0.1440E+03  0.1440E+03
    -39.048  0.0000E+00  0.0000E+00  0.1440E+03  0.1440E+03
    -38.808  0.0000E+00  0.0000E+00  0.1440E+03  0.1440E+03
    -38.568  0.0000E+00  0.0000E+00  0.1440E+03  0.1440E+03
    -38.328  0.0000E+00  0.0000E+00  0.1440E+03  0.1440E+03
    -38.088  0.0000E+00  0.0000E+00  0.1440E+03  0.1440E+03
    -37.847  0.0000E+00  0.0000E+00  0.1440E+03  0.1440E+03
    -37.607  0.0000E+00  0.0000E+00  0.1440E+03  0.1440E+03
    -37.367  0.0000E+00  0.0000E+00  0.1440E+03  0.1440E+03
    -37.127  0.0000E+00  0.0000E+00  0.1440E+03  0.1440E+03
    -36.887  0.0000E+00  0.0000E+00  0.1440E+03  0.1440E+03
    -36.647  0.0000E+00  0.0000E+00  0.1440E+03  0.1440E+03
    -36.406  0.0000E+00  0.0000E+00  0.1440E+03  0.1440E+03
    -36.166  0.0000E+00  0.0000E+00  0.1440E+03  0.1440E+03
    -35.926  0.0000E+00  0.0000E+00  0.1440E+03  0.1440E+03
    -35.686  0.0000E+00  0.0000E+00  0.1440E+03  0.1440E+03
    -35.446  0.0000E+00  0.0000E+00  0.1440E+03  0.1440E+03
    -35.206  0.0000E+00  0.0000E+00  0.1440E+03  0.1440E+03
    -34.966  0.0000E+00  0.0000E+00  0.1440E+03  0.1440E+03
    -34.725  0.0000E+00  0.0000E+00  0.1440E+03  0.1440E+03
    -34.485  0.0000E+00  0.0000E+00  0.1440E+03  0.1440E+03
    -34.245  0.0000E+00  0.0000E+00  0.1440E+03  0.1440E+03
    -34.005  0.0000E+00  0.0000E+00  0.1440E+03  0.1440E+03
    -33.765  0.0000E+00  0.0000E+00  0.1440E+03  0.1440E+03
    -33.525  0.0000E+00  0.0000E+00  0.1440E+03  0.1440E+03
    -33.285  0.0000E+00  0.0000E+00  0.1440E+03  0.1440E+03
    -33.044  0.0000E+00  0.0000E+00  0.1440E+03  0.1440E+03
    -32.804  0.0000E+00  0.0000E+00  0.1440E+03  0.1440E+03
    -32.564  0.0000E+00  0.0000E+00  0.1440E+03  0.1440E+03
    -32.324  0.0000E+00  0.0000E+00  0.1440E+03  0.1440E+03
    -32.084  0.0000E+00  0.0000E+00  0.1440E+03  0.1440E+03
    -31.844  0.0000E+00  0.0000E+00  0.1440E+03  0.1440E+03
    -31.603  0.0000E+00  0.0000E+00  0.1440E+03  0.1440E+03
    -31.363  0.0000E+00  0.0000E+00  0.1440E+03  0.1440E+03
    -31.123  0.0000E+00  0.0000E+00  0.1440E+03  0.1440E+03
    -30.883  0.0000E+00  0.0000E+00  0.1440E+03  0.1440E+03
    -30.643  0.0000E+00  0.0000E+00  0.1440E+03  0.1440E+03
    -30.403  0.0000E+00  0.0000E+00  0.1440E+03  0.1440E+03
    -30.163  0.0000E+00  0.0000E+00  0.1440E+03  0.1440E+03
    -29.922  0.0000E+00  0.0000E+00  0.1440E+03  0.1440E+03
    -29.682  0.0000E+00  0.0000E+00  0.1440E+03  0.1440E+03
    -29.442  0.0000E+00  0.0000E+00  0.1440E+03  0.1440E+03
    -29.202  0.0000E+00  0.0000E+00  0.1440E+03  0.1440E+03
    -28.962  0.0000E+00  0.0000E+00  0.1440E+03  0.1440E+03
    -28.722  0.0000E+00  0.0000E+00  0.1440E+03  0.1440E+03
    -28.482  0.0000E+00  0.0000E+00  0.1440E+03  0.1440E+03
    -28.241  0.0000E+00  0.0000E+00  0.1440E+03  0.1440E+03
    -28.001  0.0000E+00  0.0000E+00  0.1440E+03  0.1440E+03
    -27.761  0.0000E+00  0.0000E+00  0.1440E+03  0.1440E+03
    -27.521  0.0000E+00  0.0000E+00  0.1440E+03  0.1440E+03
    -27.281  0.0000E+00  0.0000E+00  0.1440E+03  0.1440E+03
    -27.041  0.0000E+00  0.0000E+00  0.1440E+03  0.1440E+03
    -26.800  0.0000E+00  0.0000E+00  0.1440E+03  0.1440E+03
    -26.560  0.0000E+00  0.0000E+00  0.1440E+03  0.1440E+03
    -26.320  0.0000E+00  0.0000E+00  0.1440E+03  0.1440E+03
    -26.080  0.0000E+00  0.0000E+00  0.1440E+03  0.1440E+03
    -25.840  0.0000E+00  0.0000E+00  0.1440E+03  0.1440E+03
    -25.600  0.0000E+00  0.0000E+00  0.1440E+03  0.1440E+03
    -25.360  0.0000E+00  0.0000E+00  0.1440E+03  0.1440E+03
    -25.119  0.0000E+00  0.0000E+00  0.1440E+03  0.1440E+03
    -24.879  0.0000E+00  0.0000E+00  0.1440E+03  0.1440E+03
    -24.639  0.0000E+00  0.0000E+00  0.1440E+03  0.1440E+03
    -24.399  0.0000E+00  0.0000E+00  0.1440E+03  0.1440E+03
    -24.159  0.0000E+00  0.0000E+00  0.1440E+03  0.1440E+03
    -23.919  0.0000E+00  0.0000E+00  0.1440E+03  0.1440E+03
    -23.679  0.0000E+00  0.0000E+00  0.1440E+03  0.1440E+03
    -23.438  0.0000E+00  0.0000E+00  0.1440E+03  0.1440E+03
    -23.198  0.0000E+00  0.0000E+00  0.1440E+03  0.1440E+03
    -22.958  0.0000E+00  0.0000E+00  0.1440E+03  0.1440E+03
    -22.718  0.0000E+00  0.0000E+00  0.1440E+03  0.1440E+03
    -22.478  0.0000E+00  0.0000E+00  0.1440E+03  0.1440E+03
    -22.238  0.0000E+00  0.0000E+00  0.1440E+03  0.1440E+03
    -21.997  0.0000E+00  0.0000E+00  0.1440E+03  0.1440E+03
    -21.757  0.0000E+00  0.0000E+00  0.1440E+03  0.1440E+03
    -21.517  0.0000E+00  0.0000E+00  0.1440E+03  0.1440E+03
    -21.277  0.0000E+00  0.0000E+00  0.1440E+03  0.1440E+03
    -21.037  0.0000E+00  0.0000E+00  0.1440E+03  0.1440E+03
    -20.797  0.0000E+00  0.0000E+00  0.1440E+03  0.1440E+03
    -20.557  0.0000E+00  0.0000E+00  0.1440E+03  0.1440E+03
    -20.316  0.0000E+00  0.0000E+00  0.1440E+03  0.1440E+03
    -20.076  0.0000E+00  0.0000E+00  0.1440E+03  0.1440E+03
    -19.836  0.0000E+00  0.0000E+00  0.1440E+03  0.1440E+03
    -19.596  0.0000E+00  0.0000E+00  0.1440E+03  0.1440E+03
    -19.356  0.0000E+00  0.0000E+00  0.1440E+03  0.1440E+03
    -19.116  0.0000E+00  0.0000E+00  0.1440E+03  0.1440E+03
    -18.876  0.0000E+00  0.0000E+00  0.1440E+03  0.1440E+03
    -18.635  0.0000E+00  0.0000E+00  0.1440E+03  0.1440E+03
    -18.395  0.0000E+00  0.0000E+00  0.1440E+03  0.1440E+03
    -18.155  0.0000E+00  0.0000E+00  0.1440E+03  0.1440E+03
    -17.915  0.0000E+00  0.0000E+00  0.1440E+03  0.1440E+03
    -17.675  0.0000E+00  0.0000E+00  0.1440E+03  0.1440E+03
    -17.435  0.0000E+00  0.0000E+00  0.1440E+03  0.1440E+03
    -17.194  0.0000E+00  0.0000E+00  0.1440E+03  0.1440E+03
    -16.954  0.0000E+00  0.0000E+00  0.1440E+03  0.1440E+03
    -16.714  0.0000E+00  0.0000E+00  0.1440E+03  0.1440E+03
    -16.474  0.0000E+00  0.0000E+00  0.1440E+03  0.1440E+03
    -16.234  0.0000E+00  0.0000E+00  0.1440E+03  0.1440E+03
    -15.994  0.0000E+00  0.0000E+00  0.1440E+03  0.1440E+03
    -15.754  0.0000E+00  0.0000E+00  0.1440E+03  0.1440E+03
    -15.513  0.0000E+00  0.0000E+00  0.1440E+03  0.1440E+03
    -15.273  0.0000E+00  0.0000E+00  0.1440E+03  0.1440E+03
    -15.033  0.0000E+00  0.0000E+00  0.1440E+03  0.1440E+03
    -14.793  0.0000E+00  0.0000E+00  0.1440E+03  0.1440E+03
    -14.553  0.0000E+00  0.0000E+00  0.1440E+03  0.1440E+03
    -14.313  0.0000E+00  0.0000E+00  0.1440E+03  0.1440E+03
    -14.073  0.0000E+00  0.0000E+00  0.1440E+03  0.1440E+03
    -13.832  0.0000E+00  0.0000E+00  0.1440E+03  0.1440E+03
    -13.592  0.0000E+00  0.0000E+00  0.1440E+03  0.1440E+03
    -13.352  0.0000E+00  0.0000E+00  0.1440E+03  0.1440E+03
    -13.112  0.0000E+00  0.0000E+00  0.1440E+03  0.1440E+03
    -12.872  0.3366E-01  0.0000E+00  0.1440E+03  0.1440E+03
    -12.632  0.7307E+02  0.6649E-03  0.1616E+03  0.1440E+03
    -12.391  0.1851E+01  0.6456E+02  0.1620E+03  0.1595E+03
    -12.151  0.0000E+00  0.1039E+02  0.1620E+03  0.1620E+03
    -11.911  0.0000E+00  0.0000E+00  0.1620E+03  0.1620E+03
    -11.671  0.0000E+00  0.0000E+00  0.1620E+03  0.1620E+03
    -11.431  0.0000E+00  0.0000E+00  0.1620E+03  0.1620E+03
    -11.191  0.0000E+00  0.0000E+00  0.1620E+03  0.1620E+03
    -10.951  0.0000E+00  0.0000E+00  0.1620E+03  0.1620E+03
    -10.710  0.0000E+00  0.0000E+00  0.1620E+03  0.1620E+03
    -10.470  0.0000E+00  0.0000E+00  0.1620E+03  0.1620E+03
    -10.230  0.0000E+00  0.0000E+00  0.1620E+03  0.1620E+03
     -9.990  0.0000E+00  0.0000E+00  0.1620E+03  0.1620E+03
     -9.750  0.0000E+00  0.0000E+00  0.1620E+03  0.1620E+03
     -9.510  0.0000E+00  0.0000E+00  0.1620E+03  0.1620E+03
     -9.269  0.0000E+00  0.0000E+00  0.1620E+03  0.1620E+03
     -9.029  0.0000E+00  0.0000E+00  0.1620E+03  0.1620E+03
     -8.789  0.0000E+00  0.0000E+00  0.1620E+03  0.1620E+03
     -8.549  0.0000E+00  0.0000E+00  0.1620E+03  0.1620E+03
     -8.309  0.0000E+00  0.0000E+00  0.1620E+03  0.1620E+03
     -8.069  0.0000E+00  0.0000E+00  0.1620E+03  0.1620E+03
     -7.829  0.9539E-02  0.2761E-14  0.1620E+03  0.1620E+03
     -7.588  0.8000E+01  0.1007E+00  0.1639E+03  0.1620E+03
     -7.348  0.1453E+02  0.9874E+01  0.1674E+03  0.1644E+03
     -7.108  0.2484E+02  0.1734E+02  0.1734E+03  0.1686E+03
     -6.868  0.7447E+02  0.2417E+02  0.1913E+03  0.1744E+03
     -6.628  0.2806E+02  0.7066E+02  0.1980E+03  0.1913E+03
     -6.388  0.9579E-04  0.2775E+02  0.1980E+03  0.1980E+03
     -6.148  0.0000E+00  0.9032E-02  0.1980E+03  0.1980E+03
     -5.907  0.0000E+00  0.0000E+00  0.1980E+03  0.1980E+03
     -5.667  0.0000E+00  0.0000E+00  0.1980E+03  0.1980E+03
     -5.427  0.0000E+00  0.0000E+00  0.1980E+03  0.1980E+03
     -5.187  0.0000E+00  0.0000E+00  0.1980E+03  0.1980E+03
     -4.947  0.0000E+00  0.0000E+00  0.1980E+03  0.1980E+03
     -4.707  0.0000E+00  0.0000E+00  0.1980E+03  0.1980E+03
     -4.466  0.0000E+00  0.0000E+00  0.1980E+03  0.1980E+03
     -4.226  0.0000E+00  0.0000E+00  0.1980E+03  0.1980E+03
     -3.986  0.0000E+00  0.0000E+00  0.1980E+03  0.1980E+03
     -3.746  0.0000E+00  0.0000E+00  0.1980E+03  0.1980E+03
     -3.506  0.0000E+00  0.0000E+00  0.1980E+03  0.1980E+03
     -3.266  0.0000E+00  0.0000E+00  0.1980E+03  0.1980E+03
     -3.026  0.0000E+00  0.0000E+00  0.1980E+03  0.1980E+03
     -2.785  0.0000E+00  0.0000E+00  0.1980E+03  0.1980E+03
     -2.545  0.0000E+00  0.0000E+00  0.1980E+03  0.1980E+03
     -2.305  0.0000E+00  0.0000E+00  0.1980E+03  0.1980E+03
     -2.065  0.0000E+00  0.0000E+00  0.1980E+03  0.1980E+03
     -1.825  0.6678E-15  0.0000E+00  0.1980E+03  0.1980E+03
     -1.585  0.1632E+00  0.0000E+00  0.1980E+03  0.1980E+03
     -1.345  0.4698E+02  0.0000E+00  0.2093E+03  0.1980E+03
     -1.104  0.2780E+02  0.0000E+00  0.2160E+03  0.1980E+03
     -0.864  0.3268E+01  0.0000E+00  0.2168E+03  0.1980E+03
     -0.624  0.4094E+02  0.8746E-10  0.2266E+03  0.1980E+03
     -0.384  0.1110E+03  0.1399E+01  0.2533E+03  0.1983E+03
     -0.144  0.1150E+03  0.1267E+02  0.2809E+03  0.2014E+03
      0.096  0.1046E+03  0.2010E+02  0.3060E+03  0.2062E+03
      0.337  0.8735E+02  0.2755E+02  0.3270E+03  0.2128E+03
      0.577  0.7657E+02  0.3109E+02  0.3454E+03  0.2203E+03
      0.817  0.3462E+02  0.3730E+02  0.3537E+03  0.2292E+03
      1.057  0.3042E+02  0.3614E+02  0.3610E+03  0.2379E+03
      1.297  0.4995E+02  0.4683E+02  0.3730E+03  0.2492E+03
      1.537  0.3223E+02  0.3098E+02  0.3807E+03  0.2566E+03
      1.777  0.5701E+02  0.6186E+02  0.3944E+03  0.2715E+03
      2.018  0.1240E+03  0.4678E+02  0.4242E+03  0.2827E+03
      2.258  0.7769E+02  0.1854E+02  0.4428E+03  0.2872E+03
      2.498  0.5310E+02  0.3053E+02  0.4556E+03  0.2945E+03
      2.738  0.3979E+02  0.5973E+02  0.4652E+03  0.3088E+03
      2.978  0.2515E+02  0.4949E+02  0.4712E+03  0.3207E+03
      3.218  0.1595E+02  0.5687E+02  0.4750E+03  0.3344E+03
      3.458  0.2773E+02  0.7516E+02  0.4817E+03  0.3524E+03
      3.699  0.4031E+02  0.2595E+02  0.4914E+03  0.3587E+03
      3.939  0.4264E+02  0.1975E+02  0.5016E+03  0.3634E+03
      4.179  0.4508E+02  0.9460E+02  0.5124E+03  0.3861E+03
      4.419  0.4506E+02  0.3958E+02  0.5232E+03  0.3956E+03
      4.659  0.2493E+02  0.1588E+01  0.5292E+03  0.3960E+03
      4.899  0.2769E+02  0.0000E+00  0.5359E+03  0.3960E+03
      5.140  0.1712E+02  0.0000E+00  0.5400E+03  0.3960E+03
      5.380  0.3071E-01  0.0000E+00  0.5400E+03  0.3960E+03
      5.620  0.0000E+00  0.0000E+00  0.5400E+03  0.3960E+03
      5.860  0.0000E+00  0.0000E+00  0.5400E+03  0.3960E+03
      6.100  0.0000E+00  0.7135E-13  0.5400E+03  0.3960E+03
      6.340  0.0000E+00  0.1967E+00  0.5400E+03  0.3960E+03
      6.580  0.0000E+00  0.4521E+01  0.5400E+03  0.3971E+03
      6.821  0.0000E+00  0.1398E+02  0.5400E+03  0.4005E+03
      7.061  0.0000E+00  0.3018E+02  0.5400E+03  0.4077E+03
      7.301  0.9654E-05  0.5728E+02  0.5400E+03  0.4215E+03
      7.541  0.5559E+00  0.7996E+02  0.5401E+03  0.4407E+03
      7.781  0.2320E+01  0.6692E+02  0.5407E+03  0.4568E+03
      8.021  0.1729E+01  0.8403E+02  0.5411E+03  0.4769E+03
      8.261  0.7093E+01  0.9858E+02  0.5428E+03  0.5006E+03
      8.502  0.7669E+01  0.3827E+02  0.5447E+03  0.5098E+03
      8.742  0.4752E+01  0.4462E+02  0.5458E+03  0.5205E+03
      8.982  0.1145E+02  0.4008E+02  0.5485E+03  0.5302E+03
      9.222  0.2028E+02  0.3918E+02  0.5534E+03  0.5396E+03
      9.462  0.2092E+02  0.1497E+02  0.5584E+03  0.5432E+03
      9.702  0.3082E+02  0.1545E+02  0.5658E+03  0.5469E+03
      9.943  0.2746E+02  0.1313E+02  0.5724E+03  0.5500E+03
     10.183  0.1719E+02  0.2609E+02  0.5766E+03  0.5563E+03
     10.423  0.1461E+02  0.2189E+02  0.5801E+03  0.5615E+03
     10.663  0.1902E+02  0.2793E+02  0.5846E+03  0.5683E+03
     10.903  0.2379E+02  0.2473E+02  0.5903E+03  0.5742E+03
     11.143  0.2898E+02  0.2485E+02  0.5973E+03  0.5802E+03
     11.383  0.2899E+02  0.2058E+02  0.6043E+03  0.5851E+03
     11.624  0.3030E+02  0.2432E+02  0.6115E+03  0.5909E+03
     11.864  0.3020E+02  0.2691E+02  0.6188E+03  0.5974E+03
     12.104  0.4181E+02  0.2648E+02  0.6288E+03  0.6038E+03
     12.344  0.5007E+02  0.3625E+02  0.6409E+03  0.6125E+03
     12.584  0.2512E+02  0.3844E+02  0.6469E+03  0.6217E+03
     12.824  0.2758E+02  0.4643E+02  0.6535E+03  0.6328E+03
     13.064  0.3305E+02  0.3527E+02  0.6615E+03  0.6413E+03
     13.305  0.3671E+02  0.3036E+02  0.6703E+03  0.6486E+03
     13.545  0.2421E+02  0.4815E+02  0.6761E+03  0.6602E+03
     13.785  0.1249E+02  0.3842E+02  0.6791E+03  0.6694E+03
     14.025  0.3810E+01  0.2073E+02  0.6800E+03  0.6744E+03
     14.265  0.2132E-02  0.1809E+02  0.6800E+03  0.6787E+03
     14.505  0.0000E+00  0.5327E+01  0.6800E+03  0.6800E+03
     14.746  0.0000E+00  0.5646E-05  0.6800E+03  0.6800E+03
     14.986  0.0000E+00  0.0000E+00  0.6800E+03  0.6800E+03
     15.226  0.0000E+00  0.0000E+00  0.6800E+03  0.6800E+03
     15.466  0.0000E+00  0.0000E+00  0.6800E+03  0.6800E+03
     15.706  0.0000E+00  0.0000E+00  0.6800E+03  0.6800E+03
     15.946  0.0000E+00  0.0000E+00  0.6800E+03  0.6800E+03
     16.186  0.0000E+00  0.0000E+00  0.6800E+03  0.6800E+03
     16.427  0.0000E+00  0.0000E+00  0.6800E+03  0.6800E+03
     16.667  0.0000E+00  0.0000E+00  0.6800E+03  0.6800E+03
     16.907  0.0000E+00  0.0000E+00  0.6800E+03  0.6800E+03
     17.147  0.0000E+00  0.0000E+00  0.6800E+03  0.6800E+03
     17.387  0.0000E+00  0.0000E+00  0.6800E+03  0.6800E+03
     17.627  0.0000E+00  0.0000E+00  0.6800E+03  0.6800E+03
