<?xml version="1.0" encoding="ISO-8859-1"?>
<modeling>
 <generator>
  <i name="program" type="string">vasp </i>
  <i name="version" type="string">5.4.4.18Apr17-6-g9f103f2a35  </i>
  <i name="subversion" type="string">(build Oct 25 2017 14:42:18) complex            parallel </i>
  <i name="platform" type="string">LinuxIFC </i>
  <i name="date" type="string">2021 04 17 </i>
  <i name="time" type="string">04:44:40 </i>
 </generator>
 <incar>
  <i type="string" name="PREC">accurate</i>
  <i type="string" name="ALGO"> all</i>
  <i type="logical" name="ADDGRID"> T  </i>
  <i type="int" name="ISPIN">     2</i>
  <i type="int" name="ICHARG">     1</i>
  <i type="int" name="NELM">   200</i>
  <i type="int" name="NELMIN">     8</i>
  <i name="EDIFF">      0.00000100</i>
  <i type="int" name="ISIF">     3</i>
  <i type="int" name="ISYM">     0</i>
  <i name="ENCUT">    650.00000000</i>
  <v name="MAGMOM">      0.60000000      0.60000000      0.60000000      0.60000000      0.60000000      0.60000000      0.60000000      0.60000000      0.60000000      0.60000000      0.60000000      0.60000000      0.60000000      0.60000000      0.60000000      0.60000000      0.60000000      0.60000000      0.60000000      0.60000000
      0.60000000      0.60000000      0.60000000      0.60000000      0.60000000      0.60000000      0.60000000      0.60000000      0.60000000      0.60000000      0.60000000      0.60000000      0.60000000      0.60000000      0.60000000      0.60000000      0.60000000      0.60000000      0.60000000      0.60000000
      0.60000000      0.60000000      0.60000000      0.60000000      0.60000000      0.60000000      0.60000000      0.60000000      0.60000000      0.60000000      0.60000000      0.60000000      0.60000000      0.60000000      0.60000000      0.60000000      0.60000000      0.60000000      0.60000000      0.60000000
      0.60000000      0.60000000      0.60000000      0.60000000      0.60000000      0.60000000      0.60000000      0.60000000      0.60000000      0.60000000      0.60000000      0.60000000      0.60000000      0.60000000      0.60000000      0.60000000      0.60000000      0.60000000      0.60000000      0.60000000
      0.60000000      0.60000000      0.60000000      0.60000000      0.60000000      0.60000000      0.60000000      0.60000000      0.60000000      0.60000000      5.00000000      5.00000000      5.00000000      5.00000000      5.00000000      5.00000000      5.00000000      5.00000000      5.00000000      5.00000000
      5.00000000      5.00000000      5.00000000      5.00000000      5.00000000      5.00000000      5.00000000      5.00000000      5.00000000      5.00000000      5.00000000      5.00000000      5.00000000      5.00000000      5.00000000      5.00000000      5.00000000      5.00000000      5.00000000      5.00000000
      5.00000000      5.00000000      5.00000000      5.00000000      5.00000000      5.00000000</v>
  <i type="logical" name="LREAL"> F  </i>
  <i type="int" name="ISMEAR">     0</i>
  <i name="SIGMA">      0.05000000</i>
  <i type="int" name="NWRITE">     1</i>
  <i type="int" name="LMAXMIX">     4</i>
  <i type="logical" name="LWAVE"> F  </i>
  <i type="logical" name="LASPH"> T  </i>
  <v type="int" name="KPOINT_BSE">    -1     0     0     0</v>
  <i type="int" name="NELM">   200</i>
  <i type="string" name="GGA"> pe</i>
  <i type="logical" name="LDAU"> T  </i>
  <v type="int" name="LDAUTYPE">     2</v>
  <v type="int" name="LDAUL">    -1    -1    -1     2</v>
  <v name="LDAUU">      0.00000000      0.00000000      0.00000000      4.00000000</v>
  <v name="LDAUJ">      0.00000000      0.00000000      0.00000000      0.00000000</v>
  <i type="logical" name="LASPH"> T  </i>
 </incar>
 <structure name="primitive_cell" >
  <crystal>
   <varray name="basis" >
    <v>      11.57658324       0.00206628      -0.00954291 </v>
    <v>      -0.00198552      11.57659983      -0.00954294 </v>
    <v>      -3.84767942      -3.84903072      12.76635918 </v>
   </varray>
   <i name="volume">   1710.06494320 </i>
   <varray name="rec_basis" >
    <v>       0.08640274       0.00003629       0.02605204 </v>
    <v>       0.00000605       0.08640263       0.02605204 </v>
    <v>       0.00006459       0.00006461       0.07836982 </v>
   </varray>
  </crystal>
  <varray name="positions" >
   <v>       0.14940024       0.01727802       0.00000711 </v>
   <v>       0.31606288       0.01727079       0.00000000 </v>
   <v>      -0.01727046       0.01727079       0.00000000 </v>
   <v>       0.19934057       0.23388678       0.14983771 </v>
   <v>       0.19934057      -0.09944656       0.14983771 </v>
   <v>       0.09944656       0.13399276      -0.14983771 </v>
   <v>       0.09944656      -0.19934057      -0.14983771 </v>
   <v>       0.31605532       0.18393310      -0.00000711 </v>
   <v>      -0.01727802       0.18393310      -0.00000711 </v>
   <v>       0.31605532      -0.14940024      -0.00000711 </v>
   <v>      -0.01727802      -0.14940024      -0.00000711 </v>
   <v>       0.36936541       0.07057630       0.15990038 </v>
   <v>       0.26275703      -0.03603208      -0.15990038 </v>
   <v>      -0.07057630      -0.03603208      -0.15990038 </v>
   <v>       0.03603208       0.07057630       0.16062094 </v>
   <v>       0.48273357       0.01727802       0.00000711 </v>
   <v>      -0.18393310       0.01727802       0.00000711 </v>
   <v>       0.14940024       0.35061135       0.00000711 </v>
   <v>       0.14940024      -0.31605532       0.00000711 </v>
   <v>      -0.01727046       0.35060413       0.00000000 </v>
   <v>       0.31606288       0.35060413       0.00000000 </v>
   <v>       0.31606288      -0.31606254       0.00000000 </v>
   <v>      -0.01727046      -0.31606254       0.00000000 </v>
   <v>      -0.46732609      -0.09944656       0.14983771 </v>
   <v>      -0.46732609       0.23388678       0.14983771 </v>
   <v>      -0.13399276       0.23388678       0.14983771 </v>
   <v>       0.43277989       0.13399276      -0.14983771 </v>
   <v>       0.43277989      -0.19934057      -0.14983771 </v>
   <v>      -0.13399276      -0.09944656       0.14983771 </v>
   <v>      -0.23388678       0.13399276      -0.14983771 </v>
   <v>      -0.23388678      -0.19934057      -0.14983771 </v>
   <v>       0.26275703       0.29730125       0.34009962 </v>
   <v>       0.26275703      -0.03603208       0.34009962 </v>
   <v>       0.03603208      -0.26275703      -0.34009962 </v>
   <v>       0.03603208       0.07057630      -0.34009962 </v>
   <v>       0.26275703       0.29730125      -0.15990038 </v>
   <v>       0.36936541      -0.26275703       0.15990038 </v>
   <v>       0.03603208       0.40390964       0.15990038 </v>
   <v>       0.03603208      -0.26275703       0.15990038 </v>
   <v>       0.36936541       0.40390964       0.15990038 </v>
   <v>      -0.07057630       0.29730125      -0.15990038 </v>
   <v>       0.26275703      -0.36936541      -0.15990038 </v>
   <v>      -0.07057630      -0.36936541      -0.15990038 </v>
   <v>       0.43277989       0.13399276       0.35016229 </v>
   <v>       0.09944656       0.13399276       0.35016229 </v>
   <v>       0.19934057      -0.09944656      -0.35016229 </v>
   <v>      -0.13399276      -0.09944656      -0.35016229 </v>
   <v>      -0.18393310       0.35061135       0.00000711 </v>
   <v>       0.48273357      -0.31605532       0.00000711 </v>
   <v>       0.48273357       0.35061135       0.00000711 </v>
   <v>      -0.18393310      -0.31605532       0.00000711 </v>
   <v>      -0.35060379       0.01727079       0.00000000 </v>
   <v>       0.19934057      -0.43277989       0.14983771 </v>
   <v>       0.09944656       0.46732609      -0.14983771 </v>
   <v>      -0.35061135       0.18393310      -0.00000711 </v>
   <v>       0.31605532      -0.48273357      -0.00000711 </v>
   <v>      -0.35061135      -0.14940024      -0.00000711 </v>
   <v>      -0.01727802      -0.48273357      -0.00000711 </v>
   <v>      -0.40390964       0.29730125       0.34009962 </v>
   <v>      -0.40390964      -0.03603208       0.34009962 </v>
   <v>      -0.07057630       0.29730125       0.34009962 </v>
   <v>      -0.07057630      -0.03603208       0.34009962 </v>
   <v>      -0.29730125       0.07057630      -0.34009962 </v>
   <v>       0.36936541      -0.26275703      -0.34009962 </v>
   <v>      -0.29730125      -0.26275703      -0.34009962 </v>
   <v>       0.36936541       0.07057630      -0.34009962 </v>
   <v>      -0.40390964      -0.03603208      -0.15990038 </v>
   <v>      -0.29730125       0.07057630       0.15990038 </v>
   <v>       0.43277989       0.46732609       0.35016229 </v>
   <v>       0.09944656       0.46732609       0.35016229 </v>
   <v>       0.43277989      -0.19934057       0.35016229 </v>
   <v>       0.09944656      -0.19934057       0.35016229 </v>
   <v>       0.19934057       0.23388678      -0.35016229 </v>
   <v>       0.19934057      -0.43277989      -0.35016229 </v>
   <v>      -0.13399276       0.23388678      -0.35016229 </v>
   <v>      -0.13399276      -0.43277989      -0.35016229 </v>
   <v>       0.31605532       0.18393310       0.49999289 </v>
   <v>      -0.01727802      -0.14940024       0.49999289 </v>
   <v>       0.31606288       0.35060413      -0.50000000 </v>
   <v>       0.31606288       0.01727079      -0.50000000 </v>
   <v>      -0.01727046       0.01727079      -0.50000000 </v>
   <v>      -0.01727046      -0.31606254      -0.50000000 </v>
   <v>       0.48273357       0.01727802      -0.49999289 </v>
   <v>      -0.18393310       0.01727802      -0.49999289 </v>
   <v>       0.14940024       0.35061135      -0.49999289 </v>
   <v>       0.14940024      -0.31605532      -0.49999289 </v>
   <v>       0.14940024       0.01727802      -0.49999289 </v>
   <v>       0.48273357       0.35061135      -0.49999289 </v>
   <v>      -0.18393310      -0.31605532      -0.49999289 </v>
   <v>      -0.35060379       0.35060413       0.00000000 </v>
   <v>      -0.35060379      -0.31606254       0.00000000 </v>
   <v>      -0.46732609      -0.43277989       0.14983771 </v>
   <v>      -0.13399276      -0.43277989       0.14983771 </v>
   <v>       0.43277989       0.46732609      -0.14983771 </v>
   <v>      -0.23388678       0.46732609      -0.14983771 </v>
   <v>       0.26275703      -0.36936541       0.34009962 </v>
   <v>       0.03603208       0.40390964      -0.34009962 </v>
   <v>      -0.40390964       0.29730125      -0.15990038 </v>
   <v>      -0.29730125       0.40390964       0.15990038 </v>
   <v>      -0.29730125      -0.26275703       0.15990038 </v>
   <v>      -0.40390964      -0.36936541      -0.15990038 </v>
   <v>      -0.23388678       0.13399276       0.35016229 </v>
   <v>      -0.46732609      -0.09944656      -0.35016229 </v>
   <v>      -0.35061135       0.18393310       0.49999289 </v>
   <v>       0.31605532      -0.48273357       0.49999289 </v>
   <v>      -0.01727802       0.18393310       0.49999289 </v>
   <v>       0.31605532      -0.14940024       0.49999289 </v>
   <v>      -0.35061135      -0.14940024       0.49999289 </v>
   <v>      -0.01727802      -0.48273357       0.49999289 </v>
   <v>      -0.35060379       0.35060413      -0.50000000 </v>
   <v>      -0.01727046       0.35060413      -0.50000000 </v>
   <v>      -0.35060379       0.01727079      -0.50000000 </v>
   <v>       0.31606288      -0.31606254      -0.50000000 </v>
   <v>      -0.35060379      -0.31606254      -0.50000000 </v>
   <v>      -0.35061135      -0.48273357      -0.00000711 </v>
   <v>      -0.40390964      -0.36936541       0.34009962 </v>
   <v>      -0.07057630      -0.36936541       0.34009962 </v>
   <v>      -0.29730125       0.40390964      -0.34009962 </v>
   <v>       0.36936541       0.40390964      -0.34009962 </v>
   <v>      -0.23388678      -0.19934057       0.35016229 </v>
   <v>      -0.23388678       0.46732609       0.35016229 </v>
   <v>      -0.46732609      -0.43277989      -0.35016229 </v>
   <v>      -0.46732609       0.23388678      -0.35016229 </v>
   <v>      -0.35061135      -0.48273357       0.49999289 </v>
   <v>       0.48273357      -0.31605532      -0.49999289 </v>
   <v>      -0.18393310       0.35061135      -0.49999289 </v>
  </varray>
 </structure>
 <varray name="primitive_index" >
  <v type="int" >        1 </v>
  <v type="int" >       37 </v>
  <v type="int" >       39 </v>
  <v type="int" >       55 </v>
  <v type="int" >       61 </v>
  <v type="int" >       82 </v>
  <v type="int" >       88 </v>
  <v type="int" >       28 </v>
  <v type="int" >       30 </v>
  <v type="int" >       34 </v>
  <v type="int" >       36 </v>
  <v type="int" >       92 </v>
  <v type="int" >      124 </v>
  <v type="int" >      126 </v>
  <v type="int" >       91 </v>
  <v type="int" >        2 </v>
  <v type="int" >        3 </v>
  <v type="int" >        4 </v>
  <v type="int" >        7 </v>
  <v type="int" >       42 </v>
  <v type="int" >       40 </v>
  <v type="int" >       43 </v>
  <v type="int" >       45 </v>
  <v type="int" >       62 </v>
  <v type="int" >       56 </v>
  <v type="int" >       57 </v>
  <v type="int" >       83 </v>
  <v type="int" >       89 </v>
  <v type="int" >       63 </v>
  <v type="int" >       84 </v>
  <v type="int" >       90 </v>
  <v type="int" >      109 </v>
  <v type="int" >      115 </v>
  <v type="int" >      106 </v>
  <v type="int" >      100 </v>
  <v type="int" >      118 </v>
  <v type="int" >       98 </v>
  <v type="int" >       94 </v>
  <v type="int" >       97 </v>
  <v type="int" >       95 </v>
  <v type="int" >      120 </v>
  <v type="int" >      121 </v>
  <v type="int" >      123 </v>
  <v type="int" >       74 </v>
  <v type="int" >       73 </v>
  <v type="int" >       70 </v>
  <v type="int" >       72 </v>
  <v type="int" >        6 </v>
  <v type="int" >        8 </v>
  <v type="int" >        5 </v>
  <v type="int" >        9 </v>
  <v type="int" >       38 </v>
  <v type="int" >       58 </v>
  <v type="int" >       85 </v>
  <v type="int" >       29 </v>
  <v type="int" >       31 </v>
  <v type="int" >       35 </v>
  <v type="int" >       33 </v>
  <v type="int" >      110 </v>
  <v type="int" >      116 </v>
  <v type="int" >      111 </v>
  <v type="int" >      117 </v>
  <v type="int" >      102 </v>
  <v type="int" >      107 </v>
  <v type="int" >      108 </v>
  <v type="int" >      101 </v>
  <v type="int" >      125 </v>
  <v type="int" >       93 </v>
  <v type="int" >       77 </v>
  <v type="int" >       76 </v>
  <v type="int" >       80 </v>
  <v type="int" >       79 </v>
  <v type="int" >       64 </v>
  <v type="int" >       67 </v>
  <v type="int" >       66 </v>
  <v type="int" >       69 </v>
  <v type="int" >       19 </v>
  <v type="int" >       27 </v>
  <v type="int" >       49 </v>
  <v type="int" >       46 </v>
  <v type="int" >       48 </v>
  <v type="int" >       54 </v>
  <v type="int" >       11 </v>
  <v type="int" >       12 </v>
  <v type="int" >       13 </v>
  <v type="int" >       16 </v>
  <v type="int" >       10 </v>
  <v type="int" >       14 </v>
  <v type="int" >       18 </v>
  <v type="int" >       41 </v>
  <v type="int" >       44 </v>
  <v type="int" >       59 </v>
  <v type="int" >       60 </v>
  <v type="int" >       86 </v>
  <v type="int" >       87 </v>
  <v type="int" >      112 </v>
  <v type="int" >      103 </v>
  <v type="int" >      119 </v>
  <v type="int" >       96 </v>
  <v type="int" >       99 </v>
  <v type="int" >      122 </v>
  <v type="int" >       75 </v>
  <v type="int" >       71 </v>
  <v type="int" >       20 </v>
  <v type="int" >       22 </v>
  <v type="int" >       21 </v>
  <v type="int" >       25 </v>
  <v type="int" >       26 </v>
  <v type="int" >       24 </v>
  <v type="int" >       50 </v>
  <v type="int" >       51 </v>
  <v type="int" >       47 </v>
  <v type="int" >       52 </v>
  <v type="int" >       53 </v>
  <v type="int" >       32 </v>
  <v type="int" >      113 </v>
  <v type="int" >      114 </v>
  <v type="int" >      105 </v>
  <v type="int" >      104 </v>
  <v type="int" >       81 </v>
  <v type="int" >       78 </v>
  <v type="int" >       68 </v>
  <v type="int" >       65 </v>
  <v type="int" >       23 </v>
  <v type="int" >       17 </v>
  <v type="int" >       15 </v>
 </varray>
 <kpoints>
  <generation param="Gamma">
   <v type="int" name="divisions">       3        3        2 </v>
   <v name="usershift">      0.00000000       0.00000000       0.00000000 </v>
   <v name="genvec1">      0.33333333       0.00000000       0.00000000 </v>
   <v name="genvec2">     -0.00000000       0.33333333       0.00000000 </v>
   <v name="genvec3">      0.00000000      -0.00000000       0.50000000 </v>
   <v name="shift">      0.00000000       0.00000000       0.00000000 </v>
  </generation>
  <varray name="kpointlist" >
   <v>       0.00000000       0.00000000       0.00000000 </v>
   <v>       0.33333333       0.00000000      -0.00000000 </v>
   <v>      -0.00000000       0.33333333       0.00000000 </v>
   <v>       0.33333333       0.33333333      -0.00000000 </v>
   <v>      -0.33333333       0.33333333       0.00000000 </v>
   <v>       0.00000000      -0.00000000       0.50000000 </v>
   <v>       0.33333333      -0.00000000       0.50000000 </v>
   <v>       0.00000000       0.33333333       0.50000000 </v>
   <v>       0.33333333       0.33333333       0.50000000 </v>
   <v>      -0.33333333       0.33333333       0.50000000 </v>
  </varray>
  <varray name="weights" >
   <v>       0.05555556 </v>
   <v>       0.11111111 </v>
   <v>       0.11111111 </v>
   <v>       0.11111111 </v>
   <v>       0.11111111 </v>
   <v>       0.05555556 </v>
   <v>       0.11111111 </v>
   <v>       0.11111111 </v>
   <v>       0.11111111 </v>
   <v>       0.11111111 </v>
  </varray>
 </kpoints>
 <parameters>
  <separator name="general" >
   <i type="string" name="SYSTEM">unknown system</i>
   <i type="logical" name="LCOMPAT"> F  </i>
  </separator>
  <separator name="electronic" >
   <i type="string" name="PREC">accura</i>
   <i name="ENMAX">    650.00000000</i>
   <i name="ENAUG">    628.94500000</i>
   <i name="EDIFF">      0.00000100</i>
   <i type="int" name="IALGO">    58</i>
   <i type="int" name="IWAVPR">    10</i>
   <i type="int" name="NBANDS">   680</i>
   <i name="NELECT">    936.00000000</i>
   <i type="int" name="TURBO">     0</i>
   <i type="int" name="IRESTART">     0</i>
   <i type="int" name="NREBOOT">     0</i>
   <i type="int" name="NMIN">     0</i>
   <i name="EREF">      0.00000000</i>
   <separator name="electronic smearing" >
    <i type="int" name="ISMEAR">     0</i>
    <i name="SIGMA">      0.05000000</i>
    <i name="KSPACING">      0.50000000</i>
    <i type="logical" name="KGAMMA"> T  </i>
   </separator>
   <separator name="electronic projectors" >
    <i type="logical" name="LREAL"> F  </i>
    <v name="ROPT">      0.00000000      0.00000000      0.00000000      0.00000000</v>
    <i type="int" name="LMAXPAW">  -100</i>
    <i type="int" name="LMAXMIX">     4</i>
    <i type="logical" name="NLSPLINE"> F  </i>
   </separator>
   <separator name="electronic startup" >
    <i type="int" name="ISTART">     0</i>
    <i type="int" name="ICHARG">     1</i>
    <i type="int" name="INIWAV">     1</i>
   </separator>
   <separator name="electronic spin" >
    <i type="int" name="ISPIN">     2</i>
    <i type="logical" name="LNONCOLLINEAR"> F  </i>
    <v name="MAGMOM">      0.60000000      0.60000000      0.60000000      0.60000000      0.60000000      0.60000000      0.60000000      0.60000000      0.60000000      0.60000000      0.60000000      0.60000000      0.60000000      0.60000000      0.60000000      0.60000000      0.60000000      0.60000000      0.60000000      0.60000000
      0.60000000      0.60000000      0.60000000      0.60000000      0.60000000      0.60000000      0.60000000      0.60000000      0.60000000      0.60000000      0.60000000      0.60000000      0.60000000      0.60000000      0.60000000      0.60000000      0.60000000      0.60000000      0.60000000      0.60000000
      0.60000000      0.60000000      0.60000000      0.60000000      0.60000000      0.60000000      0.60000000      0.60000000      0.60000000      0.60000000      0.60000000      0.60000000      0.60000000      0.60000000      0.60000000      0.60000000      0.60000000      0.60000000      0.60000000      0.60000000
      0.60000000      0.60000000      0.60000000      0.60000000      0.60000000      0.60000000      0.60000000      0.60000000      0.60000000      0.60000000      0.60000000      0.60000000      0.60000000      0.60000000      0.60000000      0.60000000      0.60000000      0.60000000      0.60000000      0.60000000
      0.60000000      0.60000000      0.60000000      0.60000000      0.60000000      0.60000000      0.60000000      0.60000000      0.60000000      0.60000000      5.00000000      5.00000000      5.00000000      5.00000000      5.00000000      5.00000000      5.00000000      5.00000000      5.00000000      5.00000000
      5.00000000      5.00000000      5.00000000      5.00000000      5.00000000      5.00000000      5.00000000      5.00000000      5.00000000      5.00000000      5.00000000      5.00000000      5.00000000      5.00000000      5.00000000      5.00000000      5.00000000      5.00000000      5.00000000      5.00000000
      5.00000000      5.00000000      5.00000000      5.00000000      5.00000000      5.00000000</v>
    <i name="NUPDOWN">     -1.00000000</i>
    <i type="logical" name="LSORBIT"> F  </i>
    <v name="SAXIS">      0.00000000      0.00000000      1.00000000</v>
    <i type="logical" name="LSPIRAL"> F  </i>
    <v name="QSPIRAL">      0.00000000      0.00000000      0.00000000</v>
    <i type="logical" name="LZEROZ"> F  </i>
   </separator>
   <separator name="electronic exchange-correlation" >
    <i type="logical" name="LASPH"> T  </i>
    <i type="logical" name="LMETAGGA"> F  </i>
   </separator>
   <separator name="electronic convergence" >
    <i type="int" name="NELM">   200</i>
    <i type="int" name="NELMDL">     0</i>
    <i type="int" name="NELMIN">     8</i>
    <i name="ENINI">    650.00000000</i>
    <separator name="electronic convergence detail" >
     <i type="logical" name="LDIAG"> T  </i>
     <i type="logical" name="LSUBROT"> F  </i>
     <i name="WEIMIN">      0.00000000</i>
     <i name="EBREAK">      0.00000000</i>
     <i name="DEPER">      0.30000000</i>
     <i type="int" name="NRMM">     4</i>
     <i name="TIME">      0.40000000</i>
    </separator>
   </separator>
   <separator name="electronic mixer" >
    <i name="AMIX">      0.40000000</i>
    <i name="BMIX">      1.00000000</i>
    <i name="AMIN">      0.10000000</i>
    <i name="AMIX_MAG">      1.60000000</i>
    <i name="BMIX_MAG">      1.00000000</i>
    <separator name="electronic mixer details" >
     <i type="int" name="IMIX">     4</i>
     <i type="logical" name="MIXFIRST"> F  </i>
     <i type="int" name="MAXMIX">   -45</i>
     <i name="WC">    100.00000000</i>
     <i type="int" name="INIMIX">     1</i>
     <i type="int" name="MIXPRE">     1</i>
     <i type="int" name="MREMOVE">     5</i>
    </separator>
   </separator>
   <separator name="electronic dipolcorrection" >
    <i type="logical" name="LDIPOL"> F  </i>
    <i type="logical" name="LMONO"> F  </i>
    <i type="int" name="IDIPOL">     0</i>
    <i name="EPSILON">      1.00000000</i>
    <v name="DIPOL">   -100.00000000   -100.00000000   -100.00000000</v>
    <i name="EFIELD">      0.00000000</i>
   </separator>
  </separator>
  <separator name="grids" >
   <i type="int" name="NGX">    96</i>
   <i type="int" name="NGY">    96</i>
   <i type="int" name="NGZ">   120</i>
   <i type="int" name="NGXF">   192</i>
   <i type="int" name="NGYF">   192</i>
   <i type="int" name="NGZF">   240</i>
   <i type="logical" name="ADDGRID"> T  </i>
  </separator>
  <separator name="ionic" >
   <i type="int" name="NSW">     0</i>
   <i type="int" name="IBRION">    -1</i>
   <i type="int" name="MDALGO">     0</i>
   <i type="int" name="ISIF">     3</i>
   <i name="PSTRESS">      0.00000000</i>
   <i name="EDIFFG">      0.00001000</i>
   <i type="int" name="NFREE">     0</i>
   <i name="POTIM">      0.50000000</i>
   <i name="SMASS">     -3.00000000</i>
   <i name="SCALEE">      1.00000000</i>
  </separator>
  <separator name="ionic md" >
   <i name="TEBEG">      0.00010000</i>
   <i name="TEEND">      0.00010000</i>
   <i type="int" name="NBLOCK">     1</i>
   <i type="int" name="KBLOCK">     1</i>
   <i type="int" name="NPACO">   256</i>
   <i name="APACO">     16.00000000</i>
  </separator>
  <separator name="symmetry" >
   <i type="int" name="ISYM">     0</i>
   <i name="SYMPREC">      0.00001000</i>
  </separator>
  <separator name="dos" >
   <i type="int" name="LORBIT">     0</i>
   <v name="RWIGS">     -1.00000000     -1.00000000     -1.00000000     -1.00000000</v>
   <i type="int" name="NEDOS">   301</i>
   <i name="EMIN">     10.00000000</i>
   <i name="EMAX">    -10.00000000</i>
   <i name="EFERMI">      0.00000000</i>
  </separator>
  <separator name="writing" >
   <i type="int" name="NWRITE">     1</i>
   <i type="logical" name="LWAVE"> F  </i>
   <i type="logical" name="LDOWNSAMPLE"> F  </i>
   <i type="logical" name="LCHARG"> T  </i>
   <i type="logical" name="LPARD"> F  </i>
   <i type="logical" name="LVTOT"> F  </i>
   <i type="logical" name="LVHAR"> F  </i>
   <i type="logical" name="LELF"> F  </i>
   <i type="logical" name="LOPTICS"> F  </i>
   <v name="STM">      0.00000000      0.00000000      0.00000000      0.00000000      0.00000000      0.00000000      0.00000000</v>
  </separator>
  <separator name="performance" >
   <i type="int" name="NPAR">     4</i>
   <i type="int" name="NSIM">     4</i>
   <i type="int" name="NBLK">    -1</i>
   <i type="logical" name="LPLANE"> T  </i>
   <i type="logical" name="LSCALAPACK"> T  </i>
   <i type="logical" name="LSCAAWARE"> F  </i>
   <i type="logical" name="LSCALU"> F  </i>
   <i type="logical" name="LASYNC"> F  </i>
   <i type="logical" name="LORBITALREAL"> F  </i>
  </separator>
  <separator name="miscellaneous" >
   <i type="int" name="IDIOT">     3</i>
   <i type="int" name="ISPECIAL">     0</i>
   <i type="logical" name="LMUSIC"> F  </i>
   <v name="POMASS">      7.01000000     16.00000000     32.06600000     55.84700000</v>
   <v name="DARWINR">      0.00000000      0.00000000      0.00000000      0.00000000</v>
   <v name="DARWINV">      1.00000000      1.00000000      1.00000000      1.00000000</v>
   <i type="logical" name="LCORR"> T  </i>
  </separator>
  <i type="logical" name="GGA_COMPAT"> T  </i>
  <i type="logical" name="LBERRY"> F  </i>
  <i type="int" name="ICORELEVEL">     0</i>
  <i type="logical" name="LDAU"> T  </i>
  <v type="int" name="LDAUTYPE">     2</v>
  <v type="int" name="LDAUL">    -1</v>
  <v name="LDAUU">      0.00000000</v>
  <v name="LDAUJ">      0.00000000</v>
  <i type="int" name="LDAUPRINT">     0</i>
  <i type="int" name="I_CONSTRAINED_M">     0</i>
  <separator name="electronic exchange-correlation" >
   <i type="string" name="GGA">PE</i>
   <i type="int" name="VOSKOWN">     0</i>
   <i type="logical" name="LHFCALC"> F  </i>
   <i type="string" name="PRECFOCK"></i>
   <i type="logical" name="LSYMGRAD"> F  </i>
   <i type="logical" name="LHFONE"> F  </i>
   <i type="logical" name="LRHFCALC"> F  </i>
   <i type="logical" name="LTHOMAS"> F  </i>
   <i type="logical" name="LMODELHF"> F  </i>
   <i name="ENCUT4O">     -1.00000000</i>
   <i type="int" name="EXXOEP">     0</i>
   <i type="int" name="FOURORBIT">     0</i>
   <i name="AEXX">      0.00000000</i>
   <i name="HFALPHA">      0.00000000</i>
   <i name="MCALPHA">      0.00000000</i>
   <i name="ALDAX">      1.00000000</i>
   <i name="AGGAX">      1.00000000</i>
   <i name="ALDAC">      1.00000000</i>
   <i name="AGGAC">      1.00000000</i>
   <i type="int" name="NKREDX">     1</i>
   <i type="int" name="NKREDY">     1</i>
   <i type="int" name="NKREDZ">     1</i>
   <i type="logical" name="SHIFTRED"> F  </i>
   <i type="logical" name="ODDONLY"> F  </i>
   <i type="logical" name="EVENONLY"> F  </i>
   <i type="int" name="LMAXFOCK">     0</i>
   <i type="int" name="NMAXFOCKAE">     0</i>
   <i type="logical" name="LFOCKAEDFT"> F  </i>
   <i name="HFSCREEN">      0.00000000</i>
   <i name="HFSCREENC">      0.00000000</i>
   <i type="int" name="NBANDSGWLOW">     0</i>
  </separator>
  <separator name="vdW DFT" >
   <i type="logical" name="LUSE_VDW"> F  </i>
   <i name="Zab_VDW">     -0.84910000</i>
   <i name="PARAM1">      0.12340000</i>
   <i name="PARAM2">      1.00000000</i>
   <i name="PARAM3">      0.00000000</i>
  </separator>
  <separator name="model GW" >
   <i type="int" name="MODEL_GW">     0</i>
   <i name="MODEL_EPS0">      8.14316640</i>
   <i name="MODEL_ALPHA">      1.00000000</i>
  </separator>
  <separator name="linear response parameters" >
   <i type="logical" name="LEPSILON"> F  </i>
   <i type="logical" name="LRPA"> F  </i>
   <i type="logical" name="LNABLA"> F  </i>
   <i type="logical" name="LVEL"> F  </i>
   <i type="int" name="KINTER">     0</i>
   <i name="CSHIFT">      0.10000000</i>
   <i name="OMEGAMAX">     -1.00000000</i>
   <i name="DEG_THRESHOLD">      0.00200000</i>
   <i name="RTIME">     -0.10000000</i>
   <i name="WPLASMAI">      0.00000000</i>
   <v name="DFIELD">      0.00000000      0.00000000      0.00000000</v>
   <v name="WPLASMA">      0.00000000      0.00000000      0.00000000      0.00000000      0.00000000      0.00000000      0.00000000      0.00000000      0.00000000</v>
  </separator>
  <separator name="orbital magnetization" >
   <i type="logical" name="NUCIND"> F  </i>
   <v name="MAGPOS">      0.00000000      0.00000000      0.00000000</v>
   <i type="logical" name="LNICSALL"> T  </i>
   <i type="logical" name="ORBITALMAG"> F  </i>
   <i type="logical" name="LMAGBLOCH"> F  </i>
   <i type="logical" name="LCHIMAG"> F  </i>
   <i type="logical" name="LGAUGE"> T  </i>
   <i type="int" name="MAGATOM">     0</i>
   <v name="MAGDIPOL">      0.00000000      0.00000000      0.00000000</v>
   <v name="AVECCONST">      0.00000000      0.00000000      0.00000000</v>
  </separator>
  <separator name="response functions" >
   <i type="logical" name="LADDER"> F  </i>
   <i type="logical" name="LRPAFORCE"> F  </i>
   <i type="logical" name="LFXC"> F  </i>
   <i type="logical" name="LHARTREE"> T  </i>
   <i type="int" name="IBSE">     0</i>
   <v type="int" name="KPOINT">    -1     0     0     0</v>
   <i type="logical" name="LTCTE"> F  </i>
   <i type="logical" name="LTETE"> F  </i>
   <i type="logical" name="LTRIPLET"> F  </i>
   <i type="logical" name="LFXCEPS"> F  </i>
   <i type="logical" name="LFXHEG"> F  </i>
   <i type="int" name="NATURALO">     2</i>
   <i type="logical" name="L2ORDER"> F  </i>
   <i type="logical" name="LMP2LT"> F  </i>
   <i type="logical" name="LUSEW"> F  </i>
   <i name="ENCUTGW">     -2.00000000</i>
   <i name="ENCUTGWSOFT">     -2.00000000</i>
   <i name="ENCUTLF">     -1.00000000</i>
   <i type="int" name="LMAXMP2">    -1</i>
   <i name="SCISSOR">      0.00000000</i>
   <i type="int" name="NOMEGA">     0</i>
   <i type="int" name="NOMEGAR">     0</i>
   <i type="int" name="NBANDSGW">    -1</i>
   <i type="int" name="NBANDSO">    -1</i>
   <i type="int" name="NBANDSV">    -1</i>
   <i type="int" name="NELM">   200</i>
   <i type="int" name="NELMHF">     1</i>
   <i type="int" name="DIM">     3</i>
   <i type="int" name="ANTIRES">     0</i>
   <i name="OMEGAMAX">    -30.00000000</i>
   <i name="OMEGAMIN">    -30.00000000</i>
   <i name="OMEGATL">   -200.00000000</i>
   <i type="int" name="OMEGAGRID">   140</i>
   <i name="CSHIFT">     -0.10000000</i>
   <i type="logical" name="SELFENERGY"> F  </i>
   <i type="logical" name="LSPECTRAL"> F  </i>
   <i type="logical" name="LSPECTRALGW"> F  </i>
   <i type="logical" name="LSINGLES"> F  </i>
   <i type="logical" name="LFERMIGW"> F  </i>
   <i type="logical" name="ODDONLYGW"> F  </i>
   <i type="logical" name="EVENONLYGW"> F  </i>
   <i type="int" name="NKREDLFX">     1</i>
   <i type="int" name="NKREDLFY">     1</i>
   <i type="int" name="NKREDLFZ">     1</i>
   <i type="int" name="MAXMEM">  2800</i>
   <i type="int" name="TELESCOPE">     0</i>
   <i type="int" name="TAUPAR">     1</i>
   <i type="int" name="OMEGAPAR">    -1</i>
   <i name="LAMBDA">      1.00000000</i>
  </separator>
  <separator name="External order field" >
   <i name="OFIELD_KAPPA">      0.00000000</i>
   <v name="OFIELD_K">      0.00000000      0.00000000      0.00000000</v>
   <i name="OFIELD_Q6_NEAR">      0.00000000</i>
   <i name="OFIELD_Q6_FAR">      0.00000000</i>
   <i name="OFIELD_A">      0.00000000</i>
  </separator>
 </parameters>
 <atominfo>
  <atoms>     126 </atoms>
  <types>       4 </types>
  <array name="atoms" >
   <dimension dim="1">ion</dimension>
   <field type="string">element</field>
   <field type="int">atomtype</field>
   <set>
    <rc><c>Li</c><c>   1</c></rc>
    <rc><c>Li</c><c>   1</c></rc>
    <rc><c>Li</c><c>   1</c></rc>
    <rc><c>Li</c><c>   1</c></rc>
    <rc><c>Li</c><c>   1</c></rc>
    <rc><c>Li</c><c>   1</c></rc>
    <rc><c>Li</c><c>   1</c></rc>
    <rc><c>Li</c><c>   1</c></rc>
    <rc><c>Li</c><c>   1</c></rc>
    <rc><c>Li</c><c>   1</c></rc>
    <rc><c>Li</c><c>   1</c></rc>
    <rc><c>Li</c><c>   1</c></rc>
    <rc><c>Li</c><c>   1</c></rc>
    <rc><c>Li</c><c>   1</c></rc>
    <rc><c>Li</c><c>   1</c></rc>
    <rc><c>Li</c><c>   1</c></rc>
    <rc><c>Li</c><c>   1</c></rc>
    <rc><c>Li</c><c>   1</c></rc>
    <rc><c>Li</c><c>   1</c></rc>
    <rc><c>Li</c><c>   1</c></rc>
    <rc><c>Li</c><c>   1</c></rc>
    <rc><c>Li</c><c>   1</c></rc>
    <rc><c>Li</c><c>   1</c></rc>
    <rc><c>Li</c><c>   1</c></rc>
    <rc><c>Li</c><c>   1</c></rc>
    <rc><c>Li</c><c>   1</c></rc>
    <rc><c>Li</c><c>   1</c></rc>
    <rc><c>Li</c><c>   1</c></rc>
    <rc><c>Li</c><c>   1</c></rc>
    <rc><c>Li</c><c>   1</c></rc>
    <rc><c>Li</c><c>   1</c></rc>
    <rc><c>Li</c><c>   1</c></rc>
    <rc><c>Li</c><c>   1</c></rc>
    <rc><c>Li</c><c>   1</c></rc>
    <rc><c>Li</c><c>   1</c></rc>
    <rc><c>Li</c><c>   1</c></rc>
    <rc><c>O </c><c>   2</c></rc>
    <rc><c>O </c><c>   2</c></rc>
    <rc><c>O </c><c>   2</c></rc>
    <rc><c>O </c><c>   2</c></rc>
    <rc><c>O </c><c>   2</c></rc>
    <rc><c>O </c><c>   2</c></rc>
    <rc><c>O </c><c>   2</c></rc>
    <rc><c>O </c><c>   2</c></rc>
    <rc><c>O </c><c>   2</c></rc>
    <rc><c>O </c><c>   2</c></rc>
    <rc><c>O </c><c>   2</c></rc>
    <rc><c>O </c><c>   2</c></rc>
    <rc><c>O </c><c>   2</c></rc>
    <rc><c>O </c><c>   2</c></rc>
    <rc><c>O </c><c>   2</c></rc>
    <rc><c>O </c><c>   2</c></rc>
    <rc><c>O </c><c>   2</c></rc>
    <rc><c>O </c><c>   2</c></rc>
    <rc><c>S </c><c>   3</c></rc>
    <rc><c>S </c><c>   3</c></rc>
    <rc><c>S </c><c>   3</c></rc>
    <rc><c>S </c><c>   3</c></rc>
    <rc><c>S </c><c>   3</c></rc>
    <rc><c>S </c><c>   3</c></rc>
    <rc><c>S </c><c>   3</c></rc>
    <rc><c>S </c><c>   3</c></rc>
    <rc><c>S </c><c>   3</c></rc>
    <rc><c>S </c><c>   3</c></rc>
    <rc><c>S </c><c>   3</c></rc>
    <rc><c>S </c><c>   3</c></rc>
    <rc><c>S </c><c>   3</c></rc>
    <rc><c>S </c><c>   3</c></rc>
    <rc><c>S </c><c>   3</c></rc>
    <rc><c>S </c><c>   3</c></rc>
    <rc><c>S </c><c>   3</c></rc>
    <rc><c>S </c><c>   3</c></rc>
    <rc><c>S </c><c>   3</c></rc>
    <rc><c>S </c><c>   3</c></rc>
    <rc><c>S </c><c>   3</c></rc>
    <rc><c>S </c><c>   3</c></rc>
    <rc><c>S </c><c>   3</c></rc>
    <rc><c>S </c><c>   3</c></rc>
    <rc><c>S </c><c>   3</c></rc>
    <rc><c>S </c><c>   3</c></rc>
    <rc><c>S </c><c>   3</c></rc>
    <rc><c>S </c><c>   3</c></rc>
    <rc><c>S </c><c>   3</c></rc>
    <rc><c>S </c><c>   3</c></rc>
    <rc><c>S </c><c>   3</c></rc>
    <rc><c>S </c><c>   3</c></rc>
    <rc><c>S </c><c>   3</c></rc>
    <rc><c>S </c><c>   3</c></rc>
    <rc><c>S </c><c>   3</c></rc>
    <rc><c>S </c><c>   3</c></rc>
    <rc><c>Fe</c><c>   4</c></rc>
    <rc><c>Fe</c><c>   4</c></rc>
    <rc><c>Fe</c><c>   4</c></rc>
    <rc><c>Fe</c><c>   4</c></rc>
    <rc><c>Fe</c><c>   4</c></rc>
    <rc><c>Fe</c><c>   4</c></rc>
    <rc><c>Fe</c><c>   4</c></rc>
    <rc><c>Fe</c><c>   4</c></rc>
    <rc><c>Fe</c><c>   4</c></rc>
    <rc><c>Fe</c><c>   4</c></rc>
    <rc><c>Fe</c><c>   4</c></rc>
    <rc><c>Fe</c><c>   4</c></rc>
    <rc><c>Fe</c><c>   4</c></rc>
    <rc><c>Fe</c><c>   4</c></rc>
    <rc><c>Fe</c><c>   4</c></rc>
    <rc><c>Fe</c><c>   4</c></rc>
    <rc><c>Fe</c><c>   4</c></rc>
    <rc><c>Fe</c><c>   4</c></rc>
    <rc><c>Fe</c><c>   4</c></rc>
    <rc><c>Fe</c><c>   4</c></rc>
    <rc><c>Fe</c><c>   4</c></rc>
    <rc><c>Fe</c><c>   4</c></rc>
    <rc><c>Fe</c><c>   4</c></rc>
    <rc><c>Fe</c><c>   4</c></rc>
    <rc><c>Fe</c><c>   4</c></rc>
    <rc><c>Fe</c><c>   4</c></rc>
    <rc><c>Fe</c><c>   4</c></rc>
    <rc><c>Fe</c><c>   4</c></rc>
    <rc><c>Fe</c><c>   4</c></rc>
    <rc><c>Fe</c><c>   4</c></rc>
    <rc><c>Fe</c><c>   4</c></rc>
    <rc><c>Fe</c><c>   4</c></rc>
    <rc><c>Fe</c><c>   4</c></rc>
    <rc><c>Fe</c><c>   4</c></rc>
    <rc><c>Fe</c><c>   4</c></rc>
    <rc><c>Fe</c><c>   4</c></rc>
   </set>
  </array>
  <array name="atomtypes" >
   <dimension dim="1">type</dimension>
   <field type="int">atomspertype</field>
   <field type="string">element</field>
   <field>mass</field>
   <field>valence</field>
   <field type="string">pseudopotential</field>
   <set>
    <rc><c>  36</c><c>Li</c><c>      7.01000000</c><c>      3.00000000</c><c>  PAW_PBE Li_sv 10Sep2004               </c></rc>
    <rc><c>  18</c><c>O </c><c>     16.00000000</c><c>      6.00000000</c><c>  PAW_PBE O 08Apr2002                   </c></rc>
    <rc><c>  36</c><c>S </c><c>     32.06600000</c><c>      6.00000000</c><c>  PAW_PBE S 06Sep2000                   </c></rc>
    <rc><c>  36</c><c>Fe</c><c>     55.84700000</c><c>     14.00000000</c><c>  PAW_PBE Fe_pv 02Aug2007               </c></rc>
   </set>
  </array>
 </atominfo>
 <structure name="initialpos" >
  <crystal>
   <varray name="basis" >
    <v>      11.57658324       0.00206628      -0.00954291 </v>
    <v>      -0.00198552      11.57659983      -0.00954294 </v>
    <v>      -3.84767942      -3.84903072      12.76635918 </v>
   </varray>
   <i name="volume">   1710.06494320 </i>
   <varray name="rec_basis" >
    <v>       0.08640274       0.00003629       0.02605204 </v>
    <v>       0.00000605       0.08640263       0.02605204 </v>
    <v>       0.00006459       0.00006461       0.07836982 </v>
   </varray>
  </crystal>
  <varray name="positions" >
   <v>       0.14940024       0.01727802       0.00000711 </v>
   <v>       0.48273357       0.01727802       0.00000711 </v>
   <v>       0.81606690       0.01727802       0.00000711 </v>
   <v>       0.14940024       0.35061135       0.00000711 </v>
   <v>       0.48273357       0.35061135       0.00000711 </v>
   <v>       0.81606690       0.35061135       0.00000711 </v>
   <v>       0.14940024       0.68394468       0.00000711 </v>
   <v>       0.48273357       0.68394468       0.00000711 </v>
   <v>       0.81606690       0.68394468       0.00000711 </v>
   <v>       0.14940024       0.01727802       0.50000711 </v>
   <v>       0.48273357       0.01727802       0.50000711 </v>
   <v>       0.81606690       0.01727802       0.50000711 </v>
   <v>       0.14940024       0.35061135       0.50000711 </v>
   <v>       0.48273357       0.35061135       0.50000711 </v>
   <v>       0.81606690       0.35061135       0.50000711 </v>
   <v>       0.14940024       0.68394468       0.50000711 </v>
   <v>       0.48273357       0.68394468       0.50000711 </v>
   <v>       0.81606690       0.68394468       0.50000711 </v>
   <v>       0.31605532       0.18393310       0.49999289 </v>
   <v>       0.64938865       0.18393310       0.49999289 </v>
   <v>       0.98272198       0.18393310       0.49999289 </v>
   <v>       0.31605532       0.51726643       0.49999289 </v>
   <v>       0.64938865       0.51726643       0.49999289 </v>
   <v>       0.98272198       0.51726643       0.49999289 </v>
   <v>       0.31605532       0.85059976       0.49999289 </v>
   <v>       0.64938865       0.85059976       0.49999289 </v>
   <v>       0.98272198       0.85059976       0.49999289 </v>
   <v>       0.31605532       0.18393310       0.99999289 </v>
   <v>       0.64938865       0.18393310       0.99999289 </v>
   <v>       0.98272198       0.18393310       0.99999289 </v>
   <v>       0.31605532       0.51726643       0.99999289 </v>
   <v>       0.64938865       0.51726643       0.99999289 </v>
   <v>       0.98272198       0.51726643       0.99999289 </v>
   <v>       0.31605532       0.85059976       0.99999289 </v>
   <v>       0.64938865       0.85059976       0.99999289 </v>
   <v>       0.98272198       0.85059976       0.99999289 </v>
   <v>       0.31606288       0.01727079       0.00000000 </v>
   <v>       0.64939621       0.01727079       0.00000000 </v>
   <v>       0.98272954       0.01727079       0.00000000 </v>
   <v>       0.31606288       0.35060413       0.00000000 </v>
   <v>       0.64939621       0.35060413       0.00000000 </v>
   <v>       0.98272954       0.35060413       0.00000000 </v>
   <v>       0.31606288       0.68393746       0.00000000 </v>
   <v>       0.64939621       0.68393746       0.00000000 </v>
   <v>       0.98272954       0.68393746       0.00000000 </v>
   <v>       0.31606288       0.01727079       0.50000000 </v>
   <v>       0.64939621       0.01727079       0.50000000 </v>
   <v>       0.98272954       0.01727079       0.50000000 </v>
   <v>       0.31606288       0.35060413       0.50000000 </v>
   <v>       0.64939621       0.35060413       0.50000000 </v>
   <v>       0.98272954       0.35060413       0.50000000 </v>
   <v>       0.31606288       0.68393746       0.50000000 </v>
   <v>       0.64939621       0.68393746       0.50000000 </v>
   <v>       0.98272954       0.68393746       0.50000000 </v>
   <v>       0.19934057       0.23388678       0.14983771 </v>
   <v>       0.53267391       0.23388678       0.14983771 </v>
   <v>       0.86600724       0.23388678       0.14983771 </v>
   <v>       0.19934057       0.56722011       0.14983771 </v>
   <v>       0.53267391       0.56722011       0.14983771 </v>
   <v>       0.86600724       0.56722011       0.14983771 </v>
   <v>       0.19934057       0.90055344       0.14983771 </v>
   <v>       0.53267391       0.90055344       0.14983771 </v>
   <v>       0.86600724       0.90055344       0.14983771 </v>
   <v>       0.19934057       0.23388678       0.64983771 </v>
   <v>       0.53267391       0.23388678       0.64983771 </v>
   <v>       0.86600724       0.23388678       0.64983771 </v>
   <v>       0.19934057       0.56722011       0.64983771 </v>
   <v>       0.53267391       0.56722011       0.64983771 </v>
   <v>       0.86600724       0.56722011       0.64983771 </v>
   <v>       0.19934057       0.90055344       0.64983771 </v>
   <v>       0.53267391       0.90055344       0.64983771 </v>
   <v>       0.86600724       0.90055344       0.64983771 </v>
   <v>       0.09944656       0.13399276       0.35016229 </v>
   <v>       0.43277989       0.13399276       0.35016229 </v>
   <v>       0.76611322       0.13399276       0.35016229 </v>
   <v>       0.09944656       0.46732609       0.35016229 </v>
   <v>       0.43277989       0.46732609       0.35016229 </v>
   <v>       0.76611322       0.46732609       0.35016229 </v>
   <v>       0.09944656       0.80065943       0.35016229 </v>
   <v>       0.43277989       0.80065943       0.35016229 </v>
   <v>       0.76611322       0.80065943       0.35016229 </v>
   <v>       0.09944656       0.13399276       0.85016229 </v>
   <v>       0.43277989       0.13399276       0.85016229 </v>
   <v>       0.76611322       0.13399276       0.85016229 </v>
   <v>       0.09944656       0.46732609       0.85016229 </v>
   <v>       0.43277989       0.46732609       0.85016229 </v>
   <v>       0.76611322       0.46732609       0.85016229 </v>
   <v>       0.09944656       0.80065943       0.85016229 </v>
   <v>       0.43277989       0.80065943       0.85016229 </v>
   <v>       0.76611322       0.80065943       0.85016229 </v>
   <v>       0.03603208       0.07057630       0.16062094 </v>
   <v>       0.36936541       0.07057630       0.15990037 </v>
   <v>       0.70269875       0.07057630       0.15990037 </v>
   <v>       0.03603208       0.40390964       0.15990037 </v>
   <v>       0.36936541       0.40390964       0.15990037 </v>
   <v>       0.70269875       0.40390964       0.15990037 </v>
   <v>       0.03603208       0.73724297       0.15990037 </v>
   <v>       0.36936541       0.73724297       0.15990037 </v>
   <v>       0.70269875       0.73724297       0.15990037 </v>
   <v>       0.03603208       0.07057630       0.65990037 </v>
   <v>       0.36936541       0.07057630       0.65990037 </v>
   <v>       0.70269875       0.07057630       0.65990037 </v>
   <v>       0.03603208       0.40390964       0.65990037 </v>
   <v>       0.36936541       0.40390964       0.65990037 </v>
   <v>       0.70269875       0.40390964       0.65990037 </v>
   <v>       0.03603208       0.73724297       0.65990037 </v>
   <v>       0.36936541       0.73724297       0.65990037 </v>
   <v>       0.70269875       0.73724297       0.65990037 </v>
   <v>       0.26275703       0.29730125       0.34009963 </v>
   <v>       0.59609036       0.29730125       0.34009963 </v>
   <v>       0.92942370       0.29730125       0.34009963 </v>
   <v>       0.26275703       0.63063459       0.34009963 </v>
   <v>       0.59609036       0.63063459       0.34009963 </v>
   <v>       0.92942370       0.63063459       0.34009963 </v>
   <v>       0.26275703       0.96396792       0.34009963 </v>
   <v>       0.59609036       0.96396792       0.34009963 </v>
   <v>       0.92942370       0.96396792       0.34009963 </v>
   <v>       0.26275703       0.29730125       0.84009963 </v>
   <v>       0.59609036       0.29730125       0.84009963 </v>
   <v>       0.92942370       0.29730125       0.84009963 </v>
   <v>       0.26275703       0.63063459       0.84009963 </v>
   <v>       0.59609036       0.63063459       0.84009963 </v>
   <v>       0.92942370       0.63063459       0.84009963 </v>
   <v>       0.26275703       0.96396792       0.84009963 </v>
   <v>       0.59609036       0.96396792       0.84009963 </v>
   <v>       0.92942370       0.96396792       0.84009963 </v>
  </varray>
 </structure>
 <calculation>
  <scstep>
   <time name="total">  257.59  259.93</time>
   <energy>
    <i name="alphaZ">   2639.27042227 </i>
    <i name="ewald"> -69235.72443369 </i>
    <i name="hartreedc"> -34827.07697091 </i>
    <i name="XCdc">   3975.73031804 </i>
    <i name="pawpsdc"> 109952.41695739 </i>
    <i name="pawaedc">-113408.94482908 </i>
    <i name="eentropy">     -0.02339194 </i>
    <i name="bandstr">     37.54519307 </i>
    <i name="atom"> 113515.32941094 </i>
    <i name="e_fr_energy">  12648.52267609 </i>
    <i name="e_wo_entrp">  12648.54606803 </i>
    <i name="e_0_energy">  12648.53437206 </i>
   </energy>
  </scstep>
  <scstep>
   <time name="total">  247.97  250.37</time>
   <energy>
    <i name="e_fr_energy">   1374.98261170 </i>
    <i name="e_wo_entrp">   1375.06487781 </i>
    <i name="e_0_energy">   1375.02374476 </i>
   </energy>
  </scstep>
  <scstep>
   <time name="total">  264.53  267.45</time>
   <energy>
    <i name="e_fr_energy">   -410.65750796 </i>
    <i name="e_wo_entrp">   -410.65750796 </i>
    <i name="e_0_energy">   -410.65750796 </i>
   </energy>
  </scstep>
  <scstep>
   <time name="total">  287.78  289.89</time>
   <energy>
    <i name="e_fr_energy">   -632.66160969 </i>
    <i name="e_wo_entrp">   -632.66160969 </i>
    <i name="e_0_energy">   -632.66160969 </i>
   </energy>
  </scstep>
  <scstep>
   <time name="total">  383.98  387.54</time>
   <energy>
    <i name="e_fr_energy">   -656.92223364 </i>
    <i name="e_wo_entrp">   -656.92223364 </i>
    <i name="e_0_energy">   -656.92223364 </i>
   </energy>
  </scstep>
  <scstep>
   <time name="total">  167.17  168.83</time>
   <energy>
    <i name="e_fr_energy">   -656.87579167 </i>
    <i name="e_wo_entrp">   -656.87579167 </i>
    <i name="e_0_energy">   -656.87579167 </i>
   </energy>
  </scstep>
  <scstep>
   <time name="total">  166.78  168.93</time>
   <energy>
    <i name="e_fr_energy">   -657.40092102 </i>
    <i name="e_wo_entrp">   -657.40092102 </i>
    <i name="e_0_energy">   -657.40092102 </i>
   </energy>
  </scstep>
  <scstep>
   <time name="total">  168.09  169.66</time>
   <energy>
    <i name="e_fr_energy">   -657.70635685 </i>
    <i name="e_wo_entrp">   -657.70635685 </i>
    <i name="e_0_energy">   -657.70635685 </i>
   </energy>
  </scstep>
  <scstep>
   <time name="total">  166.86  168.85</time>
   <energy>
    <i name="e_fr_energy">   -657.82752196 </i>
    <i name="e_wo_entrp">   -657.82752196 </i>
    <i name="e_0_energy">   -657.82752196 </i>
   </energy>
  </scstep>
  <scstep>
   <time name="total">  166.87  168.40</time>
   <energy>
    <i name="e_fr_energy">   -657.87247735 </i>
    <i name="e_wo_entrp">   -657.87247735 </i>
    <i name="e_0_energy">   -657.87247735 </i>
   </energy>
  </scstep>
  <scstep>
   <time name="total">  167.54  169.16</time>
   <energy>
    <i name="e_fr_energy">   -657.88992904 </i>
    <i name="e_wo_entrp">   -657.88992904 </i>
    <i name="e_0_energy">   -657.88992904 </i>
   </energy>
  </scstep>
  <scstep>
   <time name="total">  167.14  168.78</time>
   <energy>
    <i name="e_fr_energy">   -657.89531473 </i>
    <i name="e_wo_entrp">   -657.89531473 </i>
    <i name="e_0_energy">   -657.89531473 </i>
   </energy>
  </scstep>
  <scstep>
   <time name="total">  166.73  168.50</time>
   <energy>
    <i name="e_fr_energy">   -657.89781356 </i>
    <i name="e_wo_entrp">   -657.89781356 </i>
    <i name="e_0_energy">   -657.89781356 </i>
   </energy>
  </scstep>
  <scstep>
   <time name="total">  167.62  169.13</time>
   <energy>
    <i name="e_fr_energy">   -657.89925289 </i>
    <i name="e_wo_entrp">   -657.89925289 </i>
    <i name="e_0_energy">   -657.89925289 </i>
   </energy>
  </scstep>
  <scstep>
   <time name="total">  167.04  168.76</time>
   <energy>
    <i name="e_fr_energy">   -657.90008291 </i>
    <i name="e_wo_entrp">   -657.90008291 </i>
    <i name="e_0_energy">   -657.90008291 </i>
   </energy>
  </scstep>
  <scstep>
   <time name="total">  167.64  169.08</time>
   <energy>
    <i name="e_fr_energy">   -657.90053854 </i>
    <i name="e_wo_entrp">   -657.90053854 </i>
    <i name="e_0_energy">   -657.90053854 </i>
   </energy>
  </scstep>
  <scstep>
   <time name="total">  168.01  169.34</time>
   <energy>
    <i name="e_fr_energy">   -657.90078225 </i>
    <i name="e_wo_entrp">   -657.90078225 </i>
    <i name="e_0_energy">   -657.90078225 </i>
   </energy>
  </scstep>
  <scstep>
   <time name="total">  167.31  168.91</time>
   <energy>
    <i name="e_fr_energy">   -657.90095237 </i>
    <i name="e_wo_entrp">   -657.90095237 </i>
    <i name="e_0_energy">   -657.90095237 </i>
   </energy>
  </scstep>
  <scstep>
   <time name="total">  168.14  169.38</time>
   <energy>
    <i name="e_fr_energy">   -657.90108450 </i>
    <i name="e_wo_entrp">   -657.90108450 </i>
    <i name="e_0_energy">   -657.90108450 </i>
   </energy>
  </scstep>
  <scstep>
   <time name="total">  168.09  169.59</time>
   <energy>
    <i name="e_fr_energy">   -657.90117055 </i>
    <i name="e_wo_entrp">   -657.90117055 </i>
    <i name="e_0_energy">   -657.90117055 </i>
   </energy>
  </scstep>
  <scstep>
   <time name="total">  167.23  168.64</time>
   <energy>
    <i name="e_fr_energy">   -657.90121368 </i>
    <i name="e_wo_entrp">   -657.90121368 </i>
    <i name="e_0_energy">   -657.90121368 </i>
   </energy>
  </scstep>
  <scstep>
   <time name="total">  168.00  169.49</time>
   <energy>
    <i name="e_fr_energy">   -657.90123891 </i>
    <i name="e_wo_entrp">   -657.90123891 </i>
    <i name="e_0_energy">   -657.90123891 </i>
   </energy>
  </scstep>
  <scstep>
   <time name="total">  167.62  169.27</time>
   <energy>
    <i name="e_fr_energy">   -657.90125466 </i>
    <i name="e_wo_entrp">   -657.90125466 </i>
    <i name="e_0_energy">   -657.90125466 </i>
   </energy>
  </scstep>
  <scstep>
   <time name="total">  167.64  169.28</time>
   <energy>
    <i name="e_fr_energy">   -657.90126345 </i>
    <i name="e_wo_entrp">   -657.90126345 </i>
    <i name="e_0_energy">   -657.90126345 </i>
   </energy>
  </scstep>
  <scstep>
   <time name="total">  167.43  168.96</time>
   <energy>
    <i name="e_fr_energy">   -657.90126830 </i>
    <i name="e_wo_entrp">   -657.90126830 </i>
    <i name="e_0_energy">   -657.90126830 </i>
   </energy>
  </scstep>
  <scstep>
   <time name="total">  167.38  168.99</time>
   <energy>
    <i name="e_fr_energy">   -657.90127185 </i>
    <i name="e_wo_entrp">   -657.90127185 </i>
    <i name="e_0_energy">   -657.90127185 </i>
   </energy>
  </scstep>
  <scstep>
   <time name="total">  167.50  169.25</time>
   <energy>
    <i name="e_fr_energy">   -657.90127484 </i>
    <i name="e_wo_entrp">   -657.90127484 </i>
    <i name="e_0_energy">   -657.90127484 </i>
   </energy>
  </scstep>
  <scstep>
   <time name="total">  167.59  169.38</time>
   <energy>
    <i name="e_fr_energy">   -657.90127673 </i>
    <i name="e_wo_entrp">   -657.90127673 </i>
    <i name="e_0_energy">   -657.90127673 </i>
   </energy>
  </scstep>
  <scstep>
   <time name="total">  168.24  169.78</time>
   <energy>
    <i name="e_fr_energy">   -657.90127830 </i>
    <i name="e_wo_entrp">   -657.90127830 </i>
    <i name="e_0_energy">   -657.90127830 </i>
   </energy>
  </scstep>
  <scstep>
   <time name="total">  167.26  168.81</time>
   <energy>
    <i name="e_fr_energy">   -657.90127939 </i>
    <i name="e_wo_entrp">   -657.90127939 </i>
    <i name="e_0_energy">   -657.90127939 </i>
   </energy>
  </scstep>
  <scstep>
   <time name="total">  167.19  168.66</time>
   <energy>
    <i name="e_fr_energy">   -657.90128043 </i>
    <i name="e_wo_entrp">   -657.90128043 </i>
    <i name="e_0_energy">   -657.90128043 </i>
   </energy>
  </scstep>
  <scstep>
   <time name="total">  192.49  194.25</time>
   <energy>
    <i name="alphaZ">   2639.27042227 </i>
    <i name="ewald"> -69235.72443369 </i>
    <i name="hartreedc"> -34827.07979684 </i>
    <i name="XCdc">   3975.72699053 </i>
    <i name="pawpsdc"> 109952.32067914 </i>
    <i name="pawaedc">-113408.83591701 </i>
    <i name="eentropy">     -0.00000000 </i>
    <i name="bandstr"> -13268.90863649 </i>
    <i name="atom"> 113515.32941094 </i>
    <i name="e_fr_energy">   -657.90128115 </i>
    <i name="e_wo_entrp">   -657.90128115 </i>
    <i name="e_0_energy">   -657.90128115 </i>
   </energy>
  </scstep>
  <structure>
   <crystal>
    <varray name="basis" >
     <v>      11.57658324       0.00206628      -0.00954291 </v>
     <v>      -0.00198552      11.57659983      -0.00954294 </v>
     <v>      -3.84767942      -3.84903072      12.76635918 </v>
    </varray>
    <i name="volume">   1710.06494320 </i>
    <varray name="rec_basis" >
     <v>       0.08640274       0.00003629       0.02605204 </v>
     <v>       0.00000605       0.08640263       0.02605204 </v>
     <v>       0.00006459       0.00006461       0.07836982 </v>
    </varray>
   </crystal>
   <varray name="positions" >
    <v>       0.14940024       0.01727802       0.00000711 </v>
    <v>       0.48273357       0.01727802       0.00000711 </v>
    <v>       0.81606690       0.01727802       0.00000711 </v>
    <v>       0.14940024       0.35061135       0.00000711 </v>
    <v>       0.48273357       0.35061135       0.00000711 </v>
    <v>       0.81606690       0.35061135       0.00000711 </v>
    <v>       0.14940024       0.68394468       0.00000711 </v>
    <v>       0.48273357       0.68394468       0.00000711 </v>
    <v>       0.81606690       0.68394468       0.00000711 </v>
    <v>       0.14940024       0.01727802       0.50000711 </v>
    <v>       0.48273357       0.01727802       0.50000711 </v>
    <v>       0.81606690       0.01727802       0.50000711 </v>
    <v>       0.14940024       0.35061135       0.50000711 </v>
    <v>       0.48273357       0.35061135       0.50000711 </v>
    <v>       0.81606690       0.35061135       0.50000711 </v>
    <v>       0.14940024       0.68394468       0.50000711 </v>
    <v>       0.48273357       0.68394468       0.50000711 </v>
    <v>       0.81606690       0.68394468       0.50000711 </v>
    <v>       0.31605532       0.18393310       0.49999289 </v>
    <v>       0.64938865       0.18393310       0.49999289 </v>
    <v>       0.98272198       0.18393310       0.49999289 </v>
    <v>       0.31605532       0.51726643       0.49999289 </v>
    <v>       0.64938865       0.51726643       0.49999289 </v>
    <v>       0.98272198       0.51726643       0.49999289 </v>
    <v>       0.31605532       0.85059976       0.49999289 </v>
    <v>       0.64938865       0.85059976       0.49999289 </v>
    <v>       0.98272198       0.85059976       0.49999289 </v>
    <v>       0.31605532       0.18393310       0.99999289 </v>
    <v>       0.64938865       0.18393310       0.99999289 </v>
    <v>       0.98272198       0.18393310       0.99999289 </v>
    <v>       0.31605532       0.51726643       0.99999289 </v>
    <v>       0.64938865       0.51726643       0.99999289 </v>
    <v>       0.98272198       0.51726643       0.99999289 </v>
    <v>       0.31605532       0.85059976       0.99999289 </v>
    <v>       0.64938865       0.85059976       0.99999289 </v>
    <v>       0.98272198       0.85059976       0.99999289 </v>
    <v>       0.31606288       0.01727079       0.00000000 </v>
    <v>       0.64939621       0.01727079       0.00000000 </v>
    <v>       0.98272954       0.01727079       0.00000000 </v>
    <v>       0.31606288       0.35060413       0.00000000 </v>
    <v>       0.64939621       0.35060413       0.00000000 </v>
    <v>       0.98272954       0.35060413       0.00000000 </v>
    <v>       0.31606288       0.68393746       0.00000000 </v>
    <v>       0.64939621       0.68393746       0.00000000 </v>
    <v>       0.98272954       0.68393746       0.00000000 </v>
    <v>       0.31606288       0.01727079       0.50000000 </v>
    <v>       0.64939621       0.01727079       0.50000000 </v>
    <v>       0.98272954       0.01727079       0.50000000 </v>
    <v>       0.31606288       0.35060413       0.50000000 </v>
    <v>       0.64939621       0.35060413       0.50000000 </v>
    <v>       0.98272954       0.35060413       0.50000000 </v>
    <v>       0.31606288       0.68393746       0.50000000 </v>
    <v>       0.64939621       0.68393746       0.50000000 </v>
    <v>       0.98272954       0.68393746       0.50000000 </v>
    <v>       0.19934057       0.23388678       0.14983771 </v>
    <v>       0.53267391       0.23388678       0.14983771 </v>
    <v>       0.86600724       0.23388678       0.14983771 </v>
    <v>       0.19934057       0.56722011       0.14983771 </v>
    <v>       0.53267391       0.56722011       0.14983771 </v>
    <v>       0.86600724       0.56722011       0.14983771 </v>
    <v>       0.19934057       0.90055344       0.14983771 </v>
    <v>       0.53267391       0.90055344       0.14983771 </v>
    <v>       0.86600724       0.90055344       0.14983771 </v>
    <v>       0.19934057       0.23388678       0.64983771 </v>
    <v>       0.53267391       0.23388678       0.64983771 </v>
    <v>       0.86600724       0.23388678       0.64983771 </v>
    <v>       0.19934057       0.56722011       0.64983771 </v>
    <v>       0.53267391       0.56722011       0.64983771 </v>
    <v>       0.86600724       0.56722011       0.64983771 </v>
    <v>       0.19934057       0.90055344       0.64983771 </v>
    <v>       0.53267391       0.90055344       0.64983771 </v>
    <v>       0.86600724       0.90055344       0.64983771 </v>
    <v>       0.09944656       0.13399276       0.35016229 </v>
    <v>       0.43277989       0.13399276       0.35016229 </v>
    <v>       0.76611322       0.13399276       0.35016229 </v>
    <v>       0.09944656       0.46732609       0.35016229 </v>
    <v>       0.43277989       0.46732609       0.35016229 </v>
    <v>       0.76611322       0.46732609       0.35016229 </v>
    <v>       0.09944656       0.80065943       0.35016229 </v>
    <v>       0.43277989       0.80065943       0.35016229 </v>
    <v>       0.76611322       0.80065943       0.35016229 </v>
    <v>       0.09944656       0.13399276       0.85016229 </v>
    <v>       0.43277989       0.13399276       0.85016229 </v>
    <v>       0.76611322       0.13399276       0.85016229 </v>
    <v>       0.09944656       0.46732609       0.85016229 </v>
    <v>       0.43277989       0.46732609       0.85016229 </v>
    <v>       0.76611322       0.46732609       0.85016229 </v>
    <v>       0.09944656       0.80065943       0.85016229 </v>
    <v>       0.43277989       0.80065943       0.85016229 </v>
    <v>       0.76611322       0.80065943       0.85016229 </v>
    <v>       0.03603208       0.07057630       0.16062094 </v>
    <v>       0.36936541       0.07057630       0.15990037 </v>
    <v>       0.70269875       0.07057630       0.15990037 </v>
    <v>       0.03603208       0.40390964       0.15990037 </v>
    <v>       0.36936541       0.40390964       0.15990037 </v>
    <v>       0.70269875       0.40390964       0.15990037 </v>
    <v>       0.03603208       0.73724297       0.15990037 </v>
    <v>       0.36936541       0.73724297       0.15990037 </v>
    <v>       0.70269875       0.73724297       0.15990037 </v>
    <v>       0.03603208       0.07057630       0.65990037 </v>
    <v>       0.36936541       0.07057630       0.65990037 </v>
    <v>       0.70269875       0.07057630       0.65990037 </v>
    <v>       0.03603208       0.40390964       0.65990037 </v>
    <v>       0.36936541       0.40390964       0.65990037 </v>
    <v>       0.70269875       0.40390964       0.65990037 </v>
    <v>       0.03603208       0.73724297       0.65990037 </v>
    <v>       0.36936541       0.73724297       0.65990037 </v>
    <v>       0.70269875       0.73724297       0.65990037 </v>
    <v>       0.26275703       0.29730125       0.34009963 </v>
    <v>       0.59609036       0.29730125       0.34009963 </v>
    <v>       0.92942370       0.29730125       0.34009963 </v>
    <v>       0.26275703       0.63063459       0.34009963 </v>
    <v>       0.59609036       0.63063459       0.34009963 </v>
    <v>       0.92942370       0.63063459       0.34009963 </v>
    <v>       0.26275703       0.96396792       0.34009963 </v>
    <v>       0.59609036       0.96396792       0.34009963 </v>
    <v>       0.92942370       0.96396792       0.34009963 </v>
    <v>       0.26275703       0.29730125       0.84009963 </v>
    <v>       0.59609036       0.29730125       0.84009963 </v>
    <v>       0.92942370       0.29730125       0.84009963 </v>
    <v>       0.26275703       0.63063459       0.84009963 </v>
    <v>       0.59609036       0.63063459       0.84009963 </v>
    <v>       0.92942370       0.63063459       0.84009963 </v>
    <v>       0.26275703       0.96396792       0.84009963 </v>
    <v>       0.59609036       0.96396792       0.84009963 </v>
    <v>       0.92942370       0.96396792       0.84009963 </v>
   </varray>
  </structure>
  <varray name="forces" >
   <v>      -0.01001191       0.00075813       0.00517760 </v>
   <v>      -0.00012543       0.00002953      -0.00014843 </v>
   <v>       0.00795533       0.00077394       0.00120869 </v>
   <v>      -0.00008456      -0.00066848       0.00006721 </v>
   <v>      -0.00008847      -0.00011542      -0.00011479 </v>
   <v>       0.00038144      -0.00019948      -0.00064223 </v>
   <v>      -0.00009449       0.00004488      -0.00039000 </v>
   <v>      -0.00010889      -0.00005414      -0.00020561 </v>
   <v>       0.00041905      -0.00045997      -0.00107884 </v>
   <v>      -0.00000520      -0.00196713       0.00188188 </v>
   <v>       0.00042638      -0.00012903       0.00021871 </v>
   <v>      -0.00031996      -0.00030255       0.00046415 </v>
   <v>       0.00007127       0.00216805       0.00196517 </v>
   <v>       0.00032520       0.00009926       0.00015054 </v>
   <v>      -0.00030165       0.00011700       0.00034445 </v>
   <v>       0.00000459      -0.00015161       0.00043058 </v>
   <v>       0.00014460      -0.00013471       0.00010484 </v>
   <v>      -0.00001826       0.00002055       0.00039036 </v>
   <v>       0.00227183      -0.00001264       0.00198722 </v>
   <v>      -0.00004942      -0.00006458       0.00043520 </v>
   <v>      -0.00186242      -0.00007291       0.00188510 </v>
   <v>       0.00019670       0.00025528       0.00019059 </v>
   <v>      -0.00003727       0.00008491       0.00010359 </v>
   <v>      -0.00001106       0.00035655       0.00018074 </v>
   <v>       0.00022076      -0.00037074       0.00038082 </v>
   <v>       0.00012617      -0.00008497       0.00039983 </v>
   <v>      -0.00019008      -0.00038677       0.00047257 </v>
   <v>      -0.00056768      -0.00017089       0.00008773 </v>
   <v>       0.00014844      -0.00017532      -0.00039032 </v>
   <v>       0.00085222      -0.01008792       0.00519610 </v>
   <v>      -0.00001330      -0.00015015      -0.00011552 </v>
   <v>       0.00004267      -0.00017673      -0.00019360 </v>
   <v>       0.00013594      -0.00019970      -0.00015620 </v>
   <v>      -0.00009629       0.00031714      -0.00063408 </v>
   <v>      -0.00035385       0.00034949      -0.00107651 </v>
   <v>       0.00087861       0.00788239       0.00123209 </v>
   <v>       0.00123246      -0.00045862       0.00028046 </v>
   <v>      -0.00042058      -0.00047245       0.00126725 </v>
   <v>      -0.00198874      -0.00201894       0.03220318 </v>
   <v>       0.00049214       0.00042784      -0.00030345 </v>
   <v>       0.00013129      -0.00001891       0.00080452 </v>
   <v>      -0.00040085       0.00116527       0.00028690 </v>
   <v>       0.00003607       0.00013247       0.00078138 </v>
   <v>       0.00060116       0.00059478       0.00179833 </v>
   <v>      -0.00040413      -0.00045818       0.00128827 </v>
   <v>      -0.00168570       0.00158196      -0.00250304 </v>
   <v>       0.00002255       0.00020820      -0.00099403 </v>
   <v>       0.00160307       0.00155105      -0.00341210 </v>
   <v>      -0.00183581      -0.00186689      -0.00231111 </v>
   <v>       0.00008673      -0.00032857      -0.00059709 </v>
   <v>       0.00165985      -0.00174516      -0.00275017 </v>
   <v>      -0.00029203       0.00005737      -0.00049950 </v>
   <v>       0.00004567       0.00004292      -0.00052007 </v>
   <v>       0.00027357      -0.00002048      -0.00103835 </v>
   <v>       0.00000088      -0.00000329       0.00498952 </v>
   <v>       0.00050278      -0.00038355       0.00047331 </v>
   <v>      -0.00048675      -0.00084560       0.00433472 </v>
   <v>      -0.00041458       0.00052260       0.00045761 </v>
   <v>       0.00037107       0.00036966       0.00020530 </v>
   <v>      -0.00008578       0.00053114       0.00040958 </v>
   <v>      -0.00087946      -0.00043648       0.00425423 </v>
   <v>       0.00051993      -0.00005393       0.00037835 </v>
   <v>       0.00031779       0.00034898       0.00355802 </v>
   <v>       0.00027700       0.00023387      -0.00208793 </v>
   <v>      -0.00064423       0.00021386      -0.00057005 </v>
   <v>       0.00021401       0.00029615      -0.00067394 </v>
   <v>       0.00026216      -0.00055897      -0.00058445 </v>
   <v>      -0.00051708      -0.00045664      -0.00037226 </v>
   <v>       0.00011952      -0.00051384      -0.00044370 </v>
   <v>       0.00033058       0.00024292      -0.00065472 </v>
   <v>      -0.00058397       0.00015865      -0.00042992 </v>
   <v>       0.00010217       0.00012874      -0.00152447 </v>
   <v>      -0.00092287      -0.00083807       0.03522373 </v>
   <v>      -0.00089342      -0.00030427       0.00049024 </v>
   <v>       0.00160254      -0.00028391      -0.00007857 </v>
   <v>      -0.00036386      -0.00089696       0.00051564 </v>
   <v>       0.00025641       0.00026357       0.00076575 </v>
   <v>       0.00033546      -0.00011256       0.00020316 </v>
   <v>      -0.00035547       0.00159111      -0.00005589 </v>
   <v>      -0.00011135       0.00032218       0.00025262 </v>
   <v>       0.00068277       0.00069431      -0.00047725 </v>
   <v>       0.00179442       0.00178967      -0.00215083 </v>
   <v>       0.00002359       0.00021472      -0.00039437 </v>
   <v>      -0.00178268       0.00176373      -0.00166897 </v>
   <v>       0.00020389       0.00004798      -0.00034347 </v>
   <v>       0.00004798       0.00007006      -0.00022346 </v>
   <v>      -0.00013750       0.00012720      -0.00009998 </v>
   <v>       0.00175423      -0.00173499      -0.00164891 </v>
   <v>       0.00010911      -0.00007981      -0.00013940 </v>
   <v>      -0.00181231      -0.00177388      -0.00129030 </v>
   <v>       0.00753471       0.00761221      -0.10381326 </v>
   <v>      -0.00160795       0.00099393      -0.00137290 </v>
   <v>      -0.00120730       0.00096905      -0.00127091 </v>
   <v>       0.00088420      -0.00152267      -0.00134720 </v>
   <v>      -0.00181216      -0.00176568       0.00002704 </v>
   <v>      -0.00022232      -0.00051164       0.00008289 </v>
   <v>       0.00087371      -0.00109118      -0.00132449 </v>
   <v>      -0.00060323      -0.00016289       0.00003096 </v>
   <v>      -0.00144639      -0.00137875       0.00018990 </v>
   <v>      -0.00047652      -0.00043148       0.00249352 </v>
   <v>       0.00015499      -0.00031541       0.00135245 </v>
   <v>       0.00004014      -0.00026912       0.00132918 </v>
   <v>      -0.00038452       0.00023375       0.00135547 </v>
   <v>       0.00015014       0.00026091       0.00104328 </v>
   <v>      -0.00002605       0.00009393       0.00031134 </v>
   <v>      -0.00032035       0.00017310       0.00130281 </v>
   <v>       0.00000371       0.00010462       0.00030468 </v>
   <v>       0.00005970       0.00018444       0.00093039 </v>
   <v>       0.00425121       0.00432482      -0.00314192 </v>
   <v>      -0.00030026       0.00077620      -0.00011962 </v>
   <v>      -0.00431406       0.00493154      -0.00035302 </v>
   <v>       0.00069951      -0.00022211      -0.00010969 </v>
   <v>      -0.00031446      -0.00025051       0.00038037 </v>
   <v>      -0.00038878      -0.00019575       0.00035380 </v>
   <v>       0.00480909      -0.00422393      -0.00035310 </v>
   <v>      -0.00028318      -0.00032630       0.00034237 </v>
   <v>      -0.00491552      -0.00480965       0.00260534 </v>
   <v>      -0.00070007      -0.00064585       0.00084821 </v>
   <v>       0.00064697      -0.00063171      -0.00010956 </v>
   <v>       0.00003956      -0.00075896       0.00065139 </v>
   <v>      -0.00067521       0.00078101      -0.00007433 </v>
   <v>       0.00061889       0.00070851      -0.00060319 </v>
   <v>       0.00007482       0.00084541       0.00007096 </v>
   <v>      -0.00083651       0.00013957       0.00060607 </v>
   <v>       0.00073063       0.00017222       0.00000946 </v>
   <v>       0.00000816       0.00005914       0.01318135 </v>
  </varray>
  <varray name="stress" >
   <v>      -0.17189277      -0.00063690       0.00004980 </v>
   <v>      -0.00063169      -0.14040876       0.00008435 </v>
   <v>       0.00009178       0.00010054      -0.13041200 </v>
  </varray>
  <energy>
   <i name="e_fr_energy">   -657.90128115 </i>
   <i name="e_wo_entrp">   -657.90128115 </i>
   <i name="e_0_energy">     -0.00000000 </i>
  </energy>
  <time name="totalsc"> 6422.99 6483.24</time>
  <eigenvalues>
   <array>
    <dimension dim="1">band</dimension>
    <dimension dim="2">kpoint</dimension>
    <dimension dim="3">spin</dimension>
    <field>eigene</field>
    <field>occ</field>
    <set>
     <set comment="spin 1">
      <set comment="kpoint 1">
       <r>  -51.1430    1.0000 </r>
       <r>  -51.1422    1.0000 </r>
       <r>  -51.1414    1.0000 </r>
       <r>  -51.1413    1.0000 </r>
       <r>  -51.1408    1.0000 </r>
       <r>  -51.1405    1.0000 </r>
       <r>  -51.1405    1.0000 </r>
       <r>  -51.1403    1.0000 </r>
       <r>  -51.1402    1.0000 </r>
       <r>  -51.1402    1.0000 </r>
       <r>  -51.1400    1.0000 </r>
       <r>  -51.1399    1.0000 </r>
       <r>  -51.1399    1.0000 </r>
       <r>  -51.1398    1.0000 </r>
       <r>  -51.1397    1.0000 </r>
       <r>  -51.1397    1.0000 </r>
       <r>  -51.1396    1.0000 </r>
       <r>  -51.1395    1.0000 </r>
       <r>  -51.1394    1.0000 </r>
       <r>  -51.1393    1.0000 </r>
       <r>  -51.1392    1.0000 </r>
       <r>  -51.1391    1.0000 </r>
       <r>  -51.1391    1.0000 </r>
       <r>  -51.1390    1.0000 </r>
       <r>  -51.1389    1.0000 </r>
       <r>  -51.1389    1.0000 </r>
       <r>  -51.1388    1.0000 </r>
       <r>  -51.1387    1.0000 </r>
       <r>  -51.1386    1.0000 </r>
       <r>  -51.1386    1.0000 </r>
       <r>  -51.1384    1.0000 </r>
       <r>  -51.1383    1.0000 </r>
       <r>  -51.1383    1.0000 </r>
       <r>  -51.1382    1.0000 </r>
       <r>  -51.1380    1.0000 </r>
       <r>  -51.1328    1.0000 </r>
       <r>  -49.6572    1.0000 </r>
       <r>  -49.6567    1.0000 </r>
       <r>  -49.6564    1.0000 </r>
       <r>  -49.6561    1.0000 </r>
       <r>  -49.6557    1.0000 </r>
       <r>  -49.6555    1.0000 </r>
       <r>  -49.6553    1.0000 </r>
       <r>  -49.6553    1.0000 </r>
       <r>  -49.6550    1.0000 </r>
       <r>  -49.6550    1.0000 </r>
       <r>  -49.6549    1.0000 </r>
       <r>  -49.6548    1.0000 </r>
       <r>  -49.6548    1.0000 </r>
       <r>  -49.6547    1.0000 </r>
       <r>  -49.6547    1.0000 </r>
       <r>  -49.6546    1.0000 </r>
       <r>  -49.6546    1.0000 </r>
       <r>  -49.6544    1.0000 </r>
       <r>  -49.6544    1.0000 </r>
       <r>  -49.6543    1.0000 </r>
       <r>  -49.6543    1.0000 </r>
       <r>  -49.6543    1.0000 </r>
       <r>  -49.6542    1.0000 </r>
       <r>  -49.6541    1.0000 </r>
       <r>  -49.6540    1.0000 </r>
       <r>  -49.6540    1.0000 </r>
       <r>  -49.6539    1.0000 </r>
       <r>  -49.6539    1.0000 </r>
       <r>  -49.6539    1.0000 </r>
       <r>  -49.6537    1.0000 </r>
       <r>  -49.6537    1.0000 </r>
       <r>  -49.6536    1.0000 </r>
       <r>  -49.6535    1.0000 </r>
       <r>  -49.6535    1.0000 </r>
       <r>  -49.6534    1.0000 </r>
       <r>  -49.6534    1.0000 </r>
       <r>  -49.6533    1.0000 </r>
       <r>  -49.6532    1.0000 </r>
       <r>  -49.6531    1.0000 </r>
       <r>  -49.6529    1.0000 </r>
       <r>  -49.6529    1.0000 </r>
       <r>  -49.6529    1.0000 </r>
       <r>  -49.6528    1.0000 </r>
       <r>  -49.6528    1.0000 </r>
       <r>  -49.6527    1.0000 </r>
       <r>  -49.6527    1.0000 </r>
       <r>  -49.6526    1.0000 </r>
       <r>  -49.6526    1.0000 </r>
       <r>  -49.6525    1.0000 </r>
       <r>  -49.6524    1.0000 </r>
       <r>  -49.6524    1.0000 </r>
       <r>  -49.6523    1.0000 </r>
       <r>  -49.6522    1.0000 </r>
       <r>  -49.6522    1.0000 </r>
       <r>  -49.6521    1.0000 </r>
       <r>  -49.6520    1.0000 </r>
       <r>  -49.6519    1.0000 </r>
       <r>  -49.6519    1.0000 </r>
       <r>  -49.6518    1.0000 </r>
       <r>  -49.6518    1.0000 </r>
       <r>  -49.6518    1.0000 </r>
       <r>  -49.6517    1.0000 </r>
       <r>  -49.6517    1.0000 </r>
       <r>  -49.6517    1.0000 </r>
       <r>  -49.6516    1.0000 </r>
       <r>  -49.6515    1.0000 </r>
       <r>  -49.6511    1.0000 </r>
       <r>  -49.6509    1.0000 </r>
       <r>  -49.6509    1.0000 </r>
       <r>  -49.6507    1.0000 </r>
       <r>  -49.6483    1.0000 </r>
       <r>  -49.6466    1.0000 </r>
       <r>  -39.6388    1.0000 </r>
       <r>  -39.6366    1.0000 </r>
       <r>  -39.6257    1.0000 </r>
       <r>  -39.6252    1.0000 </r>
       <r>  -39.6252    1.0000 </r>
       <r>  -39.6248    1.0000 </r>
       <r>  -39.6237    1.0000 </r>
       <r>  -39.6235    1.0000 </r>
       <r>  -39.6234    1.0000 </r>
       <r>  -39.6215    1.0000 </r>
       <r>  -39.6183    1.0000 </r>
       <r>  -39.6182    1.0000 </r>
       <r>  -39.6179    1.0000 </r>
       <r>  -39.6177    1.0000 </r>
       <r>  -39.6170    1.0000 </r>
       <r>  -39.6152    1.0000 </r>
       <r>  -39.6151    1.0000 </r>
       <r>  -39.6143    1.0000 </r>
       <r>  -39.6054    1.0000 </r>
       <r>  -39.6053    1.0000 </r>
       <r>  -39.6053    1.0000 </r>
       <r>  -39.6048    1.0000 </r>
       <r>  -39.6042    1.0000 </r>
       <r>  -39.6033    1.0000 </r>
       <r>  -39.6021    1.0000 </r>
       <r>  -39.6021    1.0000 </r>
       <r>  -39.5997    1.0000 </r>
       <r>  -39.5992    1.0000 </r>
       <r>  -39.5992    1.0000 </r>
       <r>  -39.5990    1.0000 </r>
       <r>  -39.5978    1.0000 </r>
       <r>  -39.5963    1.0000 </r>
       <r>  -39.5961    1.0000 </r>
       <r>  -39.5948    1.0000 </r>
       <r>  -39.5870    1.0000 </r>
       <r>  -39.5837    1.0000 </r>
       <r>  -12.7557    1.0000 </r>
       <r>  -12.7551    1.0000 </r>
       <r>  -12.7546    1.0000 </r>
       <r>  -12.7541    1.0000 </r>
       <r>  -12.7534    1.0000 </r>
       <r>  -12.7528    1.0000 </r>
       <r>  -12.7525    1.0000 </r>
       <r>  -12.7439    1.0000 </r>
       <r>  -12.7081    1.0000 </r>
       <r>  -12.7080    1.0000 </r>
       <r>  -12.7076    1.0000 </r>
       <r>  -12.7074    1.0000 </r>
       <r>  -12.7052    1.0000 </r>
       <r>  -12.7051    1.0000 </r>
       <r>  -12.7049    1.0000 </r>
       <r>  -12.6923    1.0000 </r>
       <r>  -12.6718    1.0000 </r>
       <r>  -12.6590    1.0000 </r>
       <r>   -7.7611    1.0000 </r>
       <r>   -7.7177    1.0000 </r>
       <r>   -7.3299    1.0000 </r>
       <r>   -7.3282    1.0000 </r>
       <r>   -7.3280    1.0000 </r>
       <r>   -7.3280    1.0000 </r>
       <r>   -7.3003    1.0000 </r>
       <r>   -7.2986    1.0000 </r>
       <r>   -7.2985    1.0000 </r>
       <r>   -7.2982    1.0000 </r>
       <r>   -7.1020    1.0000 </r>
       <r>   -7.1011    1.0000 </r>
       <r>   -7.0880    1.0000 </r>
       <r>   -7.0874    1.0000 </r>
       <r>   -7.0817    1.0000 </r>
       <r>   -7.0439    1.0000 </r>
       <r>   -7.0428    1.0000 </r>
       <r>   -7.0220    1.0000 </r>
       <r>   -6.9932    1.0000 </r>
       <r>   -6.9924    1.0000 </r>
       <r>   -6.9504    1.0000 </r>
       <r>   -6.9486    1.0000 </r>
       <r>   -6.9484    1.0000 </r>
       <r>   -6.9481    1.0000 </r>
       <r>   -6.9194    1.0000 </r>
       <r>   -6.9187    1.0000 </r>
       <r>   -6.8820    1.0000 </r>
       <r>   -6.8807    1.0000 </r>
       <r>   -6.8806    1.0000 </r>
       <r>   -6.8805    1.0000 </r>
       <r>   -6.8580    1.0000 </r>
       <r>   -6.8569    1.0000 </r>
       <r>   -6.7925    1.0000 </r>
       <r>   -6.7918    1.0000 </r>
       <r>   -6.7688    1.0000 </r>
       <r>   -6.7681    1.0000 </r>
       <r>   -1.5482    1.0000 </r>
       <r>   -1.4785    1.0000 </r>
       <r>   -1.4784    1.0000 </r>
       <r>   -1.4783    1.0000 </r>
       <r>   -1.4752    1.0000 </r>
       <r>   -1.3843    1.0000 </r>
       <r>   -1.3831    1.0000 </r>
       <r>   -1.3766    1.0000 </r>
       <r>   -1.3765    1.0000 </r>
       <r>   -1.3764    1.0000 </r>
       <r>   -1.3730    1.0000 </r>
[...]
       <r>   -37.6072     0.0000   144.0000 </r>
       <r>   -37.3671     0.0000   144.0000 </r>
       <r>   -37.1269     0.0000   144.0000 </r>
       <r>   -36.8868     0.0000   144.0000 </r>
       <r>   -36.6466     0.0000   144.0000 </r>
       <r>   -36.4065     0.0000   144.0000 </r>
       <r>   -36.1663     0.0000   144.0000 </r>
       <r>   -35.9262     0.0000   144.0000 </r>
       <r>   -35.6860     0.0000   144.0000 </r>
       <r>   -35.4459     0.0000   144.0000 </r>
       <r>   -35.2057     0.0000   144.0000 </r>
       <r>   -34.9656     0.0000   144.0000 </r>
       <r>   -34.7254     0.0000   144.0000 </r>
       <r>   -34.4853     0.0000   144.0000 </r>
       <r>   -34.2451     0.0000   144.0000 </r>
       <r>   -34.0050     0.0000   144.0000 </r>
       <r>   -33.7648     0.0000   144.0000 </r>
       <r>   -33.5247     0.0000   144.0000 </r>
       <r>   -33.2845     0.0000   144.0000 </r>
       <r>   -33.0444     0.0000   144.0000 </r>
       <r>   -32.8042     0.0000   144.0000 </r>
       <r>   -32.5641     0.0000   144.0000 </r>
       <r>   -32.3239     0.0000   144.0000 </r>
       <r>   -32.0838     0.0000   144.0000 </r>
       <r>   -31.8436     0.0000   144.0000 </r>
       <r>   -31.6035     0.0000   144.0000 </r>
       <r>   -31.3633     0.0000   144.0000 </r>
       <r>   -31.1232     0.0000   144.0000 </r>
       <r>   -30.8830     0.0000   144.0000 </r>
       <r>   -30.6429     0.0000   144.0000 </r>
       <r>   -30.4027     0.0000   144.0000 </r>
       <r>   -30.1626     0.0000   144.0000 </r>
       <r>   -29.9224     0.0000   144.0000 </r>
       <r>   -29.6823     0.0000   144.0000 </r>
       <r>   -29.4421     0.0000   144.0000 </r>
       <r>   -29.2020     0.0000   144.0000 </r>
       <r>   -28.9618     0.0000   144.0000 </r>
       <r>   -28.7217     0.0000   144.0000 </r>
       <r>   -28.4815     0.0000   144.0000 </r>
       <r>   -28.2414     0.0000   144.0000 </r>
       <r>   -28.0012     0.0000   144.0000 </r>
       <r>   -27.7611     0.0000   144.0000 </r>
       <r>   -27.5209     0.0000   144.0000 </r>
       <r>   -27.2808     0.0000   144.0000 </r>
       <r>   -27.0406     0.0000   144.0000 </r>
       <r>   -26.8005     0.0000   144.0000 </r>
       <r>   -26.5603     0.0000   144.0000 </r>
       <r>   -26.3202     0.0000   144.0000 </r>
       <r>   -26.0800     0.0000   144.0000 </r>
       <r>   -25.8399     0.0000   144.0000 </r>
       <r>   -25.5997     0.0000   144.0000 </r>
       <r>   -25.3596     0.0000   144.0000 </r>
       <r>   -25.1194     0.0000   144.0000 </r>
       <r>   -24.8793     0.0000   144.0000 </r>
       <r>   -24.6391     0.0000   144.0000 </r>
       <r>   -24.3990     0.0000   144.0000 </r>
       <r>   -24.1588     0.0000   144.0000 </r>
       <r>   -23.9187     0.0000   144.0000 </r>
       <r>   -23.6785     0.0000   144.0000 </r>
       <r>   -23.4384     0.0000   144.0000 </r>
       <r>   -23.1982     0.0000   144.0000 </r>
       <r>   -22.9581     0.0000   144.0000 </r>
       <r>   -22.7179     0.0000   144.0000 </r>
       <r>   -22.4778     0.0000   144.0000 </r>
       <r>   -22.2376     0.0000   144.0000 </r>
       <r>   -21.9975     0.0000   144.0000 </r>
       <r>   -21.7573     0.0000   144.0000 </r>
       <r>   -21.5172     0.0000   144.0000 </r>
       <r>   -21.2770     0.0000   144.0000 </r>
       <r>   -21.0369     0.0000   144.0000 </r>
       <r>   -20.7967     0.0000   144.0000 </r>
       <r>   -20.5566     0.0000   144.0000 </r>
       <r>   -20.3164     0.0000   144.0000 </r>
       <r>   -20.0763     0.0000   144.0000 </r>
       <r>   -19.8361     0.0000   144.0000 </r>
       <r>   -19.5960     0.0000   144.0000 </r>
       <r>   -19.3558     0.0000   144.0000 </r>
       <r>   -19.1157     0.0000   144.0000 </r>
       <r>   -18.8755     0.0000   144.0000 </r>
       <r>   -18.6354     0.0000   144.0000 </r>
       <r>   -18.3952     0.0000   144.0000 </r>
       <r>   -18.1551     0.0000   144.0000 </r>
       <r>   -17.9149     0.0000   144.0000 </r>
       <r>   -17.6748     0.0000   144.0000 </r>
       <r>   -17.4346     0.0000   144.0000 </r>
       <r>   -17.1945     0.0000   144.0000 </r>
       <r>   -16.9543     0.0000   144.0000 </r>
       <r>   -16.7142     0.0000   144.0000 </r>
       <r>   -16.4740     0.0000   144.0000 </r>
       <r>   -16.2339     0.0000   144.0000 </r>
       <r>   -15.9937     0.0000   144.0000 </r>
       <r>   -15.7536     0.0000   144.0000 </r>
       <r>   -15.5134     0.0000   144.0000 </r>
       <r>   -15.2733     0.0000   144.0000 </r>
       <r>   -15.0331     0.0000   144.0000 </r>
       <r>   -14.7930     0.0000   144.0000 </r>
       <r>   -14.5528     0.0000   144.0000 </r>
       <r>   -14.3127     0.0000   144.0000 </r>
       <r>   -14.0725     0.0000   144.0000 </r>
       <r>   -13.8324     0.0000   144.0000 </r>
       <r>   -13.5922     0.0000   144.0000 </r>
       <r>   -13.3521     0.0000   144.0000 </r>
       <r>   -13.1119     0.0000   144.0000 </r>
       <r>   -12.8718     0.0000   144.0000 </r>
       <r>   -12.6316     0.0007   144.0002 </r>
       <r>   -12.3915    64.5646   159.5054 </r>
       <r>   -12.1513    10.3878   162.0000 </r>
       <r>   -11.9112     0.0000   162.0000 </r>
       <r>   -11.6710     0.0000   162.0000 </r>
       <r>   -11.4309     0.0000   162.0000 </r>
       <r>   -11.1907     0.0000   162.0000 </r>
       <r>   -10.9506     0.0000   162.0000 </r>
       <r>   -10.7104     0.0000   162.0000 </r>
       <r>   -10.4703     0.0000   162.0000 </r>
       <r>   -10.2301     0.0000   162.0000 </r>
       <r>    -9.9899     0.0000   162.0000 </r>
       <r>    -9.7498     0.0000   162.0000 </r>
       <r>    -9.5096     0.0000   162.0000 </r>
       <r>    -9.2695     0.0000   162.0000 </r>
       <r>    -9.0293     0.0000   162.0000 </r>
       <r>    -8.7892     0.0000   162.0000 </r>
       <r>    -8.5490     0.0000   162.0000 </r>
       <r>    -8.3089     0.0000   162.0000 </r>
       <r>    -8.0687     0.0000   162.0000 </r>
       <r>    -7.8286     0.0000   162.0000 </r>
       <r>    -7.5884     0.1007   162.0242 </r>
       <r>    -7.3483     9.8738   164.3954 </r>
       <r>    -7.1081    17.3385   168.5592 </r>
       <r>    -6.8680    24.1726   174.3643 </r>
       <r>    -6.6278    70.6599   191.3333 </r>
       <r>    -6.3877    27.7517   197.9978 </r>
       <r>    -6.1475     0.0090   198.0000 </r>
       <r>    -5.9074     0.0000   198.0000 </r>
       <r>    -5.6672     0.0000   198.0000 </r>
       <r>    -5.4271     0.0000   198.0000 </r>
       <r>    -5.1869     0.0000   198.0000 </r>
       <r>    -4.9468     0.0000   198.0000 </r>
       <r>    -4.7066     0.0000   198.0000 </r>
       <r>    -4.4665     0.0000   198.0000 </r>
       <r>    -4.2263     0.0000   198.0000 </r>
       <r>    -3.9862     0.0000   198.0000 </r>
       <r>    -3.7460     0.0000   198.0000 </r>
       <r>    -3.5059     0.0000   198.0000 </r>
       <r>    -3.2657     0.0000   198.0000 </r>
       <r>    -3.0256     0.0000   198.0000 </r>
       <r>    -2.7854     0.0000   198.0000 </r>
       <r>    -2.5453     0.0000   198.0000 </r>
       <r>    -2.3051     0.0000   198.0000 </r>
       <r>    -2.0650     0.0000   198.0000 </r>
       <r>    -1.8248     0.0000   198.0000 </r>
       <r>    -1.5847     0.0000   198.0000 </r>
       <r>    -1.3445     0.0000   198.0000 </r>
       <r>    -1.1044     0.0000   198.0000 </r>
       <r>    -0.8642     0.0000   198.0000 </r>
       <r>    -0.6241     0.0000   198.0000 </r>
       <r>    -0.3839     1.3989   198.3359 </r>
       <r>    -0.1438    12.6745   201.3797 </r>
       <r>     0.0964    20.0979   206.2062 </r>
       <r>     0.3365    27.5544   212.8234 </r>
       <r>     0.5767    31.0878   220.2892 </r>
       <r>     0.8168    37.2996   229.2467 </r>
       <r>     1.0570    36.1447   237.9269 </r>
       <r>     1.2971    46.8252   249.1720 </r>
       <r>     1.5373    30.9804   256.6119 </r>
       <r>     1.7774    61.8595   271.4675 </r>
       <r>     2.0176    46.7830   282.7025 </r>
       <r>     2.2577    18.5399   287.1548 </r>
       <r>     2.4979    30.5304   294.4867 </r>
       <r>     2.7380    59.7250   308.8297 </r>
       <r>     2.9782    49.4937   320.7156 </r>
       <r>     3.2183    56.8678   334.3724 </r>
       <r>     3.4585    75.1551   352.4209 </r>
       <r>     3.6986    25.9486   358.6525 </r>
       <r>     3.9388    19.7488   363.3952 </r>
       <r>     4.1789    94.6002   386.1134 </r>
       <r>     4.4191    39.5802   395.6186 </r>
       <r>     4.6592     1.5880   396.0000 </r>
       <r>     4.8994     0.0000   396.0000 </r>
       <r>     5.1395     0.0000   396.0000 </r>
       <r>     5.3797     0.0000   396.0000 </r>
       <r>     5.6198     0.0000   396.0000 </r>
       <r>     5.8600     0.0000   396.0000 </r>
       <r>     6.1001     0.0000   396.0000 </r>
       <r>     6.3403     0.1967   396.0472 </r>
       <r>     6.5804     4.5205   397.1328 </r>
       <r>     6.8206    13.9828   400.4908 </r>
       <r>     7.0607    30.1766   407.7377 </r>
       <r>     7.3009    57.2799   421.4935 </r>
       <r>     7.5410    79.9626   440.6965 </r>
       <r>     7.7812    66.9197   456.7673 </r>
       <r>     8.0213    84.0318   476.9476 </r>
       <r>     8.2615    98.5821   500.6221 </r>
       <r>     8.5016    38.2678   509.8121 </r>
       <r>     8.7418    44.6219   520.5281 </r>
       <r>     8.9819    40.0805   530.1534 </r>
       <r>     9.2221    39.1817   539.5629 </r>
       <r>     9.4622    14.9703   543.1580 </r>
       <r>     9.7024    15.4462   546.8674 </r>
       <r>     9.9425    13.1262   550.0197 </r>
       <r>    10.1827    26.0918   556.2857 </r>
       <r>    10.4228    21.8894   561.5424 </r>
       <r>    10.6630    27.9313   568.2501 </r>
       <r>    10.9031    24.7287   574.1887 </r>
       <r>    11.1433    24.8456   580.1554 </r>
       <r>    11.3834    20.5790   585.0974 </r>
       <r>    11.6236    24.3173   590.9373 </r>
       <r>    11.8637    26.9115   597.4001 </r>
       <r>    12.1039    26.4750   603.7580 </r>
       <r>    12.3440    36.2511   612.4638 </r>
       <r>    12.5842    38.4437   621.6960 </r>
       <r>    12.8243    46.4341   632.8472 </r>
       <r>    13.0645    35.2723   641.3179 </r>
       <r>    13.3046    30.3627   648.6095 </r>
       <r>    13.5448    48.1471   660.1720 </r>
       <r>    13.7849    38.4185   669.3982 </r>
       <r>    14.0251    20.7266   674.3757 </r>
       <r>    14.2652    18.0927   678.7207 </r>
       <r>    14.5054     5.3273   680.0000 </r>
       <r>    14.7455     0.0000   680.0000 </r>
       <r>    14.9857     0.0000   680.0000 </r>
       <r>    15.2258     0.0000   680.0000 </r>
       <r>    15.4660     0.0000   680.0000 </r>
       <r>    15.7061     0.0000   680.0000 </r>
       <r>    15.9463     0.0000   680.0000 </r>
       <r>    16.1864     0.0000   680.0000 </r>
       <r>    16.4266     0.0000   680.0000 </r>
       <r>    16.6667     0.0000   680.0000 </r>
       <r>    16.9069     0.0000   680.0000 </r>
       <r>    17.1470     0.0000   680.0000 </r>
       <r>    17.3872     0.0000   680.0000 </r>
       <r>    17.6273     0.0000   680.0000 </r>
      </set>
     </set>
    </array>
   </total>
  </dos>
 </calculation>
 <structure name="finalpos" >
  <crystal>
   <varray name="basis" >
    <v>      11.57658324       0.00206628      -0.00954291 </v>
    <v>      -0.00198552      11.57659983      -0.00954294 </v>
    <v>      -3.84767942      -3.84903072      12.76635918 </v>
   </varray>
   <i name="volume">   1710.06494320 </i>
   <varray name="rec_basis" >
    <v>       0.08640274       0.00003629       0.02605204 </v>
    <v>       0.00000605       0.08640263       0.02605204 </v>
    <v>       0.00006459       0.00006461       0.07836982 </v>
   </varray>
  </crystal>
  <varray name="positions" >
   <v>       0.14940024       0.01727802       0.00000711 </v>
   <v>       0.48273357       0.01727802       0.00000711 </v>
   <v>       0.81606690       0.01727802       0.00000711 </v>
   <v>       0.14940024       0.35061135       0.00000711 </v>
   <v>       0.48273357       0.35061135       0.00000711 </v>
   <v>       0.81606690       0.35061135       0.00000711 </v>
   <v>       0.14940024       0.68394468       0.00000711 </v>
   <v>       0.48273357       0.68394468       0.00000711 </v>
   <v>       0.81606690       0.68394468       0.00000711 </v>
   <v>       0.14940024       0.01727802       0.50000711 </v>
   <v>       0.48273357       0.01727802       0.50000711 </v>
   <v>       0.81606690       0.01727802       0.50000711 </v>
   <v>       0.14940024       0.35061135       0.50000711 </v>
   <v>       0.48273357       0.35061135       0.50000711 </v>
   <v>       0.81606690       0.35061135       0.50000711 </v>
   <v>       0.14940024       0.68394468       0.50000711 </v>
   <v>       0.48273357       0.68394468       0.50000711 </v>
   <v>       0.81606690       0.68394468       0.50000711 </v>
   <v>       0.31605532       0.18393310       0.49999289 </v>
   <v>       0.64938865       0.18393310       0.49999289 </v>
   <v>       0.98272198       0.18393310       0.49999289 </v>
   <v>       0.31605532       0.51726643       0.49999289 </v>
   <v>       0.64938865       0.51726643       0.49999289 </v>
   <v>       0.98272198       0.51726643       0.49999289 </v>
   <v>       0.31605532       0.85059976       0.49999289 </v>
   <v>       0.64938865       0.85059976       0.49999289 </v>
   <v>       0.98272198       0.85059976       0.49999289 </v>
   <v>       0.31605532       0.18393310       0.99999289 </v>
   <v>       0.64938865       0.18393310       0.99999289 </v>
   <v>       0.98272198       0.18393310       0.99999289 </v>
   <v>       0.31605532       0.51726643       0.99999289 </v>
   <v>       0.64938865       0.51726643       0.99999289 </v>
   <v>       0.98272198       0.51726643       0.99999289 </v>
   <v>       0.31605532       0.85059976       0.99999289 </v>
   <v>       0.64938865       0.85059976       0.99999289 </v>
   <v>       0.98272198       0.85059976       0.99999289 </v>
   <v>       0.31606288       0.01727079       0.00000000 </v>
   <v>       0.64939621       0.01727079       0.00000000 </v>
   <v>       0.98272954       0.01727079       0.00000000 </v>
   <v>       0.31606288       0.35060413       0.00000000 </v>
   <v>       0.64939621       0.35060413       0.00000000 </v>
   <v>       0.98272954       0.35060413       0.00000000 </v>
   <v>       0.31606288       0.68393746       0.00000000 </v>
   <v>       0.64939621       0.68393746       0.00000000 </v>
   <v>       0.98272954       0.68393746       0.00000000 </v>
   <v>       0.31606288       0.01727079       0.50000000 </v>
   <v>       0.64939621       0.01727079       0.50000000 </v>
   <v>       0.98272954       0.01727079       0.50000000 </v>
   <v>       0.31606288       0.35060413       0.50000000 </v>
   <v>       0.64939621       0.35060413       0.50000000 </v>
   <v>       0.98272954       0.35060413       0.50000000 </v>
   <v>       0.31606288       0.68393746       0.50000000 </v>
   <v>       0.64939621       0.68393746       0.50000000 </v>
   <v>       0.98272954       0.68393746       0.50000000 </v>
   <v>       0.19934057       0.23388678       0.14983771 </v>
   <v>       0.53267391       0.23388678       0.14983771 </v>
   <v>       0.86600724       0.23388678       0.14983771 </v>
   <v>       0.19934057       0.56722011       0.14983771 </v>
   <v>       0.53267391       0.56722011       0.14983771 </v>
   <v>       0.86600724       0.56722011       0.14983771 </v>
   <v>       0.19934057       0.90055344       0.14983771 </v>
   <v>       0.53267391       0.90055344       0.14983771 </v>
   <v>       0.86600724       0.90055344       0.14983771 </v>
   <v>       0.19934057       0.23388678       0.64983771 </v>
   <v>       0.53267391       0.23388678       0.64983771 </v>
   <v>       0.86600724       0.23388678       0.64983771 </v>
   <v>       0.19934057       0.56722011       0.64983771 </v>
   <v>       0.53267391       0.56722011       0.64983771 </v>
   <v>       0.86600724       0.56722011       0.64983771 </v>
   <v>       0.19934057       0.90055344       0.64983771 </v>
   <v>       0.53267391       0.90055344       0.64983771 </v>
   <v>       0.86600724       0.90055344       0.64983771 </v>
   <v>       0.09944656       0.13399276       0.35016229 </v>
   <v>       0.43277989       0.13399276       0.35016229 </v>
   <v>       0.76611322       0.13399276       0.35016229 </v>
   <v>       0.09944656       0.46732609       0.35016229 </v>
   <v>       0.43277989       0.46732609       0.35016229 </v>
   <v>       0.76611322       0.46732609       0.35016229 </v>
   <v>       0.09944656       0.80065943       0.35016229 </v>
   <v>       0.43277989       0.80065943       0.35016229 </v>
   <v>       0.76611322       0.80065943       0.35016229 </v>
   <v>       0.09944656       0.13399276       0.85016229 </v>
   <v>       0.43277989       0.13399276       0.85016229 </v>
   <v>       0.76611322       0.13399276       0.85016229 </v>
   <v>       0.09944656       0.46732609       0.85016229 </v>
   <v>       0.43277989       0.46732609       0.85016229 </v>
   <v>       0.76611322       0.46732609       0.85016229 </v>
   <v>       0.09944656       0.80065943       0.85016229 </v>
   <v>       0.43277989       0.80065943       0.85016229 </v>
   <v>       0.76611322       0.80065943       0.85016229 </v>
   <v>       0.03603208       0.07057630       0.16062094 </v>
   <v>       0.36936541       0.07057630       0.15990037 </v>
   <v>       0.70269875       0.07057630       0.15990037 </v>
   <v>       0.03603208       0.40390964       0.15990037 </v>
   <v>       0.36936541       0.40390964       0.15990037 </v>
   <v>       0.70269875       0.40390964       0.15990037 </v>
   <v>       0.03603208       0.73724297       0.15990037 </v>
   <v>       0.36936541       0.73724297       0.15990037 </v>
   <v>       0.70269875       0.73724297       0.15990037 </v>
   <v>       0.03603208       0.07057630       0.65990037 </v>
   <v>       0.36936541       0.07057630       0.65990037 </v>
   <v>       0.70269875       0.07057630       0.65990037 </v>
   <v>       0.03603208       0.40390964       0.65990037 </v>
   <v>       0.36936541       0.40390964       0.65990037 </v>
   <v>       0.70269875       0.40390964       0.65990037 </v>
   <v>       0.03603208       0.73724297       0.65990037 </v>
   <v>       0.36936541       0.73724297       0.65990037 </v>
   <v>       0.70269875       0.73724297       0.65990037 </v>
   <v>       0.26275703       0.29730125       0.34009963 </v>
   <v>       0.59609036       0.29730125       0.34009963 </v>
   <v>       0.92942370       0.29730125       0.34009963 </v>
   <v>       0.26275703       0.63063459       0.34009963 </v>
   <v>       0.59609036       0.63063459       0.34009963 </v>
   <v>       0.92942370       0.63063459       0.34009963 </v>
   <v>       0.26275703       0.96396792       0.34009963 </v>
   <v>       0.59609036       0.96396792       0.34009963 </v>
   <v>       0.92942370       0.96396792       0.34009963 </v>
   <v>       0.26275703       0.29730125       0.84009963 </v>
   <v>       0.59609036       0.29730125       0.84009963 </v>
   <v>       0.92942370       0.29730125       0.84009963 </v>
   <v>       0.26275703       0.63063459       0.84009963 </v>
   <v>       0.59609036       0.63063459       0.84009963 </v>
   <v>       0.92942370       0.63063459       0.84009963 </v>
   <v>       0.26275703       0.96396792       0.84009963 </v>
   <v>       0.59609036       0.96396792       0.84009963 </v>
   <v>       0.92942370       0.96396792       0.84009963 </v>
  </varray>
 </structure>
</modeling>
