   95   95   60    2
  0.1340737E+02  0.1119672E-08  0.1119672E-08  0.1055337E-08  0.5000000E-15
   1.0000000000000000E-004
  CAR 
 unknown system                          
    668      8    488

  0.1262379E-14  0.1262379E-14  0.1262379E-14  0.1250000E+00
    1      -51.729079    -46.982347   1.000000   1.000000
    2      -51.726608    -46.978947   1.000000   1.000000
    3      -51.717662    -46.971904   1.000000   1.000000
    4      -51.711510    -46.969173   1.000000   1.000000
    5      -51.710956    -46.967156   1.000000   1.000000
    6      -51.682974    -46.948882   1.000000   1.000000
    7      -51.676197    -46.938578   1.000000   1.000000
    8      -51.662114    -46.936485   1.000000   1.000000
    9      -51.621920    -46.935340   1.000000   1.000000
   10      -51.615963    -46.932877   1.000000   1.000000
   11      -51.611152    -46.930890   1.000000   1.000000
   12      -51.609414    -46.924941   1.000000   1.000000
   13      -51.607484    -46.918451   1.000000   1.000000
   14      -51.601693    -46.910570   1.000000   1.000000
   15      -51.587788    -46.855777   1.000000   1.000000
   16      -51.567674    -46.844293   1.000000   1.000000
   17      -51.555473    -46.840971   1.000000   1.000000
   18      -51.554032    -46.828876   1.000000   1.000000
   19      -51.553725    -46.817584   1.000000   1.000000
   20      -51.533342    -46.817354   1.000000   1.000000
   21      -51.533063    -46.815772   1.000000   1.000000
   22      -51.527348    -46.798078   1.000000   1.000000
   23      -51.526146    -46.796366   1.000000   1.000000
   24      -51.525340    -46.788049   1.000000   1.000000
   25      -50.299976    -46.526708   1.000000   1.000000
   26      -50.278259    -46.521053   1.000000   1.000000
   27      -50.277651    -46.517872   1.000000   1.000000
   28      -50.276858    -46.517088   1.000000   1.000000
   29      -50.274717    -46.511980   1.000000   1.000000
   30      -50.271982    -46.504443   1.000000   1.000000
   31      -50.208110    -46.503382   1.000000   1.000000
   32      -50.197216    -46.500299   1.000000   1.000000
   33      -50.196463    -46.484500   1.000000   1.000000
   34      -50.195014    -46.478837   1.000000   1.000000
   35      -50.166708    -46.472848   1.000000   1.000000
   36      -50.164037    -46.471635   1.000000   1.000000
   37      -50.160807    -46.470238   1.000000   1.000000
   38      -50.160487    -46.468254   1.000000   1.000000
   39      -50.153146    -46.467519   1.000000   1.000000
   40      -50.149642    -46.466327   1.000000   1.000000
   41      -50.149079    -46.459577   1.000000   1.000000
   42      -50.146011    -46.456961   1.000000   1.000000
   43      -50.142690    -46.453792   1.000000   1.000000
   44      -50.141904    -46.449715   1.000000   1.000000
   45      -50.138686    -46.444702   1.000000   1.000000
   46      -50.128645    -46.444516   1.000000   1.000000
   47      -50.124603    -46.441313   1.000000   1.000000
   48      -50.124248    -46.437980   1.000000   1.000000
   49      -50.122102    -46.435649   1.000000   1.000000
   50      -50.110354    -46.435139   1.000000   1.000000
   51      -50.109631    -46.430911   1.000000   1.000000
   52      -50.108828    -46.429255   1.000000   1.000000
   53      -50.105056    -46.426295   1.000000   1.000000
   54      -50.102942    -46.414507   1.000000   1.000000
   55      -50.099024    -46.413340   1.000000   1.000000
   56      -50.098769    -46.407590   1.000000   1.000000
   57      -50.097984    -46.407429   1.000000   1.000000
   58      -50.095713    -46.398581   1.000000   1.000000
   59      -50.094143    -46.397372   1.000000   1.000000
   60      -50.091737    -46.396376   1.000000   1.000000
   61      -50.083621    -46.392046   1.000000   1.000000
   62      -50.082919    -46.386596   1.000000   1.000000
   63      -50.081563    -46.383172   1.000000   1.000000
   64      -50.079166    -46.380734   1.000000   1.000000
   65      -50.076484    -46.378989   1.000000   1.000000
   66      -50.067369    -46.377169   1.000000   1.000000
   67      -50.064728    -46.369255   1.000000   1.000000
   68      -50.051781    -46.368353   1.000000   1.000000
   69      -50.048275    -46.358167   1.000000   1.000000
   70      -50.029717    -46.354533   1.000000   1.000000
   71      -50.023938    -46.352509   1.000000   1.000000
   72      -50.013881    -46.346226   1.000000   1.000000
   73      -40.606830    -40.600727   1.000000   1.000000
   74      -40.596052    -40.589990   1.000000   1.000000
   75      -40.595228    -40.588701   1.000000   1.000000
   76      -40.584272    -40.578101   1.000000   1.000000
   77      -40.570093    -40.564318   1.000000   1.000000
   78      -40.564885    -40.558249   1.000000   1.000000
   79      -40.560768    -40.554859   1.000000   1.000000
   80      -40.375544    -40.375468   1.000000   1.000000
   81      -40.332112    -40.331629   1.000000   1.000000
   82      -40.321017    -40.320565   1.000000   1.000000
   83      -40.319495    -40.319499   1.000000   1.000000
   84      -40.317903    -40.318008   1.000000   1.000000
   85      -40.280518    -40.280223   1.000000   1.000000
   86      -40.276590    -40.276417   1.000000   1.000000
   87      -40.178077    -40.180192   1.000000   1.000000
   88      -40.161417    -40.163178   1.000000   1.000000
   89      -40.135643    -40.137586   1.000000   1.000000
   90      -40.126620    -40.128561   1.000000   1.000000
   91      -40.125209    -40.127486   1.000000   1.000000
   92      -40.124869    -40.126598   1.000000   1.000000
   93      -40.104660    -40.106408   1.000000   1.000000
   94      -40.098088    -40.100175   1.000000   1.000000
   95      -40.090722    -40.090081   1.000000   1.000000
   96      -40.082423    -40.081638   1.000000   1.000000
   97      -40.080867    -40.080087   1.000000   1.000000
   98      -40.068631    -40.067859   1.000000   1.000000
   99      -40.058857    -40.057922   1.000000   1.000000
  100      -40.051102    -40.048973   1.000000   1.000000
  101      -40.035131    -40.034401   1.000000   1.000000
  102      -40.027350    -40.026601   1.000000   1.000000
  103      -39.956844    -39.956152   1.000000   1.000000
  104      -13.855404    -13.489772   1.000000   1.000000
  105      -13.824715    -13.456345   1.000000   1.000000
  106      -13.715244    -13.392623   1.000000   1.000000
  107      -13.711299    -13.388680   1.000000   1.000000
  108      -13.692234    -13.368791   1.000000   1.000000
  109      -13.673326    -13.346110   1.000000   1.000000
  110      -13.564047    -13.289822   1.000000   1.000000
  111      -13.532974    -13.256040   1.000000   1.000000
  112      -13.379240    -13.131389   1.000000   1.000000
  113      -13.251035    -13.030039   1.000000   1.000000
  114      -13.233798    -13.029876   1.000000   1.000000
  115      -13.230921    -13.012485   1.000000   1.000000
  116      -13.124403    -12.930580   1.000000   1.000000
  117      -13.075947    -12.924337   1.000000   1.000000
  118      -13.073600    -12.883762   1.000000   1.000000
  119      -12.887887    -12.689353   1.000000   1.000000
  120       -7.890049     -7.705347   1.000000   1.000000
  121       -7.651365     -7.493952   1.000000   1.000000
  122       -7.645648     -7.480811   1.000000   1.000000
  123       -7.633547     -7.467502   1.000000   1.000000
  124       -7.499185     -7.343424   1.000000   1.000000
  125       -7.480008     -7.328797   1.000000   1.000000
  126       -7.457537     -7.313460   1.000000   1.000000
  127       -7.437136     -7.289648   1.000000   1.000000
  128       -7.410075     -7.214520   1.000000   1.000000
  129       -7.364534     -7.206204   1.000000   1.000000
  130       -7.356167     -7.192557   1.000000   1.000000
  131       -7.329011     -7.179084   1.000000   1.000000
  132       -7.314910     -7.127381   1.000000   1.000000
  133       -7.266463     -7.091387   1.000000   1.000000
  134       -7.259487     -7.085749   1.000000   1.000000
  135       -7.227786     -7.078025   1.000000   1.000000
  136       -7.217704     -7.053553   1.000000   1.000000
  137       -7.205998     -7.048898   1.000000   1.000000
  138       -7.174239     -7.028952   1.000000   1.000000
  139       -7.167837     -6.985071   1.000000   1.000000
  140       -7.141583     -6.960606   1.000000   1.000000
  141       -7.134957     -6.941642   1.000000   1.000000
  142       -7.117103     -6.917494   1.000000   1.000000
  143       -6.979342     -6.776423   1.000000   1.000000
  144       -2.720836     -1.267933   1.000000   1.000000
  145       -2.682837     -1.023340   1.000000   1.000000
  146       -2.399754     -0.912048   1.000000   1.000000
  147       -2.263536     -0.592037   1.000000   1.000000
  148       -1.979832     -0.521100   1.000000   1.000000
  149       -1.966415     -0.516408   1.000000   1.000000
  150       -1.928421     -0.462355   1.000000   1.000000
  151       -1.926062     -0.457901   1.000000   1.000000
  152       -1.893219     -0.353523   1.000000   1.000000
  153       -1.814937     -0.326666   1.000000   1.000000
  154       -1.589007     -0.248084   1.000000   1.000000
  155       -1.587754     -0.239175   1.000000   1.000000
  156       -1.567873     -0.192940   1.000000   1.000000
  157       -1.536712     -0.151739   1.000000   1.000000
  158       -1.528778     -0.107097   1.000000   1.000000
  159       -1.494609     -0.084391   1.000000   1.000000
  160       -1.484358     -0.045772   1.000000   1.000000
  161       -1.476994     -0.031673   1.000000   1.000000
  162       -1.462121      0.055098   1.000000   1.000000
  163       -1.449708      0.105447   1.000000   1.000000
  164       -1.435772      0.110367   1.000000   1.000000
  165       -1.303569      0.116256   1.000000   1.000000
  166       -1.225345      0.233602   1.000000   1.000000
  167       -1.223600      0.343125   1.000000   1.000000
  168       -1.217391      0.368218   1.000000   1.000000
  169       -1.189956      0.397458   1.000000   1.000000
  170       -1.182595      0.402889   1.000000   1.000000
  171       -1.150387      0.404931   1.000000   1.000000
  172       -1.108930      0.436993   1.000000   1.000000
  173       -1.093257      0.447309   1.000000   1.000000
  174       -1.088674      0.587548   1.000000   1.000000
  175       -1.060020      0.603945   1.000000   1.000000
  176       -1.039660      0.623140   1.000000   1.000000
  177       -0.981623      0.635310   1.000000   1.000000
  178       -0.965531      0.654312   1.000000   1.000000
  179       -0.931284      0.705022   1.000000   1.000000
  180       -0.929279      0.777016   1.000000   1.000000
  181       -0.923354      0.779172   1.000000   1.000000
  182       -0.916335      0.805794   1.000000   1.000000
  183       -0.865078      0.841293   1.000000   1.000000
  184       -0.861403      0.848390   1.000000   1.000000
  185       -0.850628      0.857396   1.000000   1.000000
  186       -0.843717      0.884594   1.000000   1.000000
  187       -0.804687      0.888503   1.000000   1.000000
  188       -0.792461      0.901479   1.000000   1.000000
  189       -0.786503      0.951715   1.000000   1.000000
  190       -0.780984      0.967691   1.000000   1.000000
  191       -0.775168      0.986890   1.000000   1.000000
  192       -0.766071      1.039994   1.000000   1.000000
  193       -0.762215      1.062218   1.000000   1.000000
  194       -0.719619      1.104700   1.000000   1.000000
  195       -0.713178      1.172284   1.000000   1.000000
  196       -0.710102      1.186627   1.000000   1.000000
  197       -0.652801      1.194780   1.000000   1.000000
  198       -0.617196      1.206337   1.000000   1.000000
  199       -0.610797      1.236182   1.000000   1.000000
  200       -0.593678      1.254584   1.000000   1.000000
  201       -0.585125      1.278702   1.000000   1.000000
  202       -0.579478      1.286343   1.000000   1.000000
  203       -0.574680      1.301995   1.000000   1.000000
  204       -0.568733      1.402365   1.000000   1.000000
  205       -0.545687      1.454811   1.000000   1.000000
  206       -0.528940      1.468961   1.000000   1.000000
  207       -0.513265      1.497806   1.000000   1.000000
  208       -0.464505      1.576158   1.000000   1.000000
  209       -0.454317      1.589710   1.000000   1.000000
  210       -0.436009      1.674985   1.000000   1.000000
  211       -0.400285      1.684246   1.000000   1.000000
  212       -0.384916      1.710233   1.000000   1.000000
  213       -0.365761      1.721563   1.000000   1.000000
  214       -0.340122      1.770937   1.000000   1.000000
  215       -0.333236      1.805642   1.000000   1.000000
  216       -0.317282      1.827490   1.000000   1.000000
  217       -0.310818      1.838964   1.000000   1.000000
  218       -0.294613      1.923645   1.000000   1.000000
  219       -0.293113      1.973199   1.000000   1.000000
  220       -0.272263      1.981462   1.000000   1.000000
  221       -0.254971      2.116291   1.000000   1.000000
  222       -0.246145      2.144553   1.000000   1.000000
  223       -0.212956      2.195559   1.000000   1.000000
  224       -0.209269      2.251728   1.000000   1.000000
  225       -0.190513      2.265610   1.000000   1.000000
  226       -0.175927      2.316899   1.000000   1.000000
  227       -0.170361      2.326768   1.000000   1.000000
  228       -0.159973      2.341055   1.000000   1.000000
  229       -0.154402      2.382820   1.000000   1.000000
  230       -0.140024      2.408691   1.000000   1.000000
  231       -0.138119      2.487025   1.000000   1.000000
  232       -0.128981      2.546784   1.000000   1.000000
  233       -0.126451      2.577640   1.000000   1.000000
  234       -0.104356      2.603919   1.000000   1.000000
  235       -0.090641      2.631858   1.000000   1.000000
  236       -0.079232      2.660512   1.000000   1.000000
  237       -0.074188      2.677947   1.000000   1.000000
  238       -0.006992      2.721800   1.000000   1.000000
  239        0.103349      2.731395   1.000000   1.000000
  240        0.137427      2.759521   1.000000   1.000000
  241        0.149967      2.774172   1.000000   1.000000
  242        0.166625      2.796690   1.000000   1.000000
  243        0.211069      2.826869   1.000000   1.000000
  244        0.311518      2.843182   1.000000   1.000000
  245        0.332091      2.852404   1.000000   1.000000
  246        0.339365      2.853633   1.000000   1.000000
  247        0.353801      2.871568   1.000000   1.000000
  248        0.392915      2.885431   1.000000   1.000000
  249        0.396378      2.911557   1.000000   1.000000
  250        0.409056      2.917134   1.000000   1.000000
  251        0.418712      2.930913   1.000000   1.000000
  252        0.443931      2.958068   1.000000   1.000000
  253        0.472074      2.973212   1.000000   1.000000
  254        0.487355      3.022885   1.000000   1.000000
  255        0.522420      3.071544   1.000000   1.000000
  256        0.528606      3.075983   1.000000   1.000000
  257        0.681337      3.162539   1.000000   1.000000
  258        0.685974      3.169024   1.000000   1.000000
  259        0.701290      3.212886   1.000000   1.000000
  260        0.710370      3.237790   1.000000   1.000000
  261        0.727373      3.240757   1.000000   1.000000
  262        0.732826      3.316081   1.000000   1.000000
  263        0.782238      3.343578   1.000000   1.000000
  264        0.786949      3.441517   1.000000   1.000000
  265        0.855151      3.484929   1.000000   1.000000
  266        0.871272      3.520295   1.000000   1.000000
  267        0.897039      3.527333   1.000000   1.000000
  268        0.907007      3.565600   1.000000   1.000000
  269        0.912992      3.573972   1.000000   1.000000
  270        0.924130      3.594430   1.000000   1.000000
  271        0.944733      3.607866   1.000000   1.000000
  272        0.957434      3.614648   1.000000   1.000000
  273        1.007666      3.631129   1.000000   1.000000
  274        1.008451      3.650830   1.000000   1.000000
  275        1.056175      3.654084   1.000000   1.000000
  276        1.095689      3.678767   1.000000   1.000000
  277        1.109698      3.690786   1.000000   1.000000
  278        1.132859      3.715261   1.000000   1.000000
  279        1.191724      3.722842   1.000000   1.000000
  280        1.212234      3.737417   1.000000   1.000000
  281        1.252085      3.765654   1.000000   1.000000
  282        1.280439      3.769774   1.000000   1.000000
  283        1.299622      3.777590   1.000000   1.000000
  284        1.339251      3.789658   1.000000   1.000000
  285        1.356318      3.806823   1.000000   1.000000
  286        1.370458      3.812969   1.000000   1.000000
  287        1.394774      3.817764   1.000000   1.000000
  288        1.399390      6.119780   1.000000   0.000000
  289        1.444020      6.237138   1.000000   0.000000
  290        1.449456      6.471704   1.000000   0.000000
  291        1.452909      6.506813   1.000000   0.000000
  292        1.470344      6.534574   1.000000   0.000000
  293        1.483107      6.556924   1.000000   0.000000
  294        1.502453      6.566083   1.000000   0.000000
  295        1.522862      6.579102   1.000000   0.000000
  296        1.530595      6.597359   1.000000   0.000000
  297        1.547204      6.671482   1.000000   0.000000
  298        1.581073      6.749749   1.000000   0.000000
  299        1.594090      6.777342   1.000000   0.000000
  300        1.606994      6.797787   1.000000   0.000000
  301        1.610978      6.849993   1.000000   0.000000
  302        1.628073      6.855520   1.000000   0.000000
  303        1.632426      6.868329   1.000000   0.000000
  304        1.651392      6.883420   1.000000   0.000000
  305        1.674214      6.954305   1.000000   0.000000
  306        1.681832      6.962808   1.000000   0.000000
  307        1.695370      6.976790   1.000000   0.000000
  308        1.725004      6.982953   1.000000   0.000000
  309        1.797764      6.988279   1.000000   0.000000
  310        1.813771      7.041140   1.000000   0.000000
  311        1.884980      7.054902   1.000000   0.000000
  312        1.968203      7.070249   1.000000   0.000000
  313        1.981582      7.100360   1.000000   0.000000
  314        1.994002      7.119953   1.000000   0.000000
  315        2.009508      7.122809   1.000000   0.000000
  316        2.148403      7.162758   1.000000   0.000000
  317        2.174822      7.167533   1.000000   0.000000
  318        2.176988      7.178787   1.000000   0.000000
  319        2.246756      7.182471   1.000000   0.000000
  320        2.339705      7.188642   1.000000   0.000000
  321        2.351864      7.222107   1.000000   0.000000
  322        2.376883      7.227201   1.000000   0.000000
  323        2.396562      7.232198   1.000000   0.000000
  324        2.401464      7.240840   1.000000   0.000000
  325        2.433815      7.248576   1.000000   0.000000
  326        2.470782      7.264783   1.000000   0.000000
  327        2.502473      7.282615   1.000000   0.000000
  328        2.507342      7.291831   1.000000   0.000000
  329        2.535266      7.297332   1.000000   0.000000
  330        2.549388      7.311488   1.000000   0.000000
  331        2.564861      7.325246   1.000000   0.000000
  332        2.571194      7.334618   1.000000   0.000000
  333        2.629781      7.412620   1.000000   0.000000
  334        2.677301      7.514588   1.000000   0.000000
  335        2.762396      7.526459   1.000000   0.000000
  336        2.842753      7.546629   1.000000   0.000000
  337        2.846909      7.554160   1.000000   0.000000
  338        2.877105      7.568318   1.000000   0.000000
  339        2.994381      7.600534   1.000000   0.000000
  340        3.007749      7.611678   1.000000   0.000000
  341        3.009412      7.614610   1.000000   0.000000
  342        3.057747      7.631074   1.000000   0.000000
  343        3.104548      7.642812   1.000000   0.000000
  344        3.148340      7.653331   1.000000   0.000000
  345        3.158761      7.666887   1.000000   0.000000
  346        3.222285      7.701899   1.000000   0.000000
  347        3.224845      7.718255   1.000000   0.000000
  348        3.247651      7.725720   1.000000   0.000000
  349        3.273962      7.763090   1.000000   0.000000
  350        3.309623      7.780515   1.000000   0.000000
  351        3.369622      7.785473   1.000000   0.000000
  352        3.399354      7.793944   1.000000   0.000000
  353        3.432889      7.798394   1.000000   0.000000
  354        3.451381      7.811839   1.000000   0.000000
  355        3.482045      7.825023   1.000000   0.000000
  356        3.507107      7.843414   1.000000   0.000000
  357        3.528312      7.851359   1.000000   0.000000
  358        3.563930      7.891283   1.000000   0.000000
  359        3.581382      7.940477   1.000000   0.000000
  360        3.587923      8.000981   1.000000   0.000000
  361        3.597607      8.043354   1.000000   0.000000
  362        3.636438      8.061215   1.000000   0.000000
  363        3.675811      8.093621   1.000000   0.000000
  364        3.716753      8.174718   1.000000   0.000000
  365        3.784167      8.194445   1.000000   0.000000
  366        3.789758      8.217392   1.000000   0.000000
  367        3.847732      8.234538   1.000000   0.000000
  368        3.884372      8.234702   1.000000   0.000000
  369        3.905569      8.247153   1.000000   0.000000
  370        3.978015      8.283379   1.000000   0.000000
  371        3.985549      8.315060   1.000000   0.000000
  372        4.022103      8.330303   1.000000   0.000000
  373        4.053595      8.342820   1.000000   0.000000
  374        4.062575      8.381969   1.000000   0.000000
  375        4.097729      8.401715   1.000000   0.000000
  376        4.129051      8.452099   1.000000   0.000000
  377        4.145454      8.511721   1.000000   0.000000
  378        4.164808      8.533311   1.000000   0.000000
  379        4.225998      8.540478   1.000000   0.000000
  380        4.407163      8.638601   0.990812   0.000000
  381        4.447832      8.643449   0.887750   0.000000
  382        4.566874      8.658830   0.015780   0.000000
  383        4.591590      8.725320   0.002171   0.000000
  384        7.485302      8.767737   0.000000   0.000000
  385        7.662894      8.915436   0.000000   0.000000
  386        8.206133      9.096881   0.000000   0.000000
  387        8.395794      9.109440   0.000000   0.000000
  388        8.616456      9.247384   0.000000   0.000000
  389        8.674784      9.356719   0.000000   0.000000
  390        8.694713      9.371501   0.000000   0.000000
  391        8.697471      9.576597   0.000000   0.000000
  392        8.704145      9.587506   0.000000   0.000000
  393        8.732129      9.620230   0.000000   0.000000
  394        9.172266      9.680039   0.000000   0.000000
  395        9.204853      9.725859   0.000000   0.000000
  396        9.230770      9.871631   0.000000   0.000000
  397        9.240981     10.004827   0.000000   0.000000
  398        9.283920     10.010440   0.000000   0.000000
  399        9.351096     10.045472   0.000000   0.000000
  400        9.373523     10.118166   0.000000   0.000000
  401        9.411445     10.142731   0.000000   0.000000
  402        9.413517     10.181997   0.000000   0.000000
  403        9.528007     10.225859   0.000000   0.000000
  404        9.610287     10.391639   0.000000   0.000000
  405        9.656217     10.447593   0.000000   0.000000
  406        9.671693     10.521647   0.000000   0.000000
  407        9.748343     10.527839   0.000000   0.000000
  408        9.802599     10.534951   0.000000   0.000000
  409       10.000417     10.575817   0.000000   0.000000
  410       10.030955     10.630542   0.000000   0.000000
  411       10.090937     10.632575   0.000000   0.000000
  412       10.151061     10.750619   0.000000   0.000000
  413       10.177040     10.798195   0.000000   0.000000
  414       10.263673     10.811843   0.000000   0.000000
  415       10.282563     10.818556   0.000000   0.000000
  416       10.305784     10.858972   0.000000   0.000000
  417       10.354741     10.941692   0.000000   0.000000
  418       10.468878     10.955244   0.000000   0.000000
  419       10.557672     11.020737   0.000000   0.000000
  420       10.562492     11.039761   0.000000   0.000000
  421       10.618045     11.102706   0.000000   0.000000
  422       10.636760     11.132781   0.000000   0.000000
  423       10.668208     11.137719   0.000000   0.000000
  424       10.668908     11.228521   0.000000   0.000000
  425       10.670051     11.245381   0.000000   0.000000
  426       10.694421     11.288905   0.000000   0.000000
  427       10.715251     11.315094   0.000000   0.000000
  428       10.723519     11.397305   0.000000   0.000000
  429       10.906504     11.446240   0.000000   0.000000
  430       10.906723     11.529813   0.000000   0.000000
  431       10.910511     11.567882   0.000000   0.000000
  432       10.947972     11.588386   0.000000   0.000000
  433       11.024142     11.630820   0.000000   0.000000
  434       11.119751     11.673264   0.000000   0.000000
  435       11.169775     11.682988   0.000000   0.000000
  436       11.183801     11.733199   0.000000   0.000000
  437       11.204388     11.752609   0.000000   0.000000
  438       11.234871     11.771389   0.000000   0.000000
  439       11.268065     11.805118   0.000000   0.000000
  440       11.290267     11.841983   0.000000   0.000000
  441       11.328309     11.859923   0.000000   0.000000
  442       11.374782     11.870968   0.000000   0.000000
  443       11.410895     11.896395   0.000000   0.000000
  444       11.489920     11.985386   0.000000   0.000000
  445       11.513266     12.038736   0.000000   0.000000
  446       11.519201     12.051725   0.000000   0.000000
  447       11.544276     12.081140   0.000000   0.000000
  448       11.589978     12.132276   0.000000   0.000000
  449       11.637687     12.134937   0.000000   0.000000
  450       11.666820     12.151021   0.000000   0.000000
  451       11.681477     12.168357   0.000000   0.000000
  452       11.693972     12.190373   0.000000   0.000000
  453       11.709885     12.210173   0.000000   0.000000
  454       11.714921     12.240160   0.000000   0.000000
  455       11.748024     12.270743   0.000000   0.000000
  456       11.767919     12.290839   0.000000   0.000000
  457       11.781130     12.360069   0.000000   0.000000
  458       11.783288     12.406314   0.000000   0.000000
  459       11.890626     12.418432   0.000000   0.000000
  460       11.975922     12.452767   0.000000   0.000000
  461       11.994364     12.493758   0.000000   0.000000
  462       12.027906     12.526598   0.000000   0.000000
  463       12.053992     12.539188   0.000000   0.000000
  464       12.130984     12.619862   0.000000   0.000000
  465       12.204183     12.699110   0.000000   0.000000
  466       12.242860     12.787430   0.000000   0.000000
  467       12.273940     12.854581   0.000000   0.000000
  468       12.304927     12.900144   0.000000   0.000000
  469       12.313561     12.962988   0.000000   0.000000
  470       12.348897     12.976165   0.000000   0.000000
  471       12.376602     13.011612   0.000000   0.000000
  472       12.423846     13.027586   0.000000   0.000000
  473       12.473115     13.058739   0.000000   0.000000
  474       12.556562     13.072102   0.000000   0.000000
  475       12.576218     13.101913   0.000000   0.000000
  476       12.610171     13.189439   0.000000   0.000000
  477       12.715305     13.233570   0.000000   0.000000
  478       12.724746     13.294266   0.000000   0.000000
  479       12.827427     13.360459   0.000000   0.000000
  480       12.846686     13.463778   0.000000   0.000000
  481       12.870545     13.501529   0.000000   0.000000
  482       12.937173     13.679049   0.000000   0.000000
  483       13.086753     13.722878   0.000000   0.000000
  484       13.275501     13.794371   0.000000   0.000000
  485       13.353142     13.868044   0.000000   0.000000
  486       13.502855     14.054018   0.000000   0.000000
  487       13.658225     14.177651   0.000000   0.000000
  488       13.686970     14.336677   0.000000   0.000000

  0.5000000E+00  0.1339234E-14  0.1262012E-14  0.1250000E+00
    1      -51.729079    -46.982347   1.000000   1.000000
    2      -51.726607    -46.978946   1.000000   1.000000
    3      -51.717661    -46.971904   1.000000   1.000000
    4      -51.711509    -46.969172   1.000000   1.000000
    5      -51.710955    -46.967155   1.000000   1.000000
    6      -51.682973    -46.948884   1.000000   1.000000
    7      -51.676196    -46.938577   1.000000   1.000000
    8      -51.662113    -46.936484   1.000000   1.000000
    9      -51.621923    -46.935344   1.000000   1.000000
   10      -51.615966    -46.932877   1.000000   1.000000
   11      -51.611155    -46.930893   1.000000   1.000000
   12      -51.609417    -46.924943   1.000000   1.000000
   13      -51.607487    -46.918451   1.000000   1.000000
   14      -51.601695    -46.910572   1.000000   1.000000
   15      -51.587790    -46.855779   1.000000   1.000000
   16      -51.567677    -46.844295   1.000000   1.000000
   17      -51.555476    -46.840973   1.000000   1.000000
   18      -51.554037    -46.828878   1.000000   1.000000
   19      -51.553726    -46.817587   1.000000   1.000000
   20      -51.533345    -46.817356   1.000000   1.000000
   21      -51.533066    -46.815774   1.000000   1.000000
   22      -51.527351    -46.798080   1.000000   1.000000
   23      -51.526149    -46.796368   1.000000   1.000000