 vasp.5.4.4.18Apr17-6-g9f103f2a35 (build Oct 25 2017 14:42:18) complex          
  
 executed on             LinuxIFC date 2021.04.13  01:09:38
 running on   20 total cores
 distrk:  each k-point on   10 cores,    2 groups
 distr:  one band on NCORES_PER_BAND=  10 cores,    1 groups


--------------------------------------------------------------------------------------------------------


 INCAR:
 POTCAR:    PAW_PBE Li_sv 10Sep2004               
 POTCAR:    PAW_PBE O 08Apr2002                   
 POTCAR:    PAW_PBE S 06Sep2000                   
 POTCAR:    PAW_PBE Fe_pv 02Aug2007               

 ----------------------------------------------------------------------------- 
|                                                                             |
|           W    W    AA    RRRRR   N    N  II  N    N   GGGG   !!!           |
|           W    W   A  A   R    R  NN   N  II  NN   N  G    G  !!!           |
|           W    W  A    A  R    R  N N  N  II  N N  N  G       !!!           |
|           W WW W  AAAAAA  RRRRR   N  N N  II  N  N N  G  GGG   !            |
|           WW  WW  A    A  R   R   N   NN  II  N   NN  G    G                |
|           W    W  A    A  R    R  N    N  II  N    N   GGGG   !!!           |
|                                                                             |
|      For optimal performance we recommend to set                            |
|        NCORE= 4 - approx SQRT( number of cores)                             |
|      NCORE specifies how many cores store one orbital (NPAR=cpu/NCORE).     |
|      This setting can  greatly improve the performance of VASP for DFT.     |
|      The default,   NCORE=1            might be grossly inefficient         |
|      on modern multi-core architectures or massively parallel machines.     |
|      Do your own testing !!!!                                               |
|      Unfortunately you need to use the default for GW and RPA calculations. |
|      (for HF NCORE is supported but not extensively tested yet)             |
|                                                                             |
 ----------------------------------------------------------------------------- 


 ----------------------------------------------------------------------------- 
|                                                                             |
|           W    W    AA    RRRRR   N    N  II  N    N   GGGG   !!!           |
|           W    W   A  A   R    R  NN   N  II  NN   N  G    G  !!!           |
|           W    W  A    A  R    R  N N  N  II  N N  N  G       !!!           |
|           W WW W  AAAAAA  RRRRR   N  N N  II  N  N N  G  GGG   !            |
|           WW  WW  A    A  R   R   N   NN  II  N   NN  G    G                |
|           W    W  A    A  R    R  N    N  II  N    N   GGGG   !!!           |
|                                                                             |
|      You have enabled k-point parallelism (KPAR>1).                         |
|      This developmental code was originally  written by Paul Kent at ORNL,  |
|      and carefully double checked in Vienna.                                |
|      GW as well as linear response parallelism added by Martijn Marsman     |
|      and Georg Kresse.                                                      |
|      Carefully verify results versus KPAR=1.                                |
|      Report problems to Paul Kent and Vienna.                               |
|                                                                             |
 ----------------------------------------------------------------------------- 

 POTCAR:    PAW_PBE Li_sv 10Sep2004               
  local pseudopotential read in
  atomic valenz-charges read in
  non local Contribution for L=           0  read in
    real space projection operators read in
  non local Contribution for L=           0  read in
    real space projection operators read in
  non local Contribution for L=           1  read in
    real space projection operators read in
    PAW grid and wavefunctions read in
 
   number of l-projection  operators is LMAX  =           3
   number of lm-projection operators is LMMAX =           5
 
 POTCAR:    PAW_PBE O 08Apr2002                   
  local pseudopotential read in
  partial core-charges read in
  partial kinetic energy density read in
  kinetic energy density of atom read in
  atomic valenz-charges read in
  non local Contribution for L=           0  read in
    real space projection operators read in
  non local Contribution for L=           0  read in
    real space projection operators read in
  non local Contribution for L=           1  read in
    real space projection operators read in
  non local Contribution for L=           1  read in
    real space projection operators read in
    PAW grid and wavefunctions read in
 
   number of l-projection  operators is LMAX  =           4
   number of lm-projection operators is LMMAX =           8
 
 POTCAR:    PAW_PBE S 06Sep2000                   
  local pseudopotential read in
  partial core-charges read in
  partial kinetic energy density read in
  atomic valenz-charges read in
  non local Contribution for L=           0  read in
    real space projection operators read in
  non local Contribution for L=           0  read in
    real space projection operators read in
  non local Contribution for L=           1  read in
    real space projection operators read in
  non local Contribution for L=           1  read in
    real space projection operators read in
    PAW grid and wavefunctions read in
 
   number of l-projection  operators is LMAX  =           4
   number of lm-projection operators is LMMAX =           8
 
 POTCAR:    PAW_PBE Fe_pv 02Aug2007               
  local pseudopotential read in
  partial core-charges read in
  partial kinetic energy density read in
  atomic valenz-charges read in
  non local Contribution for L=           1  read in
    real space projection operators read in
  non local Contribution for L=           1  read in
    real space projection operators read in
  non local Contribution for L=           2  read in
    real space projection operators read in
  non local Contribution for L=           2  read in
    real space projection operators read in
  non local Contribution for L=           0  read in
    real space projection operators read in
  non local Contribution for L=           0  read in
    real space projection operators read in
    PAW grid and wavefunctions read in
 
   number of l-projection  operators is LMAX  =           6
   number of lm-projection operators is LMMAX =          18
 

 ----------------------------------------------------------------------------- 
|                                                                             |
|  ADVICE TO THIS USER RUNNING 'VASP/VAMP'   (HEAR YOUR MASTER'S VOICE ...):  |
|                                                                             |
|      You have a (more or less) 'large supercell' and for larger cells       |
|      it might be more efficient to use real space projection opertators     |
|      So try LREAL= Auto  in the INCAR   file.                               |
|      Mind:          For very  accurate calculation you might also keep the  |
|      reciprocal projection scheme          (i.e. LREAL=.FALSE.)             |
|                                                                             |
 ----------------------------------------------------------------------------- 

  PAW_PBE Li_sv 10Sep2004               :
 energy of atom  1       EATOM= -202.7858
 kinetic energy error for atom=    0.0072 (will be added to EATOM!!)
  PAW_PBE O 08Apr2002                   :
 energy of atom  2       EATOM= -432.3788
 kinetic energy error for atom=    0.0129 (will be added to EATOM!!)
  PAW_PBE S 06Sep2000                   :
 energy of atom  3       EATOM= -276.8230
 kinetic energy error for atom=    0.0008 (will be added to EATOM!!)
  PAW_PBE Fe_pv 02Aug2007               :
 energy of atom  4       EATOM=-2457.4239
 kinetic energy error for atom=    0.0041 (will be added to EATOM!!)
 
 
 POSCAR: # Compound: Li24O24S24Fe36. Old comment:
  positions in direct lattice
  No initial velocities read in
 exchange correlation table for  LEXCH =        8
   RHO(1)=    0.500       N(1)  =     2000
   RHO(2)=  100.500       N(2)  =     4000
 


--------------------------------------------------------------------------------------------------------


 ion  position               nearest neighbor table
   1  0.105  0.250  0.000-  31 1.99  37 1.99
   2  0.438  0.250  0.000-  32 1.99  38 1.99
   3  0.772  0.250  0.000-  33 1.99  39 1.99
   4  0.105  0.750  0.000-  34 1.99  40 1.99
   5  0.438  0.750  0.000-  35 1.99  41 1.99
   6  0.772  0.750  0.000-  36 1.99  42 1.99
   7  0.105  0.250  0.500-  25 1.98  43 1.99
   8  0.438  0.250  0.500-  26 1.99  44 1.99
   9  0.772  0.250  0.500-  27 1.99  45 1.99
  10  0.105  0.750  0.500-  28 1.99  46 1.99
  11  0.438  0.750  0.500-  29 1.99  47 1.99
  12  0.772  0.750  0.500-  30 1.99  48 1.99
  13  0.105  0.000  0.250-  40 1.99  25 1.99
  14  0.438  0.000  0.250-  26 1.99  41 1.99
  15  0.772  0.000  0.250-  27 1.99  42 1.99
  16  0.105  0.500  0.250-  28 1.99  37 1.99
  17  0.438  0.500  0.250-  29 1.99  38 1.99
  18  0.772  0.500  0.250-  30 1.99  39 1.99
  19  0.105  0.000  0.750-  31 1.99  46 1.99
  20  0.438  0.000  0.750-  32 1.99  47 1.99
  21  0.772  0.000  0.750-  33 1.99  48 1.99
  22  0.105  0.500  0.750-  34 1.99  43 1.99
  23  0.438  0.500  0.750-  35 1.99  44 1.99
  24  0.772  0.500  0.750-  36 1.99  45 1.99
  25  0.106  0.126  0.375-   7 1.98  13 1.99  87 2.00  85 2.00 103 2.03
  26  0.439  0.125  0.375-  14 1.99   8 1.99  85 2.00  86 2.00 104 2.02
  27  0.773  0.125  0.375-  15 1.99   9 1.99  86 2.00  87 2.00 105 2.02
  28  0.106  0.625  0.375-  16 1.99  10 1.99  90 2.00  88 2.00 106 2.02
  29  0.439  0.625  0.375-  17 1.99  11 1.99  88 2.00  89 2.00 107 2.02
  30  0.773  0.625  0.375-  18 1.99  12 1.99  89 2.00  90 2.00 108 2.02
  31  0.106  0.125  0.875-  19 1.99   1 1.99  93 2.00  91 2.00  97 2.02
  32  0.439  0.125  0.875-  20 1.99   2 1.99  91 2.00  92 2.00  98 2.02
  33  0.773  0.125  0.875-  21 1.99   3 1.99  92 2.00  93 2.00  99 2.02
  34  0.106  0.625  0.875-  22 1.99   4 1.99  96 2.00  94 2.00 100 2.02
  35  0.439  0.625  0.875-  23 1.99   5 1.99  94 2.00  95 2.00 101 2.02
  36  0.773  0.625  0.875-  24 1.99   6 1.99  95 2.00  96 2.00 102 2.02
  37  0.106  0.375  0.125-  16 1.99   1 1.99  75 2.00  73 2.00 100 2.02
  38  0.439  0.375  0.125-  17 1.99   2 1.99  73 2.00  74 2.00 101 2.02
  39  0.773  0.375  0.125-  18 1.99   3 1.99  74 2.00  75 2.00 102 2.02
  40  0.106  0.875  0.125-  13 1.99   4 1.99  78 2.00  76 2.00  97 2.02
  41  0.439  0.875  0.125-  14 1.99   5 1.99  76 2.00  77 2.00  98 2.02
  42  0.773  0.875  0.125-  15 1.99   6 1.99  77 2.00  78 2.00  99 2.02
  43  0.106  0.375  0.625-  22 1.99   7 1.99  81 2.00  79 2.00 106 2.02
  44  0.439  0.375  0.625-  23 1.99   8 1.99  79 2.00  80 2.00 107 2.02
  45  0.773  0.375  0.625-  24 1.99   9 1.99  80 2.00  81 2.00 108 2.02
  46  0.106  0.875  0.625-  19 1.99  10 1.99  84 2.00  82 2.00 103 2.02
  47  0.439  0.875  0.625-  20 1.99  11 1.99  82 2.00  83 2.00 104 2.02
  48  0.773  0.875  0.625-  21 1.99  12 1.99  83 2.00  84 2.00 105 2.02
  49  0.273  0.118  0.118-  73 2.54  85 2.54  97 2.67  98 2.69
  50  0.606  0.118  0.118-  74 2.54  86 2.54  98 2.67  99 2.69
  51  0.939  0.118  0.118-  75 2.54  87 2.54  99 2.67  97 2.69
  52  0.273  0.618  0.118-  76 2.54  88 2.54 100 2.67 101 2.69
  53  0.606  0.618  0.118-  77 2.54  89 2.54 101 2.67 102 2.69
  54  0.939  0.618  0.118-  78 2.54  90 2.54 102 2.67 100 2.69
  55  0.273  0.118  0.618-  79 2.54  91 2.54 103 2.67 104 2.69
  56  0.606  0.118  0.618-  80 2.54  92 2.54 104 2.67 105 2.69
  57  0.939  0.118  0.618-  81 2.54  93 2.54 105 2.67 103 2.69
  58  0.273  0.618  0.618-  82 2.54  94 2.54 106 2.67 107 2.69
  59  0.606  0.618  0.618-  83 2.54  95 2.54 107 2.67 108 2.69
  60  0.939  0.618  0.618-  84 2.54  96 2.54 108 2.67 106 2.69
  61  0.273  0.382  0.382-  85 2.54  73 2.54 106 2.67 107 2.69
  62  0.606  0.382  0.382-  86 2.54  74 2.54 107 2.67 108 2.69
  63  0.939  0.382  0.382-  87 2.54  75 2.54 108 2.67 106 2.69
  64  0.273  0.882  0.382-  88 2.54  76 2.54 103 2.67 104 2.69
  65  0.606  0.882  0.382-  89 2.54  77 2.54 104 2.67 105 2.69
  66  0.939  0.882  0.382-  90 2.54  78 2.54 105 2.67 103 2.69
  67  0.273  0.382  0.882-  91 2.54  79 2.54 100 2.67 101 2.69
  68  0.606  0.382  0.882-  92 2.54  80 2.54 101 2.67 102 2.69
  69  0.939  0.382  0.882-  93 2.54  81 2.54 102 2.67 100 2.69
  70  0.273  0.882  0.882-  94 2.54  82 2.54  97 2.67  98 2.69
  71  0.606  0.882  0.882-  95 2.54  83 2.54  98 2.67  99 2.69
  72  0.939  0.882  0.882-  96 2.54  84 2.54  99 2.67  97 2.69
  73  0.273  0.339  0.161-  38 2.00  37 2.00  49 2.54  61 2.54
  74  0.606  0.339  0.161-  39 2.00  38 2.00  50 2.54  62 2.54
  75  0.940  0.339  0.161-  37 2.00  39 2.00  51 2.54  63 2.54
  76  0.273  0.839  0.161-  41 2.00  40 2.00  52 2.54  64 2.54
  77  0.606  0.839  0.161-  42 2.00  41 2.00  53 2.54  65 2.54
  78  0.940  0.839  0.161-  40 2.00  42 2.00  54 2.54  66 2.54
  79  0.273  0.339  0.661-  44 2.00  43 2.00  55 2.54  67 2.54
  80  0.606  0.339  0.661-  45 2.00  44 2.00  56 2.54  68 2.54
  81  0.940  0.339  0.661-  43 2.00  45 2.00  57 2.54  69 2.54
  82  0.273  0.839  0.661-  47 2.00  46 2.00  58 2.54  70 2.54
  83  0.606  0.839  0.661-  48 2.00  47 2.00  59 2.54  71 2.54
  84  0.940  0.839  0.661-  46 2.00  48 2.00  60 2.54  72 2.54
  85  0.273  0.161  0.339-  25 2.00  26 2.00  61 2.54  49 2.54
  86  0.606  0.161  0.339-  27 2.00  26 2.00  62 2.54  50 2.54
  87  0.940  0.161  0.339-  25 2.00  27 2.00  63 2.54  51 2.54
  88  0.273  0.661  0.339-  29 2.00  28 2.00  64 2.54  52 2.54
  89  0.606  0.661  0.339-  30 2.00  29 2.00  65 2.54  53 2.54
  90  0.940  0.661  0.339-  28 2.00  30 2.00  66 2.54  54 2.54
  91  0.273  0.161  0.839-  32 2.00  31 2.00  67 2.54  55 2.54
  92  0.606  0.161  0.839-  33 2.00  32 2.00  68 2.54  56 2.54
  93  0.940  0.161  0.839-  31 2.00  33 2.00  69 2.54  57 2.54
  94  0.273  0.661  0.839-  35 2.00  34 2.00  70 2.54  58 2.54
  95  0.606  0.661  0.839-  36 2.00  35 2.00  71 2.54  59 2.54
  96  0.940  0.661  0.839-  34 2.00  36 2.00  72 2.54  60 2.54
  97  0.107  0.000  0.000-  31 2.02  40 2.02  49 2.67  70 2.67  51 2.69  72 2.69
  98  0.441  0.000  0.000-  32 2.02  41 2.02  50 2.67  71 2.67  70 2.69  49 2.69
  99  0.774  0.000  0.000-  33 2.02  42 2.02  51 2.67  72 2.67  71 2.69  50 2.69
 100  0.107  0.500  0.000-  34 2.02  37 2.02  52 2.67  67 2.67  54 2.69  69 2.69
 101  0.441  0.500  0.000-  35 2.02  38 2.02  53 2.67  68 2.67  67 2.69  52 2.69
 102  0.774  0.500  0.000-  36 2.02  39 2.02  54 2.67  69 2.67  68 2.69  53 2.69
 103  0.107  0.000  0.500-  46 2.02  25 2.03  55 2.67  64 2.67  57 2.69  66 2.69
 104  0.441  0.000  0.500-  26 2.02  47 2.02  56 2.67  65 2.67  64 2.69  55 2.69
 105  0.774  0.000  0.500-  27 2.02  48 2.02  57 2.67  66 2.67  65 2.69  56 2.69
 106  0.107  0.500  0.500-  28 2.02  43 2.02  58 2.67  61 2.67  60 2.69  63 2.69
 107  0.441  0.500  0.500-  29 2.02  44 2.02  59 2.67  62 2.67  61 2.69  58 2.69
 108  0.774  0.500  0.500-  30 2.02  45 2.02  60 2.67  63 2.67  62 2.69  59 2.69
 

IMPORTANT INFORMATION: All symmetrisations will be switched off!
NOSYMM: (Re-)initialisation of all symmetry stuff for point group C_1.

 
 
 KPOINTS: # No comment                            

Automatic generation of k-mesh.
Space group operators:
 irot       det(A)        alpha          n_x          n_y          n_z        tau_x        tau_y        tau_z
    1     1.000000     0.000000     1.000000     0.000000     0.000000     0.000000     0.000000     0.000000
 
 Subroutine IBZKPT returns following result:
 ===========================================
 
 Found     14 irreducible k-points:
 
 Following reciprocal coordinates:
            Coordinates               Weight
  0.000000  0.000000  0.000000      1.000000
  0.333333  0.000000  0.000000      2.000000
  0.000000  0.333333  0.000000      2.000000
  0.333333  0.333333  0.000000      2.000000
 -0.333333  0.333333  0.000000      2.000000
  0.000000  0.000000  0.333333      2.000000
  0.333333  0.000000  0.333333      2.000000
 -0.333333  0.000000  0.333333      2.000000
  0.000000  0.333333  0.333333      2.000000
  0.333333  0.333333  0.333333      2.000000
 -0.333333  0.333333  0.333333      2.000000
  0.000000 -0.333333  0.333333      2.000000
  0.333333 -0.333333  0.333333      2.000000
 -0.333333 -0.333333  0.333333      2.000000
 
 Following cartesian coordinates:
            Coordinates               Weight
  0.000000  0.000000  0.000000      1.000000
  0.028959  0.000000  0.000000      2.000000
  0.000000  0.029420  0.000771      2.000000
  0.028959  0.029420  0.000771      2.000000
 -0.028959  0.029420  0.000771      2.000000
  0.000000 -0.000326  0.029429      2.000000
  0.028959 -0.000326  0.029429      2.000000
 -0.028959 -0.000326  0.029429      2.000000
  0.000000  0.029094  0.030200      2.000000
  0.028959  0.029094  0.030200      2.000000
 -0.028959  0.029094  0.030200      2.000000
  0.000000 -0.029746  0.028658      2.000000
  0.028959 -0.029746  0.028658      2.000000
 -0.028959 -0.029746  0.028658      2.000000
 


--------------------------------------------------------------------------------------------------------




 Dimension of arrays:
   k-points           NKPTS =     14   k-points in BZ     NKDIM =     14   number of bands    NBANDS=    630
   number of dos      NEDOS =    301   number of ions     NIONS =    108
   non local maximal  LDIM  =      6   non local SUM 2l+1 LMDIM =     18
   total plane-waves  NPLWV = 884736
   max r-space proj   IRMAX =      1   max aug-charges    IRDMAX= 151184
   dimension x,y,z NGX =    96 NGY =   96 NGZ =   96
   dimension x,y,z NGXF=   192 NGYF=  192 NGZF=  192
   support grid    NGXF=   384 NGYF=  384 NGZF=  384
   ions per type =              24  24  24  36
   NGX,Y,Z   is equivalent  to a cutoff of  13.87, 14.09, 14.09 a.u.
   NGXF,Y,Z  is equivalent  to a cutoff of  27.73, 28.18, 28.18 a.u.

 SYSTEM =  unknown system                          
 POSCAR =  # Compound: Li24O24S24Fe36. Old comment:

 Startparameter for this run:
   NWRITE =      1    write-flag & timer
   PREC   = accura    normal or accurate (medium, high low for compatibility)
   ISTART =      0    job   : 0-new  1-cont  2-samecut
   ICHARG =      2    charge: 1-file 2-atom 10-const
   ISPIN  =      2    spin polarized calculation?
   LNONCOLLINEAR =      F non collinear calculations
   LSORBIT =      F    spin-orbit coupling
   INIWAV =      1    electr: 0-lowe 1-rand  2-diag
   LASPH  =      T    aspherical Exc in radial PAW
   METAGGA=      F    non-selfconsistent MetaGGA calc.

 Electronic Relaxation 1
   ENCUT  =  650.0 eV  47.77 Ry    6.91 a.u.  23.93 23.55 23.55*2*pi/ulx,y,z
   ENINI  =  650.0     initial cutoff
   ENAUG  =  628.9 eV  augmentation charge cutoff
   NELM   =    200;   NELMIN=  8; NELMDL= -5     # of ELM steps 
   EDIFF  = 0.1E-07   stopping-criterion for ELM
   LREAL  =      F    real-space projection
   NLSPLINE    = F    spline interpolate recip. space projectors
   LCOMPAT=      F    compatible to vasp.4.4
   GGA_COMPAT  = T    GGA compatible to vasp.4.4-vasp.4.6
   LMAXPAW     = -100 max onsite density
   LMAXMIX     =    4 max onsite mixed and CHGCAR
   VOSKOWN=      0    Vosko Wilk Nusair interpolation
   ROPT   =    0.00000   0.00000   0.00000   0.00000
 Ionic relaxation
   EDIFFG = 0.1E-06   stopping-criterion for IOM
   NSW    =      0    number of steps for IOM
   NBLOCK =      1;   KBLOCK =      1    inner block; outer block 
   IBRION =     -1    ionic relax: 0-MD 1-quasi-New 2-CG
   NFREE  =      0    steps in history (QN), initial steepest desc. (CG)
   ISIF   =      3    stress and relaxation
   IWAVPR =     10    prediction:  0-non 1-charg 2-wave 3-comb
   ISYM   =      0    0-nonsym 1-usesym 2-fastsym
   LCORR  =      T    Harris-Foulkes like correction to forces

   POTIM  = 0.5000    time-step for ionic-motion
   TEIN   =    0.0    initial temperature
   TEBEG  =    0.0;   TEEND  =   0.0 temperature during run
   SMASS  =  -3.00    Nose mass-parameter (am)
   estimated Nose-frequenzy (Omega)   =  0.10E-29 period in steps =****** mass=  -0.303E-26a.u.
   SCALEE = 1.0000    scale energy and forces
   NPACO  =    256;   APACO  = 16.0  distance and # of slots for P.C.
   PSTRESS=    0.0 pullay stress

  Mass of Ions in am
   POMASS =   7.01 16.00 32.07 55.85
  Ionic Valenz
   ZVAL   =   3.00  6.00  6.00 14.00
  Atomic Wigner-Seitz radii
   RWIGS  =  -1.00 -1.00 -1.00 -1.00
  virtual crystal weights 
   VCA    =   1.00  1.00  1.00  1.00
   NELECT =     864.0000    total number of electrons
   NUPDOWN=      -1.0000    fix difference up-down

 DOS related values:
   EMIN   =  10.00;   EMAX   =-10.00  energy-range for DOS
   EFERMI =   0.00
   ISMEAR =     0;   SIGMA  =   0.05  broadening in eV -4-tet -1-fermi 0-gaus

 Electronic relaxation 2 (details)
   IALGO  =     38    algorithm
   LDIAG  =      T    sub-space diagonalisation (order eigenvalues)
   LSUBROT=      F    optimize rotation matrix (better conditioning)
   TURBO    =      0    0=normal 1=particle mesh
   IRESTART =      0    0=no restart 2=restart with 2 vectors
   NREBOOT  =      0    no. of reboots
   NMIN     =      0    reboot dimension
   EREF     =   0.00    reference energy to select bands
   IMIX   =      4    mixing-type and parameters
     AMIX     =   0.40;   BMIX     =  1.00
     AMIX_MAG =   1.60;   BMIX_MAG =  1.00
     AMIN     =   0.10
     WC   =   100.;   INIMIX=   1;  MIXPRE=   1;  MAXMIX= -45

 Intra band minimization:
   WEIMIN = 0.0000     energy-eigenvalue tresh-hold
   EBREAK =  0.40E-11  absolut break condition
   DEPER  =   0.30     relativ break condition  

   TIME   =   0.40     timestep for ELM

  volume/ion in A,a.u.               =      13.67        92.27
  Fermi-wavevector in a.u.,A,eV,Ry     =   1.369239  2.587487 25.508418  1.874816
  Thomas-Fermi vector in A             =   2.495132
 
 Write flags
   LWAVE        =      F    write WAVECAR
   LDOWNSAMPLE  =      F    k-point downsampling of WAVECAR
   LCHARG       =      T    write CHGCAR
   LVTOT        =      F    write LOCPOT, total local potential
   LVHAR        =      F    write LOCPOT, Hartree potential only
   LELF         =      F    write electronic localiz. function (ELF)
   LORBIT       =      0    0 simple, 1 ext, 2 COOP (PROOUT), +10 PAW based schemes


 Dipole corrections
   LMONO  =      F    monopole corrections only (constant potential shift)
   LDIPOL =      F    correct potential (dipole corrections)
   IDIPOL =      0    1-x, 2-y, 3-z, 4-all directions 
   EPSILON=  1.0000000 bulk dielectric constant

 LDA+U is selected, type is set to LDAUTYPE =  2
   angular momentum for each species LDAUL =    -1   -1   -1    2
   U (eV)           for each species LDAUU =   0.0  0.0  0.0  4.0
   J (eV)           for each species LDAUJ =   0.0  0.0  0.0  0.0
 Exchange correlation treatment:
   GGA     =    PE    GGA type
   LEXCH   =     8    internal setting for exchange type
   VOSKOWN=      0    Vosko Wilk Nusair interpolation
   LHFCALC =     F    Hartree Fock is set to
   LHFONE  =     F    Hartree Fock one center treatment
   AEXX    =    0.0000 exact exchange contribution

 Linear response parameters
   LEPSILON=     F    determine dielectric tensor
   LRPA    =     F    only Hartree local field effects (RPA)
   LNABLA  =     F    use nabla operator in PAW spheres
   LVEL    =     F    velocity operator in full k-point grid
   LINTERFAST=   F  fast interpolation
   KINTER  =     0    interpolate to denser k-point grid
   CSHIFT  =0.1000    complex shift for real part using Kramers Kronig
   OMEGAMAX=  -1.0    maximum frequency
   DEG_THRESHOLD= 0.2000000E-02 threshold for treating states as degnerate
   RTIME   =   -0.100 relaxation time in fs
  (WPLASMAI=    0.000 imaginary part of plasma frequency in eV, 0.658/RTIME)
   DFIELD  = 0.0000000 0.0000000 0.0000000 field for delta impulse in time
 
 Orbital magnetization related:
   ORBITALMAG=     F  switch on orbital magnetization
   LCHIMAG   =     F  perturbation theory with respect to B field
   DQ        =  0.001000  dq finite difference perturbation B field
   LLRAUG    =     F  two centre corrections for induced B field



--------------------------------------------------------------------------------------------------------


 Static calculation
 charge density and potential will be updated during run
 spin polarized calculation
 Variant of blocked Davidson
 Davidson routine will perform the subspace rotation
 perform sub-space diagonalisation
    after iterative eigenvector-optimisation
 modified Broyden-mixing scheme, WC =      100.0
 initial mixing is a Kerker type mixing with AMIX =  0.4000 and BMIX =      1.0000
 Hartree-type preconditioning will be used
 using additional bands          198
 reciprocal scheme for non local part
 use partial core corrections
 calculate Harris-corrections to forces 
   (improved forces if not selfconsistent)
 use gradient corrections 
 use of overlap-Matrix (Vanderbilt PP)
 Gauss-broadening in eV      SIGMA  =   0.05


--------------------------------------------------------------------------------------------------------


  energy-cutoff  :      650.00
  volume of cell :     1476.73
      direct lattice vectors                 reciprocal lattice vectors
    11.510368470  0.000000000  0.000000000     0.086878192  0.000000000  0.000000000
     0.000000000 11.326709160  0.125489400     0.000000000  0.088261263  0.002313657
     0.000000000 -0.296831520 11.323514440     0.000000000 -0.000978129  0.088286165

  length of vectors
    11.510368470 11.327404292 11.327404302     0.086878192  0.088291583  0.088291583


 
 k-points in units of 2pi/SCALE and weight: # No comment                            
   0.00000000  0.00000000  0.00000000       0.037
   0.02895940  0.00000000  0.00000000       0.074
   0.00000000  0.02942042  0.00077122       0.074
   0.02895940  0.02942042  0.00077122       0.074
  -0.02895940  0.02942042  0.00077122       0.074
   0.00000000 -0.00032604  0.02942872       0.074
   0.02895940 -0.00032604  0.02942872       0.074
  -0.02895940 -0.00032604  0.02942872       0.074
   0.00000000  0.02909438  0.03019994       0.074
   0.02895940  0.02909438  0.03019994       0.074
  -0.02895940  0.02909438  0.03019994       0.074
   0.00000000 -0.02974646  0.02865750       0.074
   0.02895940 -0.02974646  0.02865750       0.074
  -0.02895940 -0.02974646  0.02865750       0.074
 
 k-points in reciprocal lattice and weights: # No comment                            
   0.00000000  0.00000000  0.00000000       0.037
   0.33333333  0.00000000  0.00000000       0.074
   0.00000000  0.33333333  0.00000000       0.074
   0.33333333  0.33333333  0.00000000       0.074
  -0.33333333  0.33333333  0.00000000       0.074
   0.00000000  0.00000000  0.33333333       0.074
   0.33333333  0.00000000  0.33333333       0.074
  -0.33333333  0.00000000  0.33333333       0.074
   0.00000000  0.33333333  0.33333333       0.074
   0.33333333  0.33333333  0.33333333       0.074
  -0.33333333  0.33333333  0.33333333       0.074
   0.00000000 -0.33333333  0.33333333       0.074
   0.33333333 -0.33333333  0.33333333       0.074
  -0.33333333 -0.33333333  0.33333333       0.074
 
 position of ions in fractional coordinates (direct lattice) 
   0.10513295  0.25000000  0.00000000
   0.43846628  0.25000000  0.00000000
   0.77179961  0.25000000  0.00000000
   0.10513295  0.75000000  0.00000000
   0.43846628  0.75000000  0.00000000
   0.77179961  0.75000000  0.00000000
   0.10513295  0.25000000  0.50000000
   0.43846628  0.25000000  0.50000000
   0.77179961  0.25000000  0.50000000
   0.10513295  0.75000000  0.50000000
   0.43846628  0.75000000  0.50000000
   0.77179961  0.75000000  0.50000000
   0.10513295  0.00000000  0.25000000
   0.43846628  0.00000000  0.25000000
   0.77179961  0.00000000  0.25000000
   0.10513295  0.50000000  0.25000000
   0.43846628  0.50000000  0.25000000
   0.77179961  0.50000000  0.25000000
   0.10513295  0.00000000  0.75000000
   0.43846628  0.00000000  0.75000000
   0.77179961  0.00000000  0.75000000
   0.10513295  0.50000000  0.75000000
   0.43846628  0.50000000  0.75000000
   0.77179961  0.50000000  0.75000000
   0.10614906  0.12615944  0.37472338
   0.43948239  0.12527662  0.37472338
   0.77281572  0.12527662  0.37472338
   0.10614906  0.62527662  0.37472338
   0.43948239  0.62527662  0.37472338
   0.77281572  0.62527662  0.37472338
   0.10614906  0.12527662  0.87472338
   0.43948239  0.12527662  0.87472338
   0.77281572  0.12527662  0.87472338
   0.10614906  0.62527662  0.87472338
   0.43948239  0.62527662  0.87472338
   0.77281572  0.62527662  0.87472338
   0.10614906  0.37472338  0.12527662
   0.43948239  0.37472338  0.12527662
   0.77281572  0.37472338  0.12527662
   0.10614906  0.87472338  0.12527662
   0.43948239  0.87472338  0.12527662
   0.77281572  0.87472338  0.12527662
   0.10614906  0.37472338  0.62527662
   0.43948239  0.37472338  0.62527662
   0.77281572  0.37472338  0.62527662
   0.10614906  0.87472338  0.62527662
   0.43948239  0.87472338  0.62527662
   0.77281572  0.87472338  0.62527662
   0.27279884  0.11809471  0.11809471
   0.60613218  0.11809471  0.11809471
   0.93946551  0.11809471  0.11809471
   0.27279884  0.61809471  0.11809471
   0.60613218  0.61809471  0.11809471
   0.93946551  0.61809471  0.11809471
   0.27279884  0.11809471  0.61809471
   0.60613218  0.11809471  0.61809471
   0.93946551  0.11809471  0.61809471
   0.27279884  0.61809471  0.61809471
   0.60613218  0.61809471  0.61809471
   0.93946551  0.61809471  0.61809471
   0.27279884  0.38190529  0.38190529
   0.60613218  0.38190529  0.38190529
   0.93946551  0.38190529  0.38190529
   0.27279884  0.88190529  0.38190529
   0.60613218  0.88190529  0.38190529
   0.93946551  0.88190529  0.38190529
   0.27279884  0.38190529  0.88190529
   0.60613218  0.38190529  0.88190529
   0.93946551  0.38190529  0.88190529
   0.27279884  0.88190529  0.88190529
   0.60613218  0.88190529  0.88190529
   0.93946551  0.88190529  0.88190529
   0.27287151  0.33907427  0.16092573
   0.60620484  0.33907427  0.16092573
   0.93953818  0.33907427  0.16092573
   0.27287151  0.83907427  0.16092573
   0.60620484  0.83907427  0.16092573
   0.93953818  0.83907427  0.16092573
   0.27287151  0.33907427  0.66092573
   0.60620484  0.33907427  0.66092573
   0.93953818  0.33907427  0.66092573
   0.27287151  0.83907427  0.66092573
   0.60620484  0.83907427  0.66092573
   0.93953818  0.83907427  0.66092573
   0.27287151  0.16092573  0.33907427
   0.60620484  0.16092573  0.33907427
   0.93953818  0.16092573  0.33907427
   0.27287151  0.66092573  0.33907427
   0.60620484  0.66092573  0.33907427
   0.93953818  0.66092573  0.33907427
   0.27287151  0.16092573  0.83907427
   0.60620484  0.16092573  0.83907427
   0.93953818  0.16092573  0.83907427
   0.27287151  0.66092573  0.83907427
   0.60620484  0.66092573  0.83907427
   0.93953818  0.66092573  0.83907427
   0.10731129  0.00000000  0.00000000
   0.44064462  0.00000000  0.00000000
   0.77397796  0.00000000  0.00000000
   0.10731129  0.50000000  0.00000000
   0.44064462  0.50000000  0.00000000
   0.77397796  0.50000000  0.00000000
   0.10731129  0.00000000  0.50000000
   0.44064462  0.00000000  0.50000000
   0.77397796  0.00000000  0.50000000
   0.10731129  0.50000000  0.50000000
   0.44064462  0.50000000  0.50000000
   0.77397796  0.50000000  0.50000000
 
 position of ions in cartesian coordinates  (Angst):
   1.21011895  2.83167729  0.03137235
   5.04690844  2.83167729  0.03137235
   8.88369793  2.83167729  0.03137235
   1.21011895  8.49503187  0.09411705
   5.04690844  8.49503187  0.09411705
   8.88369793  8.49503187  0.09411705
   1.21011895  2.68326153  5.69312957
   5.04690844  2.68326153  5.69312957
   8.88369793  2.68326153  5.69312957
   1.21011895  8.34661611  5.75587427
   5.04690844  8.34661611  5.75587427
   8.88369793  8.34661611  5.75587427
   1.21011895 -0.07420788  2.83087861
   5.04690844 -0.07420788  2.83087861
   8.88369793 -0.07420788  2.83087861
   1.21011895  5.58914670  2.89362331
   5.04690844  5.58914670  2.89362331
   8.88369793  5.58914670  2.89362331
   1.21011895 -0.22262364  8.49263583
   5.04690844 -0.22262364  8.49263583
   8.88369793 -0.22262364  8.49263583
   1.21011895  5.44073094  8.55538053
   5.04690844  5.44073094  8.55538053
   8.88369793  5.44073094  8.55538053
   1.22181476  1.31774157  4.25901722
   5.05860424  1.30774219  4.25890644
   8.89539373  1.30774219  4.25890644
   1.22181476  6.97109677  4.32165114
   5.05860424  6.97109677  4.32165114
   8.89539373  6.97109677  4.32165114
   1.22181476  1.15932643  9.92066366
   5.05860424  1.15932643  9.92066366
   8.89539373  1.15932643  9.92066366
   1.22181476  6.82268101  9.98340836
   5.05860424  6.82268101  9.98340836
   8.89539373  6.82268101  9.98340836
   1.22181476  4.20719663  1.46559548
   5.05860424  4.20719663  1.46559548
   8.89539373  4.20719663  1.46559548
   1.22181476  9.87055121  1.52834018
   5.05860424  9.87055121  1.52834018
   8.89539373  9.87055121  1.52834018
   1.22181476  4.05878087  7.12735270
   5.05860424  4.05878087  7.12735270
   8.89539373  4.05878087  7.12735270
   1.22181476  9.72213545  7.19009740
   5.05860424  9.72213545  7.19009740
   8.89539373  9.72213545  7.19009740
   3.14001520  1.30257026  1.35206685
   6.97680470  1.30257026  1.35206685
  10.81359418  1.30257026  1.35206685
   3.14001520  6.96592484  1.41481155
   6.97680470  6.96592484  1.41481155
  10.81359418  6.96592484  1.41481155
   3.14001520  1.15415450  7.01382407
   6.97680470  1.15415450  7.01382407
  10.81359418  1.15415450  7.01382407
   3.14001520  6.81750908  7.07656877
   6.97680470  6.81750908  7.07656877
  10.81359418  6.81750908  7.07656877
   3.14001520  4.21236856  4.37243507
   6.97680470  4.21236856  4.37243507
  10.81359418  4.21236856  4.37243507
   3.14001520  9.87572314  4.43517977
   6.97680470  9.87572314  4.43517977
  10.81359418  9.87572314  4.43517977
   3.14001520  4.06395280 10.03419229
   6.97680470  4.06395280 10.03419229
  10.81359418  4.06395280 10.03419229
   3.14001520  9.72730738 10.09693699
   6.97680470  9.72730738 10.09693699
  10.81359418  9.72730738 10.09693699
   3.14085163  3.79282781  1.86479505
   6.97764111  3.79282781  1.86479505
  10.81443061  3.79282781  1.86479505
   3.14085163  9.45618239  1.92753975
   6.97764111  9.45618239  1.92753975
  10.81443061  9.45618239  1.92753975
   3.14085163  3.64441205  7.52655227
   6.97764111  3.64441205  7.52655227
  10.81443061  3.64441205  7.52655227
   3.14085163  9.30776663  7.58929697
   6.97764111  9.30776663  7.58929697
  10.81443061  9.30776663  7.58929697
   3.14085163  1.72211101  3.85970687
   6.97764111  1.72211101  3.85970687
  10.81443061  1.72211101  3.85970687
   3.14085163  7.38546559  3.92245157
   6.97764111  7.38546559  3.92245157
  10.81443061  7.38546559  3.92245157
   3.14085163  1.57369525  9.52146409
   6.97764111  1.57369525  9.52146409
  10.81443061  1.57369525  9.52146409
   3.14085163  7.23704983  9.58420879
   6.97764111  7.23704983  9.58420879
  10.81443061  7.23704983  9.58420879
   1.23519249  0.00000000  0.00000000
   5.07198198  0.00000000  0.00000000
   8.90877147  0.00000000  0.00000000
   1.23519249  5.66335458  0.06274470
   5.07198198  5.66335458  0.06274470
   8.90877147  5.66335458  0.06274470
   1.23519249 -0.14841576  5.66175722
   5.07198198 -0.14841576  5.66175722
   8.90877147 -0.14841576  5.66175722
   1.23519249  5.51493882  5.72450192
   5.07198198  5.51493882  5.72450192
   8.90877147  5.51493882  5.72450192
 


--------------------------------------------------------------------------------------------------------


 k-point  1 :   0.0000 0.0000 0.0000  plane waves:   55639
 k-point  2 :   0.3333 0.0000 0.0000  plane waves:   55556
 k-point  3 :   0.0000 0.3333 0.0000  plane waves:   55574
 k-point  4 :   0.3333 0.3333 0.0000  plane waves:   55601
 k-point  5 :  -0.3333 0.3333 0.0000  plane waves:   55601
 k-point  6 :   0.0000 0.0000 0.3333  plane waves:   55574
 k-point  7 :   0.3333 0.0000 0.3333  plane waves:   55601
 k-point  8 :  -0.3333 0.0000 0.3333  plane waves:   55601
 k-point  9 :   0.0000 0.3333 0.3333  plane waves:   55595
 k-point 10 :   0.3333 0.3333 0.3333  plane waves:   55583
 k-point 11 :  -0.3333 0.3333 0.3333  plane waves:   55583
 k-point 12 :   0.0000-0.3333 0.3333  plane waves:   55498
 k-point 13 :   0.3333-0.3333 0.3333  plane waves:   55538
 k-point 14 :  -0.3333-0.3333 0.3333  plane waves:   55538

 maximum and minimum number of plane-waves per node :      5597     5522

 maximum number of plane-waves:     55639
 maximum index in each direction: 
   IXMAX=   24   IYMAX=   23   IZMAX=   23
   IXMIN=  -24   IYMIN=  -23   IZMIN=  -23


 parallel 3D FFT for wavefunctions:
    minimum data exchange during FFTs selected (reduces bandwidth)
 parallel 3D FFT for charge:
    minimum data exchange during FFTs selected (reduces bandwidth)


 total amount of memory used by VASP MPI-rank0  1877671. kBytes
=======================================================================

   base      :      30000. kBytes
   nonl-proj :      54531. kBytes
   fftplans  :     107775. kBytes
   grid      :      78796. kBytes
   one-center:        342. kBytes
   wavefun   :    1606227. kBytes
 
     INWAV:  cpu time    0.0000: real time    0.0000
 Broyden mixing: mesh for mixing (old mesh)
   NGX = 47   NGY = 47   NGZ = 47
  (NGX  =192   NGY  =192   NGZ  =192)
  gives a total of 103823 points

 initial charge density was supplied:
 charge density of overlapping atoms calculated
 number of electron     864.0000000 magnetization     223.2000000
 keeping initial charge density in first step


--------------------------------------------------------------------------------------------------------


 Maximum index for augmentation-charges        15710 (set IRDMAX)


--------------------------------------------------------------------------------------------------------


 First call to EWALD:  gamma=   0.156
 Maximum number of real-space cells 3x 3x 3
 Maximum number of reciprocal cells 3x 3x 3

    FEWALD:  cpu time    0.0117: real time    0.0117


--------------------------------------- Iteration      1(   1)  ---------------------------------------


    POTLOK:  cpu time    1.0705: real time    1.0750
    SETDIJ:  cpu time    2.6124: real time    2.6213
     EDDAV:  cpu time  415.4033: real time  416.4800
       DOS:  cpu time    0.0149: real time    0.0150
    --------------------------------------------
      LOOP:  cpu time  419.1011: real time  420.1913

 eigenvalue-minimisations  : 36200
 total energy-change (2. order) : 0.1287648E+05  (-0.4717626E+05)
 number of electron     864.0000000 magnetization     223.2000000
 augmentation part      864.0000000 magnetization     223.2000000

 Free energy of the ion-electron system (eV)
  ---------------------------------------------------
  alpha Z        PSCENC =      2671.99667194
  Ewald energy   TEWEN  =    -65588.96412008
  -Hartree energ DENC   =    -36915.43339297
  -exchange      EXHF   =         0.00000000
  -V(xc)+E(xc)   XCENC  =      3880.55078449
  PAW double counting   =     87409.98379221   -90654.48884115
  entropy T*S    EENTRO =        -0.02763323
  eigenvalues    EBANDS =      1718.55075443
  atomic energy  EATOM  =    110354.31518496
  Solvation  Ediel_sol  =         0.00000000
  ---------------------------------------------------
  free energy    TOTEN  =     12876.48320061 eV

  energy without entropy =    12876.51083383  energy(sigma->0) =    12876.49701722


--------------------------------------------------------------------------------------------------------




--------------------------------------- Iteration      1(   2)  ---------------------------------------


     EDDAV:  cpu time  408.9754: real time  410.0263
       DOS:  cpu time    0.0155: real time    0.0155
    --------------------------------------------
      LOOP:  cpu time  408.9908: real time  410.0418

 eigenvalue-minimisations  : 35280
 total energy-change (2. order) :-0.1134365E+05  (-0.1045657E+05)
 number of electron     864.0000000 magnetization     223.2000000
 augmentation part      864.0000000 magnetization     223.2000000

 Free energy of the ion-electron system (eV)
  ---------------------------------------------------
  alpha Z        PSCENC =      2671.99667194
  Ewald energy   TEWEN  =    -65588.96412008
  -Hartree energ DENC   =    -36915.43339297
  -exchange      EXHF   =         0.00000000
  -V(xc)+E(xc)   XCENC  =      3880.55078449
  PAW double counting   =     87409.98379221   -90654.48884115
  entropy T*S    EENTRO =        -0.07237232
  eigenvalues    EBANDS =     -9625.04993505
  atomic energy  EATOM  =    110354.31518496
  Solvation  Ediel_sol  =         0.00000000
  ---------------------------------------------------
  free energy    TOTEN  =      1532.83777203 eV

  energy without entropy =     1532.91014435  energy(sigma->0) =     1532.87395819


--------------------------------------------------------------------------------------------------------




--------------------------------------- Iteration      1(   3)  ---------------------------------------


     EDDAV:  cpu time  427.2734: real time  428.3710
       DOS:  cpu time    0.0162: real time    0.0162
    --------------------------------------------
      LOOP:  cpu time  427.2896: real time  428.3872

 eigenvalue-minimisations  : 37392
 total energy-change (2. order) :-0.1966180E+04  (-0.1789674E+04)
 number of electron     864.0000000 magnetization     223.2000000
 augmentation part      864.0000000 magnetization     223.2000000

 Free energy of the ion-electron system (eV)
  ---------------------------------------------------
  alpha Z        PSCENC =      2671.99667194
  Ewald energy   TEWEN  =    -65588.96412008
  -Hartree energ DENC   =    -36915.43339297
  -exchange      EXHF   =         0.00000000
  -V(xc)+E(xc)   XCENC  =      3880.55078449
  PAW double counting   =     87409.98379221   -90654.48884115
  entropy T*S    EENTRO =        -0.06985924
  eigenvalues    EBANDS =    -11591.23224680
  atomic energy  EATOM  =    110354.31518496
  Solvation  Ediel_sol  =         0.00000000
  ---------------------------------------------------
  free energy    TOTEN  =      -433.34202664 eV

  energy without entropy =     -433.27216740  energy(sigma->0) =     -433.30709702


--------------------------------------------------------------------------------------------------------




--------------------------------------- Iteration      1(   4)  ---------------------------------------


     EDDAV:  cpu time  484.4306: real time  485.7066
       DOS:  cpu time    0.0162: real time    0.0162
    --------------------------------------------
      LOOP:  cpu time  484.4467: real time  485.7228

 eigenvalue-minimisations  : 43704
 total energy-change (2. order) :-0.2135389E+03  (-0.2081392E+03)
 number of electron     864.0000000 magnetization     223.2000000
 augmentation part      864.0000000 magnetization     223.2000000

 Free energy of the ion-electron system (eV)
  ---------------------------------------------------
  alpha Z        PSCENC =      2671.99667194
  Ewald energy   TEWEN  =    -65588.96412008
  -Hartree energ DENC   =    -36915.43339297
  -exchange      EXHF   =         0.00000000
  -V(xc)+E(xc)   XCENC  =      3880.55078449
  PAW double counting   =     87409.98379221   -90654.48884115
  entropy T*S    EENTRO =        -0.06755720
  eigenvalues    EBANDS =    -11804.77343816
  atomic energy  EATOM  =    110354.31518496
  Solvation  Ediel_sol  =         0.00000000
  ---------------------------------------------------
  free energy    TOTEN  =      -646.88091595 eV

  energy without entropy =     -646.81335875  energy(sigma->0) =     -646.84713735


--------------------------------------------------------------------------------------------------------




--------------------------------------- Iteration      1(   5)  ---------------------------------------


     EDDAV:  cpu time  636.4898: real time  638.1323
       DOS:  cpu time    0.0166: real time    0.0166
    CHARGE:  cpu time    9.4175: real time    9.4412
    MIXING:  cpu time    0.0524: real time    0.0526
    --------------------------------------------
      LOOP:  cpu time  645.9763: real time  647.6426

 eigenvalue-minimisations  : 60624
 total energy-change (2. order) :-0.1787112E+02  (-0.1743697E+02)
 number of electron     864.0000022 magnetization     198.3238157
 augmentation part      303.8233302 magnetization     145.7097503

 Broyden mixing:
  rms(total) = 0.10893E+02    rms(broyden)= 0.10892E+02
  rms(prec ) = 0.12523E+02
  weight for this iteration     100.00

 Free energy of the ion-electron system (eV)
  ---------------------------------------------------
  alpha Z        PSCENC =      2671.99667194
  Ewald energy   TEWEN  =    -65588.96412008
  -Hartree energ DENC   =    -36915.43339297
  -exchange      EXHF   =         0.00000000
  -V(xc)+E(xc)   XCENC  =      3880.55078449
  PAW double counting   =     87409.98379221   -90654.48884115
  entropy T*S    EENTRO =        -0.08630667
  eigenvalues    EBANDS =    -11822.62581249
  atomic energy  EATOM  =    110354.31518496
  Solvation  Ediel_sol  =         0.00000000
  ---------------------------------------------------
  free energy    TOTEN  =      -664.75203976 eV

  energy without entropy =     -664.66573309  energy(sigma->0) =     -664.70888642


--------------------------------------------------------------------------------------------------------




--------------------------------------- Iteration      1(   6)  ---------------------------------------


    POTLOK:  cpu time    1.0626: real time    1.0670
    SETDIJ:  cpu time    2.5348: real time    2.5411
     EDDAV:  cpu time  480.9317: real time  482.1729
       DOS:  cpu time    0.0161: real time    0.0162
    CHARGE:  cpu time    9.5651: real time    9.5902
    MIXING:  cpu time    0.0638: real time    0.0640
    --------------------------------------------
      LOOP:  cpu time  494.1743: real time  495.4514

 eigenvalue-minimisations  : 43504
 total energy-change (2. order) : 0.1058409E+03  (-0.6981751E+02)
 number of electron     864.0000024 magnetization     187.4896394
 augmentation part      336.6705373 magnetization     137.8274933

 Broyden mixing:
  rms(total) = 0.11184E+02    rms(broyden)= 0.11184E+02
  rms(prec ) = 0.11591E+02
  weight for this iteration     100.00

 eigenvalues of (default mixing * dielectric matrix)
  average eigenvalue GAMMA=   0.3841
  0.3841

 Free energy of the ion-electron system (eV)
  ---------------------------------------------------
  alpha Z        PSCENC =      2671.99667194
  Ewald energy   TEWEN  =    -65588.96412008
  -Hartree energ DENC   =    -35225.58960226
  -exchange      EXHF   =         0.00000000
  -V(xc)+E(xc)   XCENC  =      3831.94215529
  PAW double counting   =     90331.23150343   -93323.61765214
  entropy T*S    EENTRO =        -0.08582877
  eigenvalues    EBANDS =    -13610.13941987
  atomic energy  EATOM  =    110354.31518496
  Solvation  Ediel_sol  =         0.00000000
  ---------------------------------------------------
  free energy    TOTEN  =      -558.91110750 eV

  energy without entropy =     -558.82527873  energy(sigma->0) =     -558.86819311


--------------------------------------------------------------------------------------------------------




--------------------------------------- Iteration      1(   7)  ---------------------------------------


    POTLOK:  cpu time    1.0462: real time    1.0510
    SETDIJ:  cpu time    2.5310: real time    2.5375
     EDDAV:  cpu time  454.0271: real time  455.1987
       DOS:  cpu time    0.0166: real time    0.0167
    CHARGE:  cpu time    9.3796: real time    9.4030
    MIXING:  cpu time    0.0590: real time    0.0591
    --------------------------------------------
      LOOP:  cpu time  467.0594: real time  468.2660

 eigenvalue-minimisations  : 40504
 total energy-change (2. order) :-0.2295896E+02  (-0.1770200E+02)
 number of electron     864.0000023 magnetization     177.2459116
 augmentation part      328.7008054 magnetization     128.2261895

 Broyden mixing:
  rms(total) = 0.66678E+01    rms(broyden)= 0.66675E+01
  rms(prec ) = 0.69132E+01
  weight for this iteration     100.00

 eigenvalues of (default mixing * dielectric matrix)
  average eigenvalue GAMMA=   0.5874
  0.5874  0.5874

 Free energy of the ion-electron system (eV)
  ---------------------------------------------------
  alpha Z        PSCENC =      2671.99667194
  Ewald energy   TEWEN  =    -65588.96412008
  -Hartree energ DENC   =    -35711.38965189
  -exchange      EXHF   =         0.00000000
  -V(xc)+E(xc)   XCENC  =      3837.00419645
  PAW double counting   =     94505.68543086   -97716.05162257
  entropy T*S    EENTRO =        -0.03783978
  eigenvalues    EBANDS =    -12934.42831712
  atomic energy  EATOM  =    110354.31518496
  Solvation  Ediel_sol  =         0.00000000
  ---------------------------------------------------
  free energy    TOTEN  =      -581.87006722 eV

  energy without entropy =     -581.83222745  energy(sigma->0) =     -581.85114733


--------------------------------------------------------------------------------------------------------




--------------------------------------- Iteration      1(   8)  ---------------------------------------


    POTLOK:  cpu time    1.0591: real time    1.0631
    SETDIJ:  cpu time    2.5253: real time    2.5319
     EDDAV:  cpu time  469.9945: real time  471.2367
       DOS:  cpu time    0.0051: real time    0.0052
    CHARGE:  cpu time    9.2220: real time    9.2461
    MIXING:  cpu time    0.0695: real time    0.0697
    --------------------------------------------
      LOOP:  cpu time  482.8755: real time  484.1527

 eigenvalue-minimisations  : 42360
 total energy-change (2. order) :-0.8353274E+01  (-0.5846938E+01)
 number of electron     864.0000023 magnetization     164.2604445
 augmentation part      325.4392721 magnetization     115.1523929

 Broyden mixing:
  rms(total) = 0.43611E+01    rms(broyden)= 0.43609E+01
  rms(prec ) = 0.44393E+01
  weight for this iteration     100.00

 eigenvalues of (default mixing * dielectric matrix)
  average eigenvalue GAMMA=   0.6215
  0.6814  0.6814  0.5016

 Free energy of the ion-electron system (eV)
  ---------------------------------------------------
  alpha Z        PSCENC =      2671.99667194
  Ewald energy   TEWEN  =    -65588.96412008
  -Hartree energ DENC   =    -35851.99698172
  -exchange      EXHF   =         0.00000000
  -V(xc)+E(xc)   XCENC  =      3839.43189156
  PAW double counting   =     98050.05682449  -101313.03267162
  entropy T*S    EENTRO =        -0.00000000
  eigenvalues    EBANDS =    -12752.03014029
  atomic energy  EATOM  =    110354.31518496
  Solvation  Ediel_sol  =         0.00000000
  ---------------------------------------------------
  free energy    TOTEN  =      -590.22334077 eV

  energy without entropy =     -590.22334077  energy(sigma->0) =     -590.22334077


--------------------------------------------------------------------------------------------------------




--------------------------------------- Iteration      1(   9)  ---------------------------------------


    POTLOK:  cpu time    1.0495: real time    1.0528
    SETDIJ:  cpu time    2.5329: real time    2.5397
     EDDAV:  cpu time  465.2042: real time  466.3945
       DOS:  cpu time    0.0050: real time    0.0051
    CHARGE:  cpu time    9.2449: real time    9.2677
    MIXING:  cpu time    0.0598: real time    0.0600
    --------------------------------------------
      LOOP:  cpu time  478.0963: real time  479.3198

 eigenvalue-minimisations  : 41808
 total energy-change (2. order) :-0.7612697E+01  (-0.1527780E+01)
 number of electron     864.0000022 magnetization     150.9149734
 augmentation part      324.6433708 magnetization     101.8248520

 Broyden mixing:
  rms(total) = 0.25847E+01    rms(broyden)= 0.25847E+01
  rms(prec ) = 0.26454E+01
  weight for this iteration     100.00

 eigenvalues of (default mixing * dielectric matrix)
  average eigenvalue GAMMA=   0.8785
  1.7801  0.7274  0.5032  0.5032

 Free energy of the ion-electron system (eV)
  ---------------------------------------------------
  alpha Z        PSCENC =      2671.99667194
  Ewald energy   TEWEN  =    -65588.96412008
  -Hartree energ DENC   =    -35888.25780422
  -exchange      EXHF   =         0.00000000
  -V(xc)+E(xc)   XCENC  =      3841.28994219
  PAW double counting   =    101667.68942855  -104962.10782502
  entropy T*S    EENTRO =        -0.00000000
  eigenvalues    EBANDS =    -12693.79751634
  atomic energy  EATOM  =    110354.31518496
  Solvation  Ediel_sol  =         0.00000000
  ---------------------------------------------------
  free energy    TOTEN  =      -597.83603803 eV

  energy without entropy =     -597.83603803  energy(sigma->0) =     -597.83603803


--------------------------------------------------------------------------------------------------------




--------------------------------------- Iteration      1(  10)  ---------------------------------------


    POTLOK:  cpu time    1.0337: real time    1.0367
    SETDIJ:  cpu time    2.5632: real time    2.5694
     EDDAV:  cpu time  493.4234: real time  494.6708
       DOS:  cpu time    0.0048: real time    0.0048
    CHARGE:  cpu time    9.7534: real time    9.7780
    MIXING:  cpu time    0.0735: real time    0.0736
    --------------------------------------------
      LOOP:  cpu time  506.8519: real time  508.1334

 eigenvalue-minimisations  : 44800
 total energy-change (2. order) :-0.3216450E+01  (-0.2613072E+00)
 number of electron     864.0000022 magnetization     146.3381419
 augmentation part      324.3803548 magnetization      97.2671204

 Broyden mixing:
  rms(total) = 0.86168E+00    rms(broyden)= 0.86166E+00
  rms(prec ) = 0.89599E+00
  weight for this iteration     100.00

 eigenvalues of (default mixing * dielectric matrix)
  average eigenvalue GAMMA=   0.9792
  2.2330  0.8512  0.6613  0.6613  0.4892

 Free energy of the ion-electron system (eV)
  ---------------------------------------------------
  alpha Z        PSCENC =      2671.99667194
  Ewald energy   TEWEN  =    -65588.96412008
  -Hartree energ DENC   =    -35904.36243765
  -exchange      EXHF   =         0.00000000
  -V(xc)+E(xc)   XCENC  =      3842.93462389
  PAW double counting   =    105159.01393893  -108489.08720221
  entropy T*S    EENTRO =        -0.00000000
  eigenvalues    EBANDS =    -12646.89914766
  atomic energy  EATOM  =    110354.31518496
  Solvation  Ediel_sol  =         0.00000000
  ---------------------------------------------------
  free energy    TOTEN  =      -601.05248787 eV

  energy without entropy =     -601.05248787  energy(sigma->0) =     -601.05248787


--------------------------------------------------------------------------------------------------------




--------------------------------------- Iteration      1(  11)  ---------------------------------------


    POTLOK:  cpu time    1.0439: real time    1.0473
    SETDIJ:  cpu time    2.5046: real time    2.5109
     EDDAV:  cpu time  492.9121: real time  494.1626
       DOS:  cpu time    0.0046: real time    0.0047
    CHARGE:  cpu time    9.2950: real time    9.3178
    MIXING:  cpu time    0.0281: real time    0.0281
    --------------------------------------------
      LOOP:  cpu time  505.7883: real time  507.0713

 eigenvalue-minimisations  : 45152
 total energy-change (2. order) :-0.8097458E+00  (-0.1133464E+00)
 number of electron     864.0000022 magnetization     145.4600713
 augmentation part      324.5649621 magnetization      96.4969087

 Broyden mixing:
  rms(total) = 0.24545E+00    rms(broyden)= 0.24542E+00
  rms(prec ) = 0.26931E+00
  weight for this iteration     100.00

 eigenvalues of (default mixing * dielectric matrix)
  average eigenvalue GAMMA=   0.9964
  2.3576  1.1515  0.6924  0.6924  0.5422  0.5422

 Free energy of the ion-electron system (eV)
  ---------------------------------------------------
  alpha Z        PSCENC =      2671.99667194
  Ewald energy   TEWEN  =    -65588.96412008
  -Hartree energ DENC   =    -35892.16062268
  -exchange      EXHF   =         0.00000000
  -V(xc)+E(xc)   XCENC  =      3841.95072821
  PAW double counting   =    106014.98038842  -109355.63239806
  entropy T*S    EENTRO =        -0.00000000
  eigenvalues    EBANDS =    -12648.34806637
  atomic energy  EATOM  =    110354.31518496
  Solvation  Ediel_sol  =         0.00000000
  ---------------------------------------------------
  free energy    TOTEN  =      -601.86223366 eV

  energy without entropy =     -601.86223366  energy(sigma->0) =     -601.86223366


--------------------------------------------------------------------------------------------------------




--------------------------------------- Iteration      1(  12)  ---------------------------------------


    POTLOK:  cpu time    1.0379: real time    1.0411
    SETDIJ:  cpu time    2.5753: real time    2.5817
     EDDAV:  cpu time  485.9082: real time  487.1479
       DOS:  cpu time    0.0050: real time    0.0050
    CHARGE:  cpu time    9.2903: real time    9.3130
    MIXING:  cpu time    0.0692: real time    0.0694
    --------------------------------------------
      LOOP:  cpu time  498.8859: real time  500.1580

 eigenvalue-minimisations  : 44368
 total energy-change (2. order) :-0.6006430E-01  (-0.2651991E-01)
 number of electron     864.0000022 magnetization     144.4722596
 augmentation part      324.6283713 magnetization      95.5881536

 Broyden mixing:
  rms(total) = 0.12217E+00    rms(broyden)= 0.12216E+00
  rms(prec ) = 0.12877E+00
  weight for this iteration     100.00

 eigenvalues of (default mixing * dielectric matrix)
  average eigenvalue GAMMA=   1.0084
  2.4825  1.1439  0.8824  0.5256  0.6932  0.6932  0.6383

 Free energy of the ion-electron system (eV)
  ---------------------------------------------------
  alpha Z        PSCENC =      2671.99667194
  Ewald energy   TEWEN  =    -65588.96412008
  -Hartree energ DENC   =    -35888.11737694
  -exchange      EXHF   =         0.00000000
  -V(xc)+E(xc)   XCENC  =      3841.75206409
  PAW double counting   =    105992.86590173  -109330.64631014
  entropy T*S    EENTRO =        -0.00000000
  eigenvalues    EBANDS =    -12655.12431352
  atomic energy  EATOM  =    110354.31518496
  Solvation  Ediel_sol  =         0.00000000
  ---------------------------------------------------
  free energy    TOTEN  =      -601.92229797 eV

  energy without entropy =     -601.92229797  energy(sigma->0) =     -601.92229797


--------------------------------------------------------------------------------------------------------




--------------------------------------- Iteration      1(  13)  ---------------------------------------


    POTLOK:  cpu time    1.0418: real time    1.0450
    SETDIJ:  cpu time    2.4889: real time    2.4952
     EDDAV:  cpu time  485.7711: real time  487.0730
       DOS:  cpu time    0.0048: real time    0.0048
    CHARGE:  cpu time    9.2640: real time    9.2867
    MIXING:  cpu time    0.0745: real time    0.0747
    --------------------------------------------
      LOOP:  cpu time  498.6451: real time  499.9793

 eigenvalue-minimisations  : 44488
 total energy-change (2. order) :-0.3048147E-01  (-0.1131659E-01)
 number of electron     864.0000022 magnetization     144.1819416
 augmentation part      324.6347076 magnetization      95.3408757

 Broyden mixing:
  rms(total) = 0.67409E-01    rms(broyden)= 0.67402E-01
  rms(prec ) = 0.70199E-01
  weight for this iteration     100.00

 eigenvalues of (default mixing * dielectric matrix)
  average eigenvalue GAMMA=   1.0477
  2.5568  1.5974  0.9746  0.5177  0.6137  0.6137  0.7540  0.7540

 Free energy of the ion-electron system (eV)
  ---------------------------------------------------
  alpha Z        PSCENC =      2671.99667194
  Ewald energy   TEWEN  =    -65588.96412008
  -Hartree energ DENC   =    -35891.37087389
  -exchange      EXHF   =         0.00000000
  -V(xc)+E(xc)   XCENC  =      3841.86095704
  PAW double counting   =    106068.05412483  -109404.72683461
  entropy T*S    EENTRO =        -0.00000000
  eigenvalues    EBANDS =    -12653.11788962
  atomic energy  EATOM  =    110354.31518496
  Solvation  Ediel_sol  =         0.00000000
  ---------------------------------------------------
  free energy    TOTEN  =      -601.95277944 eV

  energy without entropy =     -601.95277944  energy(sigma->0) =     -601.95277944


--------------------------------------------------------------------------------------------------------




--------------------------------------- Iteration      1(  14)  ---------------------------------------


    POTLOK:  cpu time    1.0419: real time    1.0453
    SETDIJ:  cpu time    2.5969: real time    2.6036
     EDDAV:  cpu time  481.5560: real time  482.7793
       DOS:  cpu time    0.0047: real time    0.0047
    CHARGE:  cpu time    9.5432: real time    9.5666
    MIXING:  cpu time    0.0697: real time    0.0698
    --------------------------------------------
      LOOP:  cpu time  494.8125: real time  496.0694

 eigenvalue-minimisations  : 44056
 total energy-change (2. order) :-0.4556215E-02  (-0.1692680E-02)
 number of electron     864.0000022 magnetization     144.1619675
 augmentation part      324.6324284 magnetization      95.3314635

 Broyden mixing:
  rms(total) = 0.51334E-01    rms(broyden)= 0.51332E-01
  rms(prec ) = 0.52235E-01
  weight for this iteration     100.00

 eigenvalues of (default mixing * dielectric matrix)
  average eigenvalue GAMMA=   1.0399
  2.5020  1.7671  0.9531  0.9531  0.7050  0.7050  0.5167  0.6287  0.6287

 Free energy of the ion-electron system (eV)
  ---------------------------------------------------
  alpha Z        PSCENC =      2671.99667194
  Ewald energy   TEWEN  =    -65588.96412008
  -Hartree energ DENC   =    -35894.89822195
  -exchange      EXHF   =         0.00000000
  -V(xc)+E(xc)   XCENC  =      3841.96043551
  PAW double counting   =    106042.68808383  -109378.29174123
  entropy T*S    EENTRO =        -0.00000000
  eigenvalues    EBANDS =    -12650.76362863
  atomic energy  EATOM  =    110354.31518496
  Solvation  Ediel_sol  =         0.00000000
  ---------------------------------------------------
  free energy    TOTEN  =      -601.95733565 eV

  energy without entropy =     -601.95733565  energy(sigma->0) =     -601.95733565


--------------------------------------------------------------------------------------------------------




--------------------------------------- Iteration      1(  15)  ---------------------------------------


    POTLOK:  cpu time    1.0487: real time    1.0519
    SETDIJ:  cpu time    2.5189: real time    2.5254
     EDDAV:  cpu time  540.6879: real time  542.0806
       DOS:  cpu time    0.0048: real time    0.0048
    CHARGE:  cpu time    9.8820: real time    9.9087
    MIXING:  cpu time    0.0596: real time    0.0598
    --------------------------------------------
      LOOP:  cpu time  554.2018: real time  555.6310

 eigenvalue-minimisations  : 50264
 total energy-change (2. order) :-0.6126081E-03  (-0.1351626E-03)
 number of electron     864.0000022 magnetization     144.0066549
 augmentation part      324.6273763 magnetization      95.1812166

 Broyden mixing:
  rms(total) = 0.33341E-01    rms(broyden)= 0.33340E-01
  rms(prec ) = 0.33986E-01
  weight for this iteration     100.00

 eigenvalues of (default mixing * dielectric matrix)
  average eigenvalue GAMMA=   1.1228
  2.5997  2.0879  1.2782  1.2782  0.7689  0.7689  0.5177  0.6957  0.6167  0.6167

 Free energy of the ion-electron system (eV)
  ---------------------------------------------------
  alpha Z        PSCENC =      2671.99667194
  Ewald energy   TEWEN  =    -65588.96412008
  -Hartree energ DENC   =    -35895.96793430
  -exchange      EXHF   =         0.00000000
  -V(xc)+E(xc)   XCENC  =      3841.97981833
  PAW double counting   =    106019.14890211  -109354.17465740
  entropy T*S    EENTRO =        -0.00000000
  eigenvalues    EBANDS =    -12650.29181383
  atomic energy  EATOM  =    110354.31518496
  Solvation  Ediel_sol  =         0.00000000
  ---------------------------------------------------
  free energy    TOTEN  =      -601.95794826 eV

  energy without entropy =     -601.95794826  energy(sigma->0) =     -601.95794826


--------------------------------------------------------------------------------------------------------




--------------------------------------- Iteration      1(  16)  ---------------------------------------


    POTLOK:  cpu time    1.0519: real time    1.0554
    SETDIJ:  cpu time    2.5221: real time    2.5284
     EDDAV:  cpu time  457.4394: real time  458.6076
       DOS:  cpu time    0.0050: real time    0.0051
    CHARGE:  cpu time    9.1141: real time    9.1367
    MIXING:  cpu time    0.0711: real time    0.0713
    --------------------------------------------
      LOOP:  cpu time  470.2036: real time  471.4044

 eigenvalue-minimisations  : 41032
 total energy-change (2. order) :-0.7102383E-03  (-0.7683150E-04)
 number of electron     864.0000022 magnetization     143.9848837
 augmentation part      324.6302171 magnetization      95.1641213

 Broyden mixing:
  rms(total) = 0.11091E-01    rms(broyden)= 0.11089E-01
  rms(prec ) = 0.11412E-01
  weight for this iteration     100.00

 eigenvalues of (default mixing * dielectric matrix)
  average eigenvalue GAMMA=   1.1213
  2.7518  2.1416  1.3848  1.3848  0.7884  0.7884  0.7322  0.5184  0.6041  0.6041
  0.6361

 Free energy of the ion-electron system (eV)
  ---------------------------------------------------
  alpha Z        PSCENC =      2671.99667194
  Ewald energy   TEWEN  =    -65588.96412008
  -Hartree energ DENC   =    -35896.90838476
  -exchange      EXHF   =         0.00000000
  -V(xc)+E(xc)   XCENC  =      3842.01278623
  PAW double counting   =    106015.76235142  -109350.40013076
  entropy T*S    EENTRO =        -0.00000000
  eigenvalues    EBANDS =    -12649.77301745
  atomic energy  EATOM  =    110354.31518496
  Solvation  Ediel_sol  =         0.00000000
  ---------------------------------------------------
  free energy    TOTEN  =      -601.95865850 eV

  energy without entropy =     -601.95865850  energy(sigma->0) =     -601.95865850


--------------------------------------------------------------------------------------------------------




--------------------------------------- Iteration      1(  17)  ---------------------------------------


    POTLOK:  cpu time    1.1250: real time    1.1282
    SETDIJ:  cpu time    2.5077: real time    2.5153
     EDDAV:  cpu time  471.7463: real time  472.9644
       DOS:  cpu time    0.0049: real time    0.0050
    CHARGE:  cpu time    9.4293: real time    9.4530
    MIXING:  cpu time    0.0886: real time    0.0888
    --------------------------------------------
      LOOP:  cpu time  484.9018: real time  486.1547

 eigenvalue-minimisations  : 42640
 total energy-change (2. order) :-0.1529028E-03  (-0.2006796E-04)
 number of electron     864.0000022 magnetization     143.9916849
 augmentation part      324.6287073 magnetization      95.1710886

 Broyden mixing:
  rms(total) = 0.45162E-02    rms(broyden)= 0.45144E-02
  rms(prec ) = 0.48474E-02
  weight for this iteration     100.00

 eigenvalues of (default mixing * dielectric matrix)
  average eigenvalue GAMMA=   1.1397
  2.8839  2.3584  1.5782  1.1138  1.1138  0.7803  0.7803  0.7098  0.5183  0.6233
  0.6233  0.5928

 Free energy of the ion-electron system (eV)
  ---------------------------------------------------
  alpha Z        PSCENC =      2671.99667194
  Ewald energy   TEWEN  =    -65588.96412008
  -Hartree energ DENC   =    -35897.46233311
  -exchange      EXHF   =         0.00000000
  -V(xc)+E(xc)   XCENC  =      3842.03461548
  PAW double counting   =    106012.98437856  -109347.45540844
  entropy T*S    EENTRO =        -0.00000000
  eigenvalues    EBANDS =    -12649.40780071
  atomic energy  EATOM  =    110354.31518496
  Solvation  Ediel_sol  =         0.00000000
  ---------------------------------------------------
  free energy    TOTEN  =      -601.95881140 eV

  energy without entropy =     -601.95881140  energy(sigma->0) =     -601.95881140


--------------------------------------------------------------------------------------------------------




--------------------------------------- Iteration      1(  18)  ---------------------------------------


    POTLOK:  cpu time    1.0706: real time    1.0735
    SETDIJ:  cpu time    2.5119: real time    2.5181
     EDDAV:  cpu time  487.2563: real time  488.4956
       DOS:  cpu time    0.0047: real time    0.0047
    CHARGE:  cpu time    9.0228: real time    9.0451
    MIXING:  cpu time    0.0722: real time    0.0724
    --------------------------------------------
      LOOP:  cpu time  499.9386: real time  501.2093

 eigenvalue-minimisations  : 44712
 total energy-change (2. order) :-0.2697523E-04  (-0.4283854E-05)
 number of electron     864.0000022 magnetization     143.9971938
 augmentation part      324.6263798 magnetization      95.1758094

 Broyden mixing:
  rms(total) = 0.27410E-02    rms(broyden)= 0.27394E-02
  rms(prec ) = 0.29377E-02
  weight for this iteration     100.00

 eigenvalues of (default mixing * dielectric matrix)
  average eigenvalue GAMMA=   1.1395
  2.8742  2.4849  1.4651  1.4651  1.0957  0.8381  0.8381  0.7111  0.7111  0.5187
  0.6093  0.6093  0.5925

 Free energy of the ion-electron system (eV)
  ---------------------------------------------------
  alpha Z        PSCENC =      2671.99667194
  Ewald energy   TEWEN  =    -65588.96412008
  -Hartree energ DENC   =    -35897.76268742
  -exchange      EXHF   =         0.00000000
  -V(xc)+E(xc)   XCENC  =      3842.04589107
  PAW double counting   =    106010.52123152  -109344.98267322
  entropy T*S    EENTRO =        -0.00000000
  eigenvalues    EBANDS =    -12649.12833715
  atomic energy  EATOM  =    110354.31518496
  Solvation  Ediel_sol  =         0.00000000
  ---------------------------------------------------
  free energy    TOTEN  =      -601.95883838 eV

  energy without entropy =     -601.95883838  energy(sigma->0) =     -601.95883838


--------------------------------------------------------------------------------------------------------




--------------------------------------- Iteration      1(  19)  ---------------------------------------


    POTLOK:  cpu time    1.0527: real time    1.0559
    SETDIJ:  cpu time    2.5237: real time    2.5301
     EDDAV:  cpu time  476.8626: real time  478.1076
       DOS:  cpu time    0.0046: real time    0.0046
    CHARGE:  cpu time    9.0217: real time    9.0452
    MIXING:  cpu time    0.0758: real time    0.0760
    --------------------------------------------
      LOOP:  cpu time  489.5412: real time  490.8195

 eigenvalue-minimisations  : 43104
 total energy-change (2. order) :-0.1854842E-04  (-0.1510923E-05)
 number of electron     864.0000022 magnetization     143.9993717
 augmentation part      324.6268426 magnetization      95.1780108

 Broyden mixing:
  rms(total) = 0.19936E-02    rms(broyden)= 0.19914E-02
  rms(prec ) = 0.21094E-02
  weight for this iteration     100.00

 eigenvalues of (default mixing * dielectric matrix)
  average eigenvalue GAMMA=   1.1697
  2.8042  2.8042  1.6712  1.6712  1.1412  0.9458  0.8236  0.8236  0.6825  0.6825
  0.5182  0.6001  0.6001  0.6070

 Free energy of the ion-electron system (eV)
  ---------------------------------------------------
  alpha Z        PSCENC =      2671.99667194
  Ewald energy   TEWEN  =    -65588.96412008
  -Hartree energ DENC   =    -35897.77083748
  -exchange      EXHF   =         0.00000000
  -V(xc)+E(xc)   XCENC  =      3842.04389903
  PAW double counting   =    106008.76398286  -109343.21138030
  entropy T*S    EENTRO =        -0.00000000
  eigenvalues    EBANDS =    -12649.13225786
  atomic energy  EATOM  =    110354.31518496
  Solvation  Ediel_sol  =         0.00000000
  ---------------------------------------------------
  free energy    TOTEN  =      -601.95885692 eV

  energy without entropy =     -601.95885692  energy(sigma->0) =     -601.95885692


--------------------------------------------------------------------------------------------------------




--------------------------------------- Iteration      1(  20)  ---------------------------------------


    POTLOK:  cpu time    1.0591: real time    1.0625
    SETDIJ:  cpu time    2.5457: real time    2.5523
     EDDAV:  cpu time  463.5345: real time  464.7245
       DOS:  cpu time    0.0050: real time    0.0050
    CHARGE:  cpu time    9.0346: real time    9.0567
    MIXING:  cpu time    0.0731: real time    0.0733
    --------------------------------------------
      LOOP:  cpu time  476.2520: real time  477.4743

 eigenvalue-minimisations  : 41808
 total energy-change (2. order) :-0.1177512E-04  (-0.1514814E-05)
 number of electron     864.0000022 magnetization     143.9985273
 augmentation part      324.6270842 magnetization      95.1771047

 Broyden mixing:
  rms(total) = 0.12034E-02    rms(broyden)= 0.12000E-02
  rms(prec ) = 0.12807E-02
  weight for this iteration     100.00

 eigenvalues of (default mixing * dielectric matrix)
  average eigenvalue GAMMA=   1.2257
  3.5679  2.6213  2.1577  1.4748  1.4748  0.9231  0.9231  0.7705  0.7705  0.5179
  0.7187  0.6142  0.6142  0.6185  0.6185

 Free energy of the ion-electron system (eV)
  ---------------------------------------------------
  alpha Z        PSCENC =      2671.99667194
  Ewald energy   TEWEN  =    -65588.96412008
  -Hartree energ DENC   =    -35897.78972708
  -exchange      EXHF   =         0.00000000
  -V(xc)+E(xc)   XCENC  =      3842.04479042
  PAW double counting   =    106008.46904056  -109342.91247526
  entropy T*S    EENTRO =        -0.00000000
  eigenvalues    EBANDS =    -12649.11823416
  atomic energy  EATOM  =    110354.31518496
  Solvation  Ediel_sol  =         0.00000000
  ---------------------------------------------------
  free energy    TOTEN  =      -601.95886870 eV

  energy without entropy =     -601.95886870  energy(sigma->0) =     -601.95886870


--------------------------------------------------------------------------------------------------------




--------------------------------------- Iteration      1(  21)  ---------------------------------------


    POTLOK:  cpu time    1.0506: real time    1.0541
    SETDIJ:  cpu time    2.5384: real time    2.5445
     EDDAV:  cpu time  468.0752: real time  469.2862
       DOS:  cpu time    0.0049: real time    0.0049
    CHARGE:  cpu time    9.0555: real time    9.0777
    MIXING:  cpu time    0.0868: real time    0.0870
    --------------------------------------------
      LOOP:  cpu time  480.8114: real time  482.0544

 eigenvalue-minimisations  : 42224
 total energy-change (2. order) :-0.5504568E-05  (-0.4425445E-06)
 number of electron     864.0000022 magnetization     143.9991016
 augmentation part      324.6267772 magnetization      95.1776289

 Broyden mixing:
  rms(total) = 0.70995E-03    rms(broyden)= 0.70466E-03
  rms(prec ) = 0.74109E-03
  weight for this iteration     100.00

 eigenvalues of (default mixing * dielectric matrix)
  average eigenvalue GAMMA=   1.2481
  4.1482  2.6262  2.3965  1.3720  1.3720  1.0399  1.0399  0.8204  0.8204  0.7106
  0.7106  0.5180  0.6125  0.6125  0.5847  0.5847

 Free energy of the ion-electron system (eV)
  ---------------------------------------------------
  alpha Z        PSCENC =      2671.99667194
  Ewald energy   TEWEN  =    -65588.96412008
  -Hartree energ DENC   =    -35897.82612258
  -exchange      EXHF   =         0.00000000
  -V(xc)+E(xc)   XCENC  =      3842.04662005
  PAW double counting   =    106009.13612033  -109343.60111090
  entropy T*S    EENTRO =        -0.00000000
  eigenvalues    EBANDS =    -12649.06211793
  atomic energy  EATOM  =    110354.31518496
  Solvation  Ediel_sol  =         0.00000000
  ---------------------------------------------------
  free energy    TOTEN  =      -601.95887420 eV

  energy without entropy =     -601.95887420  energy(sigma->0) =     -601.95887420


--------------------------------------------------------------------------------------------------------




--------------------------------------- Iteration      1(  22)  ---------------------------------------


    POTLOK:  cpu time    1.0558: real time    1.0608
    SETDIJ:  cpu time    2.7269: real time    2.7338
     EDDAV:  cpu time  475.4331: real time  476.6362
       DOS:  cpu time    0.0052: real time    0.0052
    CHARGE:  cpu time    9.4844: real time    9.5087
    MIXING:  cpu time    0.0806: real time    0.0808
    --------------------------------------------
      LOOP:  cpu time  488.7859: real time  490.0255

 eigenvalue-minimisations  : 43248
 total energy-change (2. order) :-0.2364759E-05  (-0.2376083E-06)
 number of electron     864.0000022 magnetization     144.0000398
 augmentation part      324.6268555 magnetization      95.1784539

 Broyden mixing:
  rms(total) = 0.50576E-03    rms(broyden)= 0.49932E-03
  rms(prec ) = 0.52540E-03
  weight for this iteration     100.00

 eigenvalues of (default mixing * dielectric matrix)
  average eigenvalue GAMMA=   1.2704
  4.4078  2.7090  2.4100  1.4566  1.4566  1.1780  1.1780  0.8679  0.8679  0.7427
  0.7427  0.5182  0.6211  0.6211  0.6239  0.6239  0.5715

 Free energy of the ion-electron system (eV)
  ---------------------------------------------------
  alpha Z        PSCENC =      2671.99667194
  Ewald energy   TEWEN  =    -65588.96412008
  -Hartree energ DENC   =    -35897.82503383
  -exchange      EXHF   =         0.00000000
  -V(xc)+E(xc)   XCENC  =      3842.04632172
  PAW double counting   =    106009.25955931  -109343.73058010
  entropy T*S    EENTRO =        -0.00000000
  eigenvalues    EBANDS =    -12649.05688048
  atomic energy  EATOM  =    110354.31518496
  Solvation  Ediel_sol  =         0.00000000
  ---------------------------------------------------
  free energy    TOTEN  =      -601.95887657 eV

  energy without entropy =     -601.95887657  energy(sigma->0) =     -601.95887657


--------------------------------------------------------------------------------------------------------




--------------------------------------- Iteration      1(  23)  ---------------------------------------


    POTLOK:  cpu time    1.0590: real time    1.0622
    SETDIJ:  cpu time    2.5305: real time    2.5367
     EDDAV:  cpu time  515.0170: real time  516.3265
       DOS:  cpu time    0.0050: real time    0.0050
    CHARGE:  cpu time    9.1846: real time    9.2077
    MIXING:  cpu time    0.0764: real time    0.0766
    --------------------------------------------
      LOOP:  cpu time  527.8725: real time  529.2146

 eigenvalue-minimisations  : 47336
 total energy-change (2. order) :-0.2121611E-05  (-0.5161077E-07)
 number of electron     864.0000022 magnetization     144.0003148
 augmentation part      324.6267509 magnetization      95.1786918

 Broyden mixing:
  rms(total) = 0.41157E-03    rms(broyden)= 0.40361E-03
  rms(prec ) = 0.42360E-03
  weight for this iteration     100.00

 eigenvalues of (default mixing * dielectric matrix)
  average eigenvalue GAMMA=   1.3052
  4.7791  2.7957  2.5073  1.8625  1.6226  1.2735  0.9917  0.9917  0.8399  0.8399
  0.7208  0.7208  0.5181  0.6131  0.6131  0.6192  0.6192  0.5654

 Free energy of the ion-electron system (eV)
  ---------------------------------------------------
  alpha Z        PSCENC =      2671.99667194
[...]
   0.400E+00 0.622E+02 -.601E+02   -.387E+00 -.649E+02 0.627E+02   -.121E-01 0.271E+01 -.260E+01   -.193E-05 0.616E-05 -.805E-05
   0.375E+00 0.622E+02 -.600E+02   -.362E+00 -.649E+02 0.626E+02   -.115E-01 0.270E+01 -.260E+01   -.251E-05 0.438E-05 -.619E-05
   0.425E+00 0.622E+02 -.600E+02   -.411E+00 -.649E+02 0.626E+02   -.127E-01 0.270E+01 -.260E+01   0.180E-05 0.454E-05 -.689E-05
   0.400E+00 0.622E+02 -.599E+02   -.387E+00 -.649E+02 0.625E+02   -.121E-01 0.271E+01 -.261E+01   -.989E-06 0.936E-05 -.114E-05
   0.425E+00 0.622E+02 -.599E+02   -.411E+00 -.649E+02 0.626E+02   -.137E-01 0.270E+01 -.261E+01   -.130E-05 0.407E-05 -.599E-05
   0.375E+00 0.622E+02 -.599E+02   -.363E+00 -.649E+02 0.626E+02   -.105E-01 0.270E+01 -.261E+01   -.353E-05 0.411E-05 -.591E-05
   -.837E+00 -.244E+01 -.265E+01   0.864E+00 0.150E+01 0.167E+01   -.107E-01 0.943E+00 0.985E+00   -.194E-05 -.272E-05 0.645E-08
   -.840E+00 -.253E+01 -.265E+01   0.867E+00 0.158E+01 0.167E+01   -.109E-01 0.946E+00 0.986E+00   -.295E-06 -.661E-06 -.179E-05
   -.842E+00 -.244E+01 -.265E+01   0.869E+00 0.150E+01 0.167E+01   -.110E-01 0.943E+00 0.985E+00   0.167E-05 -.308E-05 -.959E-07
   -.840E+00 -.260E+01 -.265E+01   0.867E+00 0.166E+01 0.167E+01   -.108E-01 0.949E+00 0.987E+00   0.386E-06 -.200E-05 -.149E-05
   -.840E+00 -.257E+01 -.265E+01   0.867E+00 0.163E+01 0.167E+01   -.109E-01 0.948E+00 0.986E+00   0.215E-08 -.380E-05 -.891E-06
   -.839E+00 -.260E+01 -.265E+01   0.866E+00 0.166E+01 0.167E+01   -.109E-01 0.949E+00 0.987E+00   -.823E-06 -.903E-06 -.124E-05
   -.830E+00 -.242E+01 -.264E+01   0.858E+00 0.148E+01 0.166E+01   -.130E-01 0.941E+00 0.987E+00   -.947E-06 -.384E-05 -.402E-05
   -.840E+00 -.253E+01 -.265E+01   0.867E+00 0.158E+01 0.167E+01   -.109E-01 0.946E+00 0.986E+00   -.589E-06 -.422E-05 -.176E-05
   -.850E+00 -.242E+01 -.264E+01   0.876E+00 0.148E+01 0.166E+01   -.863E-02 0.941E+00 0.987E+00   0.573E-06 -.227E-05 -.346E-05
   -.841E+00 -.261E+01 -.265E+01   0.869E+00 0.166E+01 0.167E+01   -.110E-01 0.949E+00 0.986E+00   -.105E-05 -.864E-06 -.308E-05
   -.840E+00 -.257E+01 -.265E+01   0.867E+00 0.163E+01 0.167E+01   -.109E-01 0.948E+00 0.987E+00   -.221E-06 0.378E-06 -.344E-05
   -.838E+00 -.261E+01 -.265E+01   0.865E+00 0.166E+01 0.167E+01   -.107E-01 0.949E+00 0.986E+00   0.578E-07 -.222E-05 -.302E-05
   -.101E+01 0.239E+01 0.264E+01   0.103E+01 -.145E+01 -.166E+01   -.147E-02 -.932E+00 -.986E+00   0.196E-06 0.806E-06 0.367E-05
   -.840E+00 0.255E+01 0.265E+01   0.867E+00 -.160E+01 -.167E+01   -.109E-01 -.947E+00 -.987E+00   -.508E-07 0.189E-05 0.127E-05
   -.671E+00 0.239E+01 0.264E+01   0.703E+00 -.145E+01 -.166E+01   -.202E-01 -.932E+00 -.986E+00   -.140E-05 0.940E-07 0.373E-05
   -.643E+00 0.238E+01 0.266E+01   0.681E+00 -.145E+01 -.168E+01   -.280E-01 -.931E+00 -.986E+00   -.168E-05 0.377E-05 0.346E-05
   -.840E+00 0.255E+01 0.265E+01   0.867E+00 -.161E+01 -.167E+01   -.108E-01 -.947E+00 -.986E+00   -.735E-06 0.181E-05 0.462E-05
   -.104E+01 0.238E+01 0.266E+01   0.105E+01 -.145E+01 -.168E+01   0.635E-02 -.931E+00 -.986E+00   0.138E-05 0.457E-05 0.369E-05
   -.849E+00 0.255E+01 0.265E+01   0.876E+00 -.161E+01 -.167E+01   -.107E-01 -.947E+00 -.987E+00   0.424E-06 0.229E-05 0.156E-05
   -.840E+00 0.255E+01 0.265E+01   0.867E+00 -.161E+01 -.167E+01   -.109E-01 -.947E+00 -.987E+00   -.634E-06 0.882E-06 0.351E-05
   -.831E+00 0.255E+01 0.265E+01   0.858E+00 -.161E+01 -.167E+01   -.110E-01 -.947E+00 -.987E+00   -.740E-06 0.245E-05 0.532E-06
   -.831E+00 0.255E+01 0.265E+01   0.858E+00 -.161E+01 -.167E+01   -.112E-01 -.947E+00 -.987E+00   -.533E-06 0.226E-05 0.494E-06
   -.840E+00 0.255E+01 0.265E+01   0.867E+00 -.161E+01 -.167E+01   -.109E-01 -.947E+00 -.986E+00   -.866E-07 0.294E-05 -.482E-06
   -.849E+00 0.255E+01 0.265E+01   0.876E+00 -.161E+01 -.167E+01   -.105E-01 -.947E+00 -.987E+00   0.229E-06 0.149E-05 0.639E-06
   0.640E-01 0.638E+02 -.614E+02   -.949E-01 -.649E+02 0.624E+02   0.868E-02 0.102E+01 -.994E+00   -.195E-05 0.394E-05 -.103E-05
   0.236E+00 0.639E+02 -.615E+02   -.265E+00 -.649E+02 0.625E+02   0.742E-02 0.102E+01 -.989E+00   -.357E-05 0.626E-05 -.397E-05
   0.408E+00 0.638E+02 -.614E+02   -.435E+00 -.649E+02 0.624E+02   0.619E-02 0.102E+01 -.994E+00   -.815E-05 0.546E-05 0.132E-05
   0.352E+00 0.638E+02 -.617E+02   -.380E+00 -.648E+02 0.627E+02   0.649E-02 0.102E+01 -.981E+00   -.313E-05 0.665E-05 -.280E-05
   0.236E+00 0.639E+02 -.616E+02   -.265E+00 -.649E+02 0.626E+02   0.742E-02 0.102E+01 -.987E+00   -.614E-05 0.673E-05 -.143E-05
   0.119E+00 0.638E+02 -.617E+02   -.150E+00 -.648E+02 0.627E+02   0.837E-02 0.102E+01 -.981E+00   -.472E-05 0.278E-05 -.661E-05
   0.145E+00 0.639E+02 -.617E+02   -.177E+00 -.649E+02 0.627E+02   0.936E-02 0.102E+01 -.986E+00   -.400E-05 0.424E-05 -.104E-04
   0.236E+00 0.639E+02 -.616E+02   -.265E+00 -.650E+02 0.626E+02   0.741E-02 0.102E+01 -.988E+00   -.267E-05 0.244E-05 -.833E-05
   0.326E+00 0.639E+02 -.617E+02   -.353E+00 -.649E+02 0.627E+02   0.549E-02 0.102E+01 -.986E+00   -.453E-05 0.396E-05 -.115E-04
   0.304E+00 0.638E+02 -.615E+02   -.328E+00 -.649E+02 0.625E+02   0.336E-02 0.102E+01 -.991E+00   -.129E-04 0.663E-05 -.124E-04
   0.236E+00 0.639E+02 -.616E+02   -.265E+00 -.649E+02 0.625E+02   0.743E-02 0.102E+01 -.988E+00   -.222E-05 0.669E-05 -.102E-04
   0.167E+00 0.638E+02 -.615E+02   -.202E+00 -.649E+02 0.625E+02   0.115E-01 0.102E+01 -.991E+00   0.264E-05 0.805E-05 -.110E-04
   -.682E+00 -.626E+02 0.618E+02   0.609E+00 0.637E+02 -.628E+02   0.578E-01 -.105E+01 0.978E+00   -.166E-04 -.984E-05 0.135E-04
   0.236E+00 -.638E+02 0.616E+02   -.265E+00 0.649E+02 -.626E+02   0.742E-02 -.102E+01 0.988E+00   -.263E-05 -.408E-05 0.820E-05
   0.116E+01 -.626E+02 0.618E+02   -.114E+01 0.637E+02 -.628E+02   -.432E-01 -.105E+01 0.978E+00   0.926E-05 -.637E-05 0.155E-04
   0.259E+00 -.641E+02 0.616E+02   -.290E+00 0.652E+02 -.626E+02   0.880E-02 -.100E+01 0.991E+00   -.454E-05 -.404E-05 0.840E-05
   0.236E+00 -.640E+02 0.616E+02   -.265E+00 0.650E+02 -.626E+02   0.741E-02 -.102E+01 0.988E+00   0.125E-06 -.564E-05 0.952E-05
   0.212E+00 -.641E+02 0.616E+02   -.240E+00 0.652E+02 -.626E+02   0.604E-02 -.100E+01 0.991E+00   -.568E-05 -.831E-05 0.484E-05
   0.230E+00 -.638E+02 0.616E+02   -.259E+00 0.649E+02 -.626E+02   0.763E-02 -.102E+01 0.987E+00   0.329E-05 -.673E-05 0.197E-05
   0.236E+00 -.639E+02 0.616E+02   -.265E+00 0.649E+02 -.626E+02   0.742E-02 -.102E+01 0.988E+00   -.810E-05 -.856E-05 0.274E-05
   0.242E+00 -.638E+02 0.616E+02   -.271E+00 0.649E+02 -.626E+02   0.723E-02 -.102E+01 0.987E+00   -.630E-05 -.481E-05 0.181E-06
   0.240E+00 -.640E+02 0.616E+02   -.269E+00 0.650E+02 -.626E+02   0.730E-02 -.102E+01 0.988E+00   -.398E-05 -.465E-05 0.171E-05
   0.236E+00 -.640E+02 0.616E+02   -.265E+00 0.650E+02 -.626E+02   0.742E-02 -.102E+01 0.988E+00   -.463E-05 -.398E-05 0.111E-05
   0.232E+00 -.640E+02 0.616E+02   -.261E+00 0.650E+02 -.626E+02   0.755E-02 -.102E+01 0.988E+00   -.161E-05 -.342E-05 0.290E-05
   0.102E+01 0.865E-01 -.980E-01   -.973E+00 -.819E-01 0.980E-01   -.721E-01 -.379E-02 -.186E-03   -.111E-05 -.401E-05 0.298E-05
   0.104E+01 0.418E-01 -.190E-01   -.994E+00 -.387E-01 0.194E-01   -.712E-01 -.248E-02 -.403E-03   -.549E-06 0.318E-05 -.267E-05
   0.995E+00 0.421E-01 -.193E-01   -.951E+00 -.390E-01 0.197E-01   -.731E-01 -.253E-02 -.435E-03   -.315E-06 -.242E-06 -.787E-06
   0.102E+01 -.830E-01 0.429E-01   -.973E+00 0.796E-01 -.410E-01   -.721E-01 0.283E-02 -.156E-02   -.176E-05 0.421E-05 -.206E-05
   0.100E+01 -.400E-01 0.133E-01   -.958E+00 0.382E-01 -.127E-01   -.724E-01 0.148E-02 -.438E-03   0.120E-06 -.774E-06 0.135E-05
   0.103E+01 -.403E-01 0.135E-01   -.988E+00 0.385E-01 -.129E-01   -.718E-01 0.148E-02 -.438E-03   -.130E-06 -.195E-05 0.389E-05
   0.104E+01 -.869E+00 0.226E+01   -.993E+00 0.830E+00 -.217E+01   -.738E-01 0.699E-01 -.111E+00   0.512E-06 0.594E-05 -.258E-05
   0.114E+01 0.831E-01 0.485E-01   -.109E+01 -.767E-01 -.468E-01   -.753E-01 -.503E-02 -.135E-02   -.277E-06 -.134E-05 0.973E-06
   0.894E+00 0.840E-01 0.498E-01   -.854E+00 -.776E-01 -.481E-01   -.689E-01 -.511E-02 -.143E-02   -.227E-05 -.133E-05 0.353E-05
   0.102E+01 -.319E+00 -.114E+00   -.972E+00 0.309E+00 0.109E+00   -.722E-01 0.777E-02 0.392E-02   -.126E-05 -.220E-05 0.927E-06
   0.959E+00 -.877E-01 -.284E-01   -.922E+00 0.810E-01 0.226E-01   -.669E-01 0.536E-02 0.478E-02   -.168E-05 0.123E-06 0.251E-06
   0.107E+01 -.888E-01 -.290E-01   -.102E+01 0.821E-01 0.229E-01   -.775E-01 0.548E-02 0.497E-02   0.969E-06 0.273E-06 -.109E-05
 -----------------------------------------------------------------------------------------------
   0.990E+00 -.512E-01 0.102E+00   0.535E-12 -.149E-12 0.677E-12   -.994E+00 0.513E-01 -.102E+00   -.140E-03 -.123E-05 -.306E-05
 
 
 POSITION                                       TOTAL-FORCE (eV/Angst)
 -----------------------------------------------------------------------------------
      1.21012      2.83168      0.03137         0.018223      0.000164      0.000340
      5.04691      2.83168      0.03137         0.018195      0.000060      0.000116
      8.88370      2.83168      0.03137         0.018258      0.000058      0.000115
      1.21012      8.49503      0.09412         0.018221     -0.000239     -0.000155
      5.04691      8.49503      0.09412         0.018242     -0.000158     -0.000067
      8.88370      8.49503      0.09412         0.018207     -0.000156     -0.000065
      1.21012      2.68326      5.69313         0.018145      0.008916      0.004229
      5.04691      2.68326      5.69313         0.017671      0.000406     -0.000718
      8.88370      2.68326      5.69313         0.018775      0.000405     -0.000702
      1.21012      8.34662      5.75587         0.018220     -0.001635      0.000427
      5.04691      8.34662      5.75587         0.018954     -0.000740      0.000640
      8.88370      8.34662      5.75587         0.017495     -0.000735      0.000629
      1.21012     -0.07421      2.83088         0.018291      0.009773      0.004768
      5.04691     -0.07421      2.83088         0.018705      0.000647     -0.000394
      8.88370     -0.07421      2.83088         0.017756      0.000645     -0.000384
      1.21012      5.58915      2.89362         0.018225     -0.000923      0.000555
      5.04691      5.58915      2.89362         0.017713     -0.000619      0.000526
      8.88370      5.58915      2.89362         0.018746     -0.000613      0.000515
      1.21012     -0.22262      8.49264         0.018223      0.000401      0.000336
      5.04691     -0.22262      8.49264         0.018219      0.000107      0.000106
      8.88370     -0.22262      8.49264         0.018237      0.000107      0.000106
      1.21012      5.44073      8.55538         0.018229     -0.000221     -0.000120
      5.04691      5.44073      8.55538         0.018275     -0.000109     -0.000022
      8.88370      5.44073      8.55538         0.018184     -0.000110     -0.000023
      1.22181      1.31774      4.25902         0.001681     -0.086186      0.019082
      5.05860      1.30774      4.25891         0.001826     -0.004357      0.002765
      8.89539      1.30774      4.25891         0.000859     -0.004352      0.002771
      1.22181      6.97110      4.32165         0.001351      0.000069      0.002545
      5.05860      6.97110      4.32165         0.001133      0.000108      0.002399
      8.89539      6.97110      4.32165         0.001544      0.000109      0.002399
      1.22181      1.15933      9.92066         0.001356     -0.002372      0.002488
      5.05860      1.15933      9.92066         0.001345     -0.002339      0.002336
      8.89539      1.15933      9.92066         0.001337     -0.002342      0.002336
      1.22181      6.82268      9.98341         0.001349     -0.002107      0.002614
      5.05860      6.82268      9.98341         0.001324     -0.002161      0.002631
      8.89539      6.82268      9.98341         0.001362     -0.002163      0.002629
      1.22181      4.20720      1.46560         0.001356      0.003155     -0.003899
      5.05860      4.20720      1.46560         0.001867      0.002470     -0.003243
      8.89539      4.20720      1.46560         0.000829      0.002466     -0.003245
      1.22181      9.87055      1.52834         0.001341      0.002580     -0.000778
      5.05860      9.87055      1.52834         0.000679      0.001965     -0.001935
      8.89539      9.87055      1.52834         0.002012      0.001969     -0.001934
      1.22181      4.05878      7.12735         0.001359      0.003220     -0.000745
      5.05860      4.05878      7.12735         0.001575      0.002049     -0.001928
      8.89539      4.05878      7.12735         0.001111      0.002048     -0.001926
      1.22181      9.72214      7.19010         0.001350      0.003405     -0.005428
      5.05860      9.72214      7.19010         0.000771      0.002264     -0.003266
      8.89539      9.72214      7.19010         0.001922      0.002263     -0.003266
      3.14002      1.30257      1.35207         0.016631      0.002114      0.004258
      6.97680      1.30257      1.35207         0.016319      0.003528      0.004945
     10.81359      1.30257      1.35207         0.016000      0.002112      0.004238
      3.14002      6.96592      1.41481         0.016353      0.004823      0.005059
      6.97680      6.96592      1.41481         0.016321      0.004205      0.005017
     10.81359      6.96592      1.41481         0.016298      0.004816      0.005051
      3.14002      1.15415      7.01382         0.015555      0.001389      0.004704
      6.97680      1.15415      7.01382         0.016322      0.003489      0.005033
     10.81359      1.15415      7.01382         0.017100      0.001384      0.004721
      3.14002      6.81751      7.07657         0.016236      0.004984      0.005036
      6.97680      6.81751      7.07657         0.016321      0.004296      0.005115
     10.81359      6.81751      7.07657         0.016410      0.004986      0.005045
      3.14002      4.21237      4.37244         0.020756      0.003169     -0.004472
      6.97680      4.21237      4.37244         0.016323     -0.003863     -0.005051
     10.81359      4.21237      4.37244         0.011911      0.003179     -0.004444
      3.14002      9.87572      4.43518         0.010174      0.004197     -0.004214
      6.97680      9.87572      4.43518         0.016324     -0.004010     -0.004943
     10.81359      9.87572      4.43518         0.022459      0.004176     -0.004213
      3.14002      4.06395     10.03419         0.016392     -0.003874     -0.005113
      6.97680      4.06395     10.03419         0.016320     -0.003854     -0.005063
     10.81359      4.06395     10.03419         0.016255     -0.003874     -0.005115
      3.14002      9.72731     10.09694         0.016187     -0.004014     -0.005224
      6.97680      9.72731     10.09694         0.016321     -0.003883     -0.005047
     10.81359      9.72731     10.09694         0.016460     -0.004013     -0.005220
      3.14085      3.79283      1.86480        -0.022238     -0.005996      0.007502
      6.97764      3.79283      1.86480        -0.021516     -0.005680      0.006080
     10.81443      3.79283      1.86480        -0.020798     -0.006008      0.007496
      3.14085      9.45618      1.92754        -0.020949     -0.006026      0.004229
      6.97764      9.45618      1.92754        -0.021512     -0.005886      0.005669
     10.81443      9.45618      1.92754        -0.022090     -0.006024      0.004226
      3.14085      3.64441      7.52655        -0.022126     -0.005317      0.004902
      6.97764      3.64441      7.52655        -0.021514     -0.005538      0.005726
     10.81443      3.64441      7.52655        -0.020900     -0.005320      0.004899
      3.14085      9.30777      7.58930        -0.020273     -0.006204      0.006910
      6.97764      9.30777      7.58930        -0.021515     -0.006026      0.006048
     10.81443      9.30777      7.58930        -0.022767     -0.006211      0.006914
      3.14085      1.72211      3.85971        -0.015220      0.014011     -0.006986
      6.97764      1.72211      3.85971        -0.021507      0.006064     -0.005793
     10.81443      1.72211      3.85971        -0.027900      0.013992     -0.007029
      3.14085      7.38547      3.92245        -0.021872      0.002322     -0.006162
      6.97764      7.38547      3.92245        -0.021509      0.005340     -0.005821
     10.81443      7.38547      3.92245        -0.021136      0.002318     -0.006161
      3.14085      1.57370      9.52146        -0.021497      0.005700     -0.005570
      6.97764      1.57370      9.52146        -0.021507      0.005842     -0.005782
     10.81443      1.57370      9.52146        -0.021536      0.005701     -0.005574
      3.14085      7.23705      9.58421        -0.021504      0.005635     -0.005811
      6.97764      7.23705      9.58421        -0.021510      0.005651     -0.005897
     10.81443      7.23705      9.58421        -0.021522      0.005635     -0.005812
      1.23519      0.00000      0.00000        -0.028767      0.000814     -0.000162
      5.07198      0.00000      0.00000        -0.028890      0.000575     -0.000004
      8.90877      0.00000      0.00000        -0.028629      0.000582     -0.000004
      1.23519      5.66335      0.06274        -0.028769     -0.000631      0.000411
      5.07198      5.66335      0.06274        -0.028726     -0.000354      0.000154
      8.90877      5.66335      0.06274        -0.028797     -0.000356      0.000154
      1.23519     -0.14842      5.66176        -0.028978      0.030852     -0.022402
      5.07198     -0.14842      5.66176        -0.027965      0.001281      0.000306
      8.90877     -0.14842      5.66176        -0.029569      0.001288      0.000315
      1.23519      5.51494      5.72450        -0.028764     -0.002145     -0.000989
      5.07198      5.51494      5.72450        -0.029840     -0.001268     -0.001114
      8.90877      5.51494      5.72450        -0.027683     -0.001280     -0.001131
 -----------------------------------------------------------------------------------
    total drift:                               -0.004370      0.000023      0.000011


--------------------------------------------------------------------------------------------------------



  FREE ENERGIE OF THE ION-ELECTRON SYSTEM (eV)
  ---------------------------------------------------
  free  energy   TOTEN  =      -601.95888819 eV

  energy  without entropy=     -601.95888819  energy(sigma->0) =     -601.95888819
 


--------------------------------------------------------------------------------------------------------


    POTLOK:  cpu time    3.6620: real time    3.6720


--------------------------------------------------------------------------------------------------------


     LOOP+:  cpu time17859.9822: real time17906.1021
    4ORBIT:  cpu time    0.0000: real time    0.0000

 total amount of memory used by VASP MPI-rank0  1877671. kBytes
=======================================================================

   base      :      30000. kBytes
   nonl-proj :      54531. kBytes
   fftplans  :     107775. kBytes
   grid      :      78796. kBytes
   one-center:        342. kBytes
   wavefun   :    1606227. kBytes
 
  
  
 General timing and accounting informations for this job:
 ========================================================
  
                  Total CPU time used (sec):    17975.008
                            User time (sec):    17927.797
                          System time (sec):       47.211
                         Elapsed time (sec):    18021.414
  
                   Maximum memory used (kb):     2082004.
                   Average memory used (kb):           0.
  
                          Minor page faults:      2822120
                          Major page faults:            7
                 Voluntary context switches:         4598
