<?xml version="1.0" encoding="ISO-8859-1"?>
<modeling>
 <generator>
  <i name="program" type="string">vasp </i>
  <i name="version" type="string">5.4.4.18Apr17-6-g9f103f2a35  </i>
  <i name="subversion" type="string">(build Oct 25 2017 14:42:18) complex            parallel </i>
  <i name="platform" type="string">LinuxIFC </i>
  <i name="date" type="string">2021 04 13 </i>
  <i name="time" type="string">01:09:38 </i>
 </generator>
 <incar>
  <i type="string" name="PREC">accurate</i>
  <i type="string" name="ALGO"> normal</i>
  <i type="logical" name="ADDGRID"> T  </i>
  <i type="int" name="ISPIN">     2</i>
  <i type="int" name="NELM">   200</i>
  <i type="int" name="NELMIN">     8</i>
  <i name="EDIFF">      0.00000001</i>
  <i type="int" name="ISIF">     3</i>
  <i type="int" name="ISYM">     0</i>
  <i name="ENCUT">    650.00000000</i>
  <v name="MAGMOM">      0.60000000      0.60000000      0.60000000      0.60000000      0.60000000      0.60000000      0.60000000      0.60000000      0.60000000      0.60000000      0.60000000      0.60000000      0.60000000      0.60000000      0.60000000      0.60000000      0.60000000      0.60000000      0.60000000      0.60000000
      0.60000000      0.60000000      0.60000000      0.60000000      0.60000000      0.60000000      0.60000000      0.60000000      0.60000000      0.60000000      0.60000000      0.60000000      0.60000000      0.60000000      0.60000000      0.60000000      0.60000000      0.60000000      0.60000000      0.60000000
      0.60000000      0.60000000      0.60000000      0.60000000      0.60000000      0.60000000      0.60000000      0.60000000      0.60000000      0.60000000      0.60000000      0.60000000      0.60000000      0.60000000      0.60000000      0.60000000      0.60000000      0.60000000      0.60000000      0.60000000
      0.60000000      0.60000000      0.60000000      0.60000000      0.60000000      0.60000000      0.60000000      0.60000000      0.60000000      0.60000000      0.60000000      0.60000000      5.00000000      5.00000000      5.00000000      5.00000000      5.00000000      5.00000000      5.00000000      5.00000000
      5.00000000      5.00000000      5.00000000      5.00000000      5.00000000      5.00000000      5.00000000      5.00000000      5.00000000      5.00000000      5.00000000      5.00000000      5.00000000      5.00000000      5.00000000      5.00000000      5.00000000      5.00000000      5.00000000      5.00000000
      5.00000000      5.00000000      5.00000000      5.00000000      5.00000000      5.00000000      5.00000000      5.00000000</v>
  <i type="logical" name="LREAL"> F  </i>
  <i type="int" name="ISMEAR">     0</i>
  <i name="SIGMA">      0.05000000</i>
  <i type="int" name="NWRITE">     1</i>
  <i type="int" name="LMAXMIX">     4</i>
  <i type="logical" name="LWAVE"> F  </i>
  <i type="logical" name="LASPH"> T  </i>
  <v type="int" name="KPOINT_BSE">    -1     0     0     0</v>
  <i type="int" name="NELM">   200</i>
  <i type="string" name="GGA"> pe</i>
  <i type="logical" name="LDAU"> T  </i>
  <v type="int" name="LDAUTYPE">     2</v>
  <v type="int" name="LDAUL">    -1    -1    -1     2</v>
  <v name="LDAUU">      0.00000000      0.00000000      0.00000000      4.00000000</v>
  <v name="LDAUJ">      0.00000000      0.00000000      0.00000000      0.00000000</v>
  <i type="logical" name="LASPH"> T  </i>
 </incar>
 <structure name="primitive_cell" >
  <crystal>
   <varray name="basis" >
    <v>      11.51036847       0.00000000       0.00000000 </v>
    <v>       0.00000000      11.32670916       0.12548940 </v>
    <v>       0.00000000      -0.29683152      11.32351444 </v>
   </varray>
   <i name="volume">   1476.72737236 </i>
   <varray name="rec_basis" >
    <v>       0.08687819       0.00000000       0.00000000 </v>
    <v>       0.00000000       0.08826126       0.00231366 </v>
    <v>       0.00000000      -0.00097813       0.08828616 </v>
   </varray>
  </crystal>
  <varray name="positions" >
   <v>       0.10513295       0.25000000       0.00000000 </v>
   <v>       0.10614906       0.12527662      -0.12527662 </v>
   <v>       0.10614906       0.37472338       0.12527662 </v>
   <v>      -0.06053449       0.11809471       0.11809471 </v>
   <v>      -0.06053449       0.38190529      -0.11809471 </v>
   <v>       0.27279884       0.11809471       0.11809471 </v>
   <v>       0.27279884       0.38190529      -0.11809471 </v>
   <v>      -0.06046182       0.33907427       0.16092573 </v>
   <v>      -0.06046182       0.16092573      -0.16092573 </v>
   <v>       0.27287151       0.33907427       0.16092573 </v>
   <v>       0.27287151       0.16092573      -0.16092573 </v>
   <v>       0.10731129       0.00000000       0.00000000 </v>
   <v>       0.10731129      -0.50000000       0.00000000 </v>
   <v>       0.43846628       0.25000000       0.00000000 </v>
   <v>      -0.22820039       0.25000000       0.00000000 </v>
   <v>       0.10513295      -0.50000000       0.25000000 </v>
   <v>       0.10513295       0.00000000      -0.25000000 </v>
   <v>       0.10513295       0.00000000       0.25000000 </v>
   <v>       0.10513295      -0.50000000      -0.25000000 </v>
   <v>      -0.22718428       0.12527662      -0.12527662 </v>
   <v>      -0.22718428       0.37472338       0.12527662 </v>
   <v>       0.43948239       0.12527662      -0.12527662 </v>
   <v>       0.43948239       0.37472338       0.12527662 </v>
   <v>      -0.06046182       0.33907427      -0.33907427 </v>
   <v>      -0.06046182       0.16092573       0.33907427 </v>
   <v>       0.27287151       0.33907427      -0.33907427 </v>
   <v>       0.27287151       0.16092573       0.33907427 </v>
   <v>       0.10614906       0.12615944       0.37472338 </v>
   <v>       0.10614906       0.37472338      -0.37472338 </v>
   <v>       0.10614906      -0.37472338      -0.12527662 </v>
   <v>       0.10614906      -0.12527662       0.12527662 </v>
   <v>      -0.22602204       0.00000000       0.00000000 </v>
   <v>      -0.22602204      -0.50000000       0.00000000 </v>
   <v>      -0.06053449      -0.38190529       0.11809471 </v>
   <v>      -0.06053449      -0.11809471      -0.11809471 </v>
   <v>       0.27279884      -0.38190529       0.11809471 </v>
   <v>       0.27279884      -0.11809471      -0.11809471 </v>
   <v>       0.44064462       0.00000000       0.00000000 </v>
   <v>       0.44064462      -0.50000000       0.00000000 </v>
   <v>      -0.06053449       0.11809471      -0.38190529 </v>
   <v>      -0.06053449       0.38190529       0.38190529 </v>
   <v>       0.27279884       0.11809471      -0.38190529 </v>
   <v>       0.27279884       0.38190529       0.38190529 </v>
   <v>      -0.06046182      -0.16092573       0.16092573 </v>
   <v>      -0.06046182      -0.33907427      -0.16092573 </v>
   <v>       0.27287151      -0.16092573       0.16092573 </v>
   <v>       0.27287151      -0.33907427      -0.16092573 </v>
   <v>       0.43846628      -0.50000000       0.25000000 </v>
   <v>       0.43846628       0.00000000      -0.25000000 </v>
   <v>      -0.22820039      -0.50000000       0.25000000 </v>
   <v>      -0.22820039       0.00000000      -0.25000000 </v>
   <v>       0.43846628       0.00000000       0.25000000 </v>
   <v>       0.43846628      -0.50000000      -0.25000000 </v>
   <v>      -0.22820039       0.00000000       0.25000000 </v>
   <v>      -0.22820039      -0.50000000      -0.25000000 </v>
   <v>       0.10513295      -0.25000000       0.00000000 </v>
   <v>       0.10513295       0.25000000      -0.50000000 </v>
   <v>      -0.22718428       0.12527662       0.37472338 </v>
   <v>      -0.22718428       0.37472338      -0.37472338 </v>
   <v>      -0.22718428      -0.37472338      -0.12527662 </v>
   <v>      -0.22718428      -0.12527662       0.12527662 </v>
   <v>       0.43948239       0.12527662       0.37472338 </v>
   <v>       0.43948239       0.37472338      -0.37472338 </v>
   <v>       0.43948239      -0.37472338      -0.12527662 </v>
   <v>       0.43948239      -0.12527662       0.12527662 </v>
   <v>       0.10614906      -0.37472338       0.37472338 </v>
   <v>       0.10614906      -0.12527662      -0.37472338 </v>
   <v>      -0.39386782       0.11809471       0.11809471 </v>
   <v>      -0.39386782       0.38190529      -0.11809471 </v>
   <v>      -0.39379516       0.33907427       0.16092573 </v>
   <v>      -0.39379516       0.16092573      -0.16092573 </v>
   <v>      -0.06046182      -0.16092573      -0.33907427 </v>
   <v>      -0.06046182      -0.33907427       0.33907427 </v>
   <v>       0.27287151      -0.16092573      -0.33907427 </v>
   <v>       0.27287151      -0.33907427       0.33907427 </v>
   <v>       0.10731129       0.00000000      -0.50000000 </v>
   <v>       0.10731129      -0.50000000      -0.50000000 </v>
   <v>      -0.06053449      -0.38190529      -0.38190529 </v>
   <v>      -0.06053449      -0.11809471       0.38190529 </v>
   <v>       0.27279884      -0.38190529      -0.38190529 </v>
   <v>       0.27279884      -0.11809471       0.38190529 </v>
   <v>       0.43846628      -0.25000000       0.00000000 </v>
   <v>      -0.22820039      -0.25000000       0.00000000 </v>
   <v>       0.43846628       0.25000000      -0.50000000 </v>
   <v>      -0.22820039       0.25000000      -0.50000000 </v>
   <v>      -0.39379516       0.33907427      -0.33907427 </v>
   <v>      -0.39379516       0.16092573       0.33907427 </v>
   <v>      -0.22718428      -0.37472338       0.37472338 </v>
   <v>      -0.22718428      -0.12527662      -0.37472338 </v>
   <v>       0.43948239      -0.37472338       0.37472338 </v>
   <v>       0.43948239      -0.12527662      -0.37472338 </v>
   <v>      -0.39386782      -0.38190529       0.11809471 </v>
   <v>      -0.39386782      -0.11809471      -0.11809471 </v>
   <v>      -0.39386782       0.11809471      -0.38190529 </v>
   <v>      -0.39386782       0.38190529       0.38190529 </v>
   <v>      -0.22602204       0.00000000      -0.50000000 </v>
   <v>      -0.22602204      -0.50000000      -0.50000000 </v>
   <v>       0.44064462       0.00000000      -0.50000000 </v>
   <v>       0.44064462      -0.50000000      -0.50000000 </v>
   <v>      -0.39379516      -0.16092573       0.16092573 </v>
   <v>      -0.39379516      -0.33907427      -0.16092573 </v>
   <v>       0.10513295      -0.25000000      -0.50000000 </v>
   <v>      -0.39379516      -0.16092573      -0.33907427 </v>
   <v>      -0.39379516      -0.33907427       0.33907427 </v>
   <v>      -0.39386782      -0.38190529      -0.38190529 </v>
   <v>      -0.39386782      -0.11809471       0.38190529 </v>
   <v>       0.43846628      -0.25000000      -0.50000000 </v>
   <v>      -0.22820039      -0.25000000      -0.50000000 </v>
  </varray>
 </structure>
 <varray name="primitive_index" >
  <v type="int" >        1 </v>
  <v type="int" >       31 </v>
  <v type="int" >       37 </v>
  <v type="int" >       51 </v>
  <v type="int" >       69 </v>
  <v type="int" >       49 </v>
  <v type="int" >       67 </v>
  <v type="int" >       75 </v>
  <v type="int" >       93 </v>
  <v type="int" >       73 </v>
  <v type="int" >       91 </v>
  <v type="int" >       97 </v>
  <v type="int" >      100 </v>
  <v type="int" >        2 </v>
  <v type="int" >        3 </v>
  <v type="int" >       16 </v>
  <v type="int" >       19 </v>
  <v type="int" >       13 </v>
  <v type="int" >       22 </v>
  <v type="int" >       33 </v>
  <v type="int" >       39 </v>
  <v type="int" >       32 </v>
  <v type="int" >       38 </v>
  <v type="int" >       81 </v>
  <v type="int" >       87 </v>
  <v type="int" >       79 </v>
  <v type="int" >       85 </v>
  <v type="int" >       25 </v>
  <v type="int" >       43 </v>
  <v type="int" >       34 </v>
  <v type="int" >       40 </v>
  <v type="int" >       99 </v>
  <v type="int" >      102 </v>
  <v type="int" >       54 </v>
  <v type="int" >       72 </v>
  <v type="int" >       52 </v>
  <v type="int" >       70 </v>
  <v type="int" >       98 </v>
  <v type="int" >      101 </v>
  <v type="int" >       57 </v>
  <v type="int" >       63 </v>
  <v type="int" >       55 </v>
  <v type="int" >       61 </v>
  <v type="int" >       78 </v>
  <v type="int" >       96 </v>
  <v type="int" >       76 </v>
  <v type="int" >       94 </v>
  <v type="int" >       17 </v>
  <v type="int" >       20 </v>
  <v type="int" >       18 </v>
  <v type="int" >       21 </v>
  <v type="int" >       14 </v>
  <v type="int" >       23 </v>
  <v type="int" >       15 </v>
  <v type="int" >       24 </v>
  <v type="int" >        4 </v>
  <v type="int" >        7 </v>
  <v type="int" >       27 </v>
  <v type="int" >       45 </v>
  <v type="int" >       36 </v>
  <v type="int" >       42 </v>
  <v type="int" >       26 </v>
  <v type="int" >       44 </v>
  <v type="int" >       35 </v>
  <v type="int" >       41 </v>
  <v type="int" >       28 </v>
  <v type="int" >       46 </v>
  <v type="int" >       50 </v>
  <v type="int" >       68 </v>
  <v type="int" >       74 </v>
  <v type="int" >       92 </v>
  <v type="int" >       84 </v>
  <v type="int" >       90 </v>
  <v type="int" >       82 </v>
  <v type="int" >       88 </v>
  <v type="int" >      103 </v>
  <v type="int" >      106 </v>
  <v type="int" >       60 </v>
  <v type="int" >       66 </v>
  <v type="int" >       58 </v>
  <v type="int" >       64 </v>
  <v type="int" >        5 </v>
  <v type="int" >        6 </v>
  <v type="int" >        8 </v>
  <v type="int" >        9 </v>
  <v type="int" >       80 </v>
  <v type="int" >       86 </v>
  <v type="int" >       30 </v>
  <v type="int" >       48 </v>
  <v type="int" >       29 </v>
  <v type="int" >       47 </v>
  <v type="int" >       53 </v>
  <v type="int" >       71 </v>
  <v type="int" >       56 </v>
  <v type="int" >       62 </v>
  <v type="int" >      105 </v>
  <v type="int" >      108 </v>
  <v type="int" >      104 </v>
  <v type="int" >      107 </v>
  <v type="int" >       77 </v>
  <v type="int" >       95 </v>
  <v type="int" >       10 </v>
  <v type="int" >       83 </v>
  <v type="int" >       89 </v>
  <v type="int" >       59 </v>
  <v type="int" >       65 </v>
  <v type="int" >       11 </v>
  <v type="int" >       12 </v>
 </varray>
 <kpoints>
  <generation param="Gamma">
   <v type="int" name="divisions">       3        3        3 </v>
   <v name="usershift">      0.00000000       0.00000000       0.00000000 </v>
   <v name="genvec1">      0.33333333       0.00000000       0.00000000 </v>
   <v name="genvec2">      0.00000000       0.33333333      -0.00000000 </v>
   <v name="genvec3">      0.00000000      -0.00000000       0.33333333 </v>
   <v name="shift">      0.00000000       0.00000000       0.00000000 </v>
  </generation>
  <varray name="kpointlist" >
   <v>       0.00000000       0.00000000       0.00000000 </v>
   <v>       0.33333333       0.00000000       0.00000000 </v>
   <v>       0.00000000       0.33333333       0.00000000 </v>
   <v>       0.33333333       0.33333333       0.00000000 </v>
   <v>      -0.33333333       0.33333333       0.00000000 </v>
   <v>       0.00000000       0.00000000       0.33333333 </v>
   <v>       0.33333333       0.00000000       0.33333333 </v>
   <v>      -0.33333333       0.00000000       0.33333333 </v>
   <v>       0.00000000       0.33333333       0.33333333 </v>
   <v>       0.33333333       0.33333333       0.33333333 </v>
   <v>      -0.33333333       0.33333333       0.33333333 </v>
   <v>       0.00000000      -0.33333333       0.33333333 </v>
   <v>       0.33333333      -0.33333333       0.33333333 </v>
   <v>      -0.33333333      -0.33333333       0.33333333 </v>
  </varray>
  <varray name="weights" >
   <v>       0.03703704 </v>
   <v>       0.07407407 </v>
   <v>       0.07407407 </v>
   <v>       0.07407407 </v>
   <v>       0.07407407 </v>
   <v>       0.07407407 </v>
   <v>       0.07407407 </v>
   <v>       0.07407407 </v>
   <v>       0.07407407 </v>
   <v>       0.07407407 </v>
   <v>       0.07407407 </v>
   <v>       0.07407407 </v>
   <v>       0.07407407 </v>
   <v>       0.07407407 </v>
  </varray>
 </kpoints>
 <parameters>
  <separator name="general" >
   <i type="string" name="SYSTEM">unknown system</i>
   <i type="logical" name="LCOMPAT"> F  </i>
  </separator>
  <separator name="electronic" >
   <i type="string" name="PREC">accura</i>
   <i name="ENMAX">    650.00000000</i>
   <i name="ENAUG">    628.94500000</i>
   <i name="EDIFF">      0.00000001</i>
   <i type="int" name="IALGO">    38</i>
   <i type="int" name="IWAVPR">    10</i>
   <i type="int" name="NBANDS">   630</i>
   <i name="NELECT">    864.00000000</i>
   <i type="int" name="TURBO">     0</i>
   <i type="int" name="IRESTART">     0</i>
   <i type="int" name="NREBOOT">     0</i>
   <i type="int" name="NMIN">     0</i>
   <i name="EREF">      0.00000000</i>
   <separator name="electronic smearing" >
    <i type="int" name="ISMEAR">     0</i>
    <i name="SIGMA">      0.05000000</i>
    <i name="KSPACING">      0.50000000</i>
    <i type="logical" name="KGAMMA"> T  </i>
   </separator>
   <separator name="electronic projectors" >
    <i type="logical" name="LREAL"> F  </i>
    <v name="ROPT">      0.00000000      0.00000000      0.00000000      0.00000000</v>
    <i type="int" name="LMAXPAW">  -100</i>
    <i type="int" name="LMAXMIX">     4</i>
    <i type="logical" name="NLSPLINE"> F  </i>
   </separator>
   <separator name="electronic startup" >
    <i type="int" name="ISTART">     0</i>
    <i type="int" name="ICHARG">     2</i>
    <i type="int" name="INIWAV">     1</i>
   </separator>
   <separator name="electronic spin" >
    <i type="int" name="ISPIN">     2</i>
    <i type="logical" name="LNONCOLLINEAR"> F  </i>
    <v name="MAGMOM">      0.60000000      0.60000000      0.60000000      0.60000000      0.60000000      0.60000000      0.60000000      0.60000000      0.60000000      0.60000000      0.60000000      0.60000000      0.60000000      0.60000000      0.60000000      0.60000000      0.60000000      0.60000000      0.60000000      0.60000000
      0.60000000      0.60000000      0.60000000      0.60000000      0.60000000      0.60000000      0.60000000      0.60000000      0.60000000      0.60000000      0.60000000      0.60000000      0.60000000      0.60000000      0.60000000      0.60000000      0.60000000      0.60000000      0.60000000      0.60000000
      0.60000000      0.60000000      0.60000000      0.60000000      0.60000000      0.60000000      0.60000000      0.60000000      0.60000000      0.60000000      0.60000000      0.60000000      0.60000000      0.60000000      0.60000000      0.60000000      0.60000000      0.60000000      0.60000000      0.60000000
      0.60000000      0.60000000      0.60000000      0.60000000      0.60000000      0.60000000      0.60000000      0.60000000      0.60000000      0.60000000      0.60000000      0.60000000      5.00000000      5.00000000      5.00000000      5.00000000      5.00000000      5.00000000      5.00000000      5.00000000
      5.00000000      5.00000000      5.00000000      5.00000000      5.00000000      5.00000000      5.00000000      5.00000000      5.00000000      5.00000000      5.00000000      5.00000000      5.00000000      5.00000000      5.00000000      5.00000000      5.00000000      5.00000000      5.00000000      5.00000000
      5.00000000      5.00000000      5.00000000      5.00000000      5.00000000      5.00000000      5.00000000      5.00000000</v>
    <i name="NUPDOWN">     -1.00000000</i>
    <i type="logical" name="LSORBIT"> F  </i>
    <v name="SAXIS">      0.00000000      0.00000000      1.00000000</v>
    <i type="logical" name="LSPIRAL"> F  </i>
    <v name="QSPIRAL">      0.00000000      0.00000000      0.00000000</v>
    <i type="logical" name="LZEROZ"> F  </i>
   </separator>
   <separator name="electronic exchange-correlation" >
    <i type="logical" name="LASPH"> T  </i>
    <i type="logical" name="LMETAGGA"> F  </i>
   </separator>
   <separator name="electronic convergence" >
    <i type="int" name="NELM">   200</i>
    <i type="int" name="NELMDL">    -5</i>
    <i type="int" name="NELMIN">     8</i>
    <i name="ENINI">    650.00000000</i>
    <separator name="electronic convergence detail" >
     <i type="logical" name="LDIAG"> T  </i>
     <i type="logical" name="LSUBROT"> F  </i>
     <i name="WEIMIN">      0.00000000</i>
     <i name="EBREAK">      0.00000000</i>
     <i name="DEPER">      0.30000000</i>
     <i type="int" name="NRMM">     4</i>
     <i name="TIME">      0.40000000</i>
    </separator>
   </separator>
   <separator name="electronic mixer" >
    <i name="AMIX">      0.40000000</i>
    <i name="BMIX">      1.00000000</i>
    <i name="AMIN">      0.10000000</i>
    <i name="AMIX_MAG">      1.60000000</i>
    <i name="BMIX_MAG">      1.00000000</i>
    <separator name="electronic mixer details" >
     <i type="int" name="IMIX">     4</i>
     <i type="logical" name="MIXFIRST"> F  </i>
     <i type="int" name="MAXMIX">   -45</i>
     <i name="WC">    100.00000000</i>
     <i type="int" name="INIMIX">     1</i>
     <i type="int" name="MIXPRE">     1</i>
     <i type="int" name="MREMOVE">     5</i>
    </separator>
   </separator>
   <separator name="electronic dipolcorrection" >
    <i type="logical" name="LDIPOL"> F  </i>
    <i type="logical" name="LMONO"> F  </i>
    <i type="int" name="IDIPOL">     0</i>
    <i name="EPSILON">      1.00000000</i>
    <v name="DIPOL">   -100.00000000   -100.00000000   -100.00000000</v>
    <i name="EFIELD">      0.00000000</i>
   </separator>
  </separator>
  <separator name="grids" >
   <i type="int" name="NGX">    96</i>
   <i type="int" name="NGY">    96</i>
   <i type="int" name="NGZ">    96</i>
   <i type="int" name="NGXF">   192</i>
   <i type="int" name="NGYF">   192</i>
   <i type="int" name="NGZF">   192</i>
   <i type="logical" name="ADDGRID"> T  </i>
  </separator>
  <separator name="ionic" >
   <i type="int" name="NSW">     0</i>
   <i type="int" name="IBRION">    -1</i>
   <i type="int" name="MDALGO">     0</i>
   <i type="int" name="ISIF">     3</i>
   <i name="PSTRESS">      0.00000000</i>
   <i name="EDIFFG">      0.00000010</i>
   <i type="int" name="NFREE">     0</i>
   <i name="POTIM">      0.50000000</i>
   <i name="SMASS">     -3.00000000</i>
   <i name="SCALEE">      1.00000000</i>
  </separator>
  <separator name="ionic md" >
   <i name="TEBEG">      0.00010000</i>
   <i name="TEEND">      0.00010000</i>
   <i type="int" name="NBLOCK">     1</i>
   <i type="int" name="KBLOCK">     1</i>
   <i type="int" name="NPACO">   256</i>
   <i name="APACO">     16.00000000</i>
  </separator>
  <separator name="symmetry" >
   <i type="int" name="ISYM">     0</i>
   <i name="SYMPREC">      0.00001000</i>
  </separator>
  <separator name="dos" >
   <i type="int" name="LORBIT">     0</i>
   <v name="RWIGS">     -1.00000000     -1.00000000     -1.00000000     -1.00000000</v>
   <i type="int" name="NEDOS">   301</i>
   <i name="EMIN">     10.00000000</i>
   <i name="EMAX">    -10.00000000</i>
   <i name="EFERMI">      0.00000000</i>
  </separator>
  <separator name="writing" >
   <i type="int" name="NWRITE">     1</i>
   <i type="logical" name="LWAVE"> F  </i>
   <i type="logical" name="LDOWNSAMPLE"> F  </i>
   <i type="logical" name="LCHARG"> T  </i>
   <i type="logical" name="LPARD"> F  </i>
   <i type="logical" name="LVTOT"> F  </i>
   <i type="logical" name="LVHAR"> F  </i>
   <i type="logical" name="LELF"> F  </i>
   <i type="logical" name="LOPTICS"> F  </i>
   <v name="STM">      0.00000000      0.00000000      0.00000000      0.00000000      0.00000000      0.00000000      0.00000000</v>
  </separator>
  <separator name="performance" >
   <i type="int" name="NPAR">     1</i>
   <i type="int" name="NSIM">     4</i>
   <i type="int" name="NBLK">    -1</i>
   <i type="logical" name="LPLANE"> T  </i>
   <i type="logical" name="LSCALAPACK"> T  </i>
   <i type="logical" name="LSCAAWARE"> F  </i>
   <i type="logical" name="LSCALU"> F  </i>
   <i type="logical" name="LASYNC"> F  </i>
   <i type="logical" name="LORBITALREAL"> F  </i>
  </separator>
  <separator name="miscellaneous" >
   <i type="int" name="IDIOT">     3</i>
   <i type="int" name="ISPECIAL">     0</i>
   <i type="logical" name="LMUSIC"> F  </i>
   <v name="POMASS">      7.01000000     16.00000000     32.06600000     55.84700000</v>
   <v name="DARWINR">      0.00000000      0.00000000      0.00000000      0.00000000</v>
   <v name="DARWINV">      1.00000000      1.00000000      1.00000000      1.00000000</v>
   <i type="logical" name="LCORR"> T  </i>
  </separator>
  <i type="logical" name="GGA_COMPAT"> T  </i>
  <i type="logical" name="LBERRY"> F  </i>
  <i type="int" name="ICORELEVEL">     0</i>
  <i type="logical" name="LDAU"> T  </i>
  <v type="int" name="LDAUTYPE">     2</v>
  <v type="int" name="LDAUL">    -1</v>
  <v name="LDAUU">      0.00000000</v>
  <v name="LDAUJ">      0.00000000</v>
  <i type="int" name="LDAUPRINT">     0</i>
  <i type="int" name="I_CONSTRAINED_M">     0</i>
  <separator name="electronic exchange-correlation" >
   <i type="string" name="GGA">PE</i>
   <i type="int" name="VOSKOWN">     0</i>
   <i type="logical" name="LHFCALC"> F  </i>
   <i type="string" name="PRECFOCK"></i>
   <i type="logical" name="LSYMGRAD"> F  </i>
   <i type="logical" name="LHFONE"> F  </i>
   <i type="logical" name="LRHFCALC"> F  </i>
   <i type="logical" name="LTHOMAS"> F  </i>
   <i type="logical" name="LMODELHF"> F  </i>
   <i name="ENCUT4O">     -1.00000000</i>
   <i type="int" name="EXXOEP">     0</i>
   <i type="int" name="FOURORBIT">     0</i>
   <i name="AEXX">      0.00000000</i>
   <i name="HFALPHA">      0.00000000</i>
   <i name="MCALPHA">      0.00000000</i>
   <i name="ALDAX">      1.00000000</i>
   <i name="AGGAX">      1.00000000</i>
   <i name="ALDAC">      1.00000000</i>
   <i name="AGGAC">      1.00000000</i>
   <i type="int" name="NKREDX">     1</i>
   <i type="int" name="NKREDY">     1</i>
   <i type="int" name="NKREDZ">     1</i>
   <i type="logical" name="SHIFTRED"> F  </i>
   <i type="logical" name="ODDONLY"> F  </i>
   <i type="logical" name="EVENONLY"> F  </i>
   <i type="int" name="LMAXFOCK">     0</i>
   <i type="int" name="NMAXFOCKAE">     0</i>
   <i type="logical" name="LFOCKAEDFT"> F  </i>
   <i name="HFSCREEN">      0.00000000</i>
   <i name="HFSCREENC">      0.00000000</i>
   <i type="int" name="NBANDSGWLOW">     0</i>
  </separator>
  <separator name="vdW DFT" >
   <i type="logical" name="LUSE_VDW"> F  </i>
   <i name="Zab_VDW">     -0.84910000</i>
   <i name="PARAM1">      0.12340000</i>
   <i name="PARAM2">      1.00000000</i>
   <i name="PARAM3">      0.00000000</i>
  </separator>
  <separator name="model GW" >
   <i type="int" name="MODEL_GW">     0</i>
   <i name="MODEL_EPS0">      8.20404096</i>
   <i name="MODEL_ALPHA">      1.00000000</i>
  </separator>
  <separator name="linear response parameters" >
   <i type="logical" name="LEPSILON"> F  </i>
   <i type="logical" name="LRPA"> F  </i>
   <i type="logical" name="LNABLA"> F  </i>
   <i type="logical" name="LVEL"> F  </i>
   <i type="int" name="KINTER">     0</i>
   <i name="CSHIFT">      0.10000000</i>
   <i name="OMEGAMAX">     -1.00000000</i>
   <i name="DEG_THRESHOLD">      0.00200000</i>
   <i name="RTIME">     -0.10000000</i>
   <i name="WPLASMAI">      0.00000000</i>
   <v name="DFIELD">      0.00000000      0.00000000      0.00000000</v>
   <v name="WPLASMA">      0.00000000      0.00000000      0.00000000      0.00000000      0.00000000      0.00000000      0.00000000      0.00000000      0.00000000</v>
  </separator>
  <separator name="orbital magnetization" >
   <i type="logical" name="NUCIND"> F  </i>
   <v name="MAGPOS">      0.00000000      0.00000000      0.00000000</v>
   <i type="logical" name="LNICSALL"> T  </i>
   <i type="logical" name="ORBITALMAG"> F  </i>
   <i type="logical" name="LMAGBLOCH"> F  </i>
   <i type="logical" name="LCHIMAG"> F  </i>
   <i type="logical" name="LGAUGE"> T  </i>
   <i type="int" name="MAGATOM">     0</i>
   <v name="MAGDIPOL">      0.00000000      0.00000000      0.00000000</v>
   <v name="AVECCONST">      0.00000000      0.00000000      0.00000000</v>
  </separator>
  <separator name="response functions" >
   <i type="logical" name="LADDER"> F  </i>
   <i type="logical" name="LRPAFORCE"> F  </i>
   <i type="logical" name="LFXC"> F  </i>
   <i type="logical" name="LHARTREE"> T  </i>
   <i type="int" name="IBSE">     0</i>
   <v type="int" name="KPOINT">    -1     0     0     0</v>
   <i type="logical" name="LTCTE"> F  </i>
   <i type="logical" name="LTETE"> F  </i>
   <i type="logical" name="LTRIPLET"> F  </i>
   <i type="logical" name="LFXCEPS"> F  </i>
   <i type="logical" name="LFXHEG"> F  </i>
   <i type="int" name="NATURALO">     2</i>
   <i type="logical" name="L2ORDER"> F  </i>
   <i type="logical" name="LMP2LT"> F  </i>
   <i type="logical" name="LUSEW"> F  </i>
   <i name="ENCUTGW">     -2.00000000</i>
   <i name="ENCUTGWSOFT">     -2.00000000</i>
   <i name="ENCUTLF">     -1.00000000</i>
   <i type="int" name="LMAXMP2">    -1</i>
   <i name="SCISSOR">      0.00000000</i>
   <i type="int" name="NOMEGA">     0</i>
   <i type="int" name="NOMEGAR">     0</i>
   <i type="int" name="NBANDSGW">    -1</i>
   <i type="int" name="NBANDSO">    -1</i>
   <i type="int" name="NBANDSV">    -1</i>
   <i type="int" name="NELM">   200</i>
   <i type="int" name="NELMHF">     1</i>
   <i type="int" name="DIM">     3</i>
   <i type="int" name="ANTIRES">     0</i>
   <i name="OMEGAMAX">    -30.00000000</i>
   <i name="OMEGAMIN">    -30.00000000</i>
   <i name="OMEGATL">   -200.00000000</i>
   <i type="int" name="OMEGAGRID">   140</i>
   <i name="CSHIFT">     -0.10000000</i>
   <i type="logical" name="SELFENERGY"> F  </i>
   <i type="logical" name="LSPECTRAL"> F  </i>
   <i type="logical" name="LSPECTRALGW"> F  </i>
   <i type="logical" name="LSINGLES"> F  </i>
   <i type="logical" name="LFERMIGW"> F  </i>
   <i type="logical" name="ODDONLYGW"> F  </i>
   <i type="logical" name="EVENONLYGW"> F  </i>
   <i type="int" name="NKREDLFX">     1</i>
   <i type="int" name="NKREDLFY">     1</i>
   <i type="int" name="NKREDLFZ">     1</i>
   <i type="int" name="MAXMEM">  2800</i>
   <i type="int" name="TELESCOPE">     0</i>
   <i type="int" name="TAUPAR">     1</i>
   <i type="int" name="OMEGAPAR">    -1</i>
   <i name="LAMBDA">      1.00000000</i>
  </separator>
  <separator name="External order field" >
   <i name="OFIELD_KAPPA">      0.00000000</i>
   <v name="OFIELD_K">      0.00000000      0.00000000      0.00000000</v>
   <i name="OFIELD_Q6_NEAR">      0.00000000</i>
   <i name="OFIELD_Q6_FAR">      0.00000000</i>
   <i name="OFIELD_A">      0.00000000</i>
  </separator>
 </parameters>
 <atominfo>
  <atoms>     108 </atoms>
  <types>       4 </types>
  <array name="atoms" >
   <dimension dim="1">ion</dimension>
   <field type="string">element</field>
   <field type="int">atomtype</field>
   <set>
    <rc><c>Li</c><c>   1</c></rc>
    <rc><c>Li</c><c>   1</c></rc>
    <rc><c>Li</c><c>   1</c></rc>
    <rc><c>Li</c><c>   1</c></rc>
    <rc><c>Li</c><c>   1</c></rc>
    <rc><c>Li</c><c>   1</c></rc>
    <rc><c>Li</c><c>   1</c></rc>
    <rc><c>Li</c><c>   1</c></rc>
    <rc><c>Li</c><c>   1</c></rc>
    <rc><c>Li</c><c>   1</c></rc>
    <rc><c>Li</c><c>   1</c></rc>
    <rc><c>Li</c><c>   1</c></rc>
    <rc><c>Li</c><c>   1</c></rc>
    <rc><c>Li</c><c>   1</c></rc>
    <rc><c>Li</c><c>   1</c></rc>
    <rc><c>Li</c><c>   1</c></rc>
    <rc><c>Li</c><c>   1</c></rc>
    <rc><c>Li</c><c>   1</c></rc>
    <rc><c>Li</c><c>   1</c></rc>
    <rc><c>Li</c><c>   1</c></rc>
    <rc><c>Li</c><c>   1</c></rc>
    <rc><c>Li</c><c>   1</c></rc>
    <rc><c>Li</c><c>   1</c></rc>
    <rc><c>Li</c><c>   1</c></rc>
    <rc><c>O </c><c>   2</c></rc>
    <rc><c>O </c><c>   2</c></rc>
    <rc><c>O </c><c>   2</c></rc>
    <rc><c>O </c><c>   2</c></rc>
    <rc><c>O </c><c>   2</c></rc>
    <rc><c>O </c><c>   2</c></rc>
    <rc><c>O </c><c>   2</c></rc>
    <rc><c>O </c><c>   2</c></rc>
    <rc><c>O </c><c>   2</c></rc>
    <rc><c>O </c><c>   2</c></rc>
    <rc><c>O </c><c>   2</c></rc>
    <rc><c>O </c><c>   2</c></rc>
    <rc><c>O </c><c>   2</c></rc>
    <rc><c>O </c><c>   2</c></rc>
    <rc><c>O </c><c>   2</c></rc>
    <rc><c>O </c><c>   2</c></rc>
    <rc><c>O </c><c>   2</c></rc>
    <rc><c>O </c><c>   2</c></rc>
    <rc><c>O </c><c>   2</c></rc>
    <rc><c>O </c><c>   2</c></rc>
    <rc><c>O </c><c>   2</c></rc>
    <rc><c>O </c><c>   2</c></rc>
    <rc><c>O </c><c>   2</c></rc>
    <rc><c>O </c><c>   2</c></rc>
    <rc><c>S </c><c>   3</c></rc>
    <rc><c>S </c><c>   3</c></rc>
    <rc><c>S </c><c>   3</c></rc>
    <rc><c>S </c><c>   3</c></rc>
    <rc><c>S </c><c>   3</c></rc>
    <rc><c>S </c><c>   3</c></rc>
    <rc><c>S </c><c>   3</c></rc>
    <rc><c>S </c><c>   3</c></rc>
    <rc><c>S </c><c>   3</c></rc>
    <rc><c>S </c><c>   3</c></rc>
    <rc><c>S </c><c>   3</c></rc>
    <rc><c>S </c><c>   3</c></rc>
    <rc><c>S </c><c>   3</c></rc>
    <rc><c>S </c><c>   3</c></rc>
    <rc><c>S </c><c>   3</c></rc>
    <rc><c>S </c><c>   3</c></rc>
    <rc><c>S </c><c>   3</c></rc>
    <rc><c>S </c><c>   3</c></rc>
    <rc><c>S </c><c>   3</c></rc>
    <rc><c>S </c><c>   3</c></rc>
    <rc><c>S </c><c>   3</c></rc>
    <rc><c>S </c><c>   3</c></rc>
    <rc><c>S </c><c>   3</c></rc>
    <rc><c>S </c><c>   3</c></rc>
    <rc><c>Fe</c><c>   4</c></rc>
    <rc><c>Fe</c><c>   4</c></rc>
    <rc><c>Fe</c><c>   4</c></rc>
    <rc><c>Fe</c><c>   4</c></rc>
    <rc><c>Fe</c><c>   4</c></rc>
    <rc><c>Fe</c><c>   4</c></rc>
    <rc><c>Fe</c><c>   4</c></rc>
    <rc><c>Fe</c><c>   4</c></rc>
    <rc><c>Fe</c><c>   4</c></rc>
    <rc><c>Fe</c><c>   4</c></rc>
    <rc><c>Fe</c><c>   4</c></rc>
    <rc><c>Fe</c><c>   4</c></rc>
    <rc><c>Fe</c><c>   4</c></rc>
    <rc><c>Fe</c><c>   4</c></rc>
    <rc><c>Fe</c><c>   4</c></rc>
    <rc><c>Fe</c><c>   4</c></rc>
    <rc><c>Fe</c><c>   4</c></rc>
    <rc><c>Fe</c><c>   4</c></rc>
    <rc><c>Fe</c><c>   4</c></rc>
    <rc><c>Fe</c><c>   4</c></rc>
    <rc><c>Fe</c><c>   4</c></rc>
    <rc><c>Fe</c><c>   4</c></rc>
    <rc><c>Fe</c><c>   4</c></rc>
    <rc><c>Fe</c><c>   4</c></rc>
    <rc><c>Fe</c><c>   4</c></rc>
    <rc><c>Fe</c><c>   4</c></rc>
    <rc><c>Fe</c><c>   4</c></rc>
    <rc><c>Fe</c><c>   4</c></rc>
    <rc><c>Fe</c><c>   4</c></rc>
    <rc><c>Fe</c><c>   4</c></rc>
    <rc><c>Fe</c><c>   4</c></rc>
    <rc><c>Fe</c><c>   4</c></rc>
    <rc><c>Fe</c><c>   4</c></rc>
    <rc><c>Fe</c><c>   4</c></rc>
    <rc><c>Fe</c><c>   4</c></rc>
    <rc><c>Fe</c><c>   4</c></rc>
   </set>
  </array>
  <array name="atomtypes" >
   <dimension dim="1">type</dimension>
   <field type="int">atomspertype</field>
   <field type="string">element</field>
   <field>mass</field>
   <field>valence</field>
   <field type="string">pseudopotential</field>
   <set>
    <rc><c>  24</c><c>Li</c><c>      7.01000000</c><c>      3.00000000</c><c>  PAW_PBE Li_sv 10Sep2004               </c></rc>
    <rc><c>  24</c><c>O </c><c>     16.00000000</c><c>      6.00000000</c><c>  PAW_PBE O 08Apr2002                   </c></rc>
    <rc><c>  24</c><c>S </c><c>     32.06600000</c><c>      6.00000000</c><c>  PAW_PBE S 06Sep2000                   </c></rc>
    <rc><c>  36</c><c>Fe</c><c>     55.84700000</c><c>     14.00000000</c><c>  PAW_PBE Fe_pv 02Aug2007               </c></rc>
   </set>
  </array>
 </atominfo>
 <structure name="initialpos" >
  <crystal>
   <varray name="basis" >
    <v>      11.51036847       0.00000000       0.00000000 </v>
    <v>       0.00000000      11.32670916       0.12548940 </v>
    <v>       0.00000000      -0.29683152      11.32351444 </v>
   </varray>
   <i name="volume">   1476.72737236 </i>
   <varray name="rec_basis" >
    <v>       0.08687819       0.00000000       0.00000000 </v>
    <v>       0.00000000       0.08826126       0.00231366 </v>
    <v>       0.00000000      -0.00097813       0.08828616 </v>
   </varray>
  </crystal>
  <varray name="positions" >
   <v>       0.10513295       0.25000000       0.00000000 </v>
   <v>       0.43846628       0.25000000       0.00000000 </v>
   <v>       0.77179961       0.25000000       0.00000000 </v>
   <v>       0.10513295       0.75000000       0.00000000 </v>
   <v>       0.43846628       0.75000000       0.00000000 </v>
   <v>       0.77179961       0.75000000       0.00000000 </v>
   <v>       0.10513295       0.25000000       0.50000000 </v>
   <v>       0.43846628       0.25000000       0.50000000 </v>
   <v>       0.77179961       0.25000000       0.50000000 </v>
   <v>       0.10513295       0.75000000       0.50000000 </v>
   <v>       0.43846628       0.75000000       0.50000000 </v>
   <v>       0.77179961       0.75000000       0.50000000 </v>
   <v>       0.10513295       0.00000000       0.25000000 </v>
   <v>       0.43846628       0.00000000       0.25000000 </v>
   <v>       0.77179961       0.00000000       0.25000000 </v>
   <v>       0.10513295       0.50000000       0.25000000 </v>
   <v>       0.43846628       0.50000000       0.25000000 </v>
   <v>       0.77179961       0.50000000       0.25000000 </v>
   <v>       0.10513295       0.00000000       0.75000000 </v>
   <v>       0.43846628       0.00000000       0.75000000 </v>
   <v>       0.77179961       0.00000000       0.75000000 </v>
   <v>       0.10513295       0.50000000       0.75000000 </v>
   <v>       0.43846628       0.50000000       0.75000000 </v>
   <v>       0.77179961       0.50000000       0.75000000 </v>
   <v>       0.10614906       0.12615944       0.37472338 </v>
   <v>       0.43948239       0.12527662       0.37472338 </v>
   <v>       0.77281572       0.12527662       0.37472338 </v>
   <v>       0.10614906       0.62527662       0.37472338 </v>
   <v>       0.43948239       0.62527662       0.37472338 </v>
   <v>       0.77281572       0.62527662       0.37472338 </v>
   <v>       0.10614906       0.12527662       0.87472338 </v>
   <v>       0.43948239       0.12527662       0.87472338 </v>
   <v>       0.77281572       0.12527662       0.87472338 </v>
   <v>       0.10614906       0.62527662       0.87472338 </v>
   <v>       0.43948239       0.62527662       0.87472338 </v>
   <v>       0.77281572       0.62527662       0.87472338 </v>
   <v>       0.10614906       0.37472338       0.12527662 </v>
   <v>       0.43948239       0.37472338       0.12527662 </v>
   <v>       0.77281572       0.37472338       0.12527662 </v>
   <v>       0.10614906       0.87472338       0.12527662 </v>
   <v>       0.43948239       0.87472338       0.12527662 </v>
   <v>       0.77281572       0.87472338       0.12527662 </v>
   <v>       0.10614906       0.37472338       0.62527662 </v>
   <v>       0.43948239       0.37472338       0.62527662 </v>
   <v>       0.77281572       0.37472338       0.62527662 </v>
   <v>       0.10614906       0.87472338       0.62527662 </v>
   <v>       0.43948239       0.87472338       0.62527662 </v>
   <v>       0.77281572       0.87472338       0.62527662 </v>
   <v>       0.27279884       0.11809471       0.11809471 </v>
   <v>       0.60613218       0.11809471       0.11809471 </v>
   <v>       0.93946551       0.11809471       0.11809471 </v>
   <v>       0.27279884       0.61809471       0.11809471 </v>
   <v>       0.60613218       0.61809471       0.11809471 </v>
   <v>       0.93946551       0.61809471       0.11809471 </v>
   <v>       0.27279884       0.11809471       0.61809471 </v>
   <v>       0.60613218       0.11809471       0.61809471 </v>
   <v>       0.93946551       0.11809471       0.61809471 </v>
   <v>       0.27279884       0.61809471       0.61809471 </v>
   <v>       0.60613218       0.61809471       0.61809471 </v>
   <v>       0.93946551       0.61809471       0.61809471 </v>
   <v>       0.27279884       0.38190529       0.38190529 </v>
   <v>       0.60613218       0.38190529       0.38190529 </v>
   <v>       0.93946551       0.38190529       0.38190529 </v>
   <v>       0.27279884       0.88190529       0.38190529 </v>
   <v>       0.60613218       0.88190529       0.38190529 </v>
   <v>       0.93946551       0.88190529       0.38190529 </v>
   <v>       0.27279884       0.38190529       0.88190529 </v>
   <v>       0.60613218       0.38190529       0.88190529 </v>
   <v>       0.93946551       0.38190529       0.88190529 </v>
   <v>       0.27279884       0.88190529       0.88190529 </v>
   <v>       0.60613218       0.88190529       0.88190529 </v>
   <v>       0.93946551       0.88190529       0.88190529 </v>
   <v>       0.27287151       0.33907427       0.16092573 </v>
   <v>       0.60620484       0.33907427       0.16092573 </v>
   <v>       0.93953818       0.33907427       0.16092573 </v>
   <v>       0.27287151       0.83907427       0.16092573 </v>
   <v>       0.60620484       0.83907427       0.16092573 </v>
   <v>       0.93953818       0.83907427       0.16092573 </v>
   <v>       0.27287151       0.33907427       0.66092573 </v>
   <v>       0.60620484       0.33907427       0.66092573 </v>
   <v>       0.93953818       0.33907427       0.66092573 </v>
   <v>       0.27287151       0.83907427       0.66092573 </v>
   <v>       0.60620484       0.83907427       0.66092573 </v>
   <v>       0.93953818       0.83907427       0.66092573 </v>
   <v>       0.27287151       0.16092573       0.33907427 </v>
   <v>       0.60620484       0.16092573       0.33907427 </v>
   <v>       0.93953818       0.16092573       0.33907427 </v>
   <v>       0.27287151       0.66092573       0.33907427 </v>
   <v>       0.60620484       0.66092573       0.33907427 </v>
   <v>       0.93953818       0.66092573       0.33907427 </v>
   <v>       0.27287151       0.16092573       0.83907427 </v>
   <v>       0.60620484       0.16092573       0.83907427 </v>
   <v>       0.93953818       0.16092573       0.83907427 </v>
   <v>       0.27287151       0.66092573       0.83907427 </v>
   <v>       0.60620484       0.66092573       0.83907427 </v>
   <v>       0.93953818       0.66092573       0.83907427 </v>
   <v>       0.10731129       0.00000000       0.00000000 </v>
   <v>       0.44064462       0.00000000       0.00000000 </v>
   <v>       0.77397796       0.00000000       0.00000000 </v>
   <v>       0.10731129       0.50000000       0.00000000 </v>
   <v>       0.44064462       0.50000000       0.00000000 </v>
   <v>       0.77397796       0.50000000       0.00000000 </v>
   <v>       0.10731129       0.00000000       0.50000000 </v>
   <v>       0.44064462       0.00000000       0.50000000 </v>
   <v>       0.77397796       0.00000000       0.50000000 </v>
   <v>       0.10731129       0.50000000       0.50000000 </v>
   <v>       0.44064462       0.50000000       0.50000000 </v>
   <v>       0.77397796       0.50000000       0.50000000 </v>
  </varray>
 </structure>
 <calculation>
  <scstep>
   <time name="dav">  415.40  416.48</time>
   <time name="total">  419.10  420.19</time>
   <energy>
    <i name="alphaZ">   2671.99667194 </i>
    <i name="ewald"> -65588.96412008 </i>
    <i name="hartreedc"> -36915.43339297 </i>
    <i name="XCdc">   3880.55078449 </i>
    <i name="pawpsdc">  87409.98379221 </i>
    <i name="pawaedc"> -90654.48884115 </i>
    <i name="eentropy">     -0.02763323 </i>
    <i name="bandstr">   1718.55075443 </i>
    <i name="atom"> 110354.31518496 </i>
    <i name="e_fr_energy">  12876.48320061 </i>
    <i name="e_wo_entrp">  12876.51083383 </i>
    <i name="e_0_energy">  12876.49701722 </i>
   </energy>
  </scstep>
  <scstep>
   <time name="dav">  408.98  410.03</time>
   <time name="total">  408.99  410.04</time>
   <energy>
    <i name="e_fr_energy">   1532.83777203 </i>
    <i name="e_wo_entrp">   1532.91014435 </i>
    <i name="e_0_energy">   1532.87395819 </i>
   </energy>
  </scstep>
  <scstep>
   <time name="dav">  427.27  428.37</time>
   <time name="total">  427.29  428.39</time>
   <energy>
    <i name="e_fr_energy">   -433.34202664 </i>
    <i name="e_wo_entrp">   -433.27216740 </i>
    <i name="e_0_energy">   -433.30709702 </i>
   </energy>
  </scstep>
  <scstep>
   <time name="dav">  484.43  485.71</time>
   <time name="total">  484.45  485.72</time>
   <energy>
    <i name="e_fr_energy">   -646.88091595 </i>
    <i name="e_wo_entrp">   -646.81335875 </i>
    <i name="e_0_energy">   -646.84713735 </i>
   </energy>
  </scstep>
  <scstep>
   <time name="dav">  636.49  638.13</time>
   <time name="total">  645.98  647.64</time>
   <energy>
    <i name="e_fr_energy">   -664.75203976 </i>
    <i name="e_wo_entrp">   -664.66573309 </i>
    <i name="e_0_energy">   -664.70888642 </i>
   </energy>
  </scstep>
  <scstep>
   <time name="dav">  480.93  482.17</time>
   <time name="total">  494.17  495.45</time>
   <energy>
    <i name="e_fr_energy">   -558.91110750 </i>
    <i name="e_wo_entrp">   -558.82527873 </i>
    <i name="e_0_energy">   -558.86819311 </i>
   </energy>
  </scstep>
  <scstep>
   <time name="dav">  454.03  455.20</time>
   <time name="total">  467.06  468.27</time>
   <energy>
    <i name="e_fr_energy">   -581.87006722 </i>
    <i name="e_wo_entrp">   -581.83222745 </i>
    <i name="e_0_energy">   -581.85114733 </i>
   </energy>
  </scstep>
  <scstep>
   <time name="dav">  469.99  471.24</time>
   <time name="total">  482.88  484.15</time>
   <energy>
    <i name="e_fr_energy">   -590.22334077 </i>
    <i name="e_wo_entrp">   -590.22334077 </i>
    <i name="e_0_energy">   -590.22334077 </i>
   </energy>
  </scstep>
  <scstep>
   <time name="dav">  465.20  466.39</time>
   <time name="total">  478.10  479.32</time>
   <energy>
    <i name="e_fr_energy">   -597.83603803 </i>
    <i name="e_wo_entrp">   -597.83603803 </i>
    <i name="e_0_energy">   -597.83603803 </i>
   </energy>
  </scstep>
  <scstep>
   <time name="dav">  493.42  494.67</time>
   <time name="total">  506.85  508.13</time>
   <energy>
    <i name="e_fr_energy">   -601.05248787 </i>
    <i name="e_wo_entrp">   -601.05248787 </i>
    <i name="e_0_energy">   -601.05248787 </i>
   </energy>
  </scstep>
  <scstep>
   <time name="dav">  492.91  494.16</time>
   <time name="total">  505.79  507.07</time>
   <energy>
    <i name="e_fr_energy">   -601.86223366 </i>
    <i name="e_wo_entrp">   -601.86223366 </i>
    <i name="e_0_energy">   -601.86223366 </i>
   </energy>
  </scstep>
  <scstep>
   <time name="dav">  485.91  487.15</time>
   <time name="total">  498.89  500.16</time>
   <energy>
    <i name="e_fr_energy">   -601.92229797 </i>
    <i name="e_wo_entrp">   -601.92229797 </i>
    <i name="e_0_energy">   -601.92229797 </i>
   </energy>
  </scstep>
  <scstep>
   <time name="dav">  485.77  487.07</time>
   <time name="total">  498.65  499.98</time>
   <energy>
    <i name="e_fr_energy">   -601.95277944 </i>
    <i name="e_wo_entrp">   -601.95277944 </i>
    <i name="e_0_energy">   -601.95277944 </i>
   </energy>
  </scstep>
  <scstep>
   <time name="dav">  481.56  482.78</time>
   <time name="total">  494.81  496.07</time>
   <energy>
    <i name="e_fr_energy">   -601.95733565 </i>
    <i name="e_wo_entrp">   -601.95733565 </i>
    <i name="e_0_energy">   -601.95733565 </i>
   </energy>
  </scstep>
  <scstep>
   <time name="dav">  540.69  542.08</time>
   <time name="total">  554.20  555.63</time>
   <energy>
    <i name="e_fr_energy">   -601.95794826 </i>
    <i name="e_wo_entrp">   -601.95794826 </i>
    <i name="e_0_energy">   -601.95794826 </i>
   </energy>
  </scstep>
  <scstep>
   <time name="dav">  457.44  458.61</time>
   <time name="total">  470.20  471.40</time>
   <energy>
    <i name="e_fr_energy">   -601.95865850 </i>
    <i name="e_wo_entrp">   -601.95865850 </i>
    <i name="e_0_energy">   -601.95865850 </i>
   </energy>
  </scstep>
  <scstep>
   <time name="dav">  471.75  472.96</time>
   <time name="total">  484.90  486.15</time>
   <energy>
    <i name="e_fr_energy">   -601.95881140 </i>
    <i name="e_wo_entrp">   -601.95881140 </i>
    <i name="e_0_energy">   -601.95881140 </i>
   </energy>
  </scstep>
  <scstep>
   <time name="dav">  487.26  488.50</time>
   <time name="total">  499.94  501.21</time>
   <energy>
    <i name="e_fr_energy">   -601.95883838 </i>
    <i name="e_wo_entrp">   -601.95883838 </i>
    <i name="e_0_energy">   -601.95883838 </i>
   </energy>
  </scstep>
  <scstep>
   <time name="dav">  476.86  478.11</time>
   <time name="total">  489.54  490.82</time>
   <energy>
    <i name="e_fr_energy">   -601.95885692 </i>
    <i name="e_wo_entrp">   -601.95885692 </i>
    <i name="e_0_energy">   -601.95885692 </i>
   </energy>
  </scstep>
  <scstep>
   <time name="dav">  463.53  464.72</time>
   <time name="total">  476.25  477.47</time>
   <energy>
    <i name="e_fr_energy">   -601.95886870 </i>
    <i name="e_wo_entrp">   -601.95886870 </i>
    <i name="e_0_energy">   -601.95886870 </i>
   </energy>
  </scstep>
  <scstep>
   <time name="dav">  468.08  469.29</time>
   <time name="total">  480.81  482.05</time>
   <energy>
    <i name="e_fr_energy">   -601.95887420 </i>
    <i name="e_wo_entrp">   -601.95887420 </i>
    <i name="e_0_energy">   -601.95887420 </i>
   </energy>
  </scstep>
  <scstep>
   <time name="dav">  475.43  476.64</time>
   <time name="total">  488.79  490.03</time>
   <energy>
    <i name="e_fr_energy">   -601.95887657 </i>
    <i name="e_wo_entrp">   -601.95887657 </i>
    <i name="e_0_energy">   -601.95887657 </i>
   </energy>
  </scstep>
  <scstep>
   <time name="dav">  515.02  516.33</time>
   <time name="total">  527.87  529.21</time>
   <energy>
    <i name="e_fr_energy">   -601.95887869 </i>
    <i name="e_wo_entrp">   -601.95887869 </i>
    <i name="e_0_energy">   -601.95887869 </i>
   </energy>
  </scstep>
  <scstep>
   <time name="dav">  470.51  471.72</time>
   <time name="total">  483.28  484.52</time>
   <energy>
    <i name="e_fr_energy">   -601.95888023 </i>
    <i name="e_wo_entrp">   -601.95888023 </i>
    <i name="e_0_energy">   -601.95888023 </i>
   </energy>
  </scstep>
  <scstep>
   <time name="dav">  465.39  466.60</time>
   <time name="total">  478.17  479.41</time>
   <energy>
    <i name="e_fr_energy">   -601.95888163 </i>
    <i name="e_wo_entrp">   -601.95888163 </i>
    <i name="e_0_energy">   -601.95888163 </i>
   </energy>
  </scstep>
  <scstep>
   <time name="dav">  488.82  490.09</time>
   <time name="total">  501.88  503.18</time>
   <energy>
    <i name="e_fr_energy">   -601.95888362 </i>
    <i name="e_wo_entrp">   -601.95888362 </i>
    <i name="e_0_energy">   -601.95888362 </i>
   </energy>
  </scstep>
  <scstep>
   <time name="dav">  496.21  497.50</time>
   <time name="total">  509.17  510.49</time>
   <energy>
    <i name="e_fr_energy">   -601.95888599 </i>
    <i name="e_wo_entrp">   -601.95888599 </i>
    <i name="e_0_energy">   -601.95888599 </i>
   </energy>
  </scstep>
  <scstep>
   <time name="dav">  475.99  477.21</time>
   <time name="total">  489.07  490.33</time>
   <energy>
    <i name="e_fr_energy">   -601.95888718 </i>
    <i name="e_wo_entrp">   -601.95888718 </i>
    <i name="e_0_energy">   -601.95888718 </i>
   </energy>
  </scstep>
  <scstep>
   <time name="dav">  447.07  448.22</time>
   <time name="total">  459.97  461.16</time>
   <energy>
    <i name="e_fr_energy">   -601.95888760 </i>
    <i name="e_wo_entrp">   -601.95888760 </i>
    <i name="e_0_energy">   -601.95888760 </i>
   </energy>
  </scstep>
  <scstep>
   <time name="dav">  423.08  424.20</time>
   <time name="total">  435.79  436.93</time>
   <energy>
    <i name="e_fr_energy">   -601.95888785 </i>
    <i name="e_wo_entrp">   -601.95888785 </i>
    <i name="e_0_energy">   -601.95888785 </i>
   </energy>
  </scstep>
  <scstep>
   <time name="dav">  461.71  462.89</time>
   <time name="total">  474.62  475.84</time>
   <energy>
    <i name="e_fr_energy">   -601.95888803 </i>
    <i name="e_wo_entrp">   -601.95888803 </i>
    <i name="e_0_energy">   -601.95888803 </i>
   </energy>
  </scstep>
  <scstep>
   <time name="dav">  403.91  404.93</time>
   <time name="total">  416.82  417.87</time>
   <energy>
    <i name="e_fr_energy">   -601.95888812 </i>
    <i name="e_wo_entrp">   -601.95888812 </i>
    <i name="e_0_energy">   -601.95888812 </i>
   </energy>
  </scstep>
  <scstep>
   <time name="dav">  312.88  313.70</time>
   <time name="total">  325.75  326.60</time>
   <energy>
    <i name="e_fr_energy">   -601.95888814 </i>
    <i name="e_wo_entrp">   -601.95888814 </i>
    <i name="e_0_energy">   -601.95888814 </i>
   </energy>
  </scstep>
  <scstep>
   <time name="dav">  264.28  264.96</time>
   <time name="total">  277.34  278.05</time>
   <energy>
    <i name="e_fr_energy">   -601.95888816 </i>
    <i name="e_wo_entrp">   -601.95888816 </i>
    <i name="e_0_energy">   -601.95888816 </i>
   </energy>
  </scstep>
  <scstep>
   <time name="dav">  304.21  305.03</time>
   <time name="total">  315.34  316.20</time>
   <energy>
    <i name="e_fr_energy">   -601.95888817 </i>
    <i name="e_wo_entrp">   -601.95888817 </i>
    <i name="e_0_energy">   -601.95888817 </i>
   </energy>
  </scstep>
  <scstep>
   <time name="dav">  288.53  289.31</time>
   <time name="total">  299.25  300.05</time>
   <energy>
    <i name="e_fr_energy">   -601.95888818 </i>
    <i name="e_wo_entrp">   -601.95888818 </i>
    <i name="e_0_energy">   -601.95888818 </i>
   </energy>
  </scstep>
  <scstep>
   <time name="dav">  305.33  306.12</time>
   <time name="total">  308.49  309.28</time>
   <energy>
    <i name="alphaZ">   2671.99667194 </i>
    <i name="ewald"> -65588.96412008 </i>
    <i name="hartreedc"> -35897.81305736 </i>
    <i name="XCdc">   3842.04551406 </i>
    <i name="pawpsdc"> 106009.31775601 </i>
    <i name="pawaedc">-109343.79017362 </i>
    <i name="eentropy">     -0.00000000 </i>
    <i name="bandstr"> -12649.06666410 </i>
    <i name="atom"> 110354.31518496 </i>
    <i name="e_fr_energy">   -601.95888819 </i>
    <i name="e_wo_entrp">   -601.95888819 </i>
    <i name="e_0_energy">   -601.95888819 </i>
   </energy>
  </scstep>
  <structure>
   <crystal>
    <varray name="basis" >
     <v>      11.51036847       0.00000000       0.00000000 </v>
     <v>       0.00000000      11.32670916       0.12548940 </v>
     <v>       0.00000000      -0.29683152      11.32351444 </v>
    </varray>
    <i name="volume">   1476.72737236 </i>
    <varray name="rec_basis" >
     <v>       0.08687819       0.00000000       0.00000000 </v>
     <v>       0.00000000       0.08826126       0.00231366 </v>
     <v>       0.00000000      -0.00097813       0.08828616 </v>
    </varray>
   </crystal>
   <varray name="positions" >
    <v>       0.10513295       0.25000000       0.00000000 </v>
    <v>       0.43846628       0.25000000       0.00000000 </v>
    <v>       0.77179961       0.25000000       0.00000000 </v>
    <v>       0.10513295       0.75000000       0.00000000 </v>
    <v>       0.43846628       0.75000000       0.00000000 </v>
    <v>       0.77179961       0.75000000       0.00000000 </v>
    <v>       0.10513295       0.25000000       0.50000000 </v>
    <v>       0.43846628       0.25000000       0.50000000 </v>
    <v>       0.77179961       0.25000000       0.50000000 </v>
    <v>       0.10513295       0.75000000       0.50000000 </v>
    <v>       0.43846628       0.75000000       0.50000000 </v>
    <v>       0.77179961       0.75000000       0.50000000 </v>
    <v>       0.10513295       0.00000000       0.25000000 </v>
    <v>       0.43846628       0.00000000       0.25000000 </v>
    <v>       0.77179961       0.00000000       0.25000000 </v>
    <v>       0.10513295       0.50000000       0.25000000 </v>
    <v>       0.43846628       0.50000000       0.25000000 </v>
    <v>       0.77179961       0.50000000       0.25000000 </v>
    <v>       0.10513295       0.00000000       0.75000000 </v>
    <v>       0.43846628       0.00000000       0.75000000 </v>
    <v>       0.77179961       0.00000000       0.75000000 </v>
    <v>       0.10513295       0.50000000       0.75000000 </v>
    <v>       0.43846628       0.50000000       0.75000000 </v>
    <v>       0.77179961       0.50000000       0.75000000 </v>
    <v>       0.10614906       0.12615944       0.37472338 </v>
    <v>       0.43948239       0.12527662       0.37472338 </v>
    <v>       0.77281572       0.12527662       0.37472338 </v>
    <v>       0.10614906       0.62527662       0.37472338 </v>
    <v>       0.43948239       0.62527662       0.37472338 </v>
    <v>       0.77281572       0.62527662       0.37472338 </v>
    <v>       0.10614906       0.12527662       0.87472338 </v>
    <v>       0.43948239       0.12527662       0.87472338 </v>
    <v>       0.77281572       0.12527662       0.87472338 </v>
    <v>       0.10614906       0.62527662       0.87472338 </v>
    <v>       0.43948239       0.62527662       0.87472338 </v>
    <v>       0.77281572       0.62527662       0.87472338 </v>
    <v>       0.10614906       0.37472338       0.12527662 </v>
    <v>       0.43948239       0.37472338       0.12527662 </v>
    <v>       0.77281572       0.37472338       0.12527662 </v>
    <v>       0.10614906       0.87472338       0.12527662 </v>
    <v>       0.43948239       0.87472338       0.12527662 </v>
    <v>       0.77281572       0.87472338       0.12527662 </v>
    <v>       0.10614906       0.37472338       0.62527662 </v>
    <v>       0.43948239       0.37472338       0.62527662 </v>
    <v>       0.77281572       0.37472338       0.62527662 </v>
    <v>       0.10614906       0.87472338       0.62527662 </v>
    <v>       0.43948239       0.87472338       0.62527662 </v>
    <v>       0.77281572       0.87472338       0.62527662 </v>
    <v>       0.27279884       0.11809471       0.11809471 </v>
    <v>       0.60613218       0.11809471       0.11809471 </v>
    <v>       0.93946551       0.11809471       0.11809471 </v>
    <v>       0.27279884       0.61809471       0.11809471 </v>
    <v>       0.60613218       0.61809471       0.11809471 </v>
    <v>       0.93946551       0.61809471       0.11809471 </v>
    <v>       0.27279884       0.11809471       0.61809471 </v>
    <v>       0.60613218       0.11809471       0.61809471 </v>
    <v>       0.93946551       0.11809471       0.61809471 </v>
    <v>       0.27279884       0.61809471       0.61809471 </v>
    <v>       0.60613218       0.61809471       0.61809471 </v>
    <v>       0.93946551       0.61809471       0.61809471 </v>
    <v>       0.27279884       0.38190529       0.38190529 </v>
    <v>       0.60613218       0.38190529       0.38190529 </v>
    <v>       0.93946551       0.38190529       0.38190529 </v>
    <v>       0.27279884       0.88190529       0.38190529 </v>
    <v>       0.60613218       0.88190529       0.38190529 </v>
    <v>       0.93946551       0.88190529       0.38190529 </v>
    <v>       0.27279884       0.38190529       0.88190529 </v>
    <v>       0.60613218       0.38190529       0.88190529 </v>
    <v>       0.93946551       0.38190529       0.88190529 </v>
    <v>       0.27279884       0.88190529       0.88190529 </v>
    <v>       0.60613218       0.88190529       0.88190529 </v>
    <v>       0.93946551       0.88190529       0.88190529 </v>
    <v>       0.27287151       0.33907427       0.16092573 </v>
    <v>       0.60620484       0.33907427       0.16092573 </v>
    <v>       0.93953818       0.33907427       0.16092573 </v>
    <v>       0.27287151       0.83907427       0.16092573 </v>
    <v>       0.60620484       0.83907427       0.16092573 </v>
    <v>       0.93953818       0.83907427       0.16092573 </v>
    <v>       0.27287151       0.33907427       0.66092573 </v>
    <v>       0.60620484       0.33907427       0.66092573 </v>
    <v>       0.93953818       0.33907427       0.66092573 </v>
    <v>       0.27287151       0.83907427       0.66092573 </v>
    <v>       0.60620484       0.83907427       0.66092573 </v>
    <v>       0.93953818       0.83907427       0.66092573 </v>
    <v>       0.27287151       0.16092573       0.33907427 </v>
    <v>       0.60620484       0.16092573       0.33907427 </v>
    <v>       0.93953818       0.16092573       0.33907427 </v>
    <v>       0.27287151       0.66092573       0.33907427 </v>
    <v>       0.60620484       0.66092573       0.33907427 </v>
    <v>       0.93953818       0.66092573       0.33907427 </v>
    <v>       0.27287151       0.16092573       0.83907427 </v>
    <v>       0.60620484       0.16092573       0.83907427 </v>
    <v>       0.93953818       0.16092573       0.83907427 </v>
    <v>       0.27287151       0.66092573       0.83907427 </v>
    <v>       0.60620484       0.66092573       0.83907427 </v>
    <v>       0.93953818       0.66092573       0.83907427 </v>
    <v>       0.10731129       0.00000000       0.00000000 </v>
    <v>       0.44064462       0.00000000       0.00000000 </v>
    <v>       0.77397796       0.00000000       0.00000000 </v>
    <v>       0.10731129       0.50000000       0.00000000 </v>
    <v>       0.44064462       0.50000000       0.00000000 </v>
    <v>       0.77397796       0.50000000       0.00000000 </v>
    <v>       0.10731129       0.00000000       0.50000000 </v>
    <v>       0.44064462       0.00000000       0.50000000 </v>
    <v>       0.77397796       0.00000000       0.50000000 </v>
    <v>       0.10731129       0.50000000       0.50000000 </v>
    <v>       0.44064462       0.50000000       0.50000000 </v>
    <v>       0.77397796       0.50000000       0.50000000 </v>
   </varray>
  </structure>
  <varray name="forces" >
   <v>       0.01822267       0.00016412       0.00033972 </v>
   <v>       0.01819492       0.00006023       0.00011615 </v>
   <v>       0.01825792       0.00005843       0.00011499 </v>
   <v>       0.01822141      -0.00023885      -0.00015465 </v>
   <v>       0.01824240      -0.00015750      -0.00006736 </v>
   <v>       0.01820698      -0.00015641      -0.00006517 </v>
   <v>       0.01814470       0.00891561       0.00422935 </v>
   <v>       0.01767120       0.00040639      -0.00071799 </v>
   <v>       0.01877510       0.00040505      -0.00070249 </v>
   <v>       0.01821974      -0.00163502       0.00042734 </v>
   <v>       0.01895399      -0.00073996       0.00063988 </v>
   <v>       0.01749508      -0.00073469       0.00062902 </v>
   <v>       0.01829076       0.00977330       0.00476765 </v>
   <v>       0.01870531       0.00064654      -0.00039426 </v>
   <v>       0.01775622       0.00064510      -0.00038380 </v>
   <v>       0.01822524      -0.00092267       0.00055528 </v>
   <v>       0.01771324      -0.00061865       0.00052550 </v>
   <v>       0.01874590      -0.00061300       0.00051510 </v>
   <v>       0.01822276       0.00040078       0.00033619 </v>
   <v>       0.01821943       0.00010651       0.00010579 </v>
   <v>       0.01823711       0.00010683       0.00010599 </v>
   <v>       0.01822943      -0.00022060      -0.00011956 </v>
   <v>       0.01827516      -0.00010889      -0.00002184 </v>
   <v>       0.01818373      -0.00010955      -0.00002331 </v>
   <v>       0.00168075      -0.08618581       0.01908162 </v>
   <v>       0.00182586      -0.00435673       0.00276525 </v>
   <v>       0.00085921      -0.00435226       0.00277106 </v>
   <v>       0.00135077       0.00006869       0.00254467 </v>
   <v>       0.00113259       0.00010787       0.00239892 </v>
   <v>       0.00154435       0.00010885       0.00239867 </v>
   <v>       0.00135569      -0.00237191       0.00248764 </v>
   <v>       0.00134518      -0.00233856       0.00233645 </v>
   <v>       0.00133687      -0.00234166       0.00233628 </v>
   <v>       0.00134876      -0.00210696       0.00261408 </v>
   <v>       0.00132352      -0.00216060       0.00263116 </v>
   <v>       0.00136235      -0.00216270       0.00262950 </v>
   <v>       0.00135557       0.00315540      -0.00389872 </v>
   <v>       0.00186742       0.00247040      -0.00324287 </v>
   <v>       0.00082857       0.00246640      -0.00324496 </v>
   <v>       0.00134091       0.00258026      -0.00077806 </v>
   <v>       0.00067864       0.00196504      -0.00193517 </v>
   <v>       0.00201230       0.00196938      -0.00193353 </v>
   <v>       0.00135879       0.00322045      -0.00074457 </v>
   <v>       0.00157452       0.00204926      -0.00192831 </v>
   <v>       0.00111088       0.00204806      -0.00192637 </v>
   <v>       0.00134953       0.00340535      -0.00542829 </v>
   <v>       0.00077127       0.00226421      -0.00326639 </v>
   <v>       0.00192156       0.00226344      -0.00326597 </v>
   <v>       0.01663116       0.00211358       0.00425783 </v>
   <v>       0.01631928       0.00352811       0.00494476 </v>
   <v>       0.01600035       0.00211221       0.00423776 </v>
   <v>       0.01635333       0.00482278       0.00505947 </v>
   <v>       0.01632137       0.00420523       0.00501743 </v>
   <v>       0.01629770       0.00481583       0.00505129 </v>
   <v>       0.01555485       0.00138902       0.00470381 </v>
   <v>       0.01632213       0.00348885       0.00503260 </v>
   <v>       0.01709994       0.00138377       0.00472089 </v>
   <v>       0.01623613       0.00498425       0.00503586 </v>
   <v>       0.01632144       0.00429649       0.00511538 </v>
   <v>       0.01641001       0.00498617       0.00504543 </v>
   <v>       0.02075611       0.00316884      -0.00447233 </v>
   <v>       0.01632291      -0.00386262      -0.00505071 </v>
   <v>       0.01191105       0.00317910      -0.00444362 </v>
   <v>       0.01017398       0.00419708      -0.00421409 </v>
   <v>       0.01632367      -0.00401015      -0.00494265 </v>
   <v>       0.02245868       0.00417638      -0.00421269 </v>
   <v>       0.01639167      -0.00387370      -0.00511302 </v>
   <v>       0.01632033      -0.00385355      -0.00506326 </v>
   <v>       0.01625506      -0.00387373      -0.00511495 </v>
   <v>       0.01618654      -0.00401397      -0.00522353 </v>
   <v>       0.01632109      -0.00388282      -0.00504692 </v>
   <v>       0.01646013      -0.00401341      -0.00522028 </v>
   <v>      -0.02223840      -0.00599563       0.00750237 </v>
   <v>      -0.02151567      -0.00568010       0.00608002 </v>
   <v>      -0.02079820      -0.00600804       0.00749600 </v>
   <v>      -0.02094885      -0.00602648       0.00422906 </v>
   <v>      -0.02151157      -0.00588572       0.00566923 </v>
   <v>      -0.02209036      -0.00602395       0.00422567 </v>
   <v>      -0.02212633      -0.00531725       0.00490170 </v>
   <v>      -0.02151426      -0.00553757       0.00572566 </v>
   <v>      -0.02090047      -0.00532016       0.00489867 </v>
   <v>      -0.02027326      -0.00620378       0.00690976 </v>
   <v>      -0.02151452      -0.00602586       0.00604788 </v>
   <v>      -0.02276673      -0.00621086       0.00691380 </v>
   <v>      -0.01522015       0.01401142      -0.00698557 </v>
   <v>      -0.02150665       0.00606394      -0.00579325 </v>
   <v>      -0.02790039       0.01399208      -0.00702916 </v>
   <v>      -0.02187238       0.00232215      -0.00616185 </v>
   <v>      -0.02150860       0.00534022      -0.00582143 </v>
   <v>      -0.02113648       0.00231842      -0.00616106 </v>
   <v>      -0.02149669       0.00570033      -0.00556990 </v>
   <v>      -0.02150703       0.00584207      -0.00578167 </v>
   <v>      -0.02153561       0.00570097      -0.00557371 </v>
   <v>      -0.02150377       0.00563506      -0.00581130 </v>
   <v>      -0.02150998       0.00565105      -0.00589713 </v>
   <v>      -0.02152168       0.00563539      -0.00581247 </v>
   <v>      -0.02876682       0.00081398      -0.00016196 </v>
   <v>      -0.02888952       0.00057547      -0.00000442 </v>
   <v>      -0.02862894       0.00058212      -0.00000403 </v>
   <v>      -0.02876905      -0.00063090       0.00041110 </v>
   <v>      -0.02872599      -0.00035361       0.00015411 </v>
   <v>      -0.02879711      -0.00035559       0.00015440 </v>
   <v>      -0.02897830       0.03085173      -0.02240188 </v>
   <v>      -0.02796537       0.00128122       0.00030639 </v>
   <v>      -0.02956882       0.00128831       0.00031520 </v>
   <v>      -0.02876442      -0.00214526      -0.00098918 </v>
   <v>      -0.02983992      -0.00126793      -0.00111444 </v>
   <v>      -0.02768290      -0.00127994      -0.00113064 </v>
  </varray>
  <varray name="stress" >
   <v>      -2.54497665       0.00035012      -0.00051102 </v>
   <v>       0.00034952      -1.77623531       0.58323873 </v>
   <v>      -0.00051035       0.65250802      -1.69478998 </v>
  </varray>
  <energy>
   <i name="e_fr_energy">   -601.95888819 </i>
   <i name="e_wo_entrp">   -601.95888819 </i>
   <i name="e_0_energy">     -0.00000000 </i>
  </energy>
  <time name="totalsc">17859.9817906.10</time>
  <eigenvalues>
   <array>
    <dimension dim="1">band</dimension>
    <dimension dim="2">kpoint</dimension>
    <dimension dim="3">spin</dimension>
    <field>eigene</field>
    <field>occ</field>
    <set>
     <set comment="spin 1">
      <set comment="kpoint 1">
       <r>  -51.3611    1.0000 </r>
       <r>  -51.3606    1.0000 </r>
       <r>  -51.3605    1.0000 </r>
       <r>  -51.3603    1.0000 </r>
       <r>  -51.3598    1.0000 </r>
       <r>  -51.3598    1.0000 </r>
       <r>  -51.3592    1.0000 </r>
       <r>  -51.3591    1.0000 </r>
       <r>  -51.3590    1.0000 </r>
       <r>  -51.3587    1.0000 </r>
       <r>  -51.3586    1.0000 </r>
       <r>  -51.3584    1.0000 </r>
       <r>  -51.3582    1.0000 </r>
       <r>  -51.3582    1.0000 </r>
       <r>  -51.3581    1.0000 </r>
       <r>  -51.3579    1.0000 </r>
       <r>  -51.3578    1.0000 </r>
       <r>  -51.3574    1.0000 </r>
       <r>  -51.3571    1.0000 </r>
       <r>  -51.3567    1.0000 </r>
       <r>  -51.3565    1.0000 </r>
       <r>  -51.3562    1.0000 </r>
       <r>  -51.3535    1.0000 </r>
       <r>  -51.3523    1.0000 </r>
       <r>  -51.0824    1.0000 </r>
       <r>  -51.0711    1.0000 </r>
       <r>  -51.0710    1.0000 </r>
       <r>  -51.0706    1.0000 </r>
       <r>  -51.0704    1.0000 </r>
       <r>  -51.0704    1.0000 </r>
       <r>  -51.0704    1.0000 </r>
       <r>  -51.0703    1.0000 </r>
       <r>  -51.0702    1.0000 </r>
       <r>  -51.0697    1.0000 </r>
       <r>  -51.0696    1.0000 </r>
       <r>  -51.0694    1.0000 </r>
       <r>  -50.1469    1.0000 </r>
       <r>  -50.1468    1.0000 </r>
       <r>  -50.1466    1.0000 </r>
       <r>  -50.1465    1.0000 </r>
       <r>  -50.1463    1.0000 </r>
       <r>  -50.1461    1.0000 </r>
       <r>  -50.1460    1.0000 </r>
       <r>  -50.1459    1.0000 </r>
       <r>  -50.1458    1.0000 </r>
       <r>  -50.1456    1.0000 </r>
       <r>  -50.1444    1.0000 </r>
       <r>  -50.1444    1.0000 </r>
       <r>  -50.1441    1.0000 </r>
       <r>  -50.1440    1.0000 </r>
       <r>  -50.1440    1.0000 </r>
       <r>  -50.1439    1.0000 </r>
       <r>  -50.1438    1.0000 </r>
       <r>  -50.1437    1.0000 </r>
       <r>  -50.1435    1.0000 </r>
       <r>  -50.1434    1.0000 </r>
       <r>  -50.1434    1.0000 </r>
       <r>  -50.1432    1.0000 </r>
       <r>  -50.1397    1.0000 </r>
       <r>  -50.1396    1.0000 </r>
       <r>  -49.8389    1.0000 </r>
       <r>  -49.8389    1.0000 </r>
       <r>  -49.8380    1.0000 </r>
       <r>  -49.8379    1.0000 </r>
       <r>  -49.8378    1.0000 </r>
       <r>  -49.8377    1.0000 </r>
       <r>  -49.8375    1.0000 </r>
       <r>  -49.8374    1.0000 </r>
       <r>  -49.8374    1.0000 </r>
       <r>  -49.8372    1.0000 </r>
       <r>  -49.8353    1.0000 </r>
       <r>  -49.8352    1.0000 </r>
       <r>  -49.8138    1.0000 </r>
       <r>  -49.8138    1.0000 </r>
       <r>  -49.8129    1.0000 </r>
       <r>  -49.8128    1.0000 </r>
       <r>  -49.8127    1.0000 </r>
       <r>  -49.8126    1.0000 </r>
       <r>  -49.8124    1.0000 </r>
       <r>  -49.8123    1.0000 </r>
       <r>  -49.8123    1.0000 </r>
       <r>  -49.8121    1.0000 </r>
       <r>  -49.8101    1.0000 </r>
       <r>  -49.8100    1.0000 </r>
       <r>  -49.7139    1.0000 </r>
       <r>  -49.7044    1.0000 </r>
       <r>  -49.7044    1.0000 </r>
       <r>  -49.7038    1.0000 </r>
       <r>  -49.7037    1.0000 </r>
       <r>  -49.7037    1.0000 </r>
       <r>  -49.7037    1.0000 </r>
       <r>  -49.7036    1.0000 </r>
       <r>  -49.7036    1.0000 </r>
       <r>  -49.7029    1.0000 </r>
       <r>  -49.7028    1.0000 </r>
       <r>  -49.7027    1.0000 </r>
       <r>  -49.5920    1.0000 </r>
       <r>  -49.5834    1.0000 </r>
       <r>  -49.5828    1.0000 </r>
       <r>  -49.5826    1.0000 </r>
       <r>  -49.5826    1.0000 </r>
       <r>  -49.5825    1.0000 </r>
       <r>  -49.5825    1.0000 </r>
       <r>  -49.5818    1.0000 </r>
       <r>  -49.5817    1.0000 </r>
       <r>  -49.5817    1.0000 </r>
       <r>  -49.5815    1.0000 </r>
       <r>  -49.5807    1.0000 </r>
       <r>  -40.1383    1.0000 </r>
       <r>  -40.1294    1.0000 </r>
       <r>  -40.1288    1.0000 </r>
       <r>  -40.1286    1.0000 </r>
       <r>  -40.1283    1.0000 </r>
       <r>  -40.1281    1.0000 </r>
       <r>  -40.1280    1.0000 </r>
       <r>  -40.1280    1.0000 </r>
       <r>  -40.1278    1.0000 </r>
       <r>  -40.1277    1.0000 </r>
       <r>  -40.1276    1.0000 </r>
       <r>  -40.1275    1.0000 </r>
       <r>  -40.1275    1.0000 </r>
       <r>  -40.1274    1.0000 </r>
       <r>  -40.1272    1.0000 </r>
       <r>  -40.1272    1.0000 </r>
       <r>  -40.1271    1.0000 </r>
       <r>  -40.1270    1.0000 </r>
       <r>  -40.1268    1.0000 </r>
       <r>  -40.1267    1.0000 </r>
       <r>  -40.1266    1.0000 </r>
       <r>  -40.1264    1.0000 </r>
       <r>  -40.1262    1.0000 </r>
       <r>  -40.1145    1.0000 </r>
       <r>  -13.5837    1.0000 </r>
       <r>  -13.5511    1.0000 </r>
       <r>  -13.5489    1.0000 </r>
       <r>  -13.5484    1.0000 </r>
       <r>  -13.4233    1.0000 </r>
       <r>  -13.4199    1.0000 </r>
       <r>  -13.4198    1.0000 </r>
       <r>  -13.4187    1.0000 </r>
       <r>  -13.4179    1.0000 </r>
       <r>  -13.3843    1.0000 </r>
       <r>  -13.3843    1.0000 </r>
       <r>  -13.3841    1.0000 </r>
       <r>  -13.3829    1.0000 </r>
       <r>  -13.3761    1.0000 </r>
       <r>  -13.3744    1.0000 </r>
       <r>  -13.3736    1.0000 </r>
       <r>  -13.2586    1.0000 </r>
       <r>  -13.2583    1.0000 </r>
       <r>  -13.2464    1.0000 </r>
       <r>  -13.2464    1.0000 </r>
       <r>  -13.2462    1.0000 </r>
       <r>  -13.2457    1.0000 </r>
       <r>  -13.2073    1.0000 </r>
       <r>  -13.2070    1.0000 </r>
       <r>   -7.5295    1.0000 </r>
       <r>   -7.3727    1.0000 </r>
       <r>   -7.3713    1.0000 </r>
       <r>   -7.3712    1.0000 </r>
       <r>   -7.3596    1.0000 </r>
       <r>   -7.3582    1.0000 </r>
       <r>   -7.2293    1.0000 </r>
       <r>   -7.2279    1.0000 </r>
       <r>   -7.1889    1.0000 </r>
       <r>   -7.1194    1.0000 </r>
       <r>   -7.1188    1.0000 </r>
       <r>   -7.1179    1.0000 </r>
       <r>   -7.1175    1.0000 </r>
       <r>   -7.0887    1.0000 </r>
       <r>   -7.0881    1.0000 </r>
       <r>   -7.0872    1.0000 </r>
       <r>   -7.0868    1.0000 </r>
       <r>   -7.0709    1.0000 </r>
       <r>   -7.0709    1.0000 </r>
       <r>   -7.0490    1.0000 </r>
       <r>   -7.0400    1.0000 </r>
       <r>   -7.0399    1.0000 </r>
       <r>   -6.8940    1.0000 </r>
       <r>   -6.8939    1.0000 </r>
       <r>   -2.0684    1.0000 </r>
       <r>   -2.0677    1.0000 </r>
       <r>   -2.0286    1.0000 </r>
       <r>   -2.0282    1.0000 </r>
       <r>   -2.0281    1.0000 </r>
       <r>   -2.0277    1.0000 </r>
       <r>   -2.0172    1.0000 </r>
       <r>   -2.0168    1.0000 </r>
       <r>   -2.0111    1.0000 </r>
       <r>   -2.0103    1.0000 </r>
       <r>   -1.9485    1.0000 </r>
       <r>   -1.9480    1.0000 </r>
       <r>   -1.9352    1.0000 </r>
       <r>   -1.9344    1.0000 </r>
       <r>   -1.9343    1.0000 </r>
       <r>   -1.9335    1.0000 </r>
       <r>   -1.7716    1.0000 </r>
       <r>   -1.7656    1.0000 </r>
       <r>   -1.6801    1.0000 </r>
       <r>   -1.6788    1.0000 </r>
       <r>   -1.4539    1.0000 </r>
       <r>   -1.4528    1.0000 </r>
       <r>   -1.4101    1.0000 </r>
       <r>   -1.3698    1.0000 </r>
       <r>   -1.2346    1.0000 </r>
       <r>   -1.2344    1.0000 </r>
       <r>   -1.2342    1.0000 </r>
       <r>   -1.2339    1.0000 </r>
       <r>   -1.2150    1.0000 </r>
       <r>   -1.2052    1.0000 </r>
       <r>   -1.1366    1.0000 </r>
       <r>   -1.1365    1.0000 </r>
       <r>   -1.1340    1.0000 </r>
       <r>   -1.1338    1.0000 </r>
       <r>   -1.1189    1.0000 </r>
       <r>   -1.1177    1.0000 </r>
       <r>   -1.0807    1.0000 </r>
       <r>   -1.0662    1.0000 </r>
       <r>   -1.0661    1.0000 </r>
       <r>   -1.0568    1.0000 </r>
       <r>   -1.0540    1.0000 </r>
       <r>   -1.0536    1.0000 </r>
       <r>   -0.9810    1.0000 </r>
       <r>   -0.9804    1.0000 </r>
       <r>   -0.9652    1.0000 </r>
       <r>   -0.9640    1.0000 </r>
       <r>   -0.9357    1.0000 </r>
       <r>   -0.9357    1.0000 </r>
       <r>   -0.9352    1.0000 </r>
       <r>   -0.9240    1.0000 </r>
       <r>   -0.9238    1.0000 </r>
       <r>   -0.9127    1.0000 </r>
       <r>   -0.9123    1.0000 </r>
       <r>   -0.9123    1.0000 </r>
       <r>   -0.9116    1.0000 </r>
       <r>   -0.8713    1.0000 </r>
       <r>   -0.8711    1.0000 </r>
       <r>   -0.8707    1.0000 </r>
       <r>   -0.8706    1.0000 </r>
       <r>   -0.8661    1.0000 </r>
       <r>   -0.8661    1.0000 </r>
       <r>   -0.8416    1.0000 </r>
       <r>   -0.8413    1.0000 </r>
       <r>   -0.7484    1.0000 </r>
       <r>   -0.7399    1.0000 </r>
       <r>   -0.6425    1.0000 </r>
       <r>   -0.6422    1.0000 </r>
       <r>   -0.6417    1.0000 </r>
       <r>   -0.6417    1.0000 </r>
       <r>   -0.6097    1.0000 </r>
       <r>   -0.6089    1.0000 </r>
       <r>   -0.5937    1.0000 </r>
       <r>   -0.5936    1.0000 </r>
       <r>   -0.5931    1.0000 </r>
       <r>   -0.5927    1.0000 </r>
       <r>   -0.5734    1.0000 </r>
       <r>   -0.5733    1.0000 </r>
       <r>   -0.5259    1.0000 </r>
       <r>   -0.4648    1.0000 </r>
       <r>   -0.4645    1.0000 </r>
       <r>   -0.4644    1.0000 </r>
       <r>   -0.4641    1.0000 </r>
       <r>   -0.4355    1.0000 </r>
       <r>   -0.4253    1.0000 </r>
       <r>   -0.3144    1.0000 </r>
       <r>   -0.3143    1.0000 </r>
       <r>   -0.2864    1.0000 </r>
       <r>   -0.2853    1.0000 </r>
       <r>   -0.2399    1.0000 </r>
       <r>   -0.2397    1.0000 </r>
       <r>   -0.2366    1.0000 </r>
       <r>   -0.2357    1.0000 </r>
       <r>   -0.2352    1.0000 </r>
       <r>   -0.2092    1.0000 </r>
       <r>   -0.2044    1.0000 </r>
       <r>   -0.2034    1.0000 </r>
       <r>   -0.1418    1.0000 </r>
       <r>   -0.1359    1.0000 </r>
       <r>   -0.1352    1.0000 </r>
       <r>   -0.1351    1.0000 </r>
       <r>   -0.1348    1.0000 </r>
       <r>   -0.1285    1.0000 </r>
       <r>   -0.1281    1.0000 </r>
       <r>   -0.0440    1.0000 </r>
       <r>   -0.0435    1.0000 </r>
       <r>    0.0022    1.0000 </r>
       <r>    0.0029    1.0000 </r>
       <r>    0.0247    1.0000 </r>
       <r>    0.0251    1.0000 </r>
       <r>    0.1139    1.0000 </r>
       <r>    0.1142    1.0000 </r>
       <r>    0.1247    1.0000 </r>
       <r>    0.1252    1.0000 </r>
       <r>    0.1258    1.0000 </r>
       <r>    0.1258    1.0000 </r>
       <r>    0.1524    1.0000 </r>
       <r>    0.1526    1.0000 </r>
       <r>    0.1596    1.0000 </r>
[...]
       <r>   -43.3007     0.0000   108.0000 </r>
       <r>   -43.0591     0.0000   108.0000 </r>
       <r>   -42.8175     0.0000   108.0000 </r>
       <r>   -42.5759     0.0000   108.0000 </r>
       <r>   -42.3343     0.0000   108.0000 </r>
       <r>   -42.0927     0.0000   108.0000 </r>
       <r>   -41.8511     0.0000   108.0000 </r>
       <r>   -41.6095     0.0000   108.0000 </r>
       <r>   -41.3679     0.0000   108.0000 </r>
       <r>   -41.1263     0.0000   108.0000 </r>
       <r>   -40.8847     0.0000   108.0000 </r>
       <r>   -40.6431     0.0000   108.0000 </r>
       <r>   -40.4015     0.0000   108.0000 </r>
       <r>   -40.1599    20.2326   112.8882 </r>
       <r>   -39.9183    79.1048   132.0000 </r>
       <r>   -39.6767     0.0000   132.0000 </r>
       <r>   -39.4351     0.0000   132.0000 </r>
       <r>   -39.1935     0.0000   132.0000 </r>
       <r>   -38.9519     0.0000   132.0000 </r>
       <r>   -38.7103     0.0000   132.0000 </r>
       <r>   -38.4687     0.0000   132.0000 </r>
       <r>   -38.2271     0.0000   132.0000 </r>
       <r>   -37.9855     0.0000   132.0000 </r>
       <r>   -37.7439     0.0000   132.0000 </r>
       <r>   -37.5023     0.0000   132.0000 </r>
       <r>   -37.2607     0.0000   132.0000 </r>
       <r>   -37.0191     0.0000   132.0000 </r>
       <r>   -36.7775     0.0000   132.0000 </r>
       <r>   -36.5359     0.0000   132.0000 </r>
       <r>   -36.2943     0.0000   132.0000 </r>
       <r>   -36.0527     0.0000   132.0000 </r>
       <r>   -35.8111     0.0000   132.0000 </r>
       <r>   -35.5695     0.0000   132.0000 </r>
       <r>   -35.3279     0.0000   132.0000 </r>
       <r>   -35.0863     0.0000   132.0000 </r>
       <r>   -34.8447     0.0000   132.0000 </r>
       <r>   -34.6031     0.0000   132.0000 </r>
       <r>   -34.3615     0.0000   132.0000 </r>
       <r>   -34.1199     0.0000   132.0000 </r>
       <r>   -33.8783     0.0000   132.0000 </r>
       <r>   -33.6367     0.0000   132.0000 </r>
       <r>   -33.3951     0.0000   132.0000 </r>
       <r>   -33.1535     0.0000   132.0000 </r>
       <r>   -32.9119     0.0000   132.0000 </r>
       <r>   -32.6703     0.0000   132.0000 </r>
       <r>   -32.4287     0.0000   132.0000 </r>
       <r>   -32.1871     0.0000   132.0000 </r>
       <r>   -31.9455     0.0000   132.0000 </r>
       <r>   -31.7039     0.0000   132.0000 </r>
       <r>   -31.4623     0.0000   132.0000 </r>
       <r>   -31.2207     0.0000   132.0000 </r>
       <r>   -30.9791     0.0000   132.0000 </r>
       <r>   -30.7375     0.0000   132.0000 </r>
       <r>   -30.4959     0.0000   132.0000 </r>
       <r>   -30.2543     0.0000   132.0000 </r>
       <r>   -30.0127     0.0000   132.0000 </r>
       <r>   -29.7711     0.0000   132.0000 </r>
       <r>   -29.5295     0.0000   132.0000 </r>
       <r>   -29.2879     0.0000   132.0000 </r>
       <r>   -29.0463     0.0000   132.0000 </r>
       <r>   -28.8047     0.0000   132.0000 </r>
       <r>   -28.5631     0.0000   132.0000 </r>
       <r>   -28.3215     0.0000   132.0000 </r>
       <r>   -28.0798     0.0000   132.0000 </r>
       <r>   -27.8382     0.0000   132.0000 </r>
       <r>   -27.5966     0.0000   132.0000 </r>
       <r>   -27.3550     0.0000   132.0000 </r>
       <r>   -27.1134     0.0000   132.0000 </r>
       <r>   -26.8718     0.0000   132.0000 </r>
       <r>   -26.6302     0.0000   132.0000 </r>
       <r>   -26.3886     0.0000   132.0000 </r>
       <r>   -26.1470     0.0000   132.0000 </r>
       <r>   -25.9054     0.0000   132.0000 </r>
       <r>   -25.6638     0.0000   132.0000 </r>
       <r>   -25.4222     0.0000   132.0000 </r>
       <r>   -25.1806     0.0000   132.0000 </r>
       <r>   -24.9390     0.0000   132.0000 </r>
       <r>   -24.6974     0.0000   132.0000 </r>
       <r>   -24.4558     0.0000   132.0000 </r>
       <r>   -24.2142     0.0000   132.0000 </r>
       <r>   -23.9726     0.0000   132.0000 </r>
       <r>   -23.7310     0.0000   132.0000 </r>
       <r>   -23.4894     0.0000   132.0000 </r>
       <r>   -23.2478     0.0000   132.0000 </r>
       <r>   -23.0062     0.0000   132.0000 </r>
       <r>   -22.7646     0.0000   132.0000 </r>
       <r>   -22.5230     0.0000   132.0000 </r>
       <r>   -22.2814     0.0000   132.0000 </r>
       <r>   -22.0398     0.0000   132.0000 </r>
       <r>   -21.7982     0.0000   132.0000 </r>
       <r>   -21.5566     0.0000   132.0000 </r>
       <r>   -21.3150     0.0000   132.0000 </r>
       <r>   -21.0734     0.0000   132.0000 </r>
       <r>   -20.8318     0.0000   132.0000 </r>
       <r>   -20.5902     0.0000   132.0000 </r>
       <r>   -20.3486     0.0000   132.0000 </r>
       <r>   -20.1070     0.0000   132.0000 </r>
       <r>   -19.8654     0.0000   132.0000 </r>
       <r>   -19.6238     0.0000   132.0000 </r>
       <r>   -19.3822     0.0000   132.0000 </r>
       <r>   -19.1406     0.0000   132.0000 </r>
       <r>   -18.8990     0.0000   132.0000 </r>
       <r>   -18.6574     0.0000   132.0000 </r>
       <r>   -18.4158     0.0000   132.0000 </r>
       <r>   -18.1742     0.0000   132.0000 </r>
       <r>   -17.9326     0.0000   132.0000 </r>
       <r>   -17.6910     0.0000   132.0000 </r>
       <r>   -17.4494     0.0000   132.0000 </r>
       <r>   -17.2078     0.0000   132.0000 </r>
       <r>   -16.9662     0.0000   132.0000 </r>
       <r>   -16.7246     0.0000   132.0000 </r>
       <r>   -16.4830     0.0000   132.0000 </r>
       <r>   -16.2414     0.0000   132.0000 </r>
       <r>   -15.9998     0.0000   132.0000 </r>
       <r>   -15.7582     0.0000   132.0000 </r>
       <r>   -15.5166     0.0000   132.0000 </r>
       <r>   -15.2750     0.0000   132.0000 </r>
       <r>   -15.0334     0.0000   132.0000 </r>
       <r>   -14.7918     0.0000   132.0000 </r>
       <r>   -14.5502     0.0000   132.0000 </r>
       <r>   -14.3086     0.0000   132.0000 </r>
       <r>   -14.0670     0.0000   132.0000 </r>
       <r>   -13.8254     0.0000   132.0000 </r>
       <r>   -13.5838     0.0000   132.0000 </r>
       <r>   -13.3422     0.0000   132.0000 </r>
       <r>   -13.1006    19.0591   136.6047 </r>
       <r>   -12.8590    76.2593   155.0290 </r>
       <r>   -12.6174     4.0190   156.0000 </r>
       <r>   -12.3758     0.0000   156.0000 </r>
       <r>   -12.1342     0.0000   156.0000 </r>
       <r>   -11.8926     0.0000   156.0000 </r>
       <r>   -11.6510     0.0000   156.0000 </r>
       <r>   -11.4094     0.0000   156.0000 </r>
       <r>   -11.1678     0.0000   156.0000 </r>
       <r>   -10.9262     0.0000   156.0000 </r>
       <r>   -10.6846     0.0000   156.0000 </r>
       <r>   -10.4430     0.0000   156.0000 </r>
       <r>   -10.2014     0.0000   156.0000 </r>
       <r>    -9.9598     0.0000   156.0000 </r>
       <r>    -9.7182     0.0000   156.0000 </r>
       <r>    -9.4766     0.0000   156.0000 </r>
       <r>    -9.2350     0.0000   156.0000 </r>
       <r>    -8.9934     0.0000   156.0000 </r>
       <r>    -8.7518     0.0000   156.0000 </r>
       <r>    -8.5102     0.0000   156.0000 </r>
       <r>    -8.2686     0.0000   156.0000 </r>
       <r>    -8.0270     0.0000   156.0000 </r>
       <r>    -7.7854     0.0000   156.0000 </r>
       <r>    -7.5438     0.0000   156.0000 </r>
       <r>    -7.3022     0.0688   156.0166 </r>
       <r>    -7.0606    24.5701   161.9528 </r>
       <r>    -6.8190    46.5777   173.2060 </r>
       <r>    -6.5774    26.6384   179.6419 </r>
       <r>    -6.3358     1.4823   180.0000 </r>
       <r>    -6.0942     0.0000   180.0000 </r>
       <r>    -5.8526     0.0000   180.0000 </r>
       <r>    -5.6110     0.0000   180.0000 </r>
       <r>    -5.3694     0.0000   180.0000 </r>
       <r>    -5.1278     0.0000   180.0000 </r>
       <r>    -4.8862     0.0000   180.0000 </r>
       <r>    -4.6446     0.0000   180.0000 </r>
       <r>    -4.4030     0.0000   180.0000 </r>
       <r>    -4.1614     0.0000   180.0000 </r>
       <r>    -3.9198     0.0000   180.0000 </r>
       <r>    -3.6782     0.0000   180.0000 </r>
       <r>    -3.4366     0.0000   180.0000 </r>
       <r>    -3.1950     0.0000   180.0000 </r>
       <r>    -2.9534     0.0000   180.0000 </r>
       <r>    -2.7118     0.0000   180.0000 </r>
       <r>    -2.4702     0.0000   180.0000 </r>
       <r>    -2.2286     0.0000   180.0000 </r>
       <r>    -1.9870     0.0000   180.0000 </r>
       <r>    -1.7454     0.0000   180.0000 </r>
       <r>    -1.5038     0.0000   180.0000 </r>
       <r>    -1.2622     0.0000   180.0000 </r>
       <r>    -1.0206     0.0002   180.0000 </r>
       <r>    -0.7790     1.9128   180.4622 </r>
       <r>    -0.5374    10.0195   182.8829 </r>
       <r>    -0.2958    20.3991   187.8113 </r>
       <r>    -0.0542    34.1350   196.0584 </r>
       <r>     0.1874    25.1473   202.1340 </r>
       <r>     0.4290    37.0603   211.0878 </r>
       <r>     0.6706    36.1773   219.8283 </r>
       <r>     0.9122    57.1321   233.6314 </r>
       <r>     1.1538    55.9513   247.1493 </r>
       <r>     1.3954    19.8007   251.9332 </r>
       <r>     1.6370    25.2441   258.0322 </r>
       <r>     1.8786    47.3436   269.4704 </r>
       <r>     2.1203    35.6957   278.0945 </r>
       <r>     2.3619    30.2002   285.3909 </r>
       <r>     2.6035    33.3880   293.4575 </r>
       <r>     2.8451    44.6414   304.2429 </r>
       <r>     3.0867    38.1498   313.4599 </r>
       <r>     3.3283    59.6426   327.8696 </r>
       <r>     3.5699    27.8508   334.5984 </r>
       <r>     3.8115     9.3403   336.8550 </r>
       <r>     4.0531    10.9014   339.4888 </r>
       <r>     4.2947    40.7109   349.3246 </r>
       <r>     4.5363    22.7070   354.8106 </r>
       <r>     4.7779    19.8995   359.6183 </r>
       <r>     5.0195     1.5797   360.0000 </r>
       <r>     5.2611     0.0000   360.0000 </r>
       <r>     5.5027     0.0000   360.0000 </r>
       <r>     5.7443     0.0000   360.0000 </r>
       <r>     5.9859     0.0000   360.0000 </r>
       <r>     6.2275     0.3167   360.0765 </r>
       <r>     6.4691     3.6892   360.9678 </r>
       <r>     6.7107     9.7555   363.3248 </r>
       <r>     6.9523    32.7249   371.2311 </r>
       <r>     7.1939    77.7455   390.0145 </r>
       <r>     7.4355    65.1221   405.7481 </r>
       <r>     7.6771    51.5037   418.1914 </r>
       <r>     7.9187    85.6050   438.8736 </r>
       <r>     8.1603    78.2643   457.7824 </r>
       <r>     8.4019    52.8590   470.5531 </r>
       <r>     8.6435    72.9916   488.1880 </r>
       <r>     8.8851    45.0067   499.0616 </r>
       <r>     9.1267    22.0917   504.3990 </r>
       <r>     9.3683     4.8228   505.5642 </r>
       <r>     9.6099     6.6325   507.1666 </r>
       <r>     9.8515    11.5784   509.9640 </r>
       <r>    10.0931    14.4280   513.4498 </r>
       <r>    10.3347    18.1552   517.8361 </r>
       <r>    10.5763    31.9737   525.5610 </r>
       <r>    10.8179    28.2009   532.3743 </r>
       <r>    11.0595    21.9161   537.6693 </r>
       <r>    11.3011    24.8717   543.6783 </r>
       <r>    11.5427    22.0878   549.0147 </r>
       <r>    11.7843    21.4924   554.2073 </r>
       <r>    12.0259    18.5606   558.6916 </r>
       <r>    12.2675    30.7218   566.1140 </r>
       <r>    12.5091    42.6850   576.4267 </r>
       <r>    12.7507    35.2589   584.9453 </r>
       <r>    12.9923    28.5523   591.8436 </r>
       <r>    13.2339    27.3838   598.4595 </r>
       <r>    13.4755    36.6459   607.3132 </r>
       <r>    13.7171    29.4283   614.4231 </r>
       <r>    13.9587    23.0831   620.0000 </r>
       <r>    14.2003    23.6293   625.7088 </r>
       <r>    14.4419    16.3701   629.6638 </r>
       <r>    14.6835     1.3914   630.0000 </r>
       <r>    14.9251     0.0000   630.0000 </r>
       <r>    15.1667     0.0000   630.0000 </r>
       <r>    15.4083     0.0000   630.0000 </r>
       <r>    15.6499     0.0000   630.0000 </r>
       <r>    15.8915     0.0000   630.0000 </r>
       <r>    16.1331     0.0000   630.0000 </r>
       <r>    16.3747     0.0000   630.0000 </r>
       <r>    16.6163     0.0000   630.0000 </r>
       <r>    16.8579     0.0000   630.0000 </r>
       <r>    17.0995     0.0000   630.0000 </r>
       <r>    17.3411     0.0000   630.0000 </r>
       <r>    17.5827     0.0000   630.0000 </r>
       <r>    17.8243     0.0000   630.0000 </r>
      </set>
     </set>
    </array>
   </total>
  </dos>
 </calculation>
 <structure name="finalpos" >
  <crystal>
   <varray name="basis" >
    <v>      11.51036847       0.00000000       0.00000000 </v>
    <v>       0.00000000      11.32670916       0.12548940 </v>
    <v>       0.00000000      -0.29683152      11.32351444 </v>
   </varray>
   <i name="volume">   1476.72737236 </i>
   <varray name="rec_basis" >
    <v>       0.08687819       0.00000000       0.00000000 </v>
    <v>       0.00000000       0.08826126       0.00231366 </v>
    <v>       0.00000000      -0.00097813       0.08828616 </v>
   </varray>
  </crystal>
  <varray name="positions" >
   <v>       0.10513295       0.25000000       0.00000000 </v>
   <v>       0.43846628       0.25000000       0.00000000 </v>
   <v>       0.77179961       0.25000000       0.00000000 </v>
   <v>       0.10513295       0.75000000       0.00000000 </v>
   <v>       0.43846628       0.75000000       0.00000000 </v>
   <v>       0.77179961       0.75000000       0.00000000 </v>
   <v>       0.10513295       0.25000000       0.50000000 </v>
   <v>       0.43846628       0.25000000       0.50000000 </v>
   <v>       0.77179961       0.25000000       0.50000000 </v>
   <v>       0.10513295       0.75000000       0.50000000 </v>
   <v>       0.43846628       0.75000000       0.50000000 </v>
   <v>       0.77179961       0.75000000       0.50000000 </v>
   <v>       0.10513295       0.00000000       0.25000000 </v>
   <v>       0.43846628       0.00000000       0.25000000 </v>
   <v>       0.77179961       0.00000000       0.25000000 </v>
   <v>       0.10513295       0.50000000       0.25000000 </v>
   <v>       0.43846628       0.50000000       0.25000000 </v>
   <v>       0.77179961       0.50000000       0.25000000 </v>
   <v>       0.10513295       0.00000000       0.75000000 </v>
   <v>       0.43846628       0.00000000       0.75000000 </v>
   <v>       0.77179961       0.00000000       0.75000000 </v>
   <v>       0.10513295       0.50000000       0.75000000 </v>
   <v>       0.43846628       0.50000000       0.75000000 </v>
   <v>       0.77179961       0.50000000       0.75000000 </v>
   <v>       0.10614906       0.12615944       0.37472338 </v>
   <v>       0.43948239       0.12527662       0.37472338 </v>
   <v>       0.77281572       0.12527662       0.37472338 </v>
   <v>       0.10614906       0.62527662       0.37472338 </v>
   <v>       0.43948239       0.62527662       0.37472338 </v>
   <v>       0.77281572       0.62527662       0.37472338 </v>
   <v>       0.10614906       0.12527662       0.87472338 </v>
   <v>       0.43948239       0.12527662       0.87472338 </v>
   <v>       0.77281572       0.12527662       0.87472338 </v>
   <v>       0.10614906       0.62527662       0.87472338 </v>
   <v>       0.43948239       0.62527662       0.87472338 </v>
   <v>       0.77281572       0.62527662       0.87472338 </v>
   <v>       0.10614906       0.37472338       0.12527662 </v>
   <v>       0.43948239       0.37472338       0.12527662 </v>
   <v>       0.77281572       0.37472338       0.12527662 </v>
   <v>       0.10614906       0.87472338       0.12527662 </v>
   <v>       0.43948239       0.87472338       0.12527662 </v>
   <v>       0.77281572       0.87472338       0.12527662 </v>
   <v>       0.10614906       0.37472338       0.62527662 </v>
   <v>       0.43948239       0.37472338       0.62527662 </v>
   <v>       0.77281572       0.37472338       0.62527662 </v>
   <v>       0.10614906       0.87472338       0.62527662 </v>
   <v>       0.43948239       0.87472338       0.62527662 </v>
   <v>       0.77281572       0.87472338       0.62527662 </v>
   <v>       0.27279884       0.11809471       0.11809471 </v>
   <v>       0.60613218       0.11809471       0.11809471 </v>
   <v>       0.93946551       0.11809471       0.11809471 </v>
   <v>       0.27279884       0.61809471       0.11809471 </v>
   <v>       0.60613218       0.61809471       0.11809471 </v>
   <v>       0.93946551       0.61809471       0.11809471 </v>
   <v>       0.27279884       0.11809471       0.61809471 </v>
   <v>       0.60613218       0.11809471       0.61809471 </v>
   <v>       0.93946551       0.11809471       0.61809471 </v>
   <v>       0.27279884       0.61809471       0.61809471 </v>
   <v>       0.60613218       0.61809471       0.61809471 </v>
   <v>       0.93946551       0.61809471       0.61809471 </v>
   <v>       0.27279884       0.38190529       0.38190529 </v>
   <v>       0.60613218       0.38190529       0.38190529 </v>
   <v>       0.93946551       0.38190529       0.38190529 </v>
   <v>       0.27279884       0.88190529       0.38190529 </v>
   <v>       0.60613218       0.88190529       0.38190529 </v>
   <v>       0.93946551       0.88190529       0.38190529 </v>
   <v>       0.27279884       0.38190529       0.88190529 </v>
   <v>       0.60613218       0.38190529       0.88190529 </v>
   <v>       0.93946551       0.38190529       0.88190529 </v>
   <v>       0.27279884       0.88190529       0.88190529 </v>
   <v>       0.60613218       0.88190529       0.88190529 </v>
   <v>       0.93946551       0.88190529       0.88190529 </v>
   <v>       0.27287151       0.33907427       0.16092573 </v>
   <v>       0.60620484       0.33907427       0.16092573 </v>
   <v>       0.93953818       0.33907427       0.16092573 </v>
   <v>       0.27287151       0.83907427       0.16092573 </v>
   <v>       0.60620484       0.83907427       0.16092573 </v>
   <v>       0.93953818       0.83907427       0.16092573 </v>
   <v>       0.27287151       0.33907427       0.66092573 </v>
   <v>       0.60620484       0.33907427       0.66092573 </v>
   <v>       0.93953818       0.33907427       0.66092573 </v>
   <v>       0.27287151       0.83907427       0.66092573 </v>
   <v>       0.60620484       0.83907427       0.66092573 </v>
   <v>       0.93953818       0.83907427       0.66092573 </v>
   <v>       0.27287151       0.16092573       0.33907427 </v>
   <v>       0.60620484       0.16092573       0.33907427 </v>
   <v>       0.93953818       0.16092573       0.33907427 </v>
   <v>       0.27287151       0.66092573       0.33907427 </v>
   <v>       0.60620484       0.66092573       0.33907427 </v>
   <v>       0.93953818       0.66092573       0.33907427 </v>
   <v>       0.27287151       0.16092573       0.83907427 </v>
   <v>       0.60620484       0.16092573       0.83907427 </v>
   <v>       0.93953818       0.16092573       0.83907427 </v>
   <v>       0.27287151       0.66092573       0.83907427 </v>
   <v>       0.60620484       0.66092573       0.83907427 </v>
   <v>       0.93953818       0.66092573       0.83907427 </v>
   <v>       0.10731129       0.00000000       0.00000000 </v>
   <v>       0.44064462       0.00000000       0.00000000 </v>
   <v>       0.77397796       0.00000000       0.00000000 </v>
   <v>       0.10731129       0.50000000       0.00000000 </v>
   <v>       0.44064462       0.50000000       0.00000000 </v>
   <v>       0.77397796       0.50000000       0.00000000 </v>
   <v>       0.10731129       0.00000000       0.50000000 </v>
   <v>       0.44064462       0.00000000       0.50000000 </v>
   <v>       0.77397796       0.00000000       0.50000000 </v>
   <v>       0.10731129       0.50000000       0.50000000 </v>
   <v>       0.44064462       0.50000000       0.50000000 </v>
   <v>       0.77397796       0.50000000       0.50000000 </v>
  </varray>
 </structure>
</modeling>
