  88  88   0   0
  0.1431748E+02  0.1111223E-08  0.1111745E-08  0.1056954E-08  0.5000000E-15
  1.000000000000000E-004
  CAR 
 unknown system                          
     17.93397880    -54.34337627  301      5.22521054      1.00000000
    -54.343  0.0000E+00  0.0000E+00  0.0000E+00  0.0000E+00
    -54.102  0.0000E+00  0.0000E+00  0.0000E+00  0.0000E+00
    -53.862  0.0000E+00  0.0000E+00  0.0000E+00  0.0000E+00
    -53.621  0.0000E+00  0.0000E+00  0.0000E+00  0.0000E+00
    -53.380  0.0000E+00  0.0000E+00  0.0000E+00  0.0000E+00
    -53.139  0.0000E+00  0.0000E+00  0.0000E+00  0.0000E+00
    -52.898  0.0000E+00  0.0000E+00  0.0000E+00  0.0000E+00
    -52.657  0.0000E+00  0.0000E+00  0.0000E+00  0.0000E+00
    -52.416  0.0000E+00  0.0000E+00  0.0000E+00  0.0000E+00
    -52.175  0.0000E+00  0.0000E+00  0.0000E+00  0.0000E+00
    -51.934  0.0000E+00  0.0000E+00  0.0000E+00  0.0000E+00
    -51.693  0.0000E+00  0.0000E+00  0.0000E+00  0.0000E+00
    -51.452  0.0000E+00  0.0000E+00  0.0000E+00  0.0000E+00
    -51.211  0.3214E-03  0.0000E+00  0.7742E-04  0.0000E+00
    -50.970  0.1307E+03  0.0000E+00  0.3149E+02  0.0000E+00
    -50.730  0.2123E+01  0.0000E+00  0.3200E+02  0.0000E+00
    -50.489  0.0000E+00  0.0000E+00  0.3200E+02  0.0000E+00
    -50.248  0.0000E+00  0.0000E+00  0.3200E+02  0.0000E+00
    -50.007  0.0000E+00  0.0000E+00  0.3200E+02  0.0000E+00
    -49.766  0.1870E+01  0.0000E+00  0.3245E+02  0.0000E+00
    -49.525  0.2358E+03  0.0000E+00  0.8926E+02  0.0000E+00
    -49.284  0.2799E+02  0.0000E+00  0.9600E+02  0.0000E+00
    -49.043  0.0000E+00  0.0000E+00  0.9600E+02  0.0000E+00
    -48.802  0.0000E+00  0.0000E+00  0.9600E+02  0.0000E+00
    -48.561  0.0000E+00  0.0000E+00  0.9600E+02  0.0000E+00
    -48.320  0.0000E+00  0.0000E+00  0.9600E+02  0.0000E+00
    -48.079  0.0000E+00  0.0000E+00  0.9600E+02  0.0000E+00
    -47.838  0.0000E+00  0.0000E+00  0.9600E+02  0.0000E+00
    -47.597  0.0000E+00  0.0000E+00  0.9600E+02  0.0000E+00
    -47.357  0.0000E+00  0.0000E+00  0.9600E+02  0.0000E+00
    -47.116  0.0000E+00  0.0000E+00  0.9600E+02  0.0000E+00
    -46.875  0.0000E+00  0.0000E+00  0.9600E+02  0.0000E+00
    -46.634  0.0000E+00  0.0000E+00  0.9600E+02  0.0000E+00
    -46.393  0.0000E+00  0.3938E+00  0.9600E+02  0.9489E-01
    -46.152  0.0000E+00  0.1324E+03  0.9600E+02  0.3199E+02
    -45.911  0.0000E+00  0.6136E+02  0.9600E+02  0.4677E+02
    -45.670  0.0000E+00  0.2043E+03  0.9600E+02  0.9600E+02
    -45.429  0.0000E+00  0.0000E+00  0.9600E+02  0.9600E+02
    -45.188  0.0000E+00  0.0000E+00  0.9600E+02  0.9600E+02
    -44.947  0.0000E+00  0.0000E+00  0.9600E+02  0.9600E+02
    -44.706  0.0000E+00  0.0000E+00  0.9600E+02  0.9600E+02
    -44.465  0.0000E+00  0.0000E+00  0.9600E+02  0.9600E+02
    -44.225  0.0000E+00  0.0000E+00  0.9600E+02  0.9600E+02
    -43.984  0.0000E+00  0.0000E+00  0.9600E+02  0.9600E+02
    -43.743  0.0000E+00  0.0000E+00  0.9600E+02  0.9600E+02
    -43.502  0.0000E+00  0.0000E+00  0.9600E+02  0.9600E+02
    -43.261  0.0000E+00  0.0000E+00  0.9600E+02  0.9600E+02
    -43.020  0.0000E+00  0.0000E+00  0.9600E+02  0.9600E+02
    -42.779  0.0000E+00  0.0000E+00  0.9600E+02  0.9600E+02
    -42.538  0.0000E+00  0.0000E+00  0.9600E+02  0.9600E+02
    -42.297  0.0000E+00  0.0000E+00  0.9600E+02  0.9600E+02
    -42.056  0.0000E+00  0.0000E+00  0.9600E+02  0.9600E+02
    -41.815  0.0000E+00  0.0000E+00  0.9600E+02  0.9600E+02
    -41.574  0.0000E+00  0.0000E+00  0.9600E+02  0.9600E+02
    -41.333  0.0000E+00  0.0000E+00  0.9600E+02  0.9600E+02
    -41.093  0.0000E+00  0.0000E+00  0.9600E+02  0.9600E+02
    -40.852  0.0000E+00  0.0000E+00  0.9600E+02  0.9600E+02
    -40.611  0.0000E+00  0.0000E+00  0.9600E+02  0.9600E+02
    -40.370  0.0000E+00  0.0000E+00  0.9600E+02  0.9600E+02
    -40.129  0.1481E-10  0.9131E-11  0.9600E+02  0.9600E+02
    -39.888  0.2216E+02  0.2061E+02  0.1013E+03  0.1010E+03
    -39.647  0.4425E+02  0.4580E+02  0.1120E+03  0.1120E+03
    -39.406  0.0000E+00  0.0000E+00  0.1120E+03  0.1120E+03
    -39.165  0.0000E+00  0.0000E+00  0.1120E+03  0.1120E+03
    -38.924  0.0000E+00  0.0000E+00  0.1120E+03  0.1120E+03
    -38.683  0.0000E+00  0.0000E+00  0.1120E+03  0.1120E+03
    -38.442  0.0000E+00  0.0000E+00  0.1120E+03  0.1120E+03
    -38.201  0.0000E+00  0.0000E+00  0.1120E+03  0.1120E+03
    -37.961  0.0000E+00  0.0000E+00  0.1120E+03  0.1120E+03
    -37.720  0.0000E+00  0.0000E+00  0.1120E+03  0.1120E+03
    -37.479  0.0000E+00  0.0000E+00  0.1120E+03  0.1120E+03
    -37.238  0.0000E+00  0.0000E+00  0.1120E+03  0.1120E+03
    -36.997  0.0000E+00  0.0000E+00  0.1120E+03  0.1120E+03
    -36.756  0.0000E+00  0.0000E+00  0.1120E+03  0.1120E+03
    -36.515  0.0000E+00  0.0000E+00  0.1120E+03  0.1120E+03
    -36.274  0.0000E+00  0.0000E+00  0.1120E+03  0.1120E+03
    -36.033  0.0000E+00  0.0000E+00  0.1120E+03  0.1120E+03
    -35.792  0.0000E+00  0.0000E+00  0.1120E+03  0.1120E+03
    -35.551  0.0000E+00  0.0000E+00  0.1120E+03  0.1120E+03
    -35.310  0.0000E+00  0.0000E+00  0.1120E+03  0.1120E+03
    -35.069  0.0000E+00  0.0000E+00  0.1120E+03  0.1120E+03
    -34.828  0.0000E+00  0.0000E+00  0.1120E+03  0.1120E+03
    -34.588  0.0000E+00  0.0000E+00  0.1120E+03  0.1120E+03
    -34.347  0.0000E+00  0.0000E+00  0.1120E+03  0.1120E+03
    -34.106  0.0000E+00  0.0000E+00  0.1120E+03  0.1120E+03
    -33.865  0.0000E+00  0.0000E+00  0.1120E+03  0.1120E+03
    -33.624  0.0000E+00  0.0000E+00  0.1120E+03  0.1120E+03
    -33.383  0.0000E+00  0.0000E+00  0.1120E+03  0.1120E+03
    -33.142  0.0000E+00  0.0000E+00  0.1120E+03  0.1120E+03
    -32.901  0.0000E+00  0.0000E+00  0.1120E+03  0.1120E+03
    -32.660  0.0000E+00  0.0000E+00  0.1120E+03  0.1120E+03
    -32.419  0.0000E+00  0.0000E+00  0.1120E+03  0.1120E+03
    -32.178  0.0000E+00  0.0000E+00  0.1120E+03  0.1120E+03
    -31.937  0.0000E+00  0.0000E+00  0.1120E+03  0.1120E+03
    -31.696  0.0000E+00  0.0000E+00  0.1120E+03  0.1120E+03
    -31.456  0.0000E+00  0.0000E+00  0.1120E+03  0.1120E+03
    -31.215  0.0000E+00  0.0000E+00  0.1120E+03  0.1120E+03
    -30.974  0.0000E+00  0.0000E+00  0.1120E+03  0.1120E+03
    -30.733  0.0000E+00  0.0000E+00  0.1120E+03  0.1120E+03
    -30.492  0.0000E+00  0.0000E+00  0.1120E+03  0.1120E+03
    -30.251  0.0000E+00  0.0000E+00  0.1120E+03  0.1120E+03
    -30.010  0.0000E+00  0.0000E+00  0.1120E+03  0.1120E+03
    -29.769  0.0000E+00  0.0000E+00  0.1120E+03  0.1120E+03
    -29.528  0.0000E+00  0.0000E+00  0.1120E+03  0.1120E+03
    -29.287  0.0000E+00  0.0000E+00  0.1120E+03  0.1120E+03
    -29.046  0.0000E+00  0.0000E+00  0.1120E+03  0.1120E+03
    -28.805  0.0000E+00  0.0000E+00  0.1120E+03  0.1120E+03
    -28.564  0.0000E+00  0.0000E+00  0.1120E+03  0.1120E+03
    -28.324  0.0000E+00  0.0000E+00  0.1120E+03  0.1120E+03
    -28.083  0.0000E+00  0.0000E+00  0.1120E+03  0.1120E+03
    -27.842  0.0000E+00  0.0000E+00  0.1120E+03  0.1120E+03
    -27.601  0.0000E+00  0.0000E+00  0.1120E+03  0.1120E+03
    -27.360  0.0000E+00  0.0000E+00  0.1120E+03  0.1120E+03
    -27.119  0.0000E+00  0.0000E+00  0.1120E+03  0.1120E+03
    -26.878  0.0000E+00  0.0000E+00  0.1120E+03  0.1120E+03
    -26.637  0.0000E+00  0.0000E+00  0.1120E+03  0.1120E+03
    -26.396  0.0000E+00  0.0000E+00  0.1120E+03  0.1120E+03
    -26.155  0.0000E+00  0.0000E+00  0.1120E+03  0.1120E+03
    -25.914  0.0000E+00  0.0000E+00  0.1120E+03  0.1120E+03
    -25.673  0.0000E+00  0.0000E+00  0.1120E+03  0.1120E+03
    -25.432  0.0000E+00  0.0000E+00  0.1120E+03  0.1120E+03
    -25.192  0.0000E+00  0.0000E+00  0.1120E+03  0.1120E+03
    -24.951  0.0000E+00  0.0000E+00  0.1120E+03  0.1120E+03
    -24.710  0.0000E+00  0.0000E+00  0.1120E+03  0.1120E+03
    -24.469  0.0000E+00  0.0000E+00  0.1120E+03  0.1120E+03
    -24.228  0.0000E+00  0.0000E+00  0.1120E+03  0.1120E+03
    -23.987  0.0000E+00  0.0000E+00  0.1120E+03  0.1120E+03
    -23.746  0.0000E+00  0.0000E+00  0.1120E+03  0.1120E+03
    -23.505  0.0000E+00  0.0000E+00  0.1120E+03  0.1120E+03
    -23.264  0.0000E+00  0.0000E+00  0.1120E+03  0.1120E+03
    -23.023  0.0000E+00  0.0000E+00  0.1120E+03  0.1120E+03
    -22.782  0.0000E+00  0.0000E+00  0.1120E+03  0.1120E+03
    -22.541  0.0000E+00  0.0000E+00  0.1120E+03  0.1120E+03
    -22.300  0.0000E+00  0.0000E+00  0.1120E+03  0.1120E+03
    -22.059  0.0000E+00  0.0000E+00  0.1120E+03  0.1120E+03
    -21.819  0.0000E+00  0.0000E+00  0.1120E+03  0.1120E+03
    -21.578  0.0000E+00  0.0000E+00  0.1120E+03  0.1120E+03
    -21.337  0.0000E+00  0.0000E+00  0.1120E+03  0.1120E+03
    -21.096  0.0000E+00  0.0000E+00  0.1120E+03  0.1120E+03
    -20.855  0.0000E+00  0.0000E+00  0.1120E+03  0.1120E+03
    -20.614  0.0000E+00  0.0000E+00  0.1120E+03  0.1120E+03
    -20.373  0.0000E+00  0.0000E+00  0.1120E+03  0.1120E+03
    -20.132  0.0000E+00  0.0000E+00  0.1120E+03  0.1120E+03
    -19.891  0.0000E+00  0.0000E+00  0.1120E+03  0.1120E+03
    -19.650  0.0000E+00  0.0000E+00  0.1120E+03  0.1120E+03
    -19.409  0.0000E+00  0.0000E+00  0.1120E+03  0.1120E+03
    -19.168  0.0000E+00  0.0000E+00  0.1120E+03  0.1120E+03
    -18.927  0.0000E+00  0.0000E+00  0.1120E+03  0.1120E+03
    -18.687  0.0000E+00  0.0000E+00  0.1120E+03  0.1120E+03
    -18.446  0.0000E+00  0.0000E+00  0.1120E+03  0.1120E+03
    -18.205  0.0000E+00  0.0000E+00  0.1120E+03  0.1120E+03
    -17.964  0.0000E+00  0.0000E+00  0.1120E+03  0.1120E+03
    -17.723  0.0000E+00  0.0000E+00  0.1120E+03  0.1120E+03
    -17.482  0.0000E+00  0.0000E+00  0.1120E+03  0.1120E+03
    -17.241  0.0000E+00  0.0000E+00  0.1120E+03  0.1120E+03
    -17.000  0.0000E+00  0.0000E+00  0.1120E+03  0.1120E+03
    -16.759  0.0000E+00  0.0000E+00  0.1120E+03  0.1120E+03
    -16.518  0.0000E+00  0.0000E+00  0.1120E+03  0.1120E+03
    -16.277  0.0000E+00  0.0000E+00  0.1120E+03  0.1120E+03
    -16.036  0.0000E+00  0.0000E+00  0.1120E+03  0.1120E+03
    -15.795  0.0000E+00  0.0000E+00  0.1120E+03  0.1120E+03
    -15.555  0.0000E+00  0.0000E+00  0.1120E+03  0.1120E+03
    -15.314  0.0000E+00  0.0000E+00  0.1120E+03  0.1120E+03
    -15.073  0.0000E+00  0.0000E+00  0.1120E+03  0.1120E+03
    -14.832  0.0000E+00  0.0000E+00  0.1120E+03  0.1120E+03
    -14.591  0.0000E+00  0.0000E+00  0.1120E+03  0.1120E+03
    -14.350  0.0000E+00  0.0000E+00  0.1120E+03  0.1120E+03
    -14.109  0.0000E+00  0.0000E+00  0.1120E+03  0.1120E+03
    -13.868  0.0000E+00  0.0000E+00  0.1120E+03  0.1120E+03
    -13.627  0.0000E+00  0.0000E+00  0.1120E+03  0.1120E+03
    -13.386  0.5538E-05  0.0000E+00  0.1120E+03  0.1120E+03
    -13.145  0.2238E+02  0.0000E+00  0.1174E+03  0.1120E+03
    -12.904  0.4340E+02  0.3162E-01  0.1278E+03  0.1120E+03
    -12.663  0.6320E+00  0.4654E+02  0.1280E+03  0.1232E+03
    -12.423  0.0000E+00  0.1984E+02  0.1280E+03  0.1280E+03
    -12.182  0.0000E+00  0.0000E+00  0.1280E+03  0.1280E+03
    -11.941  0.0000E+00  0.0000E+00  0.1280E+03  0.1280E+03
    -11.700  0.0000E+00  0.0000E+00  0.1280E+03  0.1280E+03
    -11.459  0.0000E+00  0.0000E+00  0.1280E+03  0.1280E+03
    -11.218  0.0000E+00  0.0000E+00  0.1280E+03  0.1280E+03
    -10.977  0.0000E+00  0.0000E+00  0.1280E+03  0.1280E+03
    -10.736  0.0000E+00  0.0000E+00  0.1280E+03  0.1280E+03
    -10.495  0.0000E+00  0.0000E+00  0.1280E+03  0.1280E+03
    -10.254  0.0000E+00  0.0000E+00  0.1280E+03  0.1280E+03
    -10.013  0.0000E+00  0.0000E+00  0.1280E+03  0.1280E+03
     -9.772  0.0000E+00  0.0000E+00  0.1280E+03  0.1280E+03
     -9.531  0.0000E+00  0.0000E+00  0.1280E+03  0.1280E+03
     -9.290  0.0000E+00  0.0000E+00  0.1280E+03  0.1280E+03
     -9.050  0.0000E+00  0.0000E+00  0.1280E+03  0.1280E+03
     -8.809  0.0000E+00  0.0000E+00  0.1280E+03  0.1280E+03
     -8.568  0.0000E+00  0.0000E+00  0.1280E+03  0.1280E+03
     -8.327  0.0000E+00  0.0000E+00  0.1280E+03  0.1280E+03
     -8.086  0.0000E+00  0.0000E+00  0.1280E+03  0.1280E+03
     -7.845  0.1322E-08  0.0000E+00  0.1280E+03  0.1280E+03
     -7.604  0.9305E+00  0.2753E-09  0.1282E+03  0.1280E+03
     -7.363  0.1409E+02  0.8537E+00  0.1316E+03  0.1282E+03
     -7.122  0.3013E+02  0.1551E+02  0.1389E+03  0.1319E+03
     -6.881  0.3680E+02  0.2913E+02  0.1477E+03  0.1390E+03
     -6.640  0.1767E+02  0.2816E+02  0.1520E+03  0.1457E+03
     -6.399  0.0000E+00  0.2595E+02  0.1520E+03  0.1520E+03
     -6.158  0.0000E+00  0.1627E-01  0.1520E+03  0.1520E+03
     -5.918  0.0000E+00  0.0000E+00  0.1520E+03  0.1520E+03
     -5.677  0.0000E+00  0.0000E+00  0.1520E+03  0.1520E+03
     -5.436  0.0000E+00  0.0000E+00  0.1520E+03  0.1520E+03
     -5.195  0.0000E+00  0.0000E+00  0.1520E+03  0.1520E+03
     -4.954  0.0000E+00  0.0000E+00  0.1520E+03  0.1520E+03
     -4.713  0.0000E+00  0.0000E+00  0.1520E+03  0.1520E+03
     -4.472  0.0000E+00  0.0000E+00  0.1520E+03  0.1520E+03
     -4.231  0.0000E+00  0.0000E+00  0.1520E+03  0.1520E+03
     -3.990  0.0000E+00  0.0000E+00  0.1520E+03  0.1520E+03
     -3.749  0.0000E+00  0.0000E+00  0.1520E+03  0.1520E+03
     -3.508  0.0000E+00  0.0000E+00  0.1520E+03  0.1520E+03
     -3.267  0.0000E+00  0.0000E+00  0.1520E+03  0.1520E+03
     -3.026  0.0000E+00  0.0000E+00  0.1520E+03  0.1520E+03
     -2.786  0.0000E+00  0.0000E+00  0.1520E+03  0.1520E+03
     -2.545  0.0000E+00  0.0000E+00  0.1520E+03  0.1520E+03
     -2.304  0.0000E+00  0.0000E+00  0.1520E+03  0.1520E+03
     -2.063  0.2515E-03  0.0000E+00  0.1520E+03  0.1520E+03
     -1.822  0.1815E+02  0.0000E+00  0.1564E+03  0.1520E+03
     -1.581  0.1872E+02  0.0000E+00  0.1609E+03  0.1520E+03
     -1.340  0.1420E+02  0.0000E+00  0.1643E+03  0.1520E+03
     -1.099  0.1801E+02  0.0000E+00  0.1686E+03  0.1520E+03
     -0.858  0.4824E+02  0.0000E+00  0.1803E+03  0.1520E+03
     -0.617  0.5927E+02  0.1244E-04  0.1945E+03  0.1520E+03
     -0.376  0.3914E+02  0.5729E+01  0.2040E+03  0.1534E+03
     -0.135  0.6968E+02  0.2003E+02  0.2208E+03  0.1582E+03
      0.106  0.7300E+02  0.1250E+02  0.2384E+03  0.1612E+03
      0.346  0.7773E+02  0.1936E+02  0.2571E+03  0.1659E+03
      0.587  0.7045E+02  0.2991E+02  0.2741E+03  0.1731E+03
      0.828  0.5225E+02  0.4008E+02  0.2866E+03  0.1827E+03
      1.069  0.3592E+02  0.3713E+02  0.2953E+03  0.1917E+03
      1.310  0.3129E+02  0.2977E+02  0.3028E+03  0.1989E+03
      1.551  0.4469E+02  0.2122E+02  0.3136E+03  0.2040E+03
      1.792  0.4488E+02  0.2851E+02  0.3244E+03  0.2108E+03
      2.033  0.6974E+02  0.3827E+02  0.3412E+03  0.2201E+03
      2.274  0.5353E+02  0.2552E+02  0.3541E+03  0.2262E+03
      2.515  0.2798E+02  0.2731E+02  0.3609E+03  0.2328E+03
      2.756  0.4307E+02  0.3313E+02  0.3712E+03  0.2408E+03
      2.997  0.2675E+02  0.4514E+02  0.3777E+03  0.2517E+03
      3.238  0.9073E+01  0.4525E+02  0.3799E+03  0.2626E+03
      3.479  0.2995E+02  0.2919E+02  0.3871E+03  0.2696E+03
      3.719  0.2595E+02  0.1130E+02  0.3933E+03  0.2723E+03
      3.960  0.3168E+02  0.2053E+02  0.4010E+03  0.2773E+03
      4.201  0.3586E+02  0.5066E+02  0.4096E+03  0.2895E+03
      4.442  0.3650E+02  0.4653E+02  0.4184E+03  0.3007E+03
      4.683  0.2963E+02  0.1382E+02  0.4255E+03  0.3040E+03
      4.924  0.2495E+02  0.6075E-03  0.4315E+03  0.3040E+03
      5.165  0.1901E+01  0.0000E+00  0.4320E+03  0.3040E+03
      5.406  0.0000E+00  0.0000E+00  0.4320E+03  0.3040E+03
      5.647  0.0000E+00  0.0000E+00  0.4320E+03  0.3040E+03
      5.888  0.0000E+00  0.0000E+00  0.4320E+03  0.3040E+03
      6.129  0.0000E+00  0.1514E-07  0.4320E+03  0.3040E+03
      6.370  0.0000E+00  0.5635E+00  0.4320E+03  0.3041E+03
      6.611  0.0000E+00  0.4245E+01  0.4320E+03  0.3052E+03
      6.851  0.0000E+00  0.8386E+01  0.4320E+03  0.3072E+03
      7.092  0.9206E-13  0.2173E+02  0.4320E+03  0.3124E+03
      7.333  0.5925E-01  0.4558E+02  0.4320E+03  0.3234E+03
      7.574  0.9448E-01  0.5525E+02  0.4320E+03  0.3367E+03
      7.815  0.3876E+00  0.6226E+02  0.4321E+03  0.3517E+03
      8.056  0.6600E+00  0.6676E+02  0.4323E+03  0.3678E+03
      8.297  0.2473E+01  0.7134E+02  0.4329E+03  0.3850E+03
      8.538  0.2747E+01  0.5765E+02  0.4335E+03  0.3989E+03
      8.779  0.9153E+01  0.5893E+02  0.4358E+03  0.4131E+03
      9.020  0.1299E+02  0.4479E+02  0.4389E+03  0.4239E+03
      9.261  0.1359E+02  0.2763E+02  0.4422E+03  0.4305E+03
      9.502  0.1828E+02  0.8009E+01  0.4466E+03  0.4324E+03
      9.743  0.1570E+02  0.3625E+01  0.4503E+03  0.4333E+03
      9.983  0.1571E+02  0.8808E+01  0.4541E+03  0.4354E+03
     10.224  0.2250E+02  0.1907E+02  0.4595E+03  0.4400E+03
     10.465  0.1487E+02  0.1802E+02  0.4631E+03  0.4444E+03
     10.706  0.1500E+02  0.1807E+02  0.4667E+03  0.4487E+03
     10.947  0.1384E+02  0.2696E+02  0.4701E+03  0.4552E+03
     11.188  0.2084E+02  0.1907E+02  0.4751E+03  0.4598E+03
     11.429  0.2582E+02  0.2409E+02  0.4813E+03  0.4656E+03
     11.670  0.2631E+02  0.1371E+02  0.4877E+03  0.4689E+03
     11.911  0.2580E+02  0.1414E+02  0.4939E+03  0.4723E+03
     12.152  0.3215E+02  0.1709E+02  0.5016E+03  0.4765E+03
     12.393  0.1978E+02  0.3829E+02  0.5064E+03  0.4857E+03
     12.634  0.2308E+02  0.3203E+02  0.5119E+03  0.4934E+03
     12.875  0.2197E+02  0.2809E+02  0.5172E+03  0.5002E+03
     13.115  0.1925E+02  0.2027E+02  0.5219E+03  0.5050E+03
     13.356  0.2564E+02  0.2316E+02  0.5281E+03  0.5106E+03
     13.597  0.2262E+02  0.2747E+02  0.5335E+03  0.5172E+03
     13.838  0.1276E+02  0.2374E+02  0.5366E+03  0.5230E+03
     14.079  0.5898E+01  0.2577E+02  0.5380E+03  0.5292E+03
     14.320  0.2754E-02  0.1851E+02  0.5380E+03  0.5336E+03
     14.561  0.0000E+00  0.1554E+02  0.5380E+03  0.5374E+03
     14.802  0.0000E+00  0.2610E+01  0.5380E+03  0.5380E+03
     15.043  0.0000E+00  0.2226E-05  0.5380E+03  0.5380E+03
     15.284  0.0000E+00  0.0000E+00  0.5380E+03  0.5380E+03
     15.525  0.0000E+00  0.0000E+00  0.5380E+03  0.5380E+03
     15.766  0.0000E+00  0.0000E+00  0.5380E+03  0.5380E+03
     16.007  0.0000E+00  0.0000E+00  0.5380E+03  0.5380E+03
     16.248  0.0000E+00  0.0000E+00  0.5380E+03  0.5380E+03
     16.488  0.0000E+00  0.0000E+00  0.5380E+03  0.5380E+03
     16.729  0.0000E+00  0.0000E+00  0.5380E+03  0.5380E+03
     16.970  0.0000E+00  0.0000E+00  0.5380E+03  0.5380E+03
     17.211  0.0000E+00  0.0000E+00  0.5380E+03  0.5380E+03
     17.452  0.0000E+00  0.0000E+00  0.5380E+03  0.5380E+03
     17.693  0.0000E+00  0.0000E+00  0.5380E+03  0.5380E+03
     17.934  0.0000E+00  0.0000E+00  0.5380E+03  0.5380E+03
