<?xml version="1.0" encoding="ISO-8859-1"?>
<modeling>
 <generator>
  <i name="program" type="string">vasp </i>
  <i name="version" type="string">5.4.4.18Apr17-6-g9f103f2a35  </i>
  <i name="subversion" type="string">(build Oct 25 2017 14:42:18) complex            parallel </i>
  <i name="platform" type="string">LinuxIFC </i>
  <i name="date" type="string">2021 06 02 </i>
  <i name="time" type="string">16:38:31 </i>
 </generator>
 <incar>
  <i type="string" name="PREC">accurate</i>
  <i type="string" name="ALGO"> normal</i>
  <i type="logical" name="ADDGRID"> T  </i>
  <i type="int" name="ISPIN">     2</i>
  <i type="int" name="ICHARG">     1</i>
  <i type="int" name="NELM">   200</i>
  <i type="int" name="NELMIN">     8</i>
  <i name="EDIFF">      0.00000100</i>
  <i type="int" name="ISYM">     0</i>
  <i name="ENCUT">    650.00000000</i>
  <v name="MAGMOM">      0.60000000      0.60000000      0.60000000      0.60000000      0.60000000      0.60000000      0.60000000      0.60000000      0.60000000      0.60000000      0.60000000      0.60000000      0.60000000      0.60000000      0.60000000      0.60000000      0.60000000      0.60000000      0.60000000      0.60000000
      0.60000000      0.60000000      0.60000000      0.60000000      0.60000000      0.60000000      0.60000000      0.60000000      0.60000000      0.60000000      0.60000000      0.60000000      0.60000000      0.60000000      0.60000000      0.60000000      0.60000000      0.60000000      0.60000000      0.60000000
      0.60000000      0.60000000      0.60000000      0.60000000      0.60000000      0.60000000      0.60000000      0.60000000      0.60000000      0.60000000      0.60000000      0.60000000      0.60000000      0.60000000      0.60000000      0.60000000      5.00000000      5.00000000      5.00000000      5.00000000
      5.00000000      5.00000000      5.00000000      5.00000000      5.00000000      5.00000000      5.00000000      5.00000000      5.00000000      5.00000000      5.00000000      5.00000000      5.00000000      5.00000000      5.00000000      5.00000000      5.00000000      5.00000000      5.00000000      5.00000000
      5.00000000      5.00000000      5.00000000      5.00000000      5.00000000      5.00000000      5.00000000      5.00000000</v>
  <i type="logical" name="LREAL"> F  </i>
  <i type="int" name="ISMEAR">     0</i>
  <i name="SIGMA">      0.05000000</i>
  <i type="int" name="NWRITE">     1</i>
  <i type="int" name="LMAXMIX">     4</i>
  <i type="logical" name="LWAVE"> F  </i>
  <i type="logical" name="LASPH"> T  </i>
  <v type="int" name="KPOINT_BSE">    -1     0     0     0</v>
  <i type="int" name="NELM">   200</i>
  <i type="string" name="GGA"> pe</i>
  <i type="logical" name="LDAU"> T  </i>
  <v type="int" name="LDAUTYPE">     2</v>
  <v type="int" name="LDAUL">    -1    -1    -1     2</v>
  <v name="LDAUU">      0.00000000      0.00000000      0.00000000      4.00000000</v>
  <v name="LDAUJ">      0.00000000      0.00000000      0.00000000      0.00000000</v>
  <i type="logical" name="LASPH"> T  </i>
 </incar>
 <structure name="primitive_cell" >
  <crystal>
   <varray name="basis" >
    <v>      11.11223374       0.00000000      -0.00029034 </v>
    <v>       0.00000000      11.11745194       0.00000000 </v>
    <v>      -2.77510898       0.00000000      10.19872221 </v>
   </varray>
   <i name="volume">   1259.93837498 </i>
   <varray name="rec_basis" >
    <v>       0.08999155       0.00000000       0.02448702 </v>
    <v>       0.00000000       0.08994867       0.00000000 </v>
    <v>       0.00000256       0.00000000       0.09805220 </v>
   </varray>
  </crystal>
  <varray name="positions" >
   <v>       0.28894970       0.46933910       0.15583616 </v>
   <v>       0.17529533      -0.40661825       0.19749617 </v>
   <v>       0.42345029       0.34530995       0.19749407 </v>
   <v>       0.37560721      -0.40565694      -0.00000412 </v>
   <v>       0.12439279       0.34434306       0.00000412 </v>
   <v>      -0.46151602       0.46936404       0.15397331 </v>
   <v>       0.03848398       0.46936404       0.15397331 </v>
   <v>       0.28861657       0.21935690       0.15447525 </v>
   <v>       0.28861657      -0.28064310       0.15447525 </v>
   <v>       0.21868463       0.34613344       0.37102476 </v>
   <v>       0.46681660      -0.40655103       0.37102399 </v>
   <v>       0.23507288      -0.41767349       0.39367237 </v>
   <v>       0.46175575       0.35634799       0.39367694 </v>
   <v>       0.21138343       0.46935690      -0.15447525 </v>
   <v>       0.04646972       0.21934976       0.18586770 </v>
   <v>       0.04646972      -0.28065024       0.18586770 </v>
   <v>      -0.45353028       0.21934976       0.18586770 </v>
   <v>      -0.45353028      -0.28065024       0.18586770 </v>
   <v>       0.32470467       0.34338175      -0.19749617 </v>
   <v>       0.07654971      -0.40469005      -0.19749407 </v>
   <v>       0.21105030       0.21933910      -0.15583616 </v>
   <v>       0.21105030      -0.28066090      -0.15583616 </v>
   <v>      -0.07654971       0.34530995       0.19749407 </v>
   <v>      -0.32470467      -0.40661825       0.19749617 </v>
   <v>       0.17529533       0.09338175       0.19749617 </v>
   <v>       0.42345029      -0.15469005       0.19749407 </v>
   <v>       0.45353028       0.46934976      -0.18586770 </v>
   <v>      -0.04646972       0.46934976      -0.18586770 </v>
   <v>      -0.37560721       0.34434306       0.00000412 </v>
   <v>      -0.12439279      -0.40565694      -0.00000412 </v>
   <v>       0.37560721       0.09434306      -0.00000412 </v>
   <v>       0.12439279      -0.15565694       0.00000412 </v>
   <v>      -0.03318340      -0.40655103       0.37102399 </v>
   <v>      -0.28131537       0.34523395       0.37102476 </v>
   <v>       0.21868463      -0.15476605       0.37102476 </v>
   <v>       0.46681660       0.09344897       0.37102399 </v>
   <v>       0.46151602       0.21936404      -0.15397331 </v>
   <v>       0.46151602      -0.28063596      -0.15397331 </v>
   <v>      -0.03848398       0.21936404      -0.15397331 </v>
   <v>      -0.03848398      -0.28063596      -0.15397331 </v>
   <v>       0.26492712       0.33232651      -0.39367237 </v>
   <v>      -0.46175575      -0.39365201      -0.39367694 </v>
   <v>      -0.03824425       0.35634799       0.39367694 </v>
   <v>      -0.26492712      -0.41767349       0.39367237 </v>
   <v>       0.23507288       0.08232651       0.39367237 </v>
   <v>       0.46175575      -0.14365201       0.39367694 </v>
   <v>       0.28131537      -0.40476605      -0.37102476 </v>
   <v>      -0.46681660       0.34344897      -0.37102399 </v>
   <v>      -0.21105030       0.46933910       0.15583616 </v>
   <v>       0.28894970      -0.03066090       0.15583616 </v>
   <v>       0.32470467      -0.15661825      -0.19749617 </v>
   <v>       0.07654971       0.09530995      -0.19749407 </v>
   <v>      -0.42345029      -0.40469005      -0.19749407 </v>
   <v>      -0.17529533       0.34338175      -0.19749617 </v>
   <v>       0.03318340       0.34344897      -0.37102399 </v>
   <v>      -0.07654971      -0.15469005       0.19749407 </v>
   <v>      -0.32470467       0.09338175       0.19749617 </v>
   <v>       0.03824425      -0.39365201      -0.39367694 </v>
   <v>      -0.37560721      -0.15565694       0.00000412 </v>
   <v>      -0.12439279       0.09434306      -0.00000412 </v>
   <v>      -0.21138343       0.21935690       0.15447525 </v>
   <v>      -0.21138343      -0.28064310       0.15447525 </v>
   <v>      -0.46151602      -0.03063596       0.15397331 </v>
   <v>       0.03848398      -0.03063596       0.15397331 </v>
   <v>       0.26492712      -0.16767349      -0.39367237 </v>
   <v>      -0.46175575       0.10634799      -0.39367694 </v>
   <v>      -0.03318340       0.09344897       0.37102399 </v>
   <v>      -0.28131537      -0.15476605       0.37102476 </v>
   <v>      -0.23507288       0.33232651      -0.39367237 </v>
   <v>      -0.28861657       0.46935690      -0.15447525 </v>
   <v>       0.21138343      -0.03064310      -0.15447525 </v>
   <v>      -0.21868463      -0.40476605      -0.37102476 </v>
   <v>       0.28131537       0.09523395      -0.37102476 </v>
   <v>      -0.46681660      -0.15655103      -0.37102399 </v>
   <v>      -0.03824425      -0.14365201       0.39367694 </v>
   <v>      -0.26492712       0.08232651       0.39367237 </v>
   <v>      -0.42345029       0.09530995      -0.19749407 </v>
   <v>      -0.17529533      -0.15661825      -0.19749617 </v>
   <v>       0.03318340      -0.15655103      -0.37102399 </v>
   <v>      -0.28894970       0.21933910      -0.15583616 </v>
   <v>      -0.28894970      -0.28066090      -0.15583616 </v>
   <v>       0.03824425       0.10634799      -0.39367694 </v>
   <v>       0.45353028      -0.03065024      -0.18586770 </v>
   <v>      -0.04646972      -0.03065024      -0.18586770 </v>
   <v>      -0.23507288      -0.16767349      -0.39367237 </v>
   <v>      -0.21868463       0.09523395      -0.37102476 </v>
   <v>      -0.21105030      -0.03066090       0.15583616 </v>
   <v>      -0.28861657      -0.03064310      -0.15447525 </v>
  </varray>
 </structure>
 <varray name="primitive_index" >
  <v type="int" >        1 </v>
  <v type="int" >       27 </v>
  <v type="int" >       29 </v>
  <v type="int" >       55 </v>
  <v type="int" >       49 </v>
  <v type="int" >       74 </v>
  <v type="int" >       73 </v>
  <v type="int" >       77 </v>
  <v type="int" >       79 </v>
  <v type="int" >       33 </v>
  <v type="int" >       39 </v>
  <v type="int" >       67 </v>
  <v type="int" >       69 </v>
  <v type="int" >       81 </v>
  <v type="int" >        5 </v>
  <v type="int" >        7 </v>
  <v type="int" >        6 </v>
  <v type="int" >        8 </v>
  <v type="int" >       21 </v>
  <v type="int" >       19 </v>
  <v type="int" >       13 </v>
  <v type="int" >       15 </v>
  <v type="int" >       30 </v>
  <v type="int" >       28 </v>
  <v type="int" >       25 </v>
  <v type="int" >       31 </v>
  <v type="int" >        9 </v>
  <v type="int" >       10 </v>
  <v type="int" >       50 </v>
  <v type="int" >       56 </v>
  <v type="int" >       53 </v>
  <v type="int" >       51 </v>
  <v type="int" >       40 </v>
  <v type="int" >       34 </v>
  <v type="int" >       35 </v>
  <v type="int" >       37 </v>
  <v type="int" >       85 </v>
  <v type="int" >       87 </v>
  <v type="int" >       86 </v>
  <v type="int" >       88 </v>
  <v type="int" >       61 </v>
  <v type="int" >       60 </v>
  <v type="int" >       70 </v>
  <v type="int" >       68 </v>
  <v type="int" >       65 </v>
  <v type="int" >       71 </v>
  <v type="int" >       47 </v>
  <v type="int" >       42 </v>
  <v type="int" >        2 </v>
  <v type="int" >        3 </v>
  <v type="int" >       23 </v>
  <v type="int" >       17 </v>
  <v type="int" >       20 </v>
  <v type="int" >       22 </v>
  <v type="int" >       41 </v>
  <v type="int" >       32 </v>
  <v type="int" >       26 </v>
  <v type="int" >       59 </v>
  <v type="int" >       52 </v>
  <v type="int" >       54 </v>
  <v type="int" >       78 </v>
  <v type="int" >       80 </v>
  <v type="int" >       76 </v>
  <v type="int" >       75 </v>
  <v type="int" >       63 </v>
  <v type="int" >       58 </v>
  <v type="int" >       38 </v>
  <v type="int" >       36 </v>
  <v type="int" >       62 </v>
  <v type="int" >       82 </v>
  <v type="int" >       83 </v>
  <v type="int" >       48 </v>
  <v type="int" >       45 </v>
  <v type="int" >       44 </v>
  <v type="int" >       72 </v>
  <v type="int" >       66 </v>
  <v type="int" >       18 </v>
  <v type="int" >       24 </v>
  <v type="int" >       43 </v>
  <v type="int" >       14 </v>
  <v type="int" >       16 </v>
  <v type="int" >       57 </v>
  <v type="int" >       11 </v>
  <v type="int" >       12 </v>
  <v type="int" >       64 </v>
  <v type="int" >       46 </v>
  <v type="int" >        4 </v>
  <v type="int" >       84 </v>
 </varray>
 <kpoints>
  <generation param="Gamma">
   <v type="int" name="divisions">       3        3        3 </v>
   <v name="usershift">      0.00000000       0.00000000       0.00000000 </v>
   <v name="genvec1">      0.33333333       0.00000000       0.00000000 </v>
   <v name="genvec2">      0.00000000       0.33333333       0.00000000 </v>
   <v name="genvec3">      0.00000000       0.00000000       0.33333333 </v>
   <v name="shift">      0.00000000       0.00000000       0.00000000 </v>
  </generation>
  <varray name="kpointlist" >
   <v>       0.00000000       0.00000000       0.00000000 </v>
   <v>       0.33333333       0.00000000       0.00000000 </v>
   <v>       0.00000000       0.33333333       0.00000000 </v>
   <v>       0.33333333       0.33333333       0.00000000 </v>
   <v>      -0.33333333       0.33333333      -0.00000000 </v>
   <v>       0.00000000       0.00000000       0.33333333 </v>
   <v>       0.33333333       0.00000000       0.33333333 </v>
   <v>      -0.33333333       0.00000000       0.33333333 </v>
   <v>       0.00000000       0.33333333       0.33333333 </v>
   <v>       0.33333333       0.33333333       0.33333333 </v>
   <v>      -0.33333333       0.33333333       0.33333333 </v>
   <v>       0.00000000      -0.33333333       0.33333333 </v>
   <v>       0.33333333      -0.33333333       0.33333333 </v>
   <v>      -0.33333333      -0.33333333       0.33333333 </v>
  </varray>
  <varray name="weights" >
   <v>       0.03703704 </v>
   <v>       0.07407407 </v>
   <v>       0.07407407 </v>
   <v>       0.07407407 </v>
   <v>       0.07407407 </v>
   <v>       0.07407407 </v>
   <v>       0.07407407 </v>
   <v>       0.07407407 </v>
   <v>       0.07407407 </v>
   <v>       0.07407407 </v>
   <v>       0.07407407 </v>
   <v>       0.07407407 </v>
   <v>       0.07407407 </v>
   <v>       0.07407407 </v>
  </varray>
 </kpoints>
 <parameters>
  <separator name="general" >
   <i type="string" name="SYSTEM">unknown system</i>
   <i type="logical" name="LCOMPAT"> F  </i>
  </separator>
  <separator name="electronic" >
   <i type="string" name="PREC">accura</i>
   <i name="ENMAX">    650.00000000</i>
   <i name="ENAUG">    628.94500000</i>
   <i name="EDIFF">      0.00000100</i>
   <i type="int" name="IALGO">    38</i>
   <i type="int" name="IWAVPR">    10</i>
   <i type="int" name="NBANDS">   538</i>
   <i name="NELECT">    736.00000000</i>
   <i type="int" name="TURBO">     0</i>
   <i type="int" name="IRESTART">     0</i>
   <i type="int" name="NREBOOT">     0</i>
   <i type="int" name="NMIN">     0</i>
   <i name="EREF">      0.00000000</i>
   <separator name="electronic smearing" >
    <i type="int" name="ISMEAR">     0</i>
    <i name="SIGMA">      0.05000000</i>
    <i name="KSPACING">      0.50000000</i>
    <i type="logical" name="KGAMMA"> T  </i>
   </separator>
   <separator name="electronic projectors" >
    <i type="logical" name="LREAL"> F  </i>
    <v name="ROPT">      0.00000000      0.00000000      0.00000000      0.00000000</v>
    <i type="int" name="LMAXPAW">  -100</i>
    <i type="int" name="LMAXMIX">     4</i>
    <i type="logical" name="NLSPLINE"> F  </i>
   </separator>
   <separator name="electronic startup" >
    <i type="int" name="ISTART">     0</i>
    <i type="int" name="ICHARG">     1</i>
    <i type="int" name="INIWAV">     1</i>
   </separator>
   <separator name="electronic spin" >
    <i type="int" name="ISPIN">     2</i>
    <i type="logical" name="LNONCOLLINEAR"> F  </i>
    <v name="MAGMOM">      0.60000000      0.60000000      0.60000000      0.60000000      0.60000000      0.60000000      0.60000000      0.60000000      0.60000000      0.60000000      0.60000000      0.60000000      0.60000000      0.60000000      0.60000000      0.60000000      0.60000000      0.60000000      0.60000000      0.60000000
      0.60000000      0.60000000      0.60000000      0.60000000      0.60000000      0.60000000      0.60000000      0.60000000      0.60000000      0.60000000      0.60000000      0.60000000      0.60000000      0.60000000      0.60000000      0.60000000      0.60000000      0.60000000      0.60000000      0.60000000
      0.60000000      0.60000000      0.60000000      0.60000000      0.60000000      0.60000000      0.60000000      0.60000000      0.60000000      0.60000000      0.60000000      0.60000000      0.60000000      0.60000000      0.60000000      0.60000000      5.00000000      5.00000000      5.00000000      5.00000000
      5.00000000      5.00000000      5.00000000      5.00000000      5.00000000      5.00000000      5.00000000      5.00000000      5.00000000      5.00000000      5.00000000      5.00000000      5.00000000      5.00000000      5.00000000      5.00000000      5.00000000      5.00000000      5.00000000      5.00000000
      5.00000000      5.00000000      5.00000000      5.00000000      5.00000000      5.00000000      5.00000000      5.00000000</v>
    <i name="NUPDOWN">     -1.00000000</i>
    <i type="logical" name="LSORBIT"> F  </i>
    <v name="SAXIS">      0.00000000      0.00000000      1.00000000</v>
    <i type="logical" name="LSPIRAL"> F  </i>
    <v name="QSPIRAL">      0.00000000      0.00000000      0.00000000</v>
    <i type="logical" name="LZEROZ"> F  </i>
   </separator>
   <separator name="electronic exchange-correlation" >
    <i type="logical" name="LASPH"> T  </i>
    <i type="logical" name="LMETAGGA"> F  </i>
   </separator>
   <separator name="electronic convergence" >
    <i type="int" name="NELM">   200</i>
    <i type="int" name="NELMDL">     0</i>
    <i type="int" name="NELMIN">     8</i>
    <i name="ENINI">    650.00000000</i>
    <separator name="electronic convergence detail" >
     <i type="logical" name="LDIAG"> T  </i>
     <i type="logical" name="LSUBROT"> F  </i>
     <i name="WEIMIN">      0.00000000</i>
     <i name="EBREAK">      0.00000000</i>
     <i name="DEPER">      0.30000000</i>
     <i type="int" name="NRMM">     4</i>
     <i name="TIME">      0.40000000</i>
    </separator>
   </separator>
   <separator name="electronic mixer" >
    <i name="AMIX">      0.40000000</i>
    <i name="BMIX">      1.00000000</i>
    <i name="AMIN">      0.10000000</i>
    <i name="AMIX_MAG">      1.60000000</i>
    <i name="BMIX_MAG">      1.00000000</i>
    <separator name="electronic mixer details" >
     <i type="int" name="IMIX">     4</i>
     <i type="logical" name="MIXFIRST"> F  </i>
     <i type="int" name="MAXMIX">   -45</i>
     <i name="WC">    100.00000000</i>
     <i type="int" name="INIMIX">     1</i>
     <i type="int" name="MIXPRE">     1</i>
     <i type="int" name="MREMOVE">     5</i>
    </separator>
   </separator>
   <separator name="electronic dipolcorrection" >
    <i type="logical" name="LDIPOL"> F  </i>
    <i type="logical" name="LMONO"> F  </i>
    <i type="int" name="IDIPOL">     0</i>
    <i name="EPSILON">      1.00000000</i>
    <v name="DIPOL">   -100.00000000   -100.00000000   -100.00000000</v>
    <i name="EFIELD">      0.00000000</i>
   </separator>
  </separator>
  <separator name="grids" >
   <i type="int" name="NGX">    96</i>
   <i type="int" name="NGY">    96</i>
   <i type="int" name="NGZ">    90</i>
   <i type="int" name="NGXF">   192</i>
   <i type="int" name="NGYF">   192</i>
   <i type="int" name="NGZF">   180</i>
   <i type="logical" name="ADDGRID"> T  </i>
  </separator>
  <separator name="ionic" >
   <i type="int" name="NSW">     0</i>
   <i type="int" name="IBRION">    -1</i>
   <i type="int" name="MDALGO">     0</i>
   <i type="int" name="ISIF">     2</i>
   <i name="PSTRESS">      0.00000000</i>
   <i name="EDIFFG">      0.00001000</i>
   <i type="int" name="NFREE">     0</i>
   <i name="POTIM">      0.50000000</i>
   <i name="SMASS">     -3.00000000</i>
   <i name="SCALEE">      1.00000000</i>
  </separator>
  <separator name="ionic md" >
   <i name="TEBEG">      0.00010000</i>
   <i name="TEEND">      0.00010000</i>
   <i type="int" name="NBLOCK">     1</i>
   <i type="int" name="KBLOCK">     1</i>
   <i type="int" name="NPACO">   256</i>
   <i name="APACO">     16.00000000</i>
  </separator>
  <separator name="symmetry" >
   <i type="int" name="ISYM">     0</i>
   <i name="SYMPREC">      0.00001000</i>
  </separator>
  <separator name="dos" >
   <i type="int" name="LORBIT">     0</i>
   <v name="RWIGS">     -1.00000000     -1.00000000     -1.00000000     -1.00000000</v>
   <i type="int" name="NEDOS">   301</i>
   <i name="EMIN">     10.00000000</i>
   <i name="EMAX">    -10.00000000</i>
   <i name="EFERMI">      0.00000000</i>
  </separator>
  <separator name="writing" >
   <i type="int" name="NWRITE">     1</i>
   <i type="logical" name="LWAVE"> F  </i>
   <i type="logical" name="LDOWNSAMPLE"> F  </i>
   <i type="logical" name="LCHARG"> T  </i>
   <i type="logical" name="LPARD"> F  </i>
   <i type="logical" name="LVTOT"> F  </i>
   <i type="logical" name="LVHAR"> F  </i>
   <i type="logical" name="LELF"> F  </i>
   <i type="logical" name="LOPTICS"> F  </i>
   <v name="STM">      0.00000000      0.00000000      0.00000000      0.00000000      0.00000000      0.00000000      0.00000000</v>
  </separator>
  <separator name="performance" >
   <i type="int" name="NPAR">     2</i>
   <i type="int" name="NSIM">     4</i>
   <i type="int" name="NBLK">    -1</i>
   <i type="logical" name="LPLANE"> T  </i>
   <i type="logical" name="LSCALAPACK"> T  </i>
   <i type="logical" name="LSCAAWARE"> F  </i>
   <i type="logical" name="LSCALU"> F  </i>
   <i type="logical" name="LASYNC"> F  </i>
   <i type="logical" name="LORBITALREAL"> F  </i>
  </separator>
  <separator name="miscellaneous" >
   <i type="int" name="IDIOT">     3</i>
   <i type="int" name="ISPECIAL">     0</i>
   <i type="logical" name="LMUSIC"> F  </i>
   <v name="POMASS">      7.01000000     16.00000000     32.06600000     55.84700000</v>
   <v name="DARWINR">      0.00000000      0.00000000      0.00000000      0.00000000</v>
   <v name="DARWINV">      1.00000000      1.00000000      1.00000000      1.00000000</v>
   <i type="logical" name="LCORR"> T  </i>
  </separator>
  <i type="logical" name="GGA_COMPAT"> T  </i>
  <i type="logical" name="LBERRY"> F  </i>
  <i type="int" name="ICORELEVEL">     0</i>
  <i type="logical" name="LDAU"> T  </i>
  <v type="int" name="LDAUTYPE">     2</v>
  <v type="int" name="LDAUL">    -1</v>
  <v name="LDAUU">      0.00000000</v>
  <v name="LDAUJ">      0.00000000</v>
  <i type="int" name="LDAUPRINT">     0</i>
  <i type="int" name="I_CONSTRAINED_M">     0</i>
  <separator name="electronic exchange-correlation" >
   <i type="string" name="GGA">PE</i>
   <i type="int" name="VOSKOWN">     0</i>
   <i type="logical" name="LHFCALC"> F  </i>
   <i type="string" name="PRECFOCK"></i>
   <i type="logical" name="LSYMGRAD"> F  </i>
   <i type="logical" name="LHFONE"> F  </i>
   <i type="logical" name="LRHFCALC"> F  </i>
   <i type="logical" name="LTHOMAS"> F  </i>
   <i type="logical" name="LMODELHF"> F  </i>
   <i name="ENCUT4O">     -1.00000000</i>
   <i type="int" name="EXXOEP">     0</i>
   <i type="int" name="FOURORBIT">     0</i>
   <i name="AEXX">      0.00000000</i>
   <i name="HFALPHA">      0.00000000</i>
   <i name="MCALPHA">      0.00000000</i>
   <i name="ALDAX">      1.00000000</i>
   <i name="AGGAX">      1.00000000</i>
   <i name="ALDAC">      1.00000000</i>
   <i name="AGGAC">      1.00000000</i>
   <i type="int" name="NKREDX">     1</i>
   <i type="int" name="NKREDY">     1</i>
   <i type="int" name="NKREDZ">     1</i>
   <i type="logical" name="SHIFTRED"> F  </i>
   <i type="logical" name="ODDONLY"> F  </i>
   <i type="logical" name="EVENONLY"> F  </i>
   <i type="int" name="LMAXFOCK">     0</i>
   <i type="int" name="NMAXFOCKAE">     0</i>
   <i type="logical" name="LFOCKAEDFT"> F  </i>
   <i name="HFSCREEN">      0.00000000</i>
   <i name="HFSCREENC">      0.00000000</i>
   <i type="int" name="NBANDSGWLOW">     0</i>
  </separator>
  <separator name="vdW DFT" >
   <i type="logical" name="LUSE_VDW"> F  </i>
   <i name="Zab_VDW">     -0.84910000</i>
   <i name="PARAM1">      0.12340000</i>
   <i name="PARAM2">      1.00000000</i>
   <i name="PARAM3">      0.00000000</i>
  </separator>
  <separator name="model GW" >
   <i type="int" name="MODEL_GW">     0</i>
   <i name="MODEL_EPS0">      8.59048892</i>
   <i name="MODEL_ALPHA">      1.00000000</i>
  </separator>
  <separator name="linear response parameters" >
   <i type="logical" name="LEPSILON"> F  </i>
   <i type="logical" name="LRPA"> F  </i>
   <i type="logical" name="LNABLA"> F  </i>
   <i type="logical" name="LVEL"> F  </i>
   <i type="int" name="KINTER">     0</i>
   <i name="CSHIFT">      0.10000000</i>
   <i name="OMEGAMAX">     -1.00000000</i>
   <i name="DEG_THRESHOLD">      0.00200000</i>
   <i name="RTIME">     -0.10000000</i>
   <i name="WPLASMAI">      0.00000000</i>
   <v name="DFIELD">      0.00000000      0.00000000      0.00000000</v>
   <v name="WPLASMA">      0.00000000      0.00000000      0.00000000      0.00000000      0.00000000      0.00000000      0.00000000      0.00000000      0.00000000</v>
  </separator>
  <separator name="orbital magnetization" >
   <i type="logical" name="NUCIND"> F  </i>
   <v name="MAGPOS">      0.00000000      0.00000000      0.00000000</v>
   <i type="logical" name="LNICSALL"> T  </i>
   <i type="logical" name="ORBITALMAG"> F  </i>
   <i type="logical" name="LMAGBLOCH"> F  </i>
   <i type="logical" name="LCHIMAG"> F  </i>
   <i type="logical" name="LGAUGE"> T  </i>
   <i type="int" name="MAGATOM">     0</i>
   <v name="MAGDIPOL">      0.00000000      0.00000000      0.00000000</v>
   <v name="AVECCONST">      0.00000000      0.00000000      0.00000000</v>
  </separator>
  <separator name="response functions" >
   <i type="logical" name="LADDER"> F  </i>
   <i type="logical" name="LRPAFORCE"> F  </i>
   <i type="logical" name="LFXC"> F  </i>
   <i type="logical" name="LHARTREE"> T  </i>
   <i type="int" name="IBSE">     0</i>
   <v type="int" name="KPOINT">    -1     0     0     0</v>
   <i type="logical" name="LTCTE"> F  </i>
   <i type="logical" name="LTETE"> F  </i>
   <i type="logical" name="LTRIPLET"> F  </i>
   <i type="logical" name="LFXCEPS"> F  </i>
   <i type="logical" name="LFXHEG"> F  </i>
   <i type="int" name="NATURALO">     2</i>
   <i type="logical" name="L2ORDER"> F  </i>
   <i type="logical" name="LMP2LT"> F  </i>
   <i type="logical" name="LUSEW"> F  </i>
   <i name="ENCUTGW">     -2.00000000</i>
   <i name="ENCUTGWSOFT">     -2.00000000</i>
   <i name="ENCUTLF">     -1.00000000</i>
   <i type="int" name="LMAXMP2">    -1</i>
   <i name="SCISSOR">      0.00000000</i>
   <i type="int" name="NOMEGA">     0</i>
   <i type="int" name="NOMEGAR">     0</i>
   <i type="int" name="NBANDSGW">    -1</i>
   <i type="int" name="NBANDSO">    -1</i>
   <i type="int" name="NBANDSV">    -1</i>
   <i type="int" name="NELM">   200</i>
   <i type="int" name="NELMHF">     1</i>
   <i type="int" name="DIM">     3</i>
   <i type="int" name="ANTIRES">     0</i>
   <i name="OMEGAMAX">    -30.00000000</i>
   <i name="OMEGAMIN">    -30.00000000</i>
   <i name="OMEGATL">   -200.00000000</i>
   <i type="int" name="OMEGAGRID">   140</i>
   <i name="CSHIFT">     -0.10000000</i>
   <i type="logical" name="SELFENERGY"> F  </i>
   <i type="logical" name="LSPECTRAL"> F  </i>
   <i type="logical" name="LSPECTRALGW"> F  </i>
   <i type="logical" name="LSINGLES"> F  </i>
   <i type="logical" name="LFERMIGW"> F  </i>
   <i type="logical" name="ODDONLYGW"> F  </i>
   <i type="logical" name="EVENONLYGW"> F  </i>
   <i type="int" name="NKREDLFX">     1</i>
   <i type="int" name="NKREDLFY">     1</i>
   <i type="int" name="NKREDLFZ">     1</i>
   <i type="int" name="MAXMEM">  2800</i>
   <i type="int" name="TELESCOPE">     0</i>
   <i type="int" name="TAUPAR">     1</i>
   <i type="int" name="OMEGAPAR">    -1</i>
   <i name="LAMBDA">      1.00000000</i>
  </separator>
  <separator name="External order field" >
   <i name="OFIELD_KAPPA">      0.00000000</i>
   <v name="OFIELD_K">      0.00000000      0.00000000      0.00000000</v>
   <i name="OFIELD_Q6_NEAR">      0.00000000</i>
   <i name="OFIELD_Q6_FAR">      0.00000000</i>
   <i name="OFIELD_A">      0.00000000</i>
  </separator>
 </parameters>
 <atominfo>
  <atoms>      88 </atoms>
  <types>       4 </types>
  <array name="atoms" >
   <dimension dim="1">ion</dimension>
   <field type="string">element</field>
   <field type="int">atomtype</field>
   <set>
    <rc><c>Li</c><c>   1</c></rc>
    <rc><c>Li</c><c>   1</c></rc>
    <rc><c>Li</c><c>   1</c></rc>
    <rc><c>Li</c><c>   1</c></rc>
    <rc><c>Li</c><c>   1</c></rc>
    <rc><c>Li</c><c>   1</c></rc>
    <rc><c>Li</c><c>   1</c></rc>
    <rc><c>Li</c><c>   1</c></rc>
    <rc><c>Li</c><c>   1</c></rc>
    <rc><c>Li</c><c>   1</c></rc>
    <rc><c>Li</c><c>   1</c></rc>
    <rc><c>Li</c><c>   1</c></rc>
    <rc><c>Li</c><c>   1</c></rc>
    <rc><c>Li</c><c>   1</c></rc>
    <rc><c>Li</c><c>   1</c></rc>
    <rc><c>Li</c><c>   1</c></rc>
    <rc><c>O </c><c>   2</c></rc>
    <rc><c>O </c><c>   2</c></rc>
    <rc><c>O </c><c>   2</c></rc>
    <rc><c>O </c><c>   2</c></rc>
    <rc><c>O </c><c>   2</c></rc>
    <rc><c>O </c><c>   2</c></rc>
    <rc><c>O </c><c>   2</c></rc>
    <rc><c>O </c><c>   2</c></rc>
    <rc><c>O </c><c>   2</c></rc>
    <rc><c>O </c><c>   2</c></rc>
    <rc><c>O </c><c>   2</c></rc>
    <rc><c>O </c><c>   2</c></rc>
    <rc><c>O </c><c>   2</c></rc>
    <rc><c>O </c><c>   2</c></rc>
    <rc><c>O </c><c>   2</c></rc>
    <rc><c>O </c><c>   2</c></rc>
    <rc><c>S </c><c>   3</c></rc>
    <rc><c>S </c><c>   3</c></rc>
    <rc><c>S </c><c>   3</c></rc>
    <rc><c>S </c><c>   3</c></rc>
    <rc><c>S </c><c>   3</c></rc>
    <rc><c>S </c><c>   3</c></rc>
    <rc><c>S </c><c>   3</c></rc>
    <rc><c>S </c><c>   3</c></rc>
    <rc><c>S </c><c>   3</c></rc>
    <rc><c>S </c><c>   3</c></rc>
    <rc><c>S </c><c>   3</c></rc>
    <rc><c>S </c><c>   3</c></rc>
    <rc><c>S </c><c>   3</c></rc>
    <rc><c>S </c><c>   3</c></rc>
    <rc><c>S </c><c>   3</c></rc>
    <rc><c>S </c><c>   3</c></rc>
    <rc><c>S </c><c>   3</c></rc>
    <rc><c>S </c><c>   3</c></rc>
    <rc><c>S </c><c>   3</c></rc>
    <rc><c>S </c><c>   3</c></rc>
    <rc><c>S </c><c>   3</c></rc>
    <rc><c>S </c><c>   3</c></rc>
    <rc><c>S </c><c>   3</c></rc>
    <rc><c>S </c><c>   3</c></rc>
    <rc><c>Fe</c><c>   4</c></rc>
    <rc><c>Fe</c><c>   4</c></rc>
    <rc><c>Fe</c><c>   4</c></rc>
    <rc><c>Fe</c><c>   4</c></rc>
    <rc><c>Fe</c><c>   4</c></rc>
    <rc><c>Fe</c><c>   4</c></rc>
    <rc><c>Fe</c><c>   4</c></rc>
    <rc><c>Fe</c><c>   4</c></rc>
    <rc><c>Fe</c><c>   4</c></rc>
    <rc><c>Fe</c><c>   4</c></rc>
    <rc><c>Fe</c><c>   4</c></rc>
    <rc><c>Fe</c><c>   4</c></rc>
    <rc><c>Fe</c><c>   4</c></rc>
    <rc><c>Fe</c><c>   4</c></rc>
    <rc><c>Fe</c><c>   4</c></rc>
    <rc><c>Fe</c><c>   4</c></rc>
    <rc><c>Fe</c><c>   4</c></rc>
    <rc><c>Fe</c><c>   4</c></rc>
    <rc><c>Fe</c><c>   4</c></rc>
    <rc><c>Fe</c><c>   4</c></rc>
    <rc><c>Fe</c><c>   4</c></rc>
    <rc><c>Fe</c><c>   4</c></rc>
    <rc><c>Fe</c><c>   4</c></rc>
    <rc><c>Fe</c><c>   4</c></rc>
    <rc><c>Fe</c><c>   4</c></rc>
    <rc><c>Fe</c><c>   4</c></rc>
    <rc><c>Fe</c><c>   4</c></rc>
    <rc><c>Fe</c><c>   4</c></rc>
    <rc><c>Fe</c><c>   4</c></rc>
    <rc><c>Fe</c><c>   4</c></rc>
    <rc><c>Fe</c><c>   4</c></rc>
    <rc><c>Fe</c><c>   4</c></rc>
   </set>
  </array>
  <array name="atomtypes" >
   <dimension dim="1">type</dimension>
   <field type="int">atomspertype</field>
   <field type="string">element</field>
   <field>mass</field>
   <field>valence</field>
   <field type="string">pseudopotential</field>
   <set>
    <rc><c>  16</c><c>Li</c><c>      7.01000000</c><c>      3.00000000</c><c>  PAW_PBE Li_sv 10Sep2004               </c></rc>
    <rc><c>  16</c><c>O </c><c>     16.00000000</c><c>      6.00000000</c><c>  PAW_PBE O 08Apr2002                   </c></rc>
    <rc><c>  24</c><c>S </c><c>     32.06600000</c><c>      6.00000000</c><c>  PAW_PBE S 06Sep2000                   </c></rc>
    <rc><c>  32</c><c>Fe</c><c>     55.84700000</c><c>     14.00000000</c><c>  PAW_PBE Fe_pv 02Aug2007               </c></rc>
   </set>
  </array>
 </atominfo>
 <structure name="initialpos" >
  <crystal>
   <varray name="basis" >
    <v>      11.11223374       0.00000000      -0.00029034 </v>
    <v>       0.00000000      11.11745194       0.00000000 </v>
    <v>      -2.77510898       0.00000000      10.19872221 </v>
   </varray>
   <i name="volume">   1259.93837498 </i>
   <varray name="rec_basis" >
    <v>       0.08999155       0.00000000       0.02448702 </v>
    <v>       0.00000000       0.08994867       0.00000000 </v>
    <v>       0.00000256       0.00000000       0.09805220 </v>
   </varray>
  </crystal>
  <varray name="positions" >
   <v>       0.28894969       0.46933910       0.15583616 </v>
   <v>       0.78894969       0.46933910       0.15583616 </v>
   <v>       0.28894969       0.96933910       0.15583616 </v>
   <v>       0.78894969       0.96933910       0.15583616 </v>
   <v>       0.04646972       0.21934976       0.18586770 </v>
   <v>       0.54646972       0.21934976       0.18586770 </v>
   <v>       0.04646972       0.71934976       0.18586770 </v>
   <v>       0.54646972       0.71934976       0.18586770 </v>
   <v>       0.45353028       0.46934976       0.81413230 </v>
   <v>       0.95353028       0.46934976       0.81413230 </v>
   <v>       0.45353028       0.96934976       0.81413230 </v>
   <v>       0.95353028       0.96934976       0.81413230 </v>
   <v>       0.21105031       0.21933910       0.84416384 </v>
   <v>       0.71105031       0.21933910       0.84416384 </v>
   <v>       0.21105031       0.71933910       0.84416384 </v>
   <v>       0.71105031       0.71933910       0.84416384 </v>
   <v>       0.07654971       0.09530995       0.80250593 </v>
   <v>       0.57654971       0.09530995       0.80250593 </v>
   <v>       0.07654971       0.59530995       0.80250593 </v>
   <v>       0.57654971       0.59530995       0.80250593 </v>
   <v>       0.32470466       0.34338175       0.80250383 </v>
   <v>       0.82470466       0.34338175       0.80250383 </v>
   <v>       0.32470466       0.84338175       0.80250383 </v>
   <v>       0.82470466       0.84338175       0.80250383 </v>
   <v>       0.17529534       0.09338175       0.19749617 </v>
   <v>       0.67529534       0.09338175       0.19749617 </v>
   <v>       0.17529534       0.59338175       0.19749617 </v>
   <v>       0.67529534       0.59338175       0.19749617 </v>
   <v>       0.42345029       0.34530995       0.19749407 </v>
   <v>       0.92345029       0.34530995       0.19749407 </v>
   <v>       0.42345029       0.84530995       0.19749407 </v>
   <v>       0.92345029       0.84530995       0.19749407 </v>
   <v>       0.21868463       0.34613344       0.37102476 </v>
   <v>       0.71868463       0.34523395       0.37102476 </v>
   <v>       0.21868463       0.84523395       0.37102476 </v>
   <v>       0.71868463       0.84523395       0.37102476 </v>
   <v>       0.46681660       0.09344897       0.37102399 </v>
   <v>       0.96681660       0.09344897       0.37102399 </v>
   <v>       0.46681660       0.59344897       0.37102399 </v>
   <v>       0.96681660       0.59344897       0.37102399 </v>
   <v>       0.03318340       0.34344897       0.62897601 </v>
   <v>       0.53318340       0.34344897       0.62897601 </v>
   <v>       0.03318340       0.84344897       0.62897601 </v>
   <v>       0.53318340       0.84344897       0.62897601 </v>
   <v>       0.28131537       0.09523395       0.62897524 </v>
   <v>       0.78131537       0.09523395       0.62897524 </v>
   <v>       0.28131537       0.59523395       0.62897524 </v>
   <v>       0.78131537       0.59523395       0.62897524 </v>
   <v>       0.12439279       0.34434306       0.00000412 </v>
   <v>       0.62439279       0.34434306       0.00000412 </v>
   <v>       0.12439279       0.84434306       0.00000412 </v>
   <v>       0.62439279       0.84434306       0.00000412 </v>
   <v>       0.37560721       0.09434306       0.99999588 </v>
   <v>       0.87560721       0.09434306       0.99999588 </v>
   <v>       0.37560721       0.59434306       0.99999588 </v>
   <v>       0.87560721       0.59434306       0.99999588 </v>
   <v>       0.03824426       0.10634799       0.60632306 </v>
   <v>       0.53824426       0.10634799       0.60632306 </v>
   <v>       0.03824426       0.60634799       0.60632306 </v>
   <v>       0.53824426       0.60634799       0.60632306 </v>
   <v>       0.26492712       0.33232651       0.60632763 </v>
   <v>       0.76492712       0.33232651       0.60632763 </v>
   <v>       0.26492712       0.83232651       0.60632763 </v>
   <v>       0.76492712       0.83232651       0.60632763 </v>
   <v>       0.23507288       0.08232651       0.39367237 </v>
   <v>       0.73507288       0.08232651       0.39367237 </v>
   <v>       0.23507288       0.58232651       0.39367237 </v>
   <v>       0.73507288       0.58232651       0.39367237 </v>
   <v>       0.46175574       0.35634799       0.39367694 </v>
   <v>       0.96175574       0.35634799       0.39367694 </v>
   <v>       0.46175574       0.85634799       0.39367694 </v>
   <v>       0.96175574       0.85634799       0.39367694 </v>
   <v>       0.03848398       0.46936404       0.15397331 </v>
   <v>       0.53848398       0.46936404       0.15397331 </v>
   <v>       0.03848398       0.96936404       0.15397331 </v>
   <v>       0.53848398       0.96936404       0.15397331 </v>
   <v>       0.28861657       0.21935690       0.15447525 </v>
   <v>       0.78861657       0.21935690       0.15447525 </v>
   <v>       0.28861657       0.71935690       0.15447525 </v>
   <v>       0.78861657       0.71935690       0.15447525 </v>
   <v>       0.21138343       0.46935690       0.84552475 </v>
   <v>       0.71138343       0.46935690       0.84552475 </v>
   <v>       0.21138343       0.96935690       0.84552475 </v>
   <v>       0.71138343       0.96935690       0.84552475 </v>
   <v>       0.46151602       0.21936404       0.84602669 </v>
   <v>       0.96151602       0.21936404       0.84602669 </v>
   <v>       0.46151602       0.71936404       0.84602669 </v>
   <v>       0.96151602       0.71936404       0.84602669 </v>
  </varray>
 </structure>
 <calculation>
  <scstep>
   <time name="dav">  310.48  318.83</time>
   <time name="total">  313.81  322.17</time>
   <energy>
    <i name="alphaZ">   2314.49656628 </i>
    <i name="ewald"> -57722.74921173 </i>
    <i name="hartreedc"> -30349.15043542 </i>
    <i name="XCdc">   3229.30191082 </i>
    <i name="pawpsdc">  92679.89207989 </i>
    <i name="pawaedc"> -95535.38516353 </i>
    <i name="eentropy">     -0.01848701 </i>
    <i name="bandstr">    349.78961045 </i>
    <i name="atom">  95443.47970955 </i>
    <i name="e_fr_energy">  10409.65657931 </i>
    <i name="e_wo_entrp">  10409.67506631 </i>
    <i name="e_0_energy">  10409.66582281 </i>
   </energy>
  </scstep>
  <scstep>
   <time name="dav">  304.34  307.79</time>
   <time name="total">  304.34  307.80</time>
   <energy>
    <i name="e_fr_energy">   1177.48109532 </i>
    <i name="e_wo_entrp">   1177.54695683 </i>
    <i name="e_0_energy">   1177.51402607 </i>
   </energy>
  </scstep>
  <scstep>
   <time name="dav">  321.30  324.95</time>
   <time name="total">  321.30  324.95</time>
   <energy>
    <i name="e_fr_energy">   -308.07869292 </i>
    <i name="e_wo_entrp">   -308.07869292 </i>
    <i name="e_0_energy">   -308.07869292 </i>
   </energy>
  </scstep>
  <scstep>
   <time name="dav">  343.48  347.52</time>
   <time name="total">  343.49  347.52</time>
   <energy>
    <i name="e_fr_energy">   -476.30133356 </i>
    <i name="e_wo_entrp">   -476.30133356 </i>
    <i name="e_0_energy">   -476.30133356 </i>
   </energy>
  </scstep>
  <scstep>
   <time name="dav">  454.60  459.49</time>
   <time name="total">  463.96  468.91</time>
   <energy>
    <i name="e_fr_energy">   -488.73395637 </i>
    <i name="e_wo_entrp">   -488.73395637 </i>
    <i name="e_0_energy">   -488.73395637 </i>
   </energy>
  </scstep>
  <scstep>
   <time name="dav">  394.86  399.63</time>
   <time name="total">  407.54  412.43</time>
   <energy>
    <i name="e_fr_energy">   -489.20057779 </i>
    <i name="e_wo_entrp">   -489.20057779 </i>
    <i name="e_0_energy">   -489.20057779 </i>
   </energy>
  </scstep>
  <scstep>
   <time name="dav">  427.75  432.90</time>
   <time name="total">  440.53  445.75</time>
   <energy>
    <i name="e_fr_energy">   -489.21730843 </i>
    <i name="e_wo_entrp">   -489.21730843 </i>
    <i name="e_0_energy">   -489.21730843 </i>
   </energy>
  </scstep>
  <scstep>
   <time name="dav">  401.85  406.39</time>
   <time name="total">  414.59  419.19</time>
   <energy>
    <i name="e_fr_energy">   -489.21681116 </i>
    <i name="e_wo_entrp">   -489.21681116 </i>
    <i name="e_0_energy">   -489.21681116 </i>
   </energy>
  </scstep>
  <scstep>
   <time name="dav">  436.39  441.05</time>
   <time name="total">  448.89  453.71</time>
   <energy>
    <i name="e_fr_energy">   -489.21643544 </i>
    <i name="e_wo_entrp">   -489.21643544 </i>
    <i name="e_0_energy">   -489.21643544 </i>
   </energy>
  </scstep>
  <scstep>
   <time name="dav">  421.50  427.23</time>
   <time name="total">  434.14  440.03</time>
   <energy>
    <i name="e_fr_energy">   -489.21591398 </i>
    <i name="e_wo_entrp">   -489.21591398 </i>
    <i name="e_0_energy">   -489.21591398 </i>
   </energy>
  </scstep>
  <scstep>
   <time name="dav">  396.30  400.52</time>
   <time name="total">  409.05  413.36</time>
   <energy>
    <i name="e_fr_energy">   -489.21530215 </i>
    <i name="e_wo_entrp">   -489.21530215 </i>
    <i name="e_0_energy">   -489.21530215 </i>
   </energy>
  </scstep>
  <scstep>
   <time name="dav">  366.74  371.11</time>
   <time name="total">  379.26  383.92</time>
   <energy>
    <i name="e_fr_energy">   -489.21526802 </i>
    <i name="e_wo_entrp">   -489.21526802 </i>
    <i name="e_0_energy">   -489.21526802 </i>
   </energy>
  </scstep>
  <scstep>
   <time name="dav">  372.93  377.39</time>
   <time name="total">  385.52  390.13</time>
   <energy>
    <i name="e_fr_energy">   -489.21527483 </i>
    <i name="e_wo_entrp">   -489.21527483 </i>
    <i name="e_0_energy">   -489.21527483 </i>
   </energy>
  </scstep>
  <scstep>
   <time name="dav">  250.32  253.66</time>
   <time name="total">  253.63  256.98</time>
   <energy>
    <i name="alphaZ">   2314.49656628 </i>
    <i name="ewald"> -57722.74921173 </i>
    <i name="hartreedc"> -30349.02300801 </i>
    <i name="XCdc">   3229.27796458 </i>
    <i name="pawpsdc">  92663.43639410 </i>
    <i name="pawaedc"> -95518.78646204 </i>
    <i name="eentropy">     -0.00000000 </i>
    <i name="bandstr"> -10549.34722657 </i>
    <i name="atom">  95443.47970955 </i>
    <i name="e_fr_energy">   -489.21527383 </i>
    <i name="e_wo_entrp">   -489.21527383 </i>
    <i name="e_0_energy">   -489.21527383 </i>
   </energy>
  </scstep>
  <structure>
   <crystal>
    <varray name="basis" >
     <v>      11.11223374       0.00000000      -0.00029034 </v>
     <v>       0.00000000      11.11745194       0.00000000 </v>
     <v>      -2.77510898       0.00000000      10.19872221 </v>
    </varray>
    <i name="volume">   1259.93837498 </i>
    <varray name="rec_basis" >
     <v>       0.08999155       0.00000000       0.02448702 </v>
     <v>       0.00000000       0.08994867       0.00000000 </v>
     <v>       0.00000256       0.00000000       0.09805220 </v>
    </varray>
   </crystal>
   <varray name="positions" >
    <v>       0.28894969       0.46933910       0.15583616 </v>
    <v>       0.78894969       0.46933910       0.15583616 </v>
    <v>       0.28894969       0.96933910       0.15583616 </v>
    <v>       0.78894969       0.96933910       0.15583616 </v>
    <v>       0.04646972       0.21934976       0.18586770 </v>
    <v>       0.54646972       0.21934976       0.18586770 </v>
    <v>       0.04646972       0.71934976       0.18586770 </v>
    <v>       0.54646972       0.71934976       0.18586770 </v>
    <v>       0.45353028       0.46934976       0.81413230 </v>
    <v>       0.95353028       0.46934976       0.81413230 </v>
    <v>       0.45353028       0.96934976       0.81413230 </v>
    <v>       0.95353028       0.96934976       0.81413230 </v>
    <v>       0.21105031       0.21933910       0.84416384 </v>
    <v>       0.71105031       0.21933910       0.84416384 </v>
    <v>       0.21105031       0.71933910       0.84416384 </v>
    <v>       0.71105031       0.71933910       0.84416384 </v>
    <v>       0.07654971       0.09530995       0.80250593 </v>
    <v>       0.57654971       0.09530995       0.80250593 </v>
    <v>       0.07654971       0.59530995       0.80250593 </v>
    <v>       0.57654971       0.59530995       0.80250593 </v>
    <v>       0.32470466       0.34338175       0.80250383 </v>
    <v>       0.82470466       0.34338175       0.80250383 </v>
    <v>       0.32470466       0.84338175       0.80250383 </v>
    <v>       0.82470466       0.84338175       0.80250383 </v>
    <v>       0.17529534       0.09338175       0.19749617 </v>
    <v>       0.67529534       0.09338175       0.19749617 </v>
    <v>       0.17529534       0.59338175       0.19749617 </v>
    <v>       0.67529534       0.59338175       0.19749617 </v>
    <v>       0.42345029       0.34530995       0.19749407 </v>
    <v>       0.92345029       0.34530995       0.19749407 </v>
    <v>       0.42345029       0.84530995       0.19749407 </v>
    <v>       0.92345029       0.84530995       0.19749407 </v>
    <v>       0.21868463       0.34613344       0.37102476 </v>
    <v>       0.71868463       0.34523395       0.37102476 </v>
    <v>       0.21868463       0.84523395       0.37102476 </v>
    <v>       0.71868463       0.84523395       0.37102476 </v>
    <v>       0.46681660       0.09344897       0.37102399 </v>
    <v>       0.96681660       0.09344897       0.37102399 </v>
    <v>       0.46681660       0.59344897       0.37102399 </v>
    <v>       0.96681660       0.59344897       0.37102399 </v>
    <v>       0.03318340       0.34344897       0.62897601 </v>
    <v>       0.53318340       0.34344897       0.62897601 </v>
    <v>       0.03318340       0.84344897       0.62897601 </v>
    <v>       0.53318340       0.84344897       0.62897601 </v>
    <v>       0.28131537       0.09523395       0.62897524 </v>
    <v>       0.78131537       0.09523395       0.62897524 </v>
    <v>       0.28131537       0.59523395       0.62897524 </v>
    <v>       0.78131537       0.59523395       0.62897524 </v>
    <v>       0.12439279       0.34434306       0.00000412 </v>
    <v>       0.62439279       0.34434306       0.00000412 </v>
    <v>       0.12439279       0.84434306       0.00000412 </v>
    <v>       0.62439279       0.84434306       0.00000412 </v>
    <v>       0.37560721       0.09434306       0.99999588 </v>
    <v>       0.87560721       0.09434306       0.99999588 </v>
    <v>       0.37560721       0.59434306       0.99999588 </v>
    <v>       0.87560721       0.59434306       0.99999588 </v>
    <v>       0.03824426       0.10634799       0.60632306 </v>
    <v>       0.53824426       0.10634799       0.60632306 </v>
    <v>       0.03824426       0.60634799       0.60632306 </v>
    <v>       0.53824426       0.60634799       0.60632306 </v>
    <v>       0.26492712       0.33232651       0.60632763 </v>
    <v>       0.76492712       0.33232651       0.60632763 </v>
    <v>       0.26492712       0.83232651       0.60632763 </v>
    <v>       0.76492712       0.83232651       0.60632763 </v>
    <v>       0.23507288       0.08232651       0.39367237 </v>
    <v>       0.73507288       0.08232651       0.39367237 </v>
    <v>       0.23507288       0.58232651       0.39367237 </v>
    <v>       0.73507288       0.58232651       0.39367237 </v>
    <v>       0.46175574       0.35634799       0.39367694 </v>
    <v>       0.96175574       0.35634799       0.39367694 </v>
    <v>       0.46175574       0.85634799       0.39367694 </v>
    <v>       0.96175574       0.85634799       0.39367694 </v>
    <v>       0.03848398       0.46936404       0.15397331 </v>
    <v>       0.53848398       0.46936404       0.15397331 </v>
    <v>       0.03848398       0.96936404       0.15397331 </v>
    <v>       0.53848398       0.96936404       0.15397331 </v>
    <v>       0.28861657       0.21935690       0.15447525 </v>
    <v>       0.78861657       0.21935690       0.15447525 </v>
    <v>       0.28861657       0.71935690       0.15447525 </v>
    <v>       0.78861657       0.71935690       0.15447525 </v>
    <v>       0.21138343       0.46935690       0.84552475 </v>
    <v>       0.71138343       0.46935690       0.84552475 </v>
    <v>       0.21138343       0.96935690       0.84552475 </v>
    <v>       0.71138343       0.96935690       0.84552475 </v>
    <v>       0.46151602       0.21936404       0.84602669 </v>
    <v>       0.96151602       0.21936404       0.84602669 </v>
    <v>       0.46151602       0.71936404       0.84602669 </v>
    <v>       0.96151602       0.71936404       0.84602669 </v>
   </varray>
  </structure>
  <varray name="forces" >
   <v>      -0.00081855       0.00104862       0.00117826 </v>
   <v>       0.00017682       0.00035683       0.00017047 </v>
   <v>       0.00058204      -0.00092386      -0.00017664 </v>
   <v>      -0.00007427      -0.00023845      -0.00020881 </v>
   <v>      -0.00086166       0.00158941      -0.00079772 </v>
   <v>       0.00018826       0.00038149      -0.00011425 </v>
   <v>       0.00054155      -0.00100017       0.00016945 </v>
   <v>      -0.00024953      -0.00043379       0.00031172 </v>
   <v>      -0.00021702       0.00057028      -0.00024696 </v>
   <v>      -0.00001470       0.00029244       0.00000285 </v>
   <v>       0.00056541      -0.00058404       0.00035182 </v>
   <v>       0.00008232      -0.00022999      -0.00002334 </v>
   <v>      -0.00035024       0.00047516       0.00019420 </v>
   <v>      -0.00007107       0.00025289       0.00001219 </v>
   <v>       0.00034709      -0.00047984      -0.00038198 </v>
   <v>      -0.00001334      -0.00022687       0.00002455 </v>
   <v>       0.00076229      -0.00021288      -0.00031094 </v>
   <v>      -0.00024705       0.00004234      -0.00027571 </v>
   <v>      -0.00023374      -0.00006302       0.00024226 </v>
   <v>       0.00070497      -0.00023315       0.00015080 </v>
   <v>       0.00000229      -0.00113252      -0.00022377 </v>
   <v>      -0.00006763      -0.00031476      -0.00008898 </v>
   <v>      -0.00055623       0.00246017      -0.00005724 </v>
   <v>      -0.00029242       0.00043991      -0.00007296 </v>
   <v>       0.00091566       0.00921253       0.00738208 </v>
   <v>       0.00004307      -0.00000110       0.00053306 </v>
   <v>       0.00049390       0.00951953      -0.00791992 </v>
   <v>       0.00024498       0.00005438      -0.00051037 </v>
   <v>      -0.00090140      -0.00251599      -0.00023545 </v>
   <v>      -0.00063748      -0.00209136       0.00038369 </v>
   <v>       0.00017912       0.00124521       0.00013352 </v>
   <v>       0.00016468       0.00101772       0.00002806 </v>
   <v>      -0.00258243      -0.03750262       0.00183268 </v>
   <v>      -0.00008175      -0.00091959       0.00018933 </v>
   <v>      -0.00009382       0.00298541       0.00014232 </v>
   <v>      -0.00001067       0.00093273       0.00015440 </v>
   <v>      -0.00311964       0.00238800      -0.00009711 </v>
   <v>       0.00286564       0.00168827      -0.00000889 </v>
   <v>       0.00376362       0.00243845       0.00041714 </v>
   <v>      -0.00316699       0.00169251       0.00046984 </v>
   <v>      -0.00005480      -0.00092711      -0.00014430 </v>
   <v>      -0.00040245      -0.00093962      -0.00031085 </v>
   <v>      -0.00010059       0.00094514      -0.00021932 </v>
   <v>      -0.00004159       0.00096319      -0.00028083 </v>
   <v>       0.00033665       0.00417855      -0.00551153 </v>
   <v>      -0.00000804      -0.00016244      -0.00051558 </v>
   <v>       0.00000578       0.00419327       0.00515203 </v>
   <v>       0.00007444      -0.00015939       0.00028326 </v>
   <v>       0.00019016      -0.00137707       0.00007337 </v>
   <v>      -0.00002460      -0.00037651       0.00002753 </v>
   <v>      -0.00002097       0.00118919       0.00003711 </v>
   <v>       0.00003604       0.00034811       0.00012923 </v>
   <v>      -0.00028460       0.00000920       0.00011475 </v>
   <v>       0.00023630      -0.00004084       0.00025240 </v>
   <v>       0.00021836      -0.00010646      -0.00011052 </v>
   <v>      -0.00024321       0.00002169      -0.00055636 </v>
   <v>      -0.00113503       0.00011307       0.00063796 </v>
   <v>       0.00035689       0.00012182       0.00089203 </v>
   <v>       0.00054363      -0.00007968      -0.00061836 </v>
   <v>      -0.00093442      -0.00006044      -0.00085016 </v>
   <v>       0.00008646       0.00266737      -0.00177610 </v>
   <v>       0.00032965       0.00020338       0.00001739 </v>
   <v>       0.00024745      -0.00239993       0.00021764 </v>
   <v>       0.00026030      -0.00036856       0.00009848 </v>
   <v>       0.00048633      -0.00695236       0.00023534 </v>
   <v>      -0.00023028       0.00002359       0.00003509 </v>
   <v>       0.00008602       0.00547705       0.00084156 </v>
   <v>      -0.00028619       0.00022093      -0.00018346 </v>
   <v>       0.00126491       0.00211424      -0.00026700 </v>
   <v>       0.00013300       0.00198444      -0.00002446 </v>
   <v>       0.00024038      -0.00148283      -0.00012060 </v>
   <v>       0.00032354      -0.00116829       0.00004800 </v>
   <v>       0.00190501       0.00233324       0.00171308 </v>
   <v>      -0.00010614       0.00085141       0.00040927 </v>
   <v>      -0.00178479      -0.00207761      -0.00039770 </v>
   <v>       0.00008611      -0.00076893      -0.00021966 </v>
   <v>       0.00212149       0.00222491      -0.00211599 </v>
   <v>      -0.00000957       0.00063300      -0.00021864 </v>
   <v>      -0.00158772      -0.00228371       0.00048069 </v>
   <v>      -0.00000175      -0.00074582       0.00022806 </v>
   <v>       0.00032040       0.00089049      -0.00027450 </v>
   <v>      -0.00001285       0.00055283       0.00012798 </v>
   <v>      -0.00064870      -0.00103498       0.00065365 </v>
   <v>       0.00003206      -0.00051594       0.00003081 </v>
   <v>       0.00047151       0.00075992       0.00022814 </v>
   <v>       0.00004882       0.00046837      -0.00015644 </v>
   <v>      -0.00048123      -0.00096869      -0.00071978 </v>
   <v>      -0.00000427      -0.00047143      -0.00009638 </v>
  </varray>
  <varray name="stress" >
   <v>       2.17597936       0.00080655      -0.09618989 </v>
   <v>       0.00080172       1.95093185      -0.00728202 </v>
   <v>      -0.09645489      -0.00733039       0.55082950 </v>
  </varray>
  <energy>
   <i name="e_fr_energy">   -489.21527383 </i>
   <i name="e_wo_entrp">   -489.21527383 </i>
   <i name="e_0_energy">     -0.00000000 </i>
  </energy>
  <time name="totalsc"> 5844.73 5916.25</time>
  <eigenvalues>
   <array>
    <dimension dim="1">band</dimension>
    <dimension dim="2">kpoint</dimension>
    <dimension dim="3">spin</dimension>
    <field>eigene</field>
    <field>occ</field>
    <set>
     <set comment="spin 1">
      <set comment="kpoint 1">
       <r>  -51.0580    1.0000 </r>
       <r>  -51.0552    1.0000 </r>
       <r>  -51.0550    1.0000 </r>
       <r>  -51.0548    1.0000 </r>
       <r>  -51.0542    1.0000 </r>
       <r>  -51.0541    1.0000 </r>
       <r>  -51.0538    1.0000 </r>
       <r>  -51.0534    1.0000 </r>
       <r>  -51.0531    1.0000 </r>
       <r>  -51.0527    1.0000 </r>
       <r>  -51.0526    1.0000 </r>
       <r>  -51.0525    1.0000 </r>
       <r>  -51.0518    1.0000 </r>
       <r>  -51.0513    1.0000 </r>
       <r>  -51.0507    1.0000 </r>
       <r>  -51.0470    1.0000 </r>
       <r>  -51.0459    1.0000 </r>
       <r>  -51.0446    1.0000 </r>
       <r>  -51.0444    1.0000 </r>
       <r>  -51.0444    1.0000 </r>
       <r>  -51.0438    1.0000 </r>
       <r>  -51.0438    1.0000 </r>
       <r>  -51.0438    1.0000 </r>
       <r>  -51.0417    1.0000 </r>
       <r>  -51.0408    1.0000 </r>
       <r>  -51.0400    1.0000 </r>
       <r>  -51.0399    1.0000 </r>
       <r>  -51.0397    1.0000 </r>
       <r>  -51.0392    1.0000 </r>
       <r>  -51.0391    1.0000 </r>
       <r>  -51.0389    1.0000 </r>
       <r>  -51.0372    1.0000 </r>
       <r>  -49.7039    1.0000 </r>
       <r>  -49.7023    1.0000 </r>
       <r>  -49.7019    1.0000 </r>
       <r>  -49.7019    1.0000 </r>
       <r>  -49.7014    1.0000 </r>
       <r>  -49.7013    1.0000 </r>
       <r>  -49.7012    1.0000 </r>
       <r>  -49.7004    1.0000 </r>
       <r>  -49.6952    1.0000 </r>
       <r>  -49.6947    1.0000 </r>
       <r>  -49.6946    1.0000 </r>
       <r>  -49.6943    1.0000 </r>
       <r>  -49.6939    1.0000 </r>
       <r>  -49.6937    1.0000 </r>
       <r>  -49.6935    1.0000 </r>
       <r>  -49.6921    1.0000 </r>
       <r>  -49.6025    1.0000 </r>
       <r>  -49.5985    1.0000 </r>
       <r>  -49.5981    1.0000 </r>
       <r>  -49.5978    1.0000 </r>
       <r>  -49.5975    1.0000 </r>
       <r>  -49.5972    1.0000 </r>
       <r>  -49.5971    1.0000 </r>
       <r>  -49.5970    1.0000 </r>
       <r>  -49.5967    1.0000 </r>
       <r>  -49.5965    1.0000 </r>
       <r>  -49.5962    1.0000 </r>
       <r>  -49.5960    1.0000 </r>
       <r>  -49.5957    1.0000 </r>
       <r>  -49.5954    1.0000 </r>
       <r>  -49.5954    1.0000 </r>
       <r>  -49.5895    1.0000 </r>
       <r>  -49.5701    1.0000 </r>
       <r>  -49.5673    1.0000 </r>
       <r>  -49.5668    1.0000 </r>
       <r>  -49.5665    1.0000 </r>
       <r>  -49.5661    1.0000 </r>
       <r>  -49.5658    1.0000 </r>
       <r>  -49.5656    1.0000 </r>
       <r>  -49.5655    1.0000 </r>
       <r>  -49.5651    1.0000 </r>
       <r>  -49.5649    1.0000 </r>
       <r>  -49.5647    1.0000 </r>
       <r>  -49.5645    1.0000 </r>
       <r>  -49.5639    1.0000 </r>
       <r>  -49.5638    1.0000 </r>
       <r>  -49.5635    1.0000 </r>
       <r>  -49.5569    1.0000 </r>
       <r>  -49.5558    1.0000 </r>
       <r>  -49.5548    1.0000 </r>
       <r>  -49.5545    1.0000 </r>
       <r>  -49.5544    1.0000 </r>
       <r>  -49.5540    1.0000 </r>
       <r>  -49.5539    1.0000 </r>
       <r>  -49.5538    1.0000 </r>
       <r>  -49.5531    1.0000 </r>
       <r>  -49.5406    1.0000 </r>
       <r>  -49.5401    1.0000 </r>
       <r>  -49.5399    1.0000 </r>
       <r>  -49.5397    1.0000 </r>
       <r>  -49.5393    1.0000 </r>
       <r>  -49.5391    1.0000 </r>
       <r>  -49.5389    1.0000 </r>
       <r>  -49.5382    1.0000 </r>
       <r>  -39.8753    1.0000 </r>
       <r>  -39.8741    1.0000 </r>
       <r>  -39.8736    1.0000 </r>
       <r>  -39.8733    1.0000 </r>
       <r>  -39.8733    1.0000 </r>
       <r>  -39.8729    1.0000 </r>
       <r>  -39.8728    1.0000 </r>
       <r>  -39.8727    1.0000 </r>
       <r>  -39.8726    1.0000 </r>
       <r>  -39.8725    1.0000 </r>
       <r>  -39.8724    1.0000 </r>
       <r>  -39.8720    1.0000 </r>
       <r>  -39.8718    1.0000 </r>
       <r>  -39.8717    1.0000 </r>
       <r>  -39.8714    1.0000 </r>
       <r>  -39.8709    1.0000 </r>
       <r>  -13.2249    1.0000 </r>
       <r>  -13.2249    1.0000 </r>
       <r>  -13.2105    1.0000 </r>
       <r>  -13.1836    1.0000 </r>
       <r>  -13.1013    1.0000 </r>
       <r>  -13.0990    1.0000 </r>
       <r>  -13.0989    1.0000 </r>
       <r>  -13.0931    1.0000 </r>
       <r>  -13.0862    1.0000 </r>
       <r>  -13.0801    1.0000 </r>
       <r>  -13.0801    1.0000 </r>
       <r>  -13.0777    1.0000 </r>
       <r>  -12.9882    1.0000 </r>
       <r>  -12.9775    1.0000 </r>
       <r>  -12.9419    1.0000 </r>
       <r>  -12.9419    1.0000 </r>
       <r>   -7.6453    1.0000 </r>
       <r>   -7.4068    1.0000 </r>
       <r>   -7.3264    1.0000 </r>
       <r>   -7.3258    1.0000 </r>
       <r>   -7.3096    1.0000 </r>
       <r>   -7.3093    1.0000 </r>
       <r>   -7.3084    1.0000 </r>
       <r>   -7.3072    1.0000 </r>
       <r>   -7.1695    1.0000 </r>
       <r>   -7.1573    1.0000 </r>
       <r>   -7.1242    1.0000 </r>
       <r>   -7.1234    1.0000 </r>
       <r>   -7.0365    1.0000 </r>
       <r>   -7.0219    1.0000 </r>
       <r>   -7.0024    1.0000 </r>
       <r>   -7.0018    1.0000 </r>
       <r>   -6.9411    1.0000 </r>
       <r>   -6.9406    1.0000 </r>
       <r>   -6.8874    1.0000 </r>
       <r>   -6.8870    1.0000 </r>
       <r>   -6.8655    1.0000 </r>
       <r>   -6.8617    1.0000 </r>
       <r>   -6.8345    1.0000 </r>
       <r>   -6.8037    1.0000 </r>
       <r>   -1.9356    1.0000 </r>
       <r>   -1.9355    1.0000 </r>
       <r>   -1.9105    1.0000 </r>
       <r>   -1.8936    1.0000 </r>
       <r>   -1.6665    1.0000 </r>
       <r>   -1.6664    1.0000 </r>
       <r>   -1.6587    1.0000 </r>
       <r>   -1.6572    1.0000 </r>
       <r>   -1.5999    1.0000 </r>
       <r>   -1.5981    1.0000 </r>
       <r>   -1.5863    1.0000 </r>
       <r>   -1.5862    1.0000 </r>
       <r>   -1.2983    1.0000 </r>
       <r>   -1.1748    1.0000 </r>
       <r>   -1.1746    1.0000 </r>
       <r>   -1.1134    1.0000 </r>
       <r>   -1.1131    1.0000 </r>
       <r>   -1.1073    1.0000 </r>
       <r>   -1.0494    1.0000 </r>
       <r>   -0.9810    1.0000 </r>
       <r>   -0.9647    1.0000 </r>
       <r>   -0.9597    1.0000 </r>
       <r>   -0.9578    1.0000 </r>
       <r>   -0.9575    1.0000 </r>
       <r>   -0.9471    1.0000 </r>
       <r>   -0.9452    1.0000 </r>
       <r>   -0.9228    1.0000 </r>
       <r>   -0.8713    1.0000 </r>
       <r>   -0.8712    1.0000 </r>
       <r>   -0.8034    1.0000 </r>
       <r>   -0.8027    1.0000 </r>
       <r>   -0.8026    1.0000 </r>
       <r>   -0.7753    1.0000 </r>
       <r>   -0.7741    1.0000 </r>
       <r>   -0.7740    1.0000 </r>
       <r>   -0.7609    1.0000 </r>
       <r>   -0.7167    1.0000 </r>
       <r>   -0.7166    1.0000 </r>
       <r>   -0.7066    1.0000 </r>
       <r>   -0.7049    1.0000 </r>
       <r>   -0.6993    1.0000 </r>
       <r>   -0.6989    1.0000 </r>
       <r>   -0.6091    1.0000 </r>
       <r>   -0.6085    1.0000 </r>
       <r>   -0.5616    1.0000 </r>
       <r>   -0.5614    1.0000 </r>
       <r>   -0.5495    1.0000 </r>
       <r>   -0.5481    1.0000 </r>
       <r>   -0.4084    1.0000 </r>
       <r>   -0.4082    1.0000 </r>
       <r>   -0.3575    1.0000 </r>
       <r>   -0.3481    1.0000 </r>
       <r>   -0.3295    1.0000 </r>
       <r>   -0.3293    1.0000 </r>
       <r>   -0.2989    1.0000 </r>
       <r>   -0.2984    1.0000 </r>
       <r>   -0.2816    1.0000 </r>
       <r>   -0.2693    1.0000 </r>
       <r>   -0.2629    1.0000 </r>
       <r>   -0.2556    1.0000 </r>
       <r>   -0.2549    1.0000 </r>
       <r>   -0.2091    1.0000 </r>
       <r>   -0.2089    1.0000 </r>
       <r>   -0.1886    1.0000 </r>
       <r>   -0.1868    1.0000 </r>
       <r>   -0.1867    1.0000 </r>
       <r>   -0.1760    1.0000 </r>
       <r>   -0.1579    1.0000 </r>
       <r>   -0.1255    1.0000 </r>
       <r>   -0.1254    1.0000 </r>
       <r>   -0.1095    1.0000 </r>
       <r>   -0.0708    1.0000 </r>
       <r>   -0.0703    1.0000 </r>
       <r>   -0.0606    1.0000 </r>
       <r>   -0.0433    1.0000 </r>
       <r>   -0.0177    1.0000 </r>
       <r>   -0.0173    1.0000 </r>
       <r>   -0.0115    1.0000 </r>
       <r>    0.0016    1.0000 </r>
       <r>    0.0017    1.0000 </r>
       <r>    0.0462    1.0000 </r>
       <r>    0.0492    1.0000 </r>
       <r>    0.0496    1.0000 </r>
       <r>    0.0914    1.0000 </r>
       <r>    0.0932    1.0000 </r>
       <r>    0.1184    1.0000 </r>
       <r>    0.1186    1.0000 </r>
       <r>    0.1577    1.0000 </r>
       <r>    0.1626    1.0000 </r>
       <r>    0.1768    1.0000 </r>
       <r>    0.1789    1.0000 </r>
       <r>    0.1820    1.0000 </r>
       <r>    0.1822    1.0000 </r>
       <r>    0.1854    1.0000 </r>
       <r>    0.1893    1.0000 </r>
       <r>    0.1932    1.0000 </r>
       <r>    0.1941    1.0000 </r>
       <r>    0.2009    1.0000 </r>
       <r>    0.2010    1.0000 </r>
       <r>    0.2387    1.0000 </r>
       <r>    0.2512    1.0000 </r>
       <r>    0.2566    1.0000 </r>
       <r>    0.2571    1.0000 </r>
       <r>    0.2767    1.0000 </r>
       <r>    0.3373    1.0000 </r>
       <r>    0.3475    1.0000 </r>
       <r>    0.3589    1.0000 </r>
       <r>    0.3590    1.0000 </r>
       <r>    0.3604    1.0000 </r>
       <r>    0.3605    1.0000 </r>
       <r>    0.3881    1.0000 </r>
       <r>    0.4017    1.0000 </r>
       <r>    0.4525    1.0000 </r>
       <r>    0.4527    1.0000 </r>
       <r>    0.5788    1.0000 </r>
       <r>    0.5789    1.0000 </r>
       <r>    0.5843    1.0000 </r>
       <r>    0.6019    1.0000 </r>
       <r>    0.6020    1.0000 </r>
       <r>    0.6064    1.0000 </r>
       <r>    0.6078    1.0000 </r>
       <r>    0.6400    1.0000 </r>
       <r>    0.6510    1.0000 </r>
       <r>    0.6513    1.0000 </r>
       <r>    0.6620    1.0000 </r>
       <r>    0.6624    1.0000 </r>
       <r>    0.6656    1.0000 </r>
       <r>    0.6731    1.0000 </r>
       <r>    0.6748    1.0000 </r>
       <r>    0.6750    1.0000 </r>
       <r>    0.6966    1.0000 </r>
       <r>    0.7229    1.0000 </r>
       <r>    0.7832    1.0000 </r>
       <r>    0.8195    1.0000 </r>
       <r>    0.8296    1.0000 </r>
       <r>    0.8316    1.0000 </r>
       <r>    0.8328    1.0000 </r>
       <r>    0.8612    1.0000 </r>
       <r>    0.8614    1.0000 </r>
       <r>    0.9093    1.0000 </r>
       <r>    0.9402    1.0000 </r>
       <r>    0.9480    1.0000 </r>
       <r>    0.9483    1.0000 </r>
       <r>    0.9832    1.0000 </r>
       <r>    1.0261    1.0000 </r>
       <r>    1.0705    1.0000 </r>
       <r>    1.2692    1.0000 </r>
       <r>    1.2980    1.0000 </r>
       <r>    1.2981    1.0000 </r>
       <r>    1.3114    1.0000 </r>
       <r>    1.3331    1.0000 </r>
       <r>    1.3333    1.0000 </r>
       <r>    1.3376    1.0000 </r>
       <r>    1.3842    1.0000 </r>
       <r>    1.4052    1.0000 </r>
       <r>    1.4281    1.0000 </r>
       <r>    1.4670    1.0000 </r>
       <r>    1.4680    1.0000 </r>
       <r>    1.4682    1.0000 </r>
       <r>    1.4813    1.0000 </r>
       <r>    1.5109    1.0000 </r>
       <r>    1.5111    1.0000 </r>
       <r>    1.5409    1.0000 </r>
       <r>    1.5613    1.0000 </r>
       <r>    1.5769    1.0000 </r>
       <r>    1.6464    1.0000 </r>
       <r>    1.6555    1.0000 </r>
       <r>    1.7562    1.0000 </r>
       <r>    1.7564    1.0000 </r>
       <r>    1.7633    1.0000 </r>
       <r>    1.7785    1.0000 </r>
       <r>    1.8028    1.0000 </r>
       <r>    1.8028    1.0000 </r>
       <r>    1.8108    1.0000 </r>
       <r>    1.8232    1.0000 </r>
       <r>    1.8366    1.0000 </r>
       <r>    1.8366    1.0000 </r>
       <r>    1.8460    1.0000 </r>
       <r>    1.8469    1.0000 </r>
       <r>    1.8783    1.0000 </r>
       <r>    1.8898    1.0000 </r>
       <r>    1.9468    1.0000 </r>
       <r>    1.9933    1.0000 </r>
       <r>    1.9935    1.0000 </r>
       <r>    2.0059    1.0000 </r>
       <r>    2.0064    1.0000 </r>
       <r>    2.0101    1.0000 </r>
       <r>    2.0187    1.0000 </r>
       <r>    2.0201    1.0000 </r>
       <r>    2.0203    1.0000 </r>
       <r>    2.0394    1.0000 </r>
       <r>    2.0467    1.0000 </r>
       <r>    2.0471    1.0000 </r>
       <r>    2.0572    1.0000 </r>
       <r>    2.0690    1.0000 </r>
       <r>    2.0692    1.0000 </r>
       <r>    2.0920    1.0000 </r>
       <r>    2.1131    1.0000 </r>
       <r>    2.1907    1.0000 </r>
       <r>    2.1907    1.0000 </r>
       <r>    2.2469    1.0000 </r>
       <r>    2.2471    1.0000 </r>
       <r>    2.2708    1.0000 </r>
       <r>    2.2731    1.0000 </r>
       <r>    2.2846    1.0000 </r>
       <r>    2.4279    1.0000 </r>
       <r>    2.4665    1.0000 </r>
       <r>    2.4666    1.0000 </r>
       <r>    2.4776    1.0000 </r>
       <r>    2.5036    1.0000 </r>
       <r>    2.5273    1.0000 </r>
       <r>    2.5541    1.0000 </r>
       <r>    2.5921    1.0000 </r>
       <r>    2.6267    1.0000 </r>
       <r>    2.6268    1.0000 </r>
       <r>    2.6562    1.0000 </r>
       <r>    2.7384    1.0000 </r>
       <r>    2.7385    1.0000 </r>
       <r>    2.7608    1.0000 </r>
       <r>    2.7613    1.0000 </r>
       <r>    2.8336    1.0000 </r>
       <r>    2.8726    1.0000 </r>
       <r>    2.9268    1.0000 </r>
       <r>    2.9343    1.0000 </r>
       <r>    2.9346    1.0000 </r>
       <r>    2.9687    1.0000 </r>
       <r>    3.0272    1.0000 </r>
       <r>    3.0278    1.0000 </r>
       <r>    3.0616    1.0000 </r>
       <r>    3.0971    1.0000 </r>
       <r>    3.3077    1.0000 </r>
       <r>    3.3107    1.0000 </r>
       <r>    3.3480    1.0000 </r>
       <r>    3.3757    1.0000 </r>
       <r>    3.4215    1.0000 </r>
       <r>    3.4220    1.0000 </r>
       <r>    3.4407    1.0000 </r>
       <r>    3.4583    1.0000 </r>
       <r>    3.4592    1.0000 </r>
       <r>    3.5318    1.0000 </r>
       <r>    3.7480    1.0000 </r>
       <r>    3.8083    1.0000 </r>
       <r>    3.8095    1.0000 </r>
       <r>    3.8150    1.0000 </r>
       <r>    3.8154    1.0000 </r>
       <r>    3.8824    1.0000 </r>
       <r>    3.8827    1.0000 </r>
       <r>    3.9323    1.0000 </r>
       <r>    3.9356    1.0000 </r>
       <r>    3.9406    1.0000 </r>
       <r>    3.9408    1.0000 </r>
       <r>    4.0391    1.0000 </r>
       <r>    4.0394    1.0000 </r>
       <r>    4.0703    1.0000 </r>
       <r>    4.1386    1.0000 </r>
       <r>    4.1491    1.0000 </r>
       <r>    4.1517    1.0000 </r>
       <r>    4.3147    1.0000 </r>
       <r>    4.3184    1.0000 </r>
       <r>    4.3380    1.0000 </r>
       <r>    4.3584    1.0000 </r>
       <r>    4.3586    1.0000 </r>
       <r>    4.4286    1.0000 </r>
       <r>    4.4445    1.0000 </r>
       <r>    4.4462    1.0000 </r>
       <r>    4.4538    1.0000 </r>
       <r>    4.4562    1.0000 </r>
       <r>    4.4569    1.0000 </r>
       <r>    4.6362    1.0000 </r>
       <r>    4.6369    1.0000 </r>
       <r>    4.7320    1.0000 </r>
       <r>    4.7326    1.0000 </r>
       <r>    4.7640    1.0000 </r>
       <r>    4.7642    1.0000 </r>
       <r>    4.7693    1.0000 </r>
       <r>    4.7698    1.0000 </r>
       <r>    4.8106    1.0000 </r>
       <r>    4.8531    1.0000 </r>
       <r>    4.8537    1.0000 </r>
       <r>    4.8574    1.0000 </r>
       <r>    7.3436    0.0000 </r>
       <r>    8.1286    0.0000 </r>
       <r>    8.4450    0.0000 </r>
       <r>    8.6423    0.0000 </r>
       <r>    8.6427    0.0000 </r>
       <r>    8.8581    0.0000 </r>
       <r>    9.0843    0.0000 </r>
       <r>    9.0849    0.0000 </r>
       <r>    9.2612    0.0000 </r>
       <r>    9.2732    0.0000 </r>
       <r>    9.2888    0.0000 </r>
       <r>    9.2900    0.0000 </r>
       <r>    9.7266    0.0000 </r>
       <r>    9.7712    0.0000 </r>
       <r>    9.7725    0.0000 </r>
       <r>    9.7900    0.0000 </r>
       <r>    9.8543    0.0000 </r>
       <r>    9.8550    0.0000 </r>
       <r>    9.8591    0.0000 </r>
       <r>    9.8789    0.0000 </r>
       <r>    9.8893    0.0000 </r>
       <r>   10.0605    0.0000 </r>
       <r>   10.0830    0.0000 </r>
       <r>   10.1351    0.0000 </r>
       <r>   10.1368    0.0000 </r>
       <r>   10.3054    0.0000 </r>
       <r>   10.3066    0.0000 </r>
       <r>   10.4169    0.0000 </r>
       <r>   10.5266    0.0000 </r>
       <r>   10.5710    0.0000 </r>
       <r>   10.5715    0.0000 </r>
       <r>   10.5721    0.0000 </r>
       <r>   10.5771    0.0000 </r>
       <r>   10.5804    0.0000 </r>
       <r>   10.6758    0.0000 </r>
       <r>   10.9769    0.0000 </r>
       <r>   11.0182    0.0000 </r>
       <r>   11.0202    0.0000 </r>
       <r>   11.0407    0.0000 </r>
       <r>   11.0410    0.0000 </r>
       <r>   11.0779    0.0000 </r>
       <r>   11.1281    0.0000 </r>
       <r>   11.1781    0.0000 </r>
       <r>   11.1878    0.0000 </r>
       <r>   11.2281    0.0000 </r>
       <r>   11.2494    0.0000 </r>
       <r>   11.2495    0.0000 </r>
       <r>   11.2905    0.0000 </r>
       <r>   11.3070    0.0000 </r>
       <r>   11.4154    0.0000 </r>
       <r>   11.4179    0.0000 </r>
       <r>   11.4587    0.0000 </r>
       <r>   11.5201    0.0000 </r>
       <r>   11.5215    0.0000 </r>
       <r>   11.5306    0.0000 </r>
       <r>   11.5767    0.0000 </r>
       <r>   11.6794    0.0000 </r>
       <r>   11.6826    0.0000 </r>
       <r>   11.7970    0.0000 </r>
       <r>   11.7979    0.0000 </r>
       <r>   11.8156    0.0000 </r>
       <r>   11.8157    0.0000 </r>
       <r>   11.8821    0.0000 </r>
       <r>   11.9412    0.0000 </r>
       <r>   11.9767    0.0000 </r>
       <r>   11.9772    0.0000 </r>
       <r>   11.9826    0.0000 </r>
       <r>   12.0268    0.0000 </r>
       <r>   12.0300    0.0000 </r>
       <r>   12.0580    0.0000 </r>
       <r>   12.1609    0.0000 </r>
       <r>   12.2430    0.0000 </r>
       <r>   12.2565    0.0000 </r>
       <r>   12.2577    0.0000 </r>
       <r>   12.3158    0.0000 </r>
       <r>   12.3177    0.0000 </r>
       <r>   12.3218    0.0000 </r>
       <r>   12.3482    0.0000 </r>
       <r>   12.4620    0.0000 </r>
       <r>   12.4807    0.0000 </r>
       <r>   12.5159    0.0000 </r>
       <r>   12.5165    0.0000 </r>
       <r>   12.6126    0.0000 </r>
       <r>   12.6156    0.0000 </r>
       <r>   12.6593    0.0000 </r>
       <r>   12.6629    0.0000 </r>
       <r>   12.6637    0.0000 </r>
       <r>   12.6900    0.0000 </r>
       <r>   12.7478    0.0000 </r>
       <r>   12.8310    0.0000 </r>
       <r>   12.8723    0.0000 </r>
       <r>   12.8727    0.0000 </r>
       <r>   12.8731    0.0000 </r>
       <r>   13.1199    0.0000 </r>
       <r>   13.1206    0.0000 </r>
       <r>   13.2009    0.0000 </r>
       <r>   13.3825    0.0000 </r>
       <r>   13.4100    0.0000 </r>
       <r>   13.4116    0.0000 </r>
       <r>   13.4335    0.0000 </r>
       <r>   13.4383    0.0000 </r>
       <r>   13.4565    0.0000 </r>
       <r>   13.4957    0.0000 </r>
       <r>   13.5128    0.0000 </r>
       <r>   13.5452    0.0000 </r>
       <r>   13.5545    0.0000 </r>
      </set>
      <set comment="kpoint 2">
       <r>  -51.0580    1.0000 </r>
       <r>  -51.0551    1.0000 </r>
       <r>  -51.0549    1.0000 </r>
       <r>  -51.0548    1.0000 </r>
       <r>  -51.0544    1.0000 </r>
       <r>  -51.0542    1.0000 </r>
       <r>  -51.0540    1.0000 </r>
       <r>  -51.0535    1.0000 </r>
       <r>  -51.0531    1.0000 </r>
       <r>  -51.0528    1.0000 </r>
       <r>  -51.0523    1.0000 </r>
       <r>  -51.0520    1.0000 </r>
       <r>  -51.0518    1.0000 </r>
       <r>  -51.0514    1.0000 </r>
       <r>  -51.0509    1.0000 </r>
       <r>  -51.0470    1.0000 </r>
       <r>  -51.0459    1.0000 </r>
       <r>  -51.0446    1.0000 </r>
       <r>  -51.0444    1.0000 </r>
       <r>  -51.0443    1.0000 </r>
       <r>  -51.0439    1.0000 </r>
       <r>  -51.0438    1.0000 </r>
       <r>  -51.0438    1.0000 </r>
       <r>  -51.0417    1.0000 </r>
       <r>  -51.0408    1.0000 </r>
       <r>  -51.0400    1.0000 </r>
       <r>  -51.0399    1.0000 </r>
       <r>  -51.0397    1.0000 </r>
       <r>  -51.0392    1.0000 </r>
       <r>  -51.0391    1.0000 </r>
       <r>  -51.0389    1.0000 </r>
       <r>  -51.0372    1.0000 </r>
       <r>  -49.7039    1.0000 </r>
       <r>  -49.7023    1.0000 </r>
       <r>  -49.7019    1.0000 </r>
       <r>  -49.7019    1.0000 </r>
       <r>  -49.7014    1.0000 </r>
       <r>  -49.7013    1.0000 </r>
       <r>  -49.7012    1.0000 </r>
       <r>  -49.7004    1.0000 </r>
       <r>  -49.6952    1.0000 </r>
       <r>  -49.6947    1.0000 </r>
       <r>  -49.6946    1.0000 </r>
       <r>  -49.6943    1.0000 </r>
       <r>  -49.6939    1.0000 </r>
       <r>  -49.6937    1.0000 </r>
       <r>  -49.6935    1.0000 </r>
       <r>  -49.6921    1.0000 </r>
       <r>  -49.6025    1.0000 </r>
       <r>  -49.5985    1.0000 </r>
       <r>  -49.5981    1.0000 </r>
       <r>  -49.5978    1.0000 </r>
       <r>  -49.5975    1.0000 </r>
       <r>  -49.5972    1.0000 </r>
       <r>  -49.5971    1.0000 </r>
       <r>  -49.5969    1.0000 </r>
       <r>  -49.5967    1.0000 </r>
       <r>  -49.5964    1.0000 </r>
       <r>  -49.5963    1.0000 </r>
       <r>  -49.5960    1.0000 </r>
       <r>  -49.5957    1.0000 </r>
       <r>  -49.5954    1.0000 </r>
       <r>  -49.5954    1.0000 </r>
       <r>  -49.5895    1.0000 </r>
       <r>  -49.5701    1.0000 </r>
       <r>  -49.5673    1.0000 </r>
       <r>  -49.5669    1.0000 </r>
       <r>  -49.5664    1.0000 </r>
       <r>  -49.5660    1.0000 </r>
       <r>  -49.5658    1.0000 </r>
       <r>  -49.5656    1.0000 </r>
       <r>  -49.5654    1.0000 </r>
       <r>  -49.5651    1.0000 </r>
       <r>  -49.5650    1.0000 </r>
       <r>  -49.5647    1.0000 </r>
       <r>  -49.5645    1.0000 </r>
       <r>  -49.5639    1.0000 </r>
       <r>  -49.5638    1.0000 </r>
       <r>  -49.5635    1.0000 </r>
       <r>  -49.5569    1.0000 </r>
       <r>  -49.5558    1.0000 </r>
       <r>  -49.5548    1.0000 </r>
       <r>  -49.5545    1.0000 </r>
       <r>  -49.5544    1.0000 </r>
       <r>  -49.5540    1.0000 </r>
       <r>  -49.5539    1.0000 </r>
       <r>  -49.5538    1.0000 </r>
       <r>  -49.5531    1.0000 </r>
       <r>  -49.5406    1.0000 </r>
       <r>  -49.5401    1.0000 </r>
       <r>  -49.5399    1.0000 </r>
       <r>  -49.5397    1.0000 </r>
       <r>  -49.5393    1.0000 </r>
       <r>  -49.5391    1.0000 </r>
       <r>  -49.5389    1.0000 </r>
       <r>  -49.5382    1.0000 </r>
       <r>  -39.8753    1.0000 </r>
       <r>  -39.8741    1.0000 </r>
       <r>  -39.8735    1.0000 </r>
       <r>  -39.8734    1.0000 </r>
       <r>  -39.8733    1.0000 </r>
       <r>  -39.8730    1.0000 </r>
       <r>  -39.8728    1.0000 </r>
       <r>  -39.8727    1.0000 </r>
       <r>  -39.8726    1.0000 </r>
       <r>  -39.8724    1.0000 </r>
       <r>  -39.8724    1.0000 </r>
       <r>  -39.8720    1.0000 </r>
       <r>  -39.8718    1.0000 </r>
       <r>  -39.8718    1.0000 </r>
       <r>  -39.8714    1.0000 </r>
       <r>  -39.8709    1.0000 </r>
       <r>  -13.2075    1.0000 </r>
       <r>  -13.2075    1.0000 </r>
       <r>  -13.1951    1.0000 </r>
       <r>  -13.1702    1.0000 </r>
       <r>  -13.1591    1.0000 </r>
       <r>  -13.1591    1.0000 </r>
       <r>  -13.1534    1.0000 </r>
       <r>  -13.1333    1.0000 </r>
       <r>  -13.0418    1.0000 </r>
       <r>  -13.0301    1.0000 </r>
       <r>  -13.0170    1.0000 </r>
       <r>  -13.0170    1.0000 </r>
       <r>  -13.0024    1.0000 </r>
       <r>  -12.9916    1.0000 </r>
       <r>  -12.9624    1.0000 </r>
       <r>  -12.9624    1.0000 </r>
       <r>   -7.5968    1.0000 </r>
       <r>   -7.4682    1.0000 </r>
       <r>   -7.3783    1.0000 </r>
       <r>   -7.3199    1.0000 </r>
[...]
       <r>   -49.2840     0.0000     0.0000 </r>
       <r>   -49.0430     0.0000     0.0000 </r>
       <r>   -48.8021     0.0000     0.0000 </r>
       <r>   -48.5612     0.0000     0.0000 </r>
       <r>   -48.3203     0.0000     0.0000 </r>
       <r>   -48.0793     0.0000     0.0000 </r>
       <r>   -47.8384     0.0000     0.0000 </r>
       <r>   -47.5975     0.0000     0.0000 </r>
       <r>   -47.3566     0.0000     0.0000 </r>
       <r>   -47.1156     0.0000     0.0000 </r>
       <r>   -46.8747     0.0000     0.0000 </r>
       <r>   -46.6338     0.0000     0.0000 </r>
       <r>   -46.3929     0.3938     0.0949 </r>
       <r>   -46.1519   132.3879    31.9904 </r>
       <r>   -45.9110    61.3606    46.7736 </r>
       <r>   -45.6701   204.3227    96.0000 </r>
       <r>   -45.4292     0.0000    96.0000 </r>
       <r>   -45.1882     0.0000    96.0000 </r>
       <r>   -44.9473     0.0000    96.0000 </r>
       <r>   -44.7064     0.0000    96.0000 </r>
       <r>   -44.4655     0.0000    96.0000 </r>
       <r>   -44.2245     0.0000    96.0000 </r>
       <r>   -43.9836     0.0000    96.0000 </r>
       <r>   -43.7427     0.0000    96.0000 </r>
       <r>   -43.5018     0.0000    96.0000 </r>
       <r>   -43.2608     0.0000    96.0000 </r>
       <r>   -43.0199     0.0000    96.0000 </r>
       <r>   -42.7790     0.0000    96.0000 </r>
       <r>   -42.5381     0.0000    96.0000 </r>
       <r>   -42.2972     0.0000    96.0000 </r>
       <r>   -42.0562     0.0000    96.0000 </r>
       <r>   -41.8153     0.0000    96.0000 </r>
       <r>   -41.5744     0.0000    96.0000 </r>
       <r>   -41.3335     0.0000    96.0000 </r>
       <r>   -41.0925     0.0000    96.0000 </r>
       <r>   -40.8516     0.0000    96.0000 </r>
       <r>   -40.6107     0.0000    96.0000 </r>
       <r>   -40.3698     0.0000    96.0000 </r>
       <r>   -40.1288     0.0000    96.0000 </r>
       <r>   -39.8879    20.6066   100.9646 </r>
       <r>   -39.6470    45.8042   112.0000 </r>
       <r>   -39.4061     0.0000   112.0000 </r>
       <r>   -39.1651     0.0000   112.0000 </r>
       <r>   -38.9242     0.0000   112.0000 </r>
       <r>   -38.6833     0.0000   112.0000 </r>
       <r>   -38.4424     0.0000   112.0000 </r>
       <r>   -38.2014     0.0000   112.0000 </r>
       <r>   -37.9605     0.0000   112.0000 </r>
       <r>   -37.7196     0.0000   112.0000 </r>
       <r>   -37.4787     0.0000   112.0000 </r>
       <r>   -37.2377     0.0000   112.0000 </r>
       <r>   -36.9968     0.0000   112.0000 </r>
       <r>   -36.7559     0.0000   112.0000 </r>
       <r>   -36.5150     0.0000   112.0000 </r>
       <r>   -36.2740     0.0000   112.0000 </r>
       <r>   -36.0331     0.0000   112.0000 </r>
       <r>   -35.7922     0.0000   112.0000 </r>
       <r>   -35.5513     0.0000   112.0000 </r>
       <r>   -35.3103     0.0000   112.0000 </r>
       <r>   -35.0694     0.0000   112.0000 </r>
       <r>   -34.8285     0.0000   112.0000 </r>
       <r>   -34.5876     0.0000   112.0000 </r>
       <r>   -34.3466     0.0000   112.0000 </r>
       <r>   -34.1057     0.0000   112.0000 </r>
       <r>   -33.8648     0.0000   112.0000 </r>
       <r>   -33.6239     0.0000   112.0000 </r>
       <r>   -33.3829     0.0000   112.0000 </r>
       <r>   -33.1420     0.0000   112.0000 </r>
       <r>   -32.9011     0.0000   112.0000 </r>
       <r>   -32.6602     0.0000   112.0000 </r>
       <r>   -32.4192     0.0000   112.0000 </r>
       <r>   -32.1783     0.0000   112.0000 </r>
       <r>   -31.9374     0.0000   112.0000 </r>
       <r>   -31.6965     0.0000   112.0000 </r>
       <r>   -31.4555     0.0000   112.0000 </r>
       <r>   -31.2146     0.0000   112.0000 </r>
       <r>   -30.9737     0.0000   112.0000 </r>
       <r>   -30.7328     0.0000   112.0000 </r>
       <r>   -30.4918     0.0000   112.0000 </r>
       <r>   -30.2509     0.0000   112.0000 </r>
       <r>   -30.0100     0.0000   112.0000 </r>
       <r>   -29.7691     0.0000   112.0000 </r>
       <r>   -29.5282     0.0000   112.0000 </r>
       <r>   -29.2872     0.0000   112.0000 </r>
       <r>   -29.0463     0.0000   112.0000 </r>
       <r>   -28.8054     0.0000   112.0000 </r>
       <r>   -28.5645     0.0000   112.0000 </r>
       <r>   -28.3235     0.0000   112.0000 </r>
       <r>   -28.0826     0.0000   112.0000 </r>
       <r>   -27.8417     0.0000   112.0000 </r>
       <r>   -27.6008     0.0000   112.0000 </r>
       <r>   -27.3598     0.0000   112.0000 </r>
       <r>   -27.1189     0.0000   112.0000 </r>
       <r>   -26.8780     0.0000   112.0000 </r>
       <r>   -26.6371     0.0000   112.0000 </r>
       <r>   -26.3961     0.0000   112.0000 </r>
       <r>   -26.1552     0.0000   112.0000 </r>
       <r>   -25.9143     0.0000   112.0000 </r>
       <r>   -25.6734     0.0000   112.0000 </r>
       <r>   -25.4324     0.0000   112.0000 </r>
       <r>   -25.1915     0.0000   112.0000 </r>
       <r>   -24.9506     0.0000   112.0000 </r>
       <r>   -24.7097     0.0000   112.0000 </r>
       <r>   -24.4687     0.0000   112.0000 </r>
       <r>   -24.2278     0.0000   112.0000 </r>
       <r>   -23.9869     0.0000   112.0000 </r>
       <r>   -23.7460     0.0000   112.0000 </r>
       <r>   -23.5050     0.0000   112.0000 </r>
       <r>   -23.2641     0.0000   112.0000 </r>
       <r>   -23.0232     0.0000   112.0000 </r>
       <r>   -22.7823     0.0000   112.0000 </r>
       <r>   -22.5413     0.0000   112.0000 </r>
       <r>   -22.3004     0.0000   112.0000 </r>
       <r>   -22.0595     0.0000   112.0000 </r>
       <r>   -21.8186     0.0000   112.0000 </r>
       <r>   -21.5776     0.0000   112.0000 </r>
       <r>   -21.3367     0.0000   112.0000 </r>
       <r>   -21.0958     0.0000   112.0000 </r>
       <r>   -20.8549     0.0000   112.0000 </r>
       <r>   -20.6139     0.0000   112.0000 </r>
       <r>   -20.3730     0.0000   112.0000 </r>
       <r>   -20.1321     0.0000   112.0000 </r>
       <r>   -19.8912     0.0000   112.0000 </r>
       <r>   -19.6502     0.0000   112.0000 </r>
       <r>   -19.4093     0.0000   112.0000 </r>
       <r>   -19.1684     0.0000   112.0000 </r>
       <r>   -18.9275     0.0000   112.0000 </r>
       <r>   -18.6865     0.0000   112.0000 </r>
       <r>   -18.4456     0.0000   112.0000 </r>
       <r>   -18.2047     0.0000   112.0000 </r>
       <r>   -17.9638     0.0000   112.0000 </r>
       <r>   -17.7228     0.0000   112.0000 </r>
       <r>   -17.4819     0.0000   112.0000 </r>
       <r>   -17.2410     0.0000   112.0000 </r>
       <r>   -17.0001     0.0000   112.0000 </r>
       <r>   -16.7592     0.0000   112.0000 </r>
       <r>   -16.5182     0.0000   112.0000 </r>
       <r>   -16.2773     0.0000   112.0000 </r>
       <r>   -16.0364     0.0000   112.0000 </r>
       <r>   -15.7955     0.0000   112.0000 </r>
       <r>   -15.5545     0.0000   112.0000 </r>
       <r>   -15.3136     0.0000   112.0000 </r>
       <r>   -15.0727     0.0000   112.0000 </r>
       <r>   -14.8318     0.0000   112.0000 </r>
       <r>   -14.5908     0.0000   112.0000 </r>
       <r>   -14.3499     0.0000   112.0000 </r>
       <r>   -14.1090     0.0000   112.0000 </r>
       <r>   -13.8681     0.0000   112.0000 </r>
       <r>   -13.6271     0.0000   112.0000 </r>
       <r>   -13.3862     0.0000   112.0000 </r>
       <r>   -13.1453     0.0000   112.0000 </r>
       <r>   -12.9044     0.0316   112.0076 </r>
       <r>   -12.6634    46.5366   123.2194 </r>
       <r>   -12.4225    19.8426   128.0000 </r>
       <r>   -12.1816     0.0000   128.0000 </r>
       <r>   -11.9407     0.0000   128.0000 </r>
       <r>   -11.6997     0.0000   128.0000 </r>
       <r>   -11.4588     0.0000   128.0000 </r>
       <r>   -11.2179     0.0000   128.0000 </r>
       <r>   -10.9770     0.0000   128.0000 </r>
       <r>   -10.7360     0.0000   128.0000 </r>
       <r>   -10.4951     0.0000   128.0000 </r>
       <r>   -10.2542     0.0000   128.0000 </r>
       <r>   -10.0133     0.0000   128.0000 </r>
       <r>    -9.7723     0.0000   128.0000 </r>
       <r>    -9.5314     0.0000   128.0000 </r>
       <r>    -9.2905     0.0000   128.0000 </r>
       <r>    -9.0496     0.0000   128.0000 </r>
       <r>    -8.8086     0.0000   128.0000 </r>
       <r>    -8.5677     0.0000   128.0000 </r>
       <r>    -8.3268     0.0000   128.0000 </r>
       <r>    -8.0859     0.0000   128.0000 </r>
       <r>    -7.8449     0.0000   128.0000 </r>
       <r>    -7.6040     0.0000   128.0000 </r>
       <r>    -7.3631     0.8537   128.2057 </r>
       <r>    -7.1222    15.5094   131.9423 </r>
       <r>    -6.8812    29.1261   138.9595 </r>
       <r>    -6.6403    28.1627   145.7445 </r>
       <r>    -6.3994    25.9481   151.9961 </r>
       <r>    -6.1585     0.0163   152.0000 </r>
       <r>    -5.9175     0.0000   152.0000 </r>
       <r>    -5.6766     0.0000   152.0000 </r>
       <r>    -5.4357     0.0000   152.0000 </r>
       <r>    -5.1948     0.0000   152.0000 </r>
       <r>    -4.9539     0.0000   152.0000 </r>
       <r>    -4.7129     0.0000   152.0000 </r>
       <r>    -4.4720     0.0000   152.0000 </r>
       <r>    -4.2311     0.0000   152.0000 </r>
       <r>    -3.9902     0.0000   152.0000 </r>
       <r>    -3.7492     0.0000   152.0000 </r>
       <r>    -3.5083     0.0000   152.0000 </r>
       <r>    -3.2674     0.0000   152.0000 </r>
       <r>    -3.0265     0.0000   152.0000 </r>
       <r>    -2.7855     0.0000   152.0000 </r>
       <r>    -2.5446     0.0000   152.0000 </r>
       <r>    -2.3037     0.0000   152.0000 </r>
       <r>    -2.0628     0.0000   152.0000 </r>
       <r>    -1.8218     0.0000   152.0000 </r>
       <r>    -1.5809     0.0000   152.0000 </r>
       <r>    -1.3400     0.0000   152.0000 </r>
       <r>    -1.0991     0.0000   152.0000 </r>
       <r>    -0.8581     0.0000   152.0000 </r>
       <r>    -0.6172     0.0000   152.0000 </r>
       <r>    -0.3763     5.7288   153.3802 </r>
       <r>    -0.1354    20.0262   158.2050 </r>
       <r>     0.1056    12.5039   161.2175 </r>
       <r>     0.3465    19.3634   165.8826 </r>
       <r>     0.5874    29.9130   173.0894 </r>
       <r>     0.8283    40.0838   182.7466 </r>
       <r>     1.0693    37.1269   191.6913 </r>
       <r>     1.3102    29.7734   198.8645 </r>
       <r>     1.5511    21.2242   203.9779 </r>
       <r>     1.7920    28.5080   210.8462 </r>
       <r>     2.0330    38.2733   220.0672 </r>
       <r>     2.2739    25.5211   226.2158 </r>
       <r>     2.5148    27.3061   232.7945 </r>
       <r>     2.7557    33.1303   240.7764 </r>
       <r>     2.9967    45.1444   251.6528 </r>
       <r>     3.2376    45.2467   262.5539 </r>
       <r>     3.4785    29.1925   269.5870 </r>
       <r>     3.7194    11.3050   272.3107 </r>
       <r>     3.9604    20.5258   277.2559 </r>
       <r>     4.2013    50.6624   289.4617 </r>
       <r>     4.4422    46.5259   300.6709 </r>
       <r>     4.6831    13.8175   303.9999 </r>
       <r>     4.9241     0.0006   304.0000 </r>
       <r>     5.1650     0.0000   304.0000 </r>
       <r>     5.4059     0.0000   304.0000 </r>
       <r>     5.6468     0.0000   304.0000 </r>
       <r>     5.8878     0.0000   304.0000 </r>
       <r>     6.1287     0.0000   304.0000 </r>
       <r>     6.3696     0.5635   304.1358 </r>
       <r>     6.6105     4.2449   305.1584 </r>
       <r>     6.8515     8.3865   307.1789 </r>
       <r>     7.0924    21.7259   312.4132 </r>
       <r>     7.3333    45.5822   323.3951 </r>
       <r>     7.5742    55.2494   336.7060 </r>
       <r>     7.8151    62.2637   351.7069 </r>
       <r>     8.0561    66.7610   367.7912 </r>
       <r>     8.2970    71.3365   384.9780 </r>
       <r>     8.5379    57.6532   398.8680 </r>
       <r>     8.7788    58.9345   413.0668 </r>
       <r>     9.0198    44.7929   423.8585 </r>
       <r>     9.2607    27.6343   430.5163 </r>
       <r>     9.5016     8.0087   432.4458 </r>
       <r>     9.7425     3.6253   433.3192 </r>
       <r>     9.9835     8.8080   435.4413 </r>
       <r>    10.2244    19.0687   440.0354 </r>
       <r>    10.4653    18.0183   444.3764 </r>
       <r>    10.7062    18.0746   448.7311 </r>
       <r>    10.9472    26.9580   455.2259 </r>
       <r>    11.1881    19.0656   459.8193 </r>
       <r>    11.4290    24.0921   465.6236 </r>
       <r>    11.6699    13.7083   468.9263 </r>
       <r>    11.9109    14.1366   472.3322 </r>
       <r>    12.1518    17.0945   476.4507 </r>
       <r>    12.3927    38.2912   485.6760 </r>
       <r>    12.6336    32.0304   493.3929 </r>
       <r>    12.8746    28.0905   500.1606 </r>
       <r>    13.1155    20.2658   505.0431 </r>
       <r>    13.3564    23.1576   510.6223 </r>
       <r>    13.5973    27.4685   517.2402 </r>
       <r>    13.8383    23.7405   522.9598 </r>
       <r>    14.0792    25.7703   529.1685 </r>
       <r>    14.3201    18.5112   533.6283 </r>
       <r>    14.5610    15.5353   537.3711 </r>
       <r>    14.8020     2.6102   538.0000 </r>
       <r>    15.0429     0.0000   538.0000 </r>
       <r>    15.2838     0.0000   538.0000 </r>
       <r>    15.5247     0.0000   538.0000 </r>
       <r>    15.7657     0.0000   538.0000 </r>
       <r>    16.0066     0.0000   538.0000 </r>
       <r>    16.2475     0.0000   538.0000 </r>
       <r>    16.4884     0.0000   538.0000 </r>
       <r>    16.7294     0.0000   538.0000 </r>
       <r>    16.9703     0.0000   538.0000 </r>
       <r>    17.2112     0.0000   538.0000 </r>
       <r>    17.4521     0.0000   538.0000 </r>
       <r>    17.6931     0.0000   538.0000 </r>
       <r>    17.9340     0.0000   538.0000 </r>
      </set>
     </set>
    </array>
   </total>
  </dos>
 </calculation>
 <structure name="finalpos" >
  <crystal>
   <varray name="basis" >
    <v>      11.11223374       0.00000000      -0.00029034 </v>
    <v>       0.00000000      11.11745194       0.00000000 </v>
    <v>      -2.77510898       0.00000000      10.19872221 </v>
   </varray>
   <i name="volume">   1259.93837498 </i>
   <varray name="rec_basis" >
    <v>       0.08999155       0.00000000       0.02448702 </v>
    <v>       0.00000000       0.08994867       0.00000000 </v>
    <v>       0.00000256       0.00000000       0.09805220 </v>
   </varray>
  </crystal>
  <varray name="positions" >
   <v>       0.28894969       0.46933910       0.15583616 </v>
   <v>       0.78894969       0.46933910       0.15583616 </v>
   <v>       0.28894969       0.96933910       0.15583616 </v>
   <v>       0.78894969       0.96933910       0.15583616 </v>
   <v>       0.04646972       0.21934976       0.18586770 </v>
   <v>       0.54646972       0.21934976       0.18586770 </v>
   <v>       0.04646972       0.71934976       0.18586770 </v>
   <v>       0.54646972       0.71934976       0.18586770 </v>
   <v>       0.45353028       0.46934976       0.81413230 </v>
   <v>       0.95353028       0.46934976       0.81413230 </v>
   <v>       0.45353028       0.96934976       0.81413230 </v>
   <v>       0.95353028       0.96934976       0.81413230 </v>
   <v>       0.21105031       0.21933910       0.84416384 </v>
   <v>       0.71105031       0.21933910       0.84416384 </v>
   <v>       0.21105031       0.71933910       0.84416384 </v>
   <v>       0.71105031       0.71933910       0.84416384 </v>
   <v>       0.07654971       0.09530995       0.80250593 </v>
   <v>       0.57654971       0.09530995       0.80250593 </v>
   <v>       0.07654971       0.59530995       0.80250593 </v>
   <v>       0.57654971       0.59530995       0.80250593 </v>
   <v>       0.32470466       0.34338175       0.80250383 </v>
   <v>       0.82470466       0.34338175       0.80250383 </v>
   <v>       0.32470466       0.84338175       0.80250383 </v>
   <v>       0.82470466       0.84338175       0.80250383 </v>
   <v>       0.17529534       0.09338175       0.19749617 </v>
   <v>       0.67529534       0.09338175       0.19749617 </v>
   <v>       0.17529534       0.59338175       0.19749617 </v>
   <v>       0.67529534       0.59338175       0.19749617 </v>
   <v>       0.42345029       0.34530995       0.19749407 </v>
   <v>       0.92345029       0.34530995       0.19749407 </v>
   <v>       0.42345029       0.84530995       0.19749407 </v>
   <v>       0.92345029       0.84530995       0.19749407 </v>
   <v>       0.21868463       0.34613344       0.37102476 </v>
   <v>       0.71868463       0.34523395       0.37102476 </v>
   <v>       0.21868463       0.84523395       0.37102476 </v>
   <v>       0.71868463       0.84523395       0.37102476 </v>
   <v>       0.46681660       0.09344897       0.37102399 </v>
   <v>       0.96681660       0.09344897       0.37102399 </v>
   <v>       0.46681660       0.59344897       0.37102399 </v>
   <v>       0.96681660       0.59344897       0.37102399 </v>
   <v>       0.03318340       0.34344897       0.62897601 </v>
   <v>       0.53318340       0.34344897       0.62897601 </v>
   <v>       0.03318340       0.84344897       0.62897601 </v>
   <v>       0.53318340       0.84344897       0.62897601 </v>
   <v>       0.28131537       0.09523395       0.62897524 </v>
   <v>       0.78131537       0.09523395       0.62897524 </v>
   <v>       0.28131537       0.59523395       0.62897524 </v>
   <v>       0.78131537       0.59523395       0.62897524 </v>
   <v>       0.12439279       0.34434306       0.00000412 </v>
   <v>       0.62439279       0.34434306       0.00000412 </v>
   <v>       0.12439279       0.84434306       0.00000412 </v>
   <v>       0.62439279       0.84434306       0.00000412 </v>
   <v>       0.37560721       0.09434306       0.99999588 </v>
   <v>       0.87560721       0.09434306       0.99999588 </v>
   <v>       0.37560721       0.59434306       0.99999588 </v>
   <v>       0.87560721       0.59434306       0.99999588 </v>
   <v>       0.03824426       0.10634799       0.60632306 </v>
   <v>       0.53824426       0.10634799       0.60632306 </v>
   <v>       0.03824426       0.60634799       0.60632306 </v>
   <v>       0.53824426       0.60634799       0.60632306 </v>
   <v>       0.26492712       0.33232651       0.60632763 </v>
   <v>       0.76492712       0.33232651       0.60632763 </v>
   <v>       0.26492712       0.83232651       0.60632763 </v>
   <v>       0.76492712       0.83232651       0.60632763 </v>
   <v>       0.23507288       0.08232651       0.39367237 </v>
   <v>       0.73507288       0.08232651       0.39367237 </v>
   <v>       0.23507288       0.58232651       0.39367237 </v>
   <v>       0.73507288       0.58232651       0.39367237 </v>
   <v>       0.46175574       0.35634799       0.39367694 </v>
   <v>       0.96175574       0.35634799       0.39367694 </v>
   <v>       0.46175574       0.85634799       0.39367694 </v>
   <v>       0.96175574       0.85634799       0.39367694 </v>
   <v>       0.03848398       0.46936404       0.15397331 </v>
   <v>       0.53848398       0.46936404       0.15397331 </v>
   <v>       0.03848398       0.96936404       0.15397331 </v>
   <v>       0.53848398       0.96936404       0.15397331 </v>
   <v>       0.28861657       0.21935690       0.15447525 </v>
   <v>       0.78861657       0.21935690       0.15447525 </v>
   <v>       0.28861657       0.71935690       0.15447525 </v>
   <v>       0.78861657       0.71935690       0.15447525 </v>
   <v>       0.21138343       0.46935690       0.84552475 </v>
   <v>       0.71138343       0.46935690       0.84552475 </v>
   <v>       0.21138343       0.96935690       0.84552475 </v>
   <v>       0.71138343       0.96935690       0.84552475 </v>
   <v>       0.46151602       0.21936404       0.84602669 </v>
   <v>       0.96151602       0.21936404       0.84602669 </v>
   <v>       0.46151602       0.71936404       0.84602669 </v>
   <v>       0.96151602       0.71936404       0.84602669 </v>
  </varray>
 </structure>
</modeling>
