 120 120   0   0
  0.1228332E+02  0.1173587E-08  0.1121847E-08  0.1119562E-08  0.5000000E-15
  1.000000000000000E-004
  CAR 
 unknown system                          
     16.74063679    -54.73226277  301      4.41156162      1.00000000
    -54.732  0.0000E+00  0.0000E+00  0.0000E+00  0.0000E+00
    -54.494  0.0000E+00  0.0000E+00  0.0000E+00  0.0000E+00
    -54.256  0.0000E+00  0.0000E+00  0.0000E+00  0.0000E+00
    -54.018  0.0000E+00  0.0000E+00  0.0000E+00  0.0000E+00
    -53.779  0.0000E+00  0.0000E+00  0.0000E+00  0.0000E+00
    -53.541  0.0000E+00  0.0000E+00  0.0000E+00  0.0000E+00
    -53.303  0.0000E+00  0.0000E+00  0.0000E+00  0.0000E+00
    -53.065  0.0000E+00  0.0000E+00  0.0000E+00  0.0000E+00
    -52.826  0.0000E+00  0.0000E+00  0.0000E+00  0.0000E+00
    -52.588  0.0000E+00  0.0000E+00  0.0000E+00  0.0000E+00
    -52.350  0.0000E+00  0.0000E+00  0.0000E+00  0.0000E+00
    -52.112  0.0000E+00  0.0000E+00  0.0000E+00  0.0000E+00
    -51.873  0.0000E+00  0.0000E+00  0.0000E+00  0.0000E+00
    -51.635  0.2276E-03  0.0000E+00  0.5423E-04  0.0000E+00
    -51.397  0.9769E+02  0.0000E+00  0.2327E+02  0.0000E+00
    -51.159  0.3045E+01  0.0000E+00  0.2400E+02  0.0000E+00
    -50.920  0.0000E+00  0.0000E+00  0.2400E+02  0.0000E+00
    -50.682  0.0000E+00  0.0000E+00  0.2400E+02  0.0000E+00
    -50.444  0.2180E-09  0.0000E+00  0.2400E+02  0.0000E+00
    -50.206  0.4241E+02  0.0000E+00  0.3410E+02  0.0000E+00
    -49.967  0.1321E+03  0.0000E+00  0.6557E+02  0.0000E+00
    -49.729  0.2699E+02  0.0000E+00  0.7200E+02  0.0000E+00
    -49.491  0.0000E+00  0.0000E+00  0.7200E+02  0.0000E+00
    -49.253  0.0000E+00  0.0000E+00  0.7200E+02  0.0000E+00
    -49.014  0.0000E+00  0.0000E+00  0.7200E+02  0.0000E+00
    -48.776  0.0000E+00  0.0000E+00  0.7200E+02  0.0000E+00
    -48.538  0.0000E+00  0.0000E+00  0.7200E+02  0.0000E+00
    -48.300  0.0000E+00  0.0000E+00  0.7200E+02  0.0000E+00
    -48.061  0.0000E+00  0.0000E+00  0.7200E+02  0.0000E+00
    -47.823  0.0000E+00  0.0000E+00  0.7200E+02  0.0000E+00
    -47.585  0.0000E+00  0.0000E+00  0.7200E+02  0.0000E+00
    -47.347  0.0000E+00  0.0000E+00  0.7200E+02  0.0000E+00
    -47.108  0.0000E+00  0.0000E+00  0.7200E+02  0.0000E+00
    -46.870  0.0000E+00  0.6143E-01  0.7200E+02  0.1464E-01
    -46.632  0.0000E+00  0.1006E+03  0.7200E+02  0.2397E+02
    -46.394  0.0000E+00  0.9557E+02  0.7200E+02  0.4674E+02
    -46.156  0.0000E+00  0.1060E+03  0.7200E+02  0.7200E+02
    -45.917  0.0000E+00  0.0000E+00  0.7200E+02  0.7200E+02
    -45.679  0.0000E+00  0.0000E+00  0.7200E+02  0.7200E+02
    -45.441  0.0000E+00  0.0000E+00  0.7200E+02  0.7200E+02
    -45.203  0.0000E+00  0.0000E+00  0.7200E+02  0.7200E+02
    -44.964  0.0000E+00  0.0000E+00  0.7200E+02  0.7200E+02
    -44.726  0.0000E+00  0.0000E+00  0.7200E+02  0.7200E+02
    -44.488  0.0000E+00  0.0000E+00  0.7200E+02  0.7200E+02
    -44.250  0.0000E+00  0.0000E+00  0.7200E+02  0.7200E+02
    -44.011  0.0000E+00  0.0000E+00  0.7200E+02  0.7200E+02
    -43.773  0.0000E+00  0.0000E+00  0.7200E+02  0.7200E+02
    -43.535  0.0000E+00  0.0000E+00  0.7200E+02  0.7200E+02
    -43.297  0.0000E+00  0.0000E+00  0.7200E+02  0.7200E+02
    -43.058  0.0000E+00  0.0000E+00  0.7200E+02  0.7200E+02
    -42.820  0.0000E+00  0.0000E+00  0.7200E+02  0.7200E+02
    -42.582  0.0000E+00  0.0000E+00  0.7200E+02  0.7200E+02
    -42.344  0.0000E+00  0.0000E+00  0.7200E+02  0.7200E+02
    -42.105  0.0000E+00  0.0000E+00  0.7200E+02  0.7200E+02
    -41.867  0.0000E+00  0.0000E+00  0.7200E+02  0.7200E+02
    -41.629  0.0000E+00  0.0000E+00  0.7200E+02  0.7200E+02
    -41.391  0.0000E+00  0.0000E+00  0.7200E+02  0.7200E+02
    -41.152  0.0000E+00  0.0000E+00  0.7200E+02  0.7200E+02
    -40.914  0.0000E+00  0.0000E+00  0.7200E+02  0.7200E+02
    -40.676  0.3054E-03  0.9403E-04  0.7200E+02  0.7200E+02
    -40.438  0.9901E+02  0.9767E+02  0.9559E+02  0.9527E+02
    -40.199  0.1023E+03  0.1037E+03  0.1200E+03  0.1200E+03
    -39.961  0.1428E+00  0.1459E+00  0.1200E+03  0.1200E+03
    -39.723  0.0000E+00  0.0000E+00  0.1200E+03  0.1200E+03
    -39.485  0.0000E+00  0.0000E+00  0.1200E+03  0.1200E+03
    -39.246  0.0000E+00  0.0000E+00  0.1200E+03  0.1200E+03
    -39.008  0.0000E+00  0.0000E+00  0.1200E+03  0.1200E+03
    -38.770  0.0000E+00  0.0000E+00  0.1200E+03  0.1200E+03
    -38.532  0.0000E+00  0.0000E+00  0.1200E+03  0.1200E+03
    -38.293  0.0000E+00  0.0000E+00  0.1200E+03  0.1200E+03
    -38.055  0.0000E+00  0.0000E+00  0.1200E+03  0.1200E+03
    -37.817  0.0000E+00  0.0000E+00  0.1200E+03  0.1200E+03
    -37.579  0.0000E+00  0.0000E+00  0.1200E+03  0.1200E+03
    -37.341  0.0000E+00  0.0000E+00  0.1200E+03  0.1200E+03
    -37.102  0.0000E+00  0.0000E+00  0.1200E+03  0.1200E+03
    -36.864  0.0000E+00  0.0000E+00  0.1200E+03  0.1200E+03
    -36.626  0.0000E+00  0.0000E+00  0.1200E+03  0.1200E+03
    -36.388  0.0000E+00  0.0000E+00  0.1200E+03  0.1200E+03
    -36.149  0.0000E+00  0.0000E+00  0.1200E+03  0.1200E+03
    -35.911  0.0000E+00  0.0000E+00  0.1200E+03  0.1200E+03
    -35.673  0.0000E+00  0.0000E+00  0.1200E+03  0.1200E+03
    -35.435  0.0000E+00  0.0000E+00  0.1200E+03  0.1200E+03
    -35.196  0.0000E+00  0.0000E+00  0.1200E+03  0.1200E+03
    -34.958  0.0000E+00  0.0000E+00  0.1200E+03  0.1200E+03
    -34.720  0.0000E+00  0.0000E+00  0.1200E+03  0.1200E+03
    -34.482  0.0000E+00  0.0000E+00  0.1200E+03  0.1200E+03
    -34.243  0.0000E+00  0.0000E+00  0.1200E+03  0.1200E+03
    -34.005  0.0000E+00  0.0000E+00  0.1200E+03  0.1200E+03
    -33.767  0.0000E+00  0.0000E+00  0.1200E+03  0.1200E+03
    -33.529  0.0000E+00  0.0000E+00  0.1200E+03  0.1200E+03
    -33.290  0.0000E+00  0.0000E+00  0.1200E+03  0.1200E+03
    -33.052  0.0000E+00  0.0000E+00  0.1200E+03  0.1200E+03
    -32.814  0.0000E+00  0.0000E+00  0.1200E+03  0.1200E+03
    -32.576  0.0000E+00  0.0000E+00  0.1200E+03  0.1200E+03
    -32.337  0.0000E+00  0.0000E+00  0.1200E+03  0.1200E+03
    -32.099  0.0000E+00  0.0000E+00  0.1200E+03  0.1200E+03
    -31.861  0.0000E+00  0.0000E+00  0.1200E+03  0.1200E+03
    -31.623  0.0000E+00  0.0000E+00  0.1200E+03  0.1200E+03
    -31.384  0.0000E+00  0.0000E+00  0.1200E+03  0.1200E+03
    -31.146  0.0000E+00  0.0000E+00  0.1200E+03  0.1200E+03
    -30.908  0.0000E+00  0.0000E+00  0.1200E+03  0.1200E+03
    -30.670  0.0000E+00  0.0000E+00  0.1200E+03  0.1200E+03
    -30.431  0.0000E+00  0.0000E+00  0.1200E+03  0.1200E+03
    -30.193  0.0000E+00  0.0000E+00  0.1200E+03  0.1200E+03
    -29.955  0.0000E+00  0.0000E+00  0.1200E+03  0.1200E+03
    -29.717  0.0000E+00  0.0000E+00  0.1200E+03  0.1200E+03
    -29.479  0.0000E+00  0.0000E+00  0.1200E+03  0.1200E+03
    -29.240  0.0000E+00  0.0000E+00  0.1200E+03  0.1200E+03
    -29.002  0.0000E+00  0.0000E+00  0.1200E+03  0.1200E+03
    -28.764  0.0000E+00  0.0000E+00  0.1200E+03  0.1200E+03
    -28.526  0.0000E+00  0.0000E+00  0.1200E+03  0.1200E+03
    -28.287  0.0000E+00  0.0000E+00  0.1200E+03  0.1200E+03
    -28.049  0.0000E+00  0.0000E+00  0.1200E+03  0.1200E+03
    -27.811  0.0000E+00  0.0000E+00  0.1200E+03  0.1200E+03
    -27.573  0.0000E+00  0.0000E+00  0.1200E+03  0.1200E+03
    -27.334  0.0000E+00  0.0000E+00  0.1200E+03  0.1200E+03
    -27.096  0.0000E+00  0.0000E+00  0.1200E+03  0.1200E+03
    -26.858  0.0000E+00  0.0000E+00  0.1200E+03  0.1200E+03
    -26.620  0.0000E+00  0.0000E+00  0.1200E+03  0.1200E+03
    -26.381  0.0000E+00  0.0000E+00  0.1200E+03  0.1200E+03
    -26.143  0.0000E+00  0.0000E+00  0.1200E+03  0.1200E+03
    -25.905  0.0000E+00  0.0000E+00  0.1200E+03  0.1200E+03
    -25.667  0.0000E+00  0.0000E+00  0.1200E+03  0.1200E+03
    -25.428  0.0000E+00  0.0000E+00  0.1200E+03  0.1200E+03
    -25.190  0.0000E+00  0.0000E+00  0.1200E+03  0.1200E+03
    -24.952  0.0000E+00  0.0000E+00  0.1200E+03  0.1200E+03
    -24.714  0.0000E+00  0.0000E+00  0.1200E+03  0.1200E+03
    -24.475  0.0000E+00  0.0000E+00  0.1200E+03  0.1200E+03
    -24.237  0.0000E+00  0.0000E+00  0.1200E+03  0.1200E+03
    -23.999  0.0000E+00  0.0000E+00  0.1200E+03  0.1200E+03
    -23.761  0.0000E+00  0.0000E+00  0.1200E+03  0.1200E+03
    -23.522  0.0000E+00  0.0000E+00  0.1200E+03  0.1200E+03
    -23.284  0.0000E+00  0.0000E+00  0.1200E+03  0.1200E+03
    -23.046  0.0000E+00  0.0000E+00  0.1200E+03  0.1200E+03
    -22.808  0.0000E+00  0.0000E+00  0.1200E+03  0.1200E+03
    -22.569  0.0000E+00  0.0000E+00  0.1200E+03  0.1200E+03
    -22.331  0.0000E+00  0.0000E+00  0.1200E+03  0.1200E+03
    -22.093  0.0000E+00  0.0000E+00  0.1200E+03  0.1200E+03
    -21.855  0.0000E+00  0.0000E+00  0.1200E+03  0.1200E+03
    -21.616  0.0000E+00  0.0000E+00  0.1200E+03  0.1200E+03
    -21.378  0.0000E+00  0.0000E+00  0.1200E+03  0.1200E+03
    -21.140  0.0000E+00  0.0000E+00  0.1200E+03  0.1200E+03
    -20.902  0.0000E+00  0.0000E+00  0.1200E+03  0.1200E+03
    -20.664  0.0000E+00  0.0000E+00  0.1200E+03  0.1200E+03
    -20.425  0.0000E+00  0.0000E+00  0.1200E+03  0.1200E+03
    -20.187  0.0000E+00  0.0000E+00  0.1200E+03  0.1200E+03
    -19.949  0.0000E+00  0.0000E+00  0.1200E+03  0.1200E+03
    -19.711  0.0000E+00  0.0000E+00  0.1200E+03  0.1200E+03
    -19.472  0.0000E+00  0.0000E+00  0.1200E+03  0.1200E+03
    -19.234  0.0000E+00  0.0000E+00  0.1200E+03  0.1200E+03
    -18.996  0.0000E+00  0.0000E+00  0.1200E+03  0.1200E+03
    -18.758  0.0000E+00  0.0000E+00  0.1200E+03  0.1200E+03
    -18.519  0.0000E+00  0.0000E+00  0.1200E+03  0.1200E+03
    -18.281  0.0000E+00  0.0000E+00  0.1200E+03  0.1200E+03
    -18.043  0.0000E+00  0.0000E+00  0.1200E+03  0.1200E+03
    -17.805  0.0000E+00  0.0000E+00  0.1200E+03  0.1200E+03
    -17.566  0.0000E+00  0.0000E+00  0.1200E+03  0.1200E+03
    -17.328  0.0000E+00  0.0000E+00  0.1200E+03  0.1200E+03
    -17.090  0.0000E+00  0.0000E+00  0.1200E+03  0.1200E+03
    -16.852  0.0000E+00  0.0000E+00  0.1200E+03  0.1200E+03
    -16.613  0.0000E+00  0.0000E+00  0.1200E+03  0.1200E+03
    -16.375  0.0000E+00  0.0000E+00  0.1200E+03  0.1200E+03
    -16.137  0.0000E+00  0.0000E+00  0.1200E+03  0.1200E+03
    -15.899  0.0000E+00  0.0000E+00  0.1200E+03  0.1200E+03
    -15.660  0.0000E+00  0.0000E+00  0.1200E+03  0.1200E+03
    -15.422  0.0000E+00  0.0000E+00  0.1200E+03  0.1200E+03
    -15.184  0.0000E+00  0.0000E+00  0.1200E+03  0.1200E+03
    -14.946  0.0000E+00  0.0000E+00  0.1200E+03  0.1200E+03
    -14.707  0.0000E+00  0.0000E+00  0.1200E+03  0.1200E+03
    -14.469  0.0000E+00  0.0000E+00  0.1200E+03  0.1200E+03
    -14.231  0.0000E+00  0.0000E+00  0.1200E+03  0.1200E+03
    -13.993  0.0000E+00  0.0000E+00  0.1200E+03  0.1200E+03
    -13.754  0.3062E-08  0.0000E+00  0.1200E+03  0.1200E+03
    -13.516  0.1011E+02  0.7508E-15  0.1224E+03  0.1200E+03
    -13.278  0.6007E+02  0.4453E+00  0.1367E+03  0.1201E+03
    -13.040  0.3056E+02  0.6886E+02  0.1440E+03  0.1365E+03
    -12.801  0.1506E-03  0.3143E+02  0.1440E+03  0.1440E+03
    -12.563  0.0000E+00  0.1517E-04  0.1440E+03  0.1440E+03
    -12.325  0.0000E+00  0.0000E+00  0.1440E+03  0.1440E+03
    -12.087  0.0000E+00  0.0000E+00  0.1440E+03  0.1440E+03
    -11.849  0.0000E+00  0.0000E+00  0.1440E+03  0.1440E+03
    -11.610  0.0000E+00  0.0000E+00  0.1440E+03  0.1440E+03
    -11.372  0.0000E+00  0.0000E+00  0.1440E+03  0.1440E+03
    -11.134  0.0000E+00  0.0000E+00  0.1440E+03  0.1440E+03
    -10.896  0.0000E+00  0.0000E+00  0.1440E+03  0.1440E+03
    -10.657  0.0000E+00  0.0000E+00  0.1440E+03  0.1440E+03
    -10.419  0.0000E+00  0.0000E+00  0.1440E+03  0.1440E+03
    -10.181  0.0000E+00  0.0000E+00  0.1440E+03  0.1440E+03
     -9.943  0.0000E+00  0.0000E+00  0.1440E+03  0.1440E+03
     -9.704  0.0000E+00  0.0000E+00  0.1440E+03  0.1440E+03
     -9.466  0.0000E+00  0.0000E+00  0.1440E+03  0.1440E+03
     -9.228  0.0000E+00  0.0000E+00  0.1440E+03  0.1440E+03
     -8.990  0.0000E+00  0.0000E+00  0.1440E+03  0.1440E+03
     -8.751  0.0000E+00  0.0000E+00  0.1440E+03  0.1440E+03
     -8.513  0.0000E+00  0.0000E+00  0.1440E+03  0.1440E+03
     -8.275  0.0000E+00  0.0000E+00  0.1440E+03  0.1440E+03
     -8.037  0.0000E+00  0.0000E+00  0.1440E+03  0.1440E+03
     -7.798  0.1830E-01  0.9234E-15  0.1440E+03  0.1440E+03
     -7.560  0.1923E+02  0.1873E+00  0.1486E+03  0.1440E+03
     -7.322  0.4866E+02  0.2997E+02  0.1602E+03  0.1512E+03
     -7.084  0.3213E+02  0.4931E+02  0.1678E+03  0.1629E+03
     -6.845  0.7000E+00  0.2073E+02  0.1680E+03  0.1679E+03
     -6.607  0.0000E+00  0.5397E+00  0.1680E+03  0.1680E+03
     -6.369  0.0000E+00  0.0000E+00  0.1680E+03  0.1680E+03
     -6.131  0.0000E+00  0.0000E+00  0.1680E+03  0.1680E+03
     -5.892  0.0000E+00  0.0000E+00  0.1680E+03  0.1680E+03
     -5.654  0.0000E+00  0.0000E+00  0.1680E+03  0.1680E+03
     -5.416  0.0000E+00  0.0000E+00  0.1680E+03  0.1680E+03
     -5.178  0.0000E+00  0.0000E+00  0.1680E+03  0.1680E+03
     -4.939  0.0000E+00  0.0000E+00  0.1680E+03  0.1680E+03
     -4.701  0.0000E+00  0.0000E+00  0.1680E+03  0.1680E+03
     -4.463  0.0000E+00  0.0000E+00  0.1680E+03  0.1680E+03
     -4.225  0.0000E+00  0.0000E+00  0.1680E+03  0.1680E+03
     -3.987  0.0000E+00  0.0000E+00  0.1680E+03  0.1680E+03
     -3.748  0.0000E+00  0.0000E+00  0.1680E+03  0.1680E+03
     -3.510  0.0000E+00  0.0000E+00  0.1680E+03  0.1680E+03
     -3.272  0.0000E+00  0.0000E+00  0.1680E+03  0.1680E+03
     -3.034  0.0000E+00  0.0000E+00  0.1680E+03  0.1680E+03
     -2.795  0.0000E+00  0.0000E+00  0.1680E+03  0.1680E+03
     -2.557  0.0000E+00  0.0000E+00  0.1680E+03  0.1680E+03
     -2.319  0.0000E+00  0.0000E+00  0.1680E+03  0.1680E+03
     -2.081  0.5595E-05  0.0000E+00  0.1680E+03  0.1680E+03
     -1.842  0.9122E+01  0.0000E+00  0.1702E+03  0.1680E+03
     -1.604  0.5918E+02  0.0000E+00  0.1843E+03  0.1680E+03
     -1.366  0.4009E+02  0.0000E+00  0.1938E+03  0.1680E+03
     -1.128  0.3288E+02  0.0000E+00  0.2017E+03  0.1680E+03
     -0.889  0.5469E+02  0.7313E-08  0.2147E+03  0.1680E+03
     -0.651  0.5305E+02  0.2076E+01  0.2273E+03  0.1685E+03
     -0.413  0.6747E+02  0.1784E+02  0.2434E+03  0.1727E+03
     -0.175  0.5344E+02  0.3889E+02  0.2561E+03  0.1820E+03
      0.064  0.3465E+02  0.3447E+02  0.2644E+03  0.1902E+03
      0.302  0.5542E+02  0.2373E+02  0.2776E+03  0.1959E+03
      0.540  0.4725E+02  0.4870E+02  0.2888E+03  0.2075E+03
      0.778  0.3241E+02  0.4884E+02  0.2966E+03  0.2191E+03
      1.017  0.5008E+02  0.6852E+02  0.3085E+03  0.2354E+03
      1.255  0.4971E+02  0.2478E+02  0.3203E+03  0.2413E+03
      1.493  0.5404E+02  0.2355E+02  0.3332E+03  0.2469E+03
      1.731  0.6177E+02  0.3858E+02  0.3479E+03  0.2561E+03
      1.970  0.3344E+02  0.4586E+02  0.3559E+03  0.2671E+03
      2.208  0.2366E+02  0.2913E+02  0.3615E+03  0.2740E+03
      2.446  0.1411E+02  0.3567E+02  0.3649E+03  0.2825E+03
      2.684  0.3758E+02  0.2550E+02  0.3739E+03  0.2886E+03
      2.923  0.3874E+02  0.4569E+02  0.3831E+03  0.2995E+03
      3.161  0.3064E+02  0.4172E+02  0.3904E+03  0.3094E+03
      3.399  0.4403E+02  0.1390E+02  0.4009E+03  0.3127E+03
      3.637  0.5377E+02  0.3183E+02  0.4137E+03  0.3203E+03
      3.876  0.4675E+02  0.5648E+02  0.4248E+03  0.3338E+03
      4.114  0.2843E+02  0.9442E+01  0.4316E+03  0.3360E+03
      4.352  0.1695E+01  0.2179E-05  0.4320E+03  0.3360E+03
      4.590  0.0000E+00  0.0000E+00  0.4320E+03  0.3360E+03
      4.828  0.0000E+00  0.0000E+00  0.4320E+03  0.3360E+03
      5.067  0.0000E+00  0.0000E+00  0.4320E+03  0.3360E+03
      5.305  0.0000E+00  0.0000E+00  0.4320E+03  0.3360E+03
      5.543  0.0000E+00  0.0000E+00  0.4320E+03  0.3360E+03
      5.781  0.0000E+00  0.0000E+00  0.4320E+03  0.3360E+03
      6.020  0.0000E+00  0.6473E-02  0.4320E+03  0.3360E+03
      6.258  0.0000E+00  0.2018E+01  0.4320E+03  0.3365E+03
      6.496  0.0000E+00  0.1392E+02  0.4320E+03  0.3398E+03
      6.734  0.0000E+00  0.2701E+02  0.4320E+03  0.3462E+03
      6.973  0.0000E+00  0.2551E+02  0.4320E+03  0.3523E+03
      7.211  0.1984E-04  0.5884E+02  0.4320E+03  0.3663E+03
      7.449  0.1553E+00  0.7456E+02  0.4320E+03  0.3841E+03
      7.687  0.7785E+00  0.2920E+02  0.4322E+03  0.3910E+03
      7.926  0.1574E+01  0.4150E+02  0.4326E+03  0.4009E+03
      8.164  0.4830E+01  0.7891E+02  0.4337E+03  0.4197E+03
      8.402  0.7324E+01  0.4846E+02  0.4355E+03  0.4313E+03
      8.640  0.1572E+02  0.3448E+01  0.4392E+03  0.4321E+03
      8.879  0.2407E+02  0.1223E+01  0.4450E+03  0.4324E+03
      9.117  0.1992E+02  0.4533E+01  0.4497E+03  0.4335E+03
      9.355  0.1936E+02  0.1101E+02  0.4543E+03  0.4361E+03
      9.593  0.1977E+02  0.2138E+02  0.4590E+03  0.4412E+03
      9.832  0.2449E+02  0.2892E+02  0.4649E+03  0.4481E+03
     10.070  0.2192E+02  0.3014E+02  0.4701E+03  0.4553E+03
     10.308  0.1801E+02  0.2995E+02  0.4744E+03  0.4624E+03
     10.546  0.2481E+02  0.2575E+02  0.4803E+03  0.4685E+03
     10.785  0.1470E+02  0.2579E+02  0.4838E+03  0.4747E+03
     11.023  0.2804E+02  0.2398E+02  0.4905E+03  0.4804E+03
     11.261  0.4560E+02  0.1051E+02  0.5013E+03  0.4829E+03
     11.499  0.4853E+02  0.2602E+02  0.5129E+03  0.4891E+03
     11.738  0.3482E+02  0.3111E+02  0.5212E+03  0.4965E+03
     11.976  0.2041E+02  0.5618E+02  0.5261E+03  0.5099E+03
     12.214  0.2074E+02  0.4426E+02  0.5310E+03  0.5204E+03
     12.452  0.3057E+02  0.2665E+02  0.5383E+03  0.5268E+03
     12.691  0.3187E+02  0.2385E+02  0.5459E+03  0.5325E+03
     12.929  0.1813E+02  0.2734E+02  0.5502E+03  0.5390E+03
     13.167  0.7488E+01  0.3289E+02  0.5520E+03  0.5468E+03
     13.405  0.8386E-01  0.1779E+02  0.5520E+03  0.5510E+03
     13.643  0.0000E+00  0.3991E+01  0.5520E+03  0.5520E+03
     13.882  0.0000E+00  0.5096E-05  0.5520E+03  0.5520E+03
     14.120  0.0000E+00  0.0000E+00  0.5520E+03  0.5520E+03
     14.358  0.0000E+00  0.0000E+00  0.5520E+03  0.5520E+03
     14.596  0.0000E+00  0.0000E+00  0.5520E+03  0.5520E+03
     14.835  0.0000E+00  0.0000E+00  0.5520E+03  0.5520E+03
     15.073  0.0000E+00  0.0000E+00  0.5520E+03  0.5520E+03
     15.311  0.0000E+00  0.0000E+00  0.5520E+03  0.5520E+03
     15.549  0.0000E+00  0.0000E+00  0.5520E+03  0.5520E+03
     15.788  0.0000E+00  0.0000E+00  0.5520E+03  0.5520E+03
     16.026  0.0000E+00  0.0000E+00  0.5520E+03  0.5520E+03
     16.264  0.0000E+00  0.0000E+00  0.5520E+03  0.5520E+03
     16.502  0.0000E+00  0.0000E+00  0.5520E+03  0.5520E+03
     16.741  0.0000E+00  0.0000E+00  0.5520E+03  0.5520E+03
