<?xml version="1.0" encoding="ISO-8859-1"?>
<modeling>
 <generator>
  <i name="program" type="string">vasp </i>
  <i name="version" type="string">5.4.4.18Apr17-6-g9f103f2a35  </i>
  <i name="subversion" type="string">(build Oct 25 2017 14:42:18) complex            parallel </i>
  <i name="platform" type="string">LinuxIFC </i>
  <i name="date" type="string">2021 04 17 </i>
  <i name="time" type="string">23:28:05 </i>
 </generator>
 <incar>
  <i type="string" name="PREC">accurate</i>
  <i type="string" name="ALGO"> normal</i>
  <i type="logical" name="ADDGRID"> T  </i>
  <i type="int" name="ISPIN">     2</i>
  <i type="int" name="ICHARG">     1</i>
  <i type="int" name="NELM">   200</i>
  <i type="int" name="NELMIN">     8</i>
  <i name="EDIFF">      0.00000100</i>
  <i type="int" name="ISYM">     0</i>
  <i name="ENCUT">    650.00000000</i>
  <v name="MAGMOM">      0.60000000      0.60000000      0.60000000      0.60000000      0.60000000      0.60000000      0.60000000      0.60000000      0.60000000      0.60000000      0.60000000      0.60000000      0.60000000      0.60000000      0.60000000      0.60000000      0.60000000      0.60000000      0.60000000      0.60000000
      0.60000000      0.60000000      0.60000000      0.60000000      0.60000000      0.60000000      0.60000000      0.60000000      0.60000000      0.60000000      0.60000000      0.60000000      0.60000000      0.60000000      0.60000000      0.60000000      0.60000000      0.60000000      0.60000000      0.60000000
      0.60000000      0.60000000      0.60000000      0.60000000      0.60000000      0.60000000      0.60000000      0.60000000      5.00000000      5.00000000      5.00000000      5.00000000      5.00000000      5.00000000      5.00000000      5.00000000      5.00000000      5.00000000      5.00000000      5.00000000
      5.00000000      5.00000000      5.00000000      5.00000000      5.00000000      5.00000000      5.00000000      5.00000000      5.00000000      5.00000000      5.00000000      5.00000000      5.00000000      5.00000000      5.00000000      5.00000000      5.00000000      5.00000000      5.00000000      5.00000000
      5.00000000      5.00000000      5.00000000      5.00000000      0.60000000      0.60000000      0.60000000      0.60000000      0.60000000      0.60000000      0.60000000      0.60000000      0.60000000      0.60000000      0.60000000      0.60000000      0.60000000      0.60000000      0.60000000      0.60000000
      0.60000000      0.60000000      0.60000000      0.60000000      0.60000000      0.60000000      0.60000000      0.60000000      0.60000000      0.60000000      0.60000000      0.60000000      0.60000000      0.60000000      0.60000000      0.60000000      0.60000000      0.60000000      0.60000000      0.60000000
      0.60000000      0.60000000      0.60000000      0.60000000      0.60000000      0.60000000      0.60000000      0.60000000      0.60000000      0.60000000      0.60000000      0.60000000      0.60000000      0.60000000      0.60000000      0.60000000      0.60000000      0.60000000      0.60000000      0.60000000
      0.60000000      0.60000000      0.60000000      0.60000000</v>
  <i type="logical" name="LREAL"> F  </i>
  <i type="int" name="ISMEAR">     0</i>
  <i name="SIGMA">      0.05000000</i>
  <i type="int" name="NWRITE">     1</i>
  <i type="int" name="LMAXMIX">     4</i>
  <i type="logical" name="LWAVE"> F  </i>
  <i type="logical" name="LASPH"> T  </i>
  <v type="int" name="KPOINT_BSE">    -1     0     0     0</v>
  <i type="int" name="NELM">   200</i>
  <i type="string" name="GGA"> pe</i>
  <i type="logical" name="LDAU"> T  </i>
  <v type="int" name="LDAUTYPE">     2</v>
  <v type="int" name="LDAUL">    -1     2    -1    -1</v>
  <v name="LDAUU">      0.00000000      4.00000000      0.00000000      0.00000000</v>
  <v name="LDAUJ">      0.00000000      0.00000000      0.00000000      0.00000000</v>
  <i type="logical" name="LASPH"> T  </i>
 </incar>
 <structure name="primitive_cell" >
  <crystal>
   <varray name="basis" >
    <v>      15.21162830       0.00516956      -2.78361592 </v>
    <v>      -0.40798665      11.93565774      -2.20735884 </v>
    <v>      -0.06175567      -0.11168197      10.54442638 </v>
   </varray>
   <i name="volume">   1908.54869108 </i>
   <varray name="rec_basis" >
    <v>       0.06581343       0.00232549       0.00041008 </v>
    <v>       0.00013433       0.08395174       0.00088997 </v>
    <v>       0.01740216       0.01818827       0.09513139 </v>
   </varray>
  </crystal>
  <varray name="positions" >
   <v>       0.47527516       0.00074367       0.00446200 </v>
   <v>      -0.47527003       0.03239991       0.19439947 </v>
   <v>       0.47618324      -0.03189981      -0.19139884 </v>
   <v>       0.37500000       0.16666667       0.00000000 </v>
   <v>       0.37500000      -0.16666667       0.00000000 </v>
   <v>       0.40535584       0.03794021       0.22764128 </v>
   <v>      -0.35733875       0.02567762       0.15406572 </v>
   <v>       0.47796480       0.13582521      -0.18504874 </v>
   <v>       0.47796480      -0.19750812      -0.18504874 </v>
   <v>       0.34464416      -0.03794021      -0.22764128 </v>
   <v>      -0.39266125      -0.02567762      -0.15406572 </v>
   <v>      -0.47447416       0.19979622       0.19877732 </v>
   <v>      -0.47447416      -0.13353711       0.19877732 </v>
   <v>      -0.37500000       0.16666667       0.00000000 </v>
   <v>      -0.37500000      -0.16666667       0.00000000 </v>
   <v>       0.27472484      -0.00074367      -0.00446200 </v>
   <v>       0.27381676       0.03189981       0.19139884 </v>
   <v>      -0.42788806       0.06536154       0.39216926 </v>
   <v>       0.22527003      -0.03239991      -0.19439947 </v>
   <v>       0.47527516      -0.33258966       0.00446200 </v>
   <v>       0.47527516       0.33407700       0.00446200 </v>
   <v>       0.46517249      -0.06641917      -0.39851502 </v>
   <v>       0.27203520       0.19750812       0.18504874 </v>
   <v>       0.27203520      -0.13582521       0.18504874 </v>
   <v>      -0.47527003       0.36573324       0.19439947 </v>
   <v>      -0.47527003      -0.30093342       0.19439947 </v>
   <v>       0.41542107       0.22793643       0.36761855 </v>
   <v>       0.41542107      -0.10539691       0.36761855 </v>
   <v>       0.22447416       0.13353711      -0.19877732 </v>
   <v>       0.22447416      -0.19979622      -0.19877732 </v>
   <v>       0.33457893       0.10539691      -0.36761855 </v>
   <v>       0.33457893      -0.22793643      -0.36761855 </v>
   <v>       0.47618324       0.30143353      -0.19139884 </v>
   <v>       0.47618324      -0.36523314      -0.19139884 </v>
   <v>      -0.22527516      -0.00074367      -0.00446200 </v>
   <v>      -0.22618324       0.03189981       0.19139884 </v>
   <v>      -0.27472997      -0.03239991      -0.19439947 </v>
   <v>      -0.32385262       0.22809805       0.36858830 </v>
   <v>      -0.32385262      -0.10523528       0.36858830 </v>
   <v>      -0.42614738       0.10523528      -0.36858830 </v>
   <v>      -0.42614738      -0.22809805      -0.36858830 </v>
   <v>       0.40535584       0.37127355       0.22764128 </v>
   <v>       0.40535584      -0.29539312       0.22764128 </v>
   <v>      -0.35733875       0.35901095       0.15406572 </v>
   <v>      -0.35733875      -0.30765571       0.15406572 </v>
   <v>       0.34464416       0.29539312      -0.22764128 </v>
   <v>       0.34464416      -0.37127355      -0.22764128 </v>
   <v>      -0.39266125       0.30765571      -0.15406572 </v>
   <v>      -0.39266125      -0.35901095      -0.15406572 </v>
   <v>      -0.22796480       0.19750812       0.18504874 </v>
   <v>      -0.22796480      -0.13582521       0.18504874 </v>
   <v>       0.27472484       0.33258966      -0.00446200 </v>
   <v>       0.27472484      -0.33407700      -0.00446200 </v>
   <v>      -0.27552584       0.13353711      -0.19877732 </v>
   <v>      -0.27552584      -0.19979622      -0.19877732 </v>
   <v>       0.28482751       0.06641917       0.39851502 </v>
   <v>       0.17788806      -0.06536154      -0.39216926 </v>
   <v>       0.10733875      -0.02567762      -0.15406572 </v>
   <v>      -0.32211194      -0.06536154      -0.39216926 </v>
   <v>       0.14266125       0.02567762       0.15406572 </v>
   <v>       0.27381676       0.36523314       0.19139884 </v>
   <v>       0.27381676      -0.30143353       0.19139884 </v>
   <v>      -0.21517249       0.06641917       0.39851502 </v>
   <v>      -0.42788806       0.39869487       0.39216926 </v>
   <v>      -0.42788806      -0.26797179       0.39216926 </v>
   <v>       0.22527003       0.30093342      -0.19439947 </v>
   <v>       0.22527003      -0.36573324      -0.19439947 </v>
   <v>       0.12500000       0.16666667       0.00000000 </v>
   <v>       0.12500000      -0.16666667       0.00000000 </v>
   <v>       0.46517249       0.26691416      -0.39851502 </v>
   <v>       0.46517249      -0.39975250      -0.39851502 </v>
   <v>      -0.22527516       0.33258966      -0.00446200 </v>
   <v>      -0.22527516      -0.33407700      -0.00446200 </v>
   <v>      -0.22618324       0.36523314       0.19139884 </v>
   <v>      -0.22618324      -0.30143353       0.19139884 </v>
   <v>      -0.27472997       0.30093342      -0.19439947 </v>
   <v>      -0.27472997      -0.36573324      -0.19439947 </v>
   <v>       0.37500000      -0.50000000       0.00000000 </v>
   <v>       0.47796480       0.46915854      -0.18504874 </v>
   <v>      -0.47447416      -0.46687045       0.19877732 </v>
   <v>      -0.37500000      -0.50000000       0.00000000 </v>
   <v>      -0.12500000       0.16666667       0.00000000 </v>
   <v>      -0.12500000      -0.16666667       0.00000000 </v>
   <v>      -0.15535584      -0.03794021      -0.22764128 </v>
   <v>      -0.09464416       0.03794021       0.22764128 </v>
   <v>       0.28482751      -0.26691416       0.39851502 </v>
   <v>      -0.32211194       0.26797179      -0.39216926 </v>
   <v>       0.28482751       0.39975250       0.39851502 </v>
   <v>       0.17614738       0.22809805       0.36858830 </v>
   <v>       0.17614738      -0.10523528       0.36858830 </v>
   <v>       0.17788806       0.26797179      -0.39216926 </v>
   <v>       0.17788806      -0.39869487      -0.39216926 </v>
   <v>       0.10733875      -0.35901095      -0.15406572 </v>
   <v>      -0.32211194      -0.39869487      -0.39216926 </v>
   <v>       0.10669210       0.30765571      -0.15406572 </v>
   <v>       0.14266125       0.35901095       0.15406572 </v>
   <v>       0.14266125      -0.30765571       0.15406572 </v>
   <v>       0.07385262       0.10523528      -0.36858830 </v>
   <v>       0.07385262      -0.22809805      -0.36858830 </v>
   <v>      -0.21517249       0.39975250       0.39851502 </v>
   <v>      -0.21517249      -0.26691416       0.39851502 </v>
   <v>       0.27203520      -0.46915854       0.18504874 </v>
   <v>       0.41542107      -0.43873024       0.36761855 </v>
   <v>       0.22447416       0.46687045      -0.19877732 </v>
   <v>       0.33457893       0.43873024      -0.36761855 </v>
   <v>      -0.08457893       0.22793643       0.36761855 </v>
   <v>      -0.08457893      -0.10539691       0.36761855 </v>
   <v>      -0.32385262      -0.43856862       0.36858830 </v>
   <v>      -0.42614738       0.43856862      -0.36858830 </v>
   <v>       0.02472997       0.03239991       0.19439947 </v>
   <v>      -0.02381676      -0.03189981      -0.19139884 </v>
   <v>      -0.16542107       0.10539691      -0.36761855 </v>
   <v>      -0.16542107      -0.22793643      -0.36761855 </v>
   <v>      -0.22796480      -0.46915854       0.18504874 </v>
   <v>      -0.27552584       0.46687045      -0.19877732 </v>
   <v>      -0.02472484       0.00074367       0.00446200 </v>
   <v>      -0.15535584       0.29539312      -0.22764128 </v>
   <v>      -0.15535584      -0.37127355      -0.22764128 </v>
   <v>      -0.09464416       0.37127355       0.22764128 </v>
   <v>      -0.09464416      -0.29539312       0.22764128 </v>
   <v>      -0.02203520       0.13582521      -0.18504874 </v>
   <v>      -0.02203520      -0.19750812      -0.18504874 </v>
   <v>       0.02552584       0.19979622       0.19877732 </v>
   <v>       0.02552584      -0.13353711       0.19877732 </v>
   <v>       0.07211194       0.06536154       0.39216926 </v>
   <v>       0.12500000      -0.50000000       0.00000000 </v>
   <v>      -0.03482751      -0.06641917      -0.39851502 </v>
   <v>       0.07211194      -0.26797179       0.39216926 </v>
   <v>       0.17614738      -0.43856862       0.36858830 </v>
   <v>       0.02472997       0.36573324       0.19439947 </v>
   <v>       0.02472997      -0.30093342       0.19439947 </v>
   <v>      -0.02381676       0.30143353      -0.19139884 </v>
   <v>      -0.02381676      -0.36523314      -0.19139884 </v>
   <v>      -0.12500000      -0.50000000       0.00000000 </v>
   <v>      -0.16542107       0.43873024      -0.36761855 </v>
   <v>      -0.02472484      -0.33258966       0.00446200 </v>
   <v>      -0.02472484       0.33407700       0.00446200 </v>
   <v>       0.07211194       0.39869487       0.39216926 </v>
   <v>       0.07385262       0.43856862      -0.36858830 </v>
   <v>      -0.03482751       0.26691416      -0.39851502 </v>
   <v>      -0.03482751      -0.39975250      -0.39851502 </v>
   <v>      -0.08457893      -0.43873024       0.36761855 </v>
   <v>      -0.02203520       0.46915854      -0.18504874 </v>
   <v>       0.02552584      -0.46687045       0.19877732 </v>
  </varray>
 </structure>
 <varray name="primitive_index" >
  <v type="int" >        1 </v>
  <v type="int" >      134 </v>
  <v type="int" >      131 </v>
  <v type="int" >       91 </v>
  <v type="int" >       95 </v>
  <v type="int" >       43 </v>
  <v type="int" >       38 </v>
  <v type="int" >       67 </v>
  <v type="int" >       71 </v>
  <v type="int" >       35 </v>
  <v type="int" >       30 </v>
  <v type="int" >       74 </v>
  <v type="int" >       78 </v>
  <v type="int" >       86 </v>
  <v type="int" >       90 </v>
  <v type="int" >       11 </v>
  <v type="int" >      139 </v>
  <v type="int" >       20 </v>
  <v type="int" >      125 </v>
  <v type="int" >        5 </v>
  <v type="int" >        3 </v>
  <v type="int" >       53 </v>
  <v type="int" >       79 </v>
  <v type="int" >       83 </v>
  <v type="int" >      136 </v>
  <v type="int" >      138 </v>
  <v type="int" >      103 </v>
  <v type="int" >      107 </v>
  <v type="int" >       61 </v>
  <v type="int" >       65 </v>
  <v type="int" >      115 </v>
  <v type="int" >      119 </v>
  <v type="int" >      127 </v>
  <v type="int" >      129 </v>
  <v type="int" >       12 </v>
  <v type="int" >      140 </v>
  <v type="int" >      126 </v>
  <v type="int" >       98 </v>
  <v type="int" >      102 </v>
  <v type="int" >      110 </v>
  <v type="int" >      114 </v>
  <v type="int" >       45 </v>
  <v type="int" >       47 </v>
  <v type="int" >       40 </v>
  <v type="int" >       42 </v>
  <v type="int" >       31 </v>
  <v type="int" >       33 </v>
  <v type="int" >       26 </v>
  <v type="int" >       28 </v>
  <v type="int" >       80 </v>
  <v type="int" >       84 </v>
  <v type="int" >        7 </v>
  <v type="int" >        9 </v>
  <v type="int" >       62 </v>
  <v type="int" >       66 </v>
  <v type="int" >       55 </v>
  <v type="int" >       17 </v>
  <v type="int" >       29 </v>
  <v type="int" >       18 </v>
  <v type="int" >       37 </v>
  <v type="int" >      141 </v>
  <v type="int" >      143 </v>
  <v type="int" >       56 </v>
  <v type="int" >       22 </v>
  <v type="int" >       24 </v>
  <v type="int" >      121 </v>
  <v type="int" >      123 </v>
  <v type="int" >       85 </v>
  <v type="int" >       89 </v>
  <v type="int" >       49 </v>
  <v type="int" >       51 </v>
  <v type="int" >        8 </v>
  <v type="int" >       10 </v>
  <v type="int" >      142 </v>
  <v type="int" >      144 </v>
  <v type="int" >      122 </v>
  <v type="int" >      124 </v>
  <v type="int" >       93 </v>
  <v type="int" >       69 </v>
  <v type="int" >       76 </v>
  <v type="int" >       88 </v>
  <v type="int" >       92 </v>
  <v type="int" >       96 </v>
  <v type="int" >       36 </v>
  <v type="int" >       44 </v>
  <v type="int" >       59 </v>
  <v type="int" >       14 </v>
  <v type="int" >       57 </v>
  <v type="int" >       97 </v>
  <v type="int" >      101 </v>
  <v type="int" >       13 </v>
  <v type="int" >       15 </v>
  <v type="int" >       27 </v>
  <v type="int" >       16 </v>
  <v type="int" >       25 </v>
  <v type="int" >       39 </v>
  <v type="int" >       41 </v>
  <v type="int" >      109 </v>
  <v type="int" >      113 </v>
  <v type="int" >       58 </v>
  <v type="int" >       60 </v>
  <v type="int" >       81 </v>
  <v type="int" >      105 </v>
  <v type="int" >       63 </v>
  <v type="int" >      117 </v>
  <v type="int" >      104 </v>
  <v type="int" >      108 </v>
  <v type="int" >      100 </v>
  <v type="int" >      112 </v>
  <v type="int" >      133 </v>
  <v type="int" >      132 </v>
  <v type="int" >      116 </v>
  <v type="int" >      120 </v>
  <v type="int" >       82 </v>
  <v type="int" >       64 </v>
  <v type="int" >        2 </v>
  <v type="int" >       32 </v>
  <v type="int" >       34 </v>
  <v type="int" >       46 </v>
  <v type="int" >       48 </v>
  <v type="int" >       68 </v>
  <v type="int" >       72 </v>
  <v type="int" >       73 </v>
  <v type="int" >       77 </v>
  <v type="int" >       19 </v>
  <v type="int" >       87 </v>
  <v type="int" >       54 </v>
  <v type="int" >       23 </v>
  <v type="int" >       99 </v>
  <v type="int" >      135 </v>
  <v type="int" >      137 </v>
  <v type="int" >      128 </v>
  <v type="int" >      130 </v>
  <v type="int" >       94 </v>
  <v type="int" >      118 </v>
  <v type="int" >        6 </v>
  <v type="int" >        4 </v>
  <v type="int" >       21 </v>
  <v type="int" >      111 </v>
  <v type="int" >       50 </v>
  <v type="int" >       52 </v>
  <v type="int" >      106 </v>
  <v type="int" >       70 </v>
  <v type="int" >       75 </v>
 </varray>
 <kpoints>
  <generation param="Gamma">
   <v type="int" name="divisions">       2        3        3 </v>
   <v name="usershift">      0.00000000       0.00000000       0.00000000 </v>
   <v name="genvec1">      0.50000000       0.00000000      -0.00000000 </v>
   <v name="genvec2">      0.00000000       0.33333333       0.00000000 </v>
   <v name="genvec3">      0.00000000       0.00000000       0.33333333 </v>
   <v name="shift">      0.00000000       0.00000000       0.00000000 </v>
  </generation>
  <varray name="kpointlist" >
   <v>       0.00000000       0.00000000       0.00000000 </v>
   <v>       0.50000000      -0.00000000       0.00000000 </v>
   <v>      -0.00000000       0.33333333      -0.00000000 </v>
   <v>       0.50000000       0.33333333      -0.00000000 </v>
   <v>      -0.00000000       0.00000000       0.33333333 </v>
   <v>       0.50000000       0.00000000       0.33333333 </v>
   <v>      -0.00000000       0.33333333       0.33333333 </v>
   <v>       0.50000000       0.33333333       0.33333333 </v>
   <v>      -0.00000000      -0.33333333       0.33333333 </v>
   <v>       0.50000000      -0.33333333       0.33333333 </v>
  </varray>
  <varray name="weights" >
   <v>       0.05555556 </v>
   <v>       0.05555556 </v>
   <v>       0.11111111 </v>
   <v>       0.11111111 </v>
   <v>       0.11111111 </v>
   <v>       0.11111111 </v>
   <v>       0.11111111 </v>
   <v>       0.11111111 </v>
   <v>       0.11111111 </v>
   <v>       0.11111111 </v>
  </varray>
 </kpoints>
 <parameters>
  <separator name="general" >
   <i type="string" name="SYSTEM">unknown system</i>
   <i type="logical" name="LCOMPAT"> F  </i>
  </separator>
  <separator name="electronic" >
   <i type="string" name="PREC">accura</i>
   <i name="ENMAX">    650.00000000</i>
   <i name="ENAUG">    628.94500000</i>
   <i name="EDIFF">      0.00000100</i>
   <i type="int" name="IALGO">    38</i>
   <i type="int" name="IWAVPR">    10</i>
   <i type="int" name="NBANDS">   728</i>
   <i name="NELECT">   1008.00000000</i>
   <i type="int" name="TURBO">     0</i>
   <i type="int" name="IRESTART">     0</i>
   <i type="int" name="NREBOOT">     0</i>
   <i type="int" name="NMIN">     0</i>
   <i name="EREF">      0.00000000</i>
   <separator name="electronic smearing" >
    <i type="int" name="ISMEAR">     0</i>
    <i name="SIGMA">      0.05000000</i>
    <i name="KSPACING">      0.50000000</i>
    <i type="logical" name="KGAMMA"> T  </i>
   </separator>
   <separator name="electronic projectors" >
    <i type="logical" name="LREAL"> F  </i>
    <v name="ROPT">      0.00000000      0.00000000      0.00000000      0.00000000</v>
    <i type="int" name="LMAXPAW">  -100</i>
    <i type="int" name="LMAXMIX">     4</i>
    <i type="logical" name="NLSPLINE"> F  </i>
   </separator>
   <separator name="electronic startup" >
    <i type="int" name="ISTART">     0</i>
    <i type="int" name="ICHARG">     1</i>
    <i type="int" name="INIWAV">     1</i>
   </separator>
   <separator name="electronic spin" >
    <i type="int" name="ISPIN">     2</i>
    <i type="logical" name="LNONCOLLINEAR"> F  </i>
    <v name="MAGMOM">      0.60000000      0.60000000      0.60000000      0.60000000      0.60000000      0.60000000      0.60000000      0.60000000      0.60000000      0.60000000      0.60000000      0.60000000      0.60000000      0.60000000      0.60000000      0.60000000      0.60000000      0.60000000      0.60000000      0.60000000
      0.60000000      0.60000000      0.60000000      0.60000000      0.60000000      0.60000000      0.60000000      0.60000000      0.60000000      0.60000000      0.60000000      0.60000000      0.60000000      0.60000000      0.60000000      0.60000000      0.60000000      0.60000000      0.60000000      0.60000000
      0.60000000      0.60000000      0.60000000      0.60000000      0.60000000      0.60000000      0.60000000      0.60000000      5.00000000      5.00000000      5.00000000      5.00000000      5.00000000      5.00000000      5.00000000      5.00000000      5.00000000      5.00000000      5.00000000      5.00000000
      5.00000000      5.00000000      5.00000000      5.00000000      5.00000000      5.00000000      5.00000000      5.00000000      5.00000000      5.00000000      5.00000000      5.00000000      5.00000000      5.00000000      5.00000000      5.00000000      5.00000000      5.00000000      5.00000000      5.00000000
      5.00000000      5.00000000      5.00000000      5.00000000      0.60000000      0.60000000      0.60000000      0.60000000      0.60000000      0.60000000      0.60000000      0.60000000      0.60000000      0.60000000      0.60000000      0.60000000      0.60000000      0.60000000      0.60000000      0.60000000
      0.60000000      0.60000000      0.60000000      0.60000000      0.60000000      0.60000000      0.60000000      0.60000000      0.60000000      0.60000000      0.60000000      0.60000000      0.60000000      0.60000000      0.60000000      0.60000000      0.60000000      0.60000000      0.60000000      0.60000000
      0.60000000      0.60000000      0.60000000      0.60000000      0.60000000      0.60000000      0.60000000      0.60000000      0.60000000      0.60000000      0.60000000      0.60000000      0.60000000      0.60000000      0.60000000      0.60000000      0.60000000      0.60000000      0.60000000      0.60000000
      0.60000000      0.60000000      0.60000000      0.60000000</v>
    <i name="NUPDOWN">     -1.00000000</i>
    <i type="logical" name="LSORBIT"> F  </i>
    <v name="SAXIS">      0.00000000      0.00000000      1.00000000</v>
    <i type="logical" name="LSPIRAL"> F  </i>
    <v name="QSPIRAL">      0.00000000      0.00000000      0.00000000</v>
    <i type="logical" name="LZEROZ"> F  </i>
   </separator>
   <separator name="electronic exchange-correlation" >
    <i type="logical" name="LASPH"> T  </i>
    <i type="logical" name="LMETAGGA"> F  </i>
   </separator>
   <separator name="electronic convergence" >
    <i type="int" name="NELM">   200</i>
    <i type="int" name="NELMDL">     0</i>
    <i type="int" name="NELMIN">     8</i>
    <i name="ENINI">    650.00000000</i>
    <separator name="electronic convergence detail" >
     <i type="logical" name="LDIAG"> T  </i>
     <i type="logical" name="LSUBROT"> F  </i>
     <i name="WEIMIN">      0.00000000</i>
     <i name="EBREAK">      0.00000000</i>
     <i name="DEPER">      0.30000000</i>
     <i type="int" name="NRMM">     4</i>
     <i name="TIME">      0.40000000</i>
    </separator>
   </separator>
   <separator name="electronic mixer" >
    <i name="AMIX">      0.40000000</i>
    <i name="BMIX">      1.00000000</i>
    <i name="AMIN">      0.10000000</i>
    <i name="AMIX_MAG">      1.60000000</i>
    <i name="BMIX_MAG">      1.00000000</i>
    <separator name="electronic mixer details" >
     <i type="int" name="IMIX">     4</i>
     <i type="logical" name="MIXFIRST"> F  </i>
     <i type="int" name="MAXMIX">   -45</i>
     <i name="WC">    100.00000000</i>
     <i type="int" name="INIMIX">     1</i>
     <i type="int" name="MIXPRE">     1</i>
     <i type="int" name="MREMOVE">     5</i>
    </separator>
   </separator>
   <separator name="electronic dipolcorrection" >
    <i type="logical" name="LDIPOL"> F  </i>
    <i type="logical" name="LMONO"> F  </i>
    <i type="int" name="IDIPOL">     0</i>
    <i name="EPSILON">      1.00000000</i>
    <v name="DIPOL">   -100.00000000   -100.00000000   -100.00000000</v>
    <i name="EFIELD">      0.00000000</i>
   </separator>
  </separator>
  <separator name="grids" >
   <i type="int" name="NGX">   140</i>
   <i type="int" name="NGY">   108</i>
   <i type="int" name="NGZ">    90</i>
   <i type="int" name="NGXF">   280</i>
   <i type="int" name="NGYF">   216</i>
   <i type="int" name="NGZF">   180</i>
   <i type="logical" name="ADDGRID"> T  </i>
  </separator>
  <separator name="ionic" >
   <i type="int" name="NSW">     0</i>
   <i type="int" name="IBRION">    -1</i>
   <i type="int" name="MDALGO">     0</i>
   <i type="int" name="ISIF">     2</i>
   <i name="PSTRESS">      0.00000000</i>
   <i name="EDIFFG">      0.00001000</i>
   <i type="int" name="NFREE">     0</i>
   <i name="POTIM">      0.50000000</i>
   <i name="SMASS">     -3.00000000</i>
   <i name="SCALEE">      1.00000000</i>
  </separator>
  <separator name="ionic md" >
   <i name="TEBEG">      0.00010000</i>
   <i name="TEEND">      0.00010000</i>
   <i type="int" name="NBLOCK">     1</i>
   <i type="int" name="KBLOCK">     1</i>
   <i type="int" name="NPACO">   256</i>
   <i name="APACO">     16.00000000</i>
  </separator>
  <separator name="symmetry" >
   <i type="int" name="ISYM">     0</i>
   <i name="SYMPREC">      0.00001000</i>
  </separator>
  <separator name="dos" >
   <i type="int" name="LORBIT">     0</i>
   <v name="RWIGS">     -1.00000000     -1.00000000     -1.00000000     -1.00000000</v>
   <i type="int" name="NEDOS">   301</i>
   <i name="EMIN">     10.00000000</i>
   <i name="EMAX">    -10.00000000</i>
   <i name="EFERMI">      0.00000000</i>
  </separator>
  <separator name="writing" >
   <i type="int" name="NWRITE">     1</i>
   <i type="logical" name="LWAVE"> F  </i>
   <i type="logical" name="LDOWNSAMPLE"> F  </i>
   <i type="logical" name="LCHARG"> T  </i>
   <i type="logical" name="LPARD"> F  </i>
   <i type="logical" name="LVTOT"> F  </i>
   <i type="logical" name="LVHAR"> F  </i>
   <i type="logical" name="LELF"> F  </i>
   <i type="logical" name="LOPTICS"> F  </i>
   <v name="STM">      0.00000000      0.00000000      0.00000000      0.00000000      0.00000000      0.00000000      0.00000000</v>
  </separator>
  <separator name="performance" >
   <i type="int" name="NPAR">     4</i>
   <i type="int" name="NSIM">     4</i>
   <i type="int" name="NBLK">    -1</i>
   <i type="logical" name="LPLANE"> T  </i>
   <i type="logical" name="LSCALAPACK"> T  </i>
   <i type="logical" name="LSCAAWARE"> F  </i>
   <i type="logical" name="LSCALU"> F  </i>
   <i type="logical" name="LASYNC"> F  </i>
   <i type="logical" name="LORBITALREAL"> F  </i>
  </separator>
  <separator name="miscellaneous" >
   <i type="int" name="IDIOT">     3</i>
   <i type="int" name="ISPECIAL">     0</i>
   <i type="logical" name="LMUSIC"> F  </i>
   <v name="POMASS">      7.01000000     55.84700000     32.06600000     16.00000000</v>
   <v name="DARWINR">      0.00000000      0.00000000      0.00000000      0.00000000</v>
   <v name="DARWINV">      1.00000000      1.00000000      1.00000000      1.00000000</v>
   <i type="logical" name="LCORR"> T  </i>
  </separator>
  <i type="logical" name="GGA_COMPAT"> T  </i>
  <i type="logical" name="LBERRY"> F  </i>
  <i type="int" name="ICORELEVEL">     0</i>
  <i type="logical" name="LDAU"> T  </i>
  <v type="int" name="LDAUTYPE">     2</v>
  <v type="int" name="LDAUL">    -1</v>
  <v name="LDAUU">      0.00000000</v>
  <v name="LDAUJ">      0.00000000</v>
  <i type="int" name="LDAUPRINT">     0</i>
  <i type="int" name="I_CONSTRAINED_M">     0</i>
  <separator name="electronic exchange-correlation" >
   <i type="string" name="GGA">PE</i>
   <i type="int" name="VOSKOWN">     0</i>
   <i type="logical" name="LHFCALC"> F  </i>
   <i type="string" name="PRECFOCK"></i>
   <i type="logical" name="LSYMGRAD"> F  </i>
   <i type="logical" name="LHFONE"> F  </i>
   <i type="logical" name="LRHFCALC"> F  </i>
   <i type="logical" name="LTHOMAS"> F  </i>
   <i type="logical" name="LMODELHF"> F  </i>
   <i name="ENCUT4O">     -1.00000000</i>
   <i type="int" name="EXXOEP">     0</i>
   <i type="int" name="FOURORBIT">     0</i>
   <i name="AEXX">      0.00000000</i>
   <i name="HFALPHA">      0.00000000</i>
   <i name="MCALPHA">      0.00000000</i>
   <i name="ALDAX">      1.00000000</i>
   <i name="AGGAX">      1.00000000</i>
   <i name="ALDAC">      1.00000000</i>
   <i name="AGGAC">      1.00000000</i>
   <i type="int" name="NKREDX">     1</i>
   <i type="int" name="NKREDY">     1</i>
   <i type="int" name="NKREDZ">     1</i>
   <i type="logical" name="SHIFTRED"> F  </i>
   <i type="logical" name="ODDONLY"> F  </i>
   <i type="logical" name="EVENONLY"> F  </i>
   <i type="int" name="LMAXFOCK">     0</i>
   <i type="int" name="NMAXFOCKAE">     0</i>
   <i type="logical" name="LFOCKAEDFT"> F  </i>
   <i name="HFSCREEN">      0.00000000</i>
   <i name="HFSCREENC">      0.00000000</i>
   <i type="int" name="NBANDSGWLOW">     0</i>
  </separator>
  <separator name="vdW DFT" >
   <i type="logical" name="LUSE_VDW"> F  </i>
   <i name="Zab_VDW">     -0.84910000</i>
   <i name="PARAM1">      0.12340000</i>
   <i name="PARAM2">      1.00000000</i>
   <i name="PARAM3">      0.00000000</i>
  </separator>
  <separator name="model GW" >
   <i type="int" name="MODEL_GW">     0</i>
   <i name="MODEL_EPS0">      7.95228621</i>
   <i name="MODEL_ALPHA">      1.00000000</i>
  </separator>
  <separator name="linear response parameters" >
   <i type="logical" name="LEPSILON"> F  </i>
   <i type="logical" name="LRPA"> F  </i>
   <i type="logical" name="LNABLA"> F  </i>
   <i type="logical" name="LVEL"> F  </i>
   <i type="int" name="KINTER">     0</i>
   <i name="CSHIFT">      0.10000000</i>
   <i name="OMEGAMAX">     -1.00000000</i>
   <i name="DEG_THRESHOLD">      0.00200000</i>
   <i name="RTIME">     -0.10000000</i>
   <i name="WPLASMAI">      0.00000000</i>
   <v name="DFIELD">      0.00000000      0.00000000      0.00000000</v>
   <v name="WPLASMA">      0.00000000      0.00000000      0.00000000      0.00000000      0.00000000      0.00000000      0.00000000      0.00000000      0.00000000</v>
  </separator>
  <separator name="orbital magnetization" >
   <i type="logical" name="NUCIND"> F  </i>
   <v name="MAGPOS">      0.00000000      0.00000000      0.00000000</v>
   <i type="logical" name="LNICSALL"> T  </i>
   <i type="logical" name="ORBITALMAG"> F  </i>
   <i type="logical" name="LMAGBLOCH"> F  </i>
   <i type="logical" name="LCHIMAG"> F  </i>
   <i type="logical" name="LGAUGE"> T  </i>
   <i type="int" name="MAGATOM">     0</i>
   <v name="MAGDIPOL">      0.00000000      0.00000000      0.00000000</v>
   <v name="AVECCONST">      0.00000000      0.00000000      0.00000000</v>
  </separator>
  <separator name="response functions" >
   <i type="logical" name="LADDER"> F  </i>
   <i type="logical" name="LRPAFORCE"> F  </i>
   <i type="logical" name="LFXC"> F  </i>
   <i type="logical" name="LHARTREE"> T  </i>
   <i type="int" name="IBSE">     0</i>
   <v type="int" name="KPOINT">    -1     0     0     0</v>
   <i type="logical" name="LTCTE"> F  </i>
   <i type="logical" name="LTETE"> F  </i>
   <i type="logical" name="LTRIPLET"> F  </i>
   <i type="logical" name="LFXCEPS"> F  </i>
   <i type="logical" name="LFXHEG"> F  </i>
   <i type="int" name="NATURALO">     2</i>
   <i type="logical" name="L2ORDER"> F  </i>
   <i type="logical" name="LMP2LT"> F  </i>
   <i type="logical" name="LUSEW"> F  </i>
   <i name="ENCUTGW">     -2.00000000</i>
   <i name="ENCUTGWSOFT">     -2.00000000</i>
   <i name="ENCUTLF">     -1.00000000</i>
   <i type="int" name="LMAXMP2">    -1</i>
   <i name="SCISSOR">      0.00000000</i>
   <i type="int" name="NOMEGA">     0</i>
   <i type="int" name="NOMEGAR">     0</i>
   <i type="int" name="NBANDSGW">    -1</i>
   <i type="int" name="NBANDSO">    -1</i>
   <i type="int" name="NBANDSV">    -1</i>
   <i type="int" name="NELM">   200</i>
   <i type="int" name="NELMHF">     1</i>
   <i type="int" name="DIM">     3</i>
   <i type="int" name="ANTIRES">     0</i>
   <i name="OMEGAMAX">    -30.00000000</i>
   <i name="OMEGAMIN">    -30.00000000</i>
   <i name="OMEGATL">   -200.00000000</i>
   <i type="int" name="OMEGAGRID">   140</i>
   <i name="CSHIFT">     -0.10000000</i>
   <i type="logical" name="SELFENERGY"> F  </i>
   <i type="logical" name="LSPECTRAL"> F  </i>
   <i type="logical" name="LSPECTRALGW"> F  </i>
   <i type="logical" name="LSINGLES"> F  </i>
   <i type="logical" name="LFERMIGW"> F  </i>
   <i type="logical" name="ODDONLYGW"> F  </i>
   <i type="logical" name="EVENONLYGW"> F  </i>
   <i type="int" name="NKREDLFX">     1</i>
   <i type="int" name="NKREDLFY">     1</i>
   <i type="int" name="NKREDLFZ">     1</i>
   <i type="int" name="MAXMEM">  2800</i>
   <i type="int" name="TELESCOPE">     0</i>
   <i type="int" name="TAUPAR">     1</i>
   <i type="int" name="OMEGAPAR">    -1</i>
   <i name="LAMBDA">      1.00000000</i>
  </separator>
  <separator name="External order field" >
   <i name="OFIELD_KAPPA">      0.00000000</i>
   <v name="OFIELD_K">      0.00000000      0.00000000      0.00000000</v>
   <i name="OFIELD_Q6_NEAR">      0.00000000</i>
   <i name="OFIELD_Q6_FAR">      0.00000000</i>
   <i name="OFIELD_A">      0.00000000</i>
  </separator>
 </parameters>
 <atominfo>
  <atoms>     144 </atoms>
  <types>       4 </types>
  <array name="atoms" >
   <dimension dim="1">ion</dimension>
   <field type="string">element</field>
   <field type="int">atomtype</field>
   <set>
    <rc><c>Li</c><c>   1</c></rc>
    <rc><c>Li</c><c>   1</c></rc>
    <rc><c>Li</c><c>   1</c></rc>
    <rc><c>Li</c><c>   1</c></rc>
    <rc><c>Li</c><c>   1</c></rc>
    <rc><c>Li</c><c>   1</c></rc>
    <rc><c>Li</c><c>   1</c></rc>
    <rc><c>Li</c><c>   1</c></rc>
    <rc><c>Li</c><c>   1</c></rc>
    <rc><c>Li</c><c>   1</c></rc>
    <rc><c>Li</c><c>   1</c></rc>
    <rc><c>Li</c><c>   1</c></rc>
    <rc><c>Li</c><c>   1</c></rc>
    <rc><c>Li</c><c>   1</c></rc>
    <rc><c>Li</c><c>   1</c></rc>
    <rc><c>Li</c><c>   1</c></rc>
    <rc><c>Li</c><c>   1</c></rc>
    <rc><c>Li</c><c>   1</c></rc>
    <rc><c>Li</c><c>   1</c></rc>
    <rc><c>Li</c><c>   1</c></rc>
    <rc><c>Li</c><c>   1</c></rc>
    <rc><c>Li</c><c>   1</c></rc>
    <rc><c>Li</c><c>   1</c></rc>
    <rc><c>Li</c><c>   1</c></rc>
    <rc><c>Li</c><c>   1</c></rc>
    <rc><c>Li</c><c>   1</c></rc>
    <rc><c>Li</c><c>   1</c></rc>
    <rc><c>Li</c><c>   1</c></rc>
    <rc><c>Li</c><c>   1</c></rc>
    <rc><c>Li</c><c>   1</c></rc>
    <rc><c>Li</c><c>   1</c></rc>
    <rc><c>Li</c><c>   1</c></rc>
    <rc><c>Li</c><c>   1</c></rc>
    <rc><c>Li</c><c>   1</c></rc>
    <rc><c>Li</c><c>   1</c></rc>
    <rc><c>Li</c><c>   1</c></rc>
    <rc><c>Li</c><c>   1</c></rc>
    <rc><c>Li</c><c>   1</c></rc>
    <rc><c>Li</c><c>   1</c></rc>
    <rc><c>Li</c><c>   1</c></rc>
    <rc><c>Li</c><c>   1</c></rc>
    <rc><c>Li</c><c>   1</c></rc>
    <rc><c>Li</c><c>   1</c></rc>
    <rc><c>Li</c><c>   1</c></rc>
    <rc><c>Li</c><c>   1</c></rc>
    <rc><c>Li</c><c>   1</c></rc>
    <rc><c>Li</c><c>   1</c></rc>
    <rc><c>Li</c><c>   1</c></rc>
    <rc><c>Fe</c><c>   2</c></rc>
    <rc><c>Fe</c><c>   2</c></rc>
    <rc><c>Fe</c><c>   2</c></rc>
    <rc><c>Fe</c><c>   2</c></rc>
    <rc><c>Fe</c><c>   2</c></rc>
    <rc><c>Fe</c><c>   2</c></rc>
    <rc><c>Fe</c><c>   2</c></rc>
    <rc><c>Fe</c><c>   2</c></rc>
    <rc><c>Fe</c><c>   2</c></rc>
    <rc><c>Fe</c><c>   2</c></rc>
    <rc><c>Fe</c><c>   2</c></rc>
    <rc><c>Fe</c><c>   2</c></rc>
    <rc><c>Fe</c><c>   2</c></rc>
    <rc><c>Fe</c><c>   2</c></rc>
    <rc><c>Fe</c><c>   2</c></rc>
    <rc><c>Fe</c><c>   2</c></rc>
    <rc><c>Fe</c><c>   2</c></rc>
    <rc><c>Fe</c><c>   2</c></rc>
    <rc><c>Fe</c><c>   2</c></rc>
    <rc><c>Fe</c><c>   2</c></rc>
    <rc><c>Fe</c><c>   2</c></rc>
    <rc><c>Fe</c><c>   2</c></rc>
    <rc><c>Fe</c><c>   2</c></rc>
    <rc><c>Fe</c><c>   2</c></rc>
    <rc><c>Fe</c><c>   2</c></rc>
    <rc><c>Fe</c><c>   2</c></rc>
    <rc><c>Fe</c><c>   2</c></rc>
    <rc><c>Fe</c><c>   2</c></rc>
    <rc><c>Fe</c><c>   2</c></rc>
    <rc><c>Fe</c><c>   2</c></rc>
    <rc><c>Fe</c><c>   2</c></rc>
    <rc><c>Fe</c><c>   2</c></rc>
    <rc><c>Fe</c><c>   2</c></rc>
    <rc><c>Fe</c><c>   2</c></rc>
    <rc><c>Fe</c><c>   2</c></rc>
    <rc><c>Fe</c><c>   2</c></rc>
    <rc><c>S </c><c>   3</c></rc>
    <rc><c>S </c><c>   3</c></rc>
    <rc><c>S </c><c>   3</c></rc>
    <rc><c>S </c><c>   3</c></rc>
    <rc><c>S </c><c>   3</c></rc>
    <rc><c>S </c><c>   3</c></rc>
    <rc><c>S </c><c>   3</c></rc>
    <rc><c>S </c><c>   3</c></rc>
    <rc><c>S </c><c>   3</c></rc>
    <rc><c>S </c><c>   3</c></rc>
    <rc><c>S </c><c>   3</c></rc>
    <rc><c>S </c><c>   3</c></rc>
    <rc><c>S </c><c>   3</c></rc>
    <rc><c>S </c><c>   3</c></rc>
    <rc><c>S </c><c>   3</c></rc>
    <rc><c>S </c><c>   3</c></rc>
    <rc><c>S </c><c>   3</c></rc>
    <rc><c>S </c><c>   3</c></rc>
    <rc><c>S </c><c>   3</c></rc>
    <rc><c>S </c><c>   3</c></rc>
    <rc><c>S </c><c>   3</c></rc>
    <rc><c>S </c><c>   3</c></rc>
    <rc><c>S </c><c>   3</c></rc>
    <rc><c>S </c><c>   3</c></rc>
    <rc><c>S </c><c>   3</c></rc>
    <rc><c>S </c><c>   3</c></rc>
    <rc><c>S </c><c>   3</c></rc>
    <rc><c>S </c><c>   3</c></rc>
    <rc><c>S </c><c>   3</c></rc>
    <rc><c>S </c><c>   3</c></rc>
    <rc><c>S </c><c>   3</c></rc>
    <rc><c>S </c><c>   3</c></rc>
    <rc><c>S </c><c>   3</c></rc>
    <rc><c>S </c><c>   3</c></rc>
    <rc><c>S </c><c>   3</c></rc>
    <rc><c>S </c><c>   3</c></rc>
    <rc><c>O </c><c>   4</c></rc>
    <rc><c>O </c><c>   4</c></rc>
    <rc><c>O </c><c>   4</c></rc>
    <rc><c>O </c><c>   4</c></rc>
    <rc><c>O </c><c>   4</c></rc>
    <rc><c>O </c><c>   4</c></rc>
    <rc><c>O </c><c>   4</c></rc>
    <rc><c>O </c><c>   4</c></rc>
    <rc><c>O </c><c>   4</c></rc>
    <rc><c>O </c><c>   4</c></rc>
    <rc><c>O </c><c>   4</c></rc>
    <rc><c>O </c><c>   4</c></rc>
    <rc><c>O </c><c>   4</c></rc>
    <rc><c>O </c><c>   4</c></rc>
    <rc><c>O </c><c>   4</c></rc>
    <rc><c>O </c><c>   4</c></rc>
    <rc><c>O </c><c>   4</c></rc>
    <rc><c>O </c><c>   4</c></rc>
    <rc><c>O </c><c>   4</c></rc>
    <rc><c>O </c><c>   4</c></rc>
    <rc><c>O </c><c>   4</c></rc>
    <rc><c>O </c><c>   4</c></rc>
    <rc><c>O </c><c>   4</c></rc>
    <rc><c>O </c><c>   4</c></rc>
   </set>
  </array>
  <array name="atomtypes" >
   <dimension dim="1">type</dimension>
   <field type="int">atomspertype</field>
   <field type="string">element</field>
   <field>mass</field>
   <field>valence</field>
   <field type="string">pseudopotential</field>
   <set>
    <rc><c>  48</c><c>Li</c><c>      7.01000000</c><c>      3.00000000</c><c>  PAW_PBE Li_sv 10Sep2004               </c></rc>
    <rc><c>  36</c><c>Fe</c><c>     55.84700000</c><c>     14.00000000</c><c>  PAW_PBE Fe_pv 02Aug2007               </c></rc>
    <rc><c>  36</c><c>S </c><c>     32.06600000</c><c>      6.00000000</c><c>  PAW_PBE S 06Sep2000                   </c></rc>
    <rc><c>  24</c><c>O </c><c>     16.00000000</c><c>      6.00000000</c><c>  PAW_PBE O 08Apr2002                   </c></rc>
   </set>
  </array>
 </atominfo>
 <structure name="initialpos" >
  <crystal>
   <varray name="basis" >
    <v>      15.21162830       0.00516956      -2.78361592 </v>
    <v>      -0.40798665      11.93565774      -2.20735884 </v>
    <v>      -0.06175567      -0.11168197      10.54442638 </v>
   </varray>
   <i name="volume">   1908.54869108 </i>
   <varray name="rec_basis" >
    <v>       0.06581343       0.00232549       0.00041008 </v>
    <v>       0.00013433       0.08395174       0.00088997 </v>
    <v>       0.01740216       0.01818827       0.09513139 </v>
   </varray>
  </crystal>
  <varray name="positions" >
   <v>       0.47527516       0.00074367       0.00446200 </v>
   <v>       0.97527516       0.00074367       0.00446200 </v>
   <v>       0.47527516       0.33407700       0.00446200 </v>
   <v>       0.97527516       0.33407700       0.00446200 </v>
   <v>       0.47527516       0.66741034       0.00446200 </v>
   <v>       0.97527516       0.66741034       0.00446200 </v>
   <v>       0.27472484       0.33258966       0.99553800 </v>
   <v>       0.77472484       0.33258966       0.99553800 </v>
   <v>       0.27472484       0.66592300       0.99553800 </v>
   <v>       0.77472484       0.66592300       0.99553800 </v>
   <v>       0.27472484       0.99925633       0.99553800 </v>
   <v>       0.77472484       0.99925633       0.99553800 </v>
   <v>       0.17788805       0.26797179       0.60783074 </v>
   <v>       0.67788805       0.26797179       0.60783074 </v>
   <v>       0.17788805       0.60130513       0.60783074 </v>
   <v>       0.67788805       0.60130513       0.60783074 </v>
   <v>       0.17788805       0.93463846       0.60783074 </v>
   <v>       0.67788805       0.93463846       0.60783074 </v>
   <v>       0.07211195       0.06536154       0.39216926 </v>
   <v>       0.57211195       0.06536154       0.39216926 </v>
   <v>       0.07211195       0.39869487       0.39216926 </v>
   <v>       0.57211195       0.39869487       0.39216926 </v>
   <v>       0.07211195       0.73202821       0.39216926 </v>
   <v>       0.57211195       0.73202821       0.39216926 </v>
   <v>       0.10669210       0.30765571       0.84593428 </v>
   <v>       0.60733875       0.30765571       0.84593428 </v>
   <v>       0.10733875       0.64098905       0.84593428 </v>
   <v>       0.60733875       0.64098905       0.84593428 </v>
   <v>       0.10733875       0.97432238       0.84593428 </v>
   <v>       0.60733875       0.97432238       0.84593428 </v>
   <v>       0.34464416       0.29539312       0.77235872 </v>
   <v>       0.84464416       0.29539312       0.77235872 </v>
   <v>       0.34464416       0.62872645       0.77235872 </v>
   <v>       0.84464416       0.62872645       0.77235872 </v>
   <v>       0.34464416       0.96205979       0.77235872 </v>
   <v>       0.84464416       0.96205979       0.77235872 </v>
   <v>       0.14266125       0.02567762       0.15406572 </v>
   <v>       0.64266125       0.02567762       0.15406572 </v>
   <v>       0.14266125       0.35901095       0.15406572 </v>
   <v>       0.64266125       0.35901095       0.15406572 </v>
   <v>       0.14266125       0.69234429       0.15406572 </v>
   <v>       0.64266125       0.69234429       0.15406572 </v>
   <v>       0.40535584       0.03794021       0.22764128 </v>
   <v>       0.90535584       0.03794021       0.22764128 </v>
   <v>       0.40535584       0.37127355       0.22764128 </v>
   <v>       0.90535584       0.37127355       0.22764128 </v>
   <v>       0.40535584       0.70460688       0.22764128 </v>
   <v>       0.90535584       0.70460688       0.22764128 </v>
   <v>       0.46517249       0.26691416       0.60148498 </v>
   <v>       0.96517249       0.26691416       0.60148498 </v>
   <v>       0.46517249       0.60024750       0.60148498 </v>
   <v>       0.96517249       0.60024750       0.60148498 </v>
   <v>       0.46517249       0.93358083       0.60148498 </v>
   <v>       0.96517249       0.93358083       0.60148498 </v>
   <v>       0.28482751       0.06641917       0.39851502 </v>
   <v>       0.78482751       0.06641917       0.39851502 </v>
   <v>       0.28482751       0.39975250       0.39851502 </v>
   <v>       0.78482751       0.39975250       0.39851502 </v>
   <v>       0.28482751       0.73308584       0.39851502 </v>
   <v>       0.78482751       0.73308584       0.39851502 </v>
   <v>       0.22447416       0.13353711       0.80122268 </v>
   <v>       0.72447416       0.13353711       0.80122268 </v>
   <v>       0.22447416       0.46687045       0.80122268 </v>
   <v>       0.72447416       0.46687045       0.80122268 </v>
   <v>       0.22447416       0.80020378       0.80122268 </v>
   <v>       0.72447416       0.80020378       0.80122268 </v>
   <v>       0.47796479       0.13582521       0.81495126 </v>
   <v>       0.97796479       0.13582521       0.81495126 </v>
   <v>       0.47796479       0.46915854       0.81495126 </v>
   <v>       0.97796479       0.46915854       0.81495126 </v>
   <v>       0.47796479       0.80249188       0.81495126 </v>
   <v>       0.97796479       0.80249188       0.81495126 </v>
   <v>       0.02552584       0.19979622       0.19877732 </v>
   <v>       0.52552584       0.19979622       0.19877732 </v>
   <v>       0.02552584       0.53312955       0.19877732 </v>
   <v>       0.52552584       0.53312955       0.19877732 </v>
   <v>       0.02552584       0.86646289       0.19877732 </v>
   <v>       0.52552584       0.86646289       0.19877732 </v>
   <v>       0.27203521       0.19750812       0.18504874 </v>
   <v>       0.77203521       0.19750812       0.18504874 </v>
   <v>       0.27203521       0.53084146       0.18504874 </v>
   <v>       0.77203521       0.53084146       0.18504874 </v>
   <v>       0.27203521       0.86417479       0.18504874 </v>
   <v>       0.77203521       0.86417479       0.18504874 </v>
   <v>       0.12500000       0.16666667       0.00000000 </v>
   <v>       0.62500000       0.16666667       0.00000000 </v>
   <v>       0.12500000       0.50000000       0.00000000 </v>
   <v>       0.62500000       0.50000000       0.00000000 </v>
   <v>       0.12500000       0.83333333       0.00000000 </v>
   <v>       0.62500000       0.83333333       0.00000000 </v>
   <v>       0.37500000       0.16666667       0.00000000 </v>
   <v>       0.87500000       0.16666667       0.00000000 </v>
   <v>       0.37500000       0.50000000       0.00000000 </v>
   <v>       0.87500000       0.50000000       0.00000000 </v>
   <v>       0.37500000       0.83333333       0.00000000 </v>
   <v>       0.87500000       0.83333333       0.00000000 </v>
   <v>       0.17614737       0.22809805       0.36858830 </v>
   <v>       0.67614737       0.22809805       0.36858830 </v>
   <v>       0.17614737       0.56143138       0.36858830 </v>
   <v>       0.67614737       0.56143138       0.36858830 </v>
   <v>       0.17614737       0.89476472       0.36858830 </v>
   <v>       0.67614737       0.89476472       0.36858830 </v>
   <v>       0.41542106       0.22793643       0.36761855 </v>
   <v>       0.91542106       0.22793643       0.36761855 </v>
   <v>       0.41542106       0.56126976       0.36761855 </v>
   <v>       0.91542106       0.56126976       0.36761855 </v>
   <v>       0.41542106       0.89460309       0.36761855 </v>
   <v>       0.91542106       0.89460309       0.36761855 </v>
   <v>       0.07385263       0.10523528       0.63141170 </v>
   <v>       0.57385263       0.10523528       0.63141170 </v>
   <v>       0.07385263       0.43856862       0.63141170 </v>
   <v>       0.57385263       0.43856862       0.63141170 </v>
   <v>       0.07385263       0.77190195       0.63141170 </v>
   <v>       0.57385263       0.77190195       0.63141170 </v>
   <v>       0.33457894       0.10539691       0.63238145 </v>
   <v>       0.83457894       0.10539691       0.63238145 </v>
   <v>       0.33457894       0.43873024       0.63238145 </v>
   <v>       0.83457894       0.43873024       0.63238145 </v>
   <v>       0.33457894       0.77206357       0.63238145 </v>
   <v>       0.83457894       0.77206357       0.63238145 </v>
   <v>       0.22527003       0.30093342       0.80560053 </v>
   <v>       0.72527003       0.30093342       0.80560053 </v>
   <v>       0.22527003       0.63426676       0.80560053 </v>
   <v>       0.72527003       0.63426676       0.80560053 </v>
   <v>       0.22527003       0.96760009       0.80560053 </v>
   <v>       0.72527003       0.96760009       0.80560053 </v>
   <v>       0.47618324       0.30143353       0.80860116 </v>
   <v>       0.97618324       0.30143353       0.80860116 </v>
   <v>       0.47618324       0.63476686       0.80860116 </v>
   <v>       0.97618324       0.63476686       0.80860116 </v>
   <v>       0.47618324       0.96810019       0.80860116 </v>
   <v>       0.97618324       0.96810019       0.80860116 </v>
   <v>       0.02472997       0.03239991       0.19439947 </v>
   <v>       0.52472997       0.03239991       0.19439947 </v>
   <v>       0.02472997       0.36573324       0.19439947 </v>
   <v>       0.52472997       0.36573324       0.19439947 </v>
   <v>       0.02472997       0.69906658       0.19439947 </v>
   <v>       0.52472997       0.69906658       0.19439947 </v>
   <v>       0.27381676       0.03189981       0.19139884 </v>
   <v>       0.77381676       0.03189981       0.19139884 </v>
   <v>       0.27381676       0.36523314       0.19139884 </v>
   <v>       0.77381676       0.36523314       0.19139884 </v>
   <v>       0.27381676       0.69856647       0.19139884 </v>
   <v>       0.77381676       0.69856647       0.19139884 </v>
  </varray>
 </structure>
 <calculation>
  <scstep>
   <time name="dav">  337.43  344.97</time>
   <time name="total">  340.09  347.65</time>
   <energy>
    <i name="alphaZ">   2668.72143546 </i>
    <i name="ewald"> -68025.68344752 </i>
    <i name="hartreedc"> -39875.57852114 </i>
    <i name="XCdc">   4298.62129894 </i>
    <i name="pawpsdc"> 114383.84820647 </i>
    <i name="pawaedc">-118048.71515856 </i>
    <i name="eentropy">     -0.02968323 </i>
    <i name="bandstr">   -564.35184804 </i>
    <i name="atom"> 118542.86816856 </i>
    <i name="e_fr_energy">  13379.70045094 </i>
    <i name="e_wo_entrp">  13379.73013418 </i>
    <i name="e_0_energy">  13379.71529256 </i>
   </energy>
  </scstep>
  <scstep>
   <time name="dav">  327.37  334.78</time>
   <time name="total">  327.38  334.79</time>
   <energy>
    <i name="e_fr_energy">   1421.86632876 </i>
    <i name="e_wo_entrp">   1421.95100569 </i>
    <i name="e_0_energy">   1421.90866723 </i>
   </energy>
  </scstep>
  <scstep>
   <time name="dav">  353.34  361.26</time>
   <time name="total">  353.34  361.26</time>
   <energy>
    <i name="e_fr_energy">   -473.18284944 </i>
    <i name="e_wo_entrp">   -473.18284944 </i>
    <i name="e_0_energy">   -473.18284944 </i>
   </energy>
  </scstep>
  <scstep>
   <time name="dav">  395.51  403.66</time>
   <time name="total">  395.51  403.66</time>
   <energy>
    <i name="e_fr_energy">   -716.04153385 </i>
    <i name="e_wo_entrp">   -716.04153385 </i>
    <i name="e_0_energy">   -716.04153385 </i>
   </energy>
  </scstep>
  <scstep>
   <time name="dav">  518.21  528.75</time>
   <time name="total">  528.96  539.64</time>
   <energy>
    <i name="e_fr_energy">   -745.37134763 </i>
    <i name="e_wo_entrp">   -745.37134763 </i>
    <i name="e_0_energy">   -745.37134763 </i>
   </energy>
  </scstep>
  <scstep>
   <time name="dav">  414.82  423.90</time>
   <time name="total">  427.87  437.28</time>
   <energy>
    <i name="e_fr_energy">   -746.58210894 </i>
    <i name="e_wo_entrp">   -746.58210894 </i>
    <i name="e_0_energy">   -746.58210894 </i>
   </energy>
  </scstep>
  <scstep>
   <time name="dav">  470.39  479.82</time>
   <time name="total">  483.51  493.22</time>
   <energy>
    <i name="e_fr_energy">   -746.63634388 </i>
    <i name="e_wo_entrp">   -746.63634388 </i>
    <i name="e_0_energy">   -746.63634388 </i>
   </energy>
  </scstep>
  <scstep>
   <time name="dav">  443.56  453.22</time>
   <time name="total">  456.61  466.62</time>
   <energy>
    <i name="e_fr_energy">   -746.63558517 </i>
    <i name="e_wo_entrp">   -746.63558517 </i>
    <i name="e_0_energy">   -746.63558517 </i>
   </energy>
  </scstep>
  <scstep>
   <time name="dav">  471.11  481.76</time>
   <time name="total">  484.28  495.10</time>
   <energy>
    <i name="e_fr_energy">   -746.63498347 </i>
    <i name="e_wo_entrp">   -746.63498347 </i>
    <i name="e_0_energy">   -746.63498347 </i>
   </energy>
  </scstep>
  <scstep>
   <time name="dav">  449.56  459.05</time>
   <time name="total">  462.64  472.43</time>
   <energy>
    <i name="e_fr_energy">   -746.63417014 </i>
    <i name="e_wo_entrp">   -746.63417014 </i>
    <i name="e_0_energy">   -746.63417014 </i>
   </energy>
  </scstep>
  <scstep>
   <time name="dav">  493.20  504.08</time>
   <time name="total">  506.43  517.50</time>
   <energy>
    <i name="e_fr_energy">   -746.63191671 </i>
    <i name="e_wo_entrp">   -746.63191671 </i>
    <i name="e_0_energy">   -746.63191671 </i>
   </energy>
  </scstep>
  <scstep>
   <time name="dav">  365.10  372.89</time>
   <time name="total">  378.28  386.45</time>
   <energy>
    <i name="e_fr_energy">   -746.63151879 </i>
    <i name="e_wo_entrp">   -746.63151879 </i>
    <i name="e_0_energy">   -746.63151879 </i>
   </energy>
  </scstep>
  <scstep>
   <time name="dav">  424.60  433.83</time>
   <time name="total">  437.79  447.29</time>
   <energy>
    <i name="e_fr_energy">   -746.63129719 </i>
    <i name="e_wo_entrp">   -746.63129719 </i>
    <i name="e_0_energy">   -746.63129719 </i>
   </energy>
  </scstep>
  <scstep>
   <time name="dav">  416.38  426.27</time>
   <time name="total">  429.43  439.73</time>
   <energy>
    <i name="e_fr_energy">   -746.63125903 </i>
    <i name="e_wo_entrp">   -746.63125903 </i>
    <i name="e_0_energy">   -746.63125903 </i>
   </energy>
  </scstep>
  <scstep>
   <time name="dav">  319.62  327.10</time>
   <time name="total">  332.91  340.59</time>
   <energy>
    <i name="e_fr_energy">   -746.63113939 </i>
    <i name="e_wo_entrp">   -746.63113939 </i>
    <i name="e_0_energy">   -746.63113939 </i>
   </energy>
  </scstep>
  <scstep>
   <time name="dav">  462.84  472.38</time>
   <time name="total">  476.09  485.90</time>
   <energy>
    <i name="e_fr_energy">   -746.63089521 </i>
    <i name="e_wo_entrp">   -746.63089521 </i>
    <i name="e_0_energy">   -746.63089521 </i>
   </energy>
  </scstep>
  <scstep>
   <time name="dav">  364.90  372.84</time>
   <time name="total">  378.18  386.38</time>
   <energy>
    <i name="e_fr_energy">   -746.63089052 </i>
    <i name="e_wo_entrp">   -746.63089052 </i>
    <i name="e_0_energy">   -746.63089052 </i>
   </energy>
  </scstep>
  <scstep>
   <time name="dav">  363.07  371.40</time>
   <time name="total">  376.34  384.88</time>
   <energy>
    <i name="e_fr_energy">   -746.63089180 </i>
    <i name="e_wo_entrp">   -746.63089180 </i>
    <i name="e_0_energy">   -746.63089180 </i>
   </energy>
  </scstep>
  <scstep>
   <time name="dav">  243.38  249.79</time>
   <time name="total">  256.68  263.27</time>
   <energy>
    <i name="e_fr_energy">   -746.63089293 </i>
    <i name="e_wo_entrp">   -746.63089293 </i>
    <i name="e_0_energy">   -746.63089293 </i>
   </energy>
  </scstep>
  <scstep>
   <time name="dav">  231.96  237.32</time>
   <time name="total">  234.50  239.92</time>
   <energy>
    <i name="alphaZ">   2668.72143546 </i>
    <i name="ewald"> -68025.68344752 </i>
    <i name="hartreedc"> -39875.53510714 </i>
    <i name="XCdc">   4298.61012676 </i>
    <i name="pawpsdc"> 114380.96465973 </i>
    <i name="pawaedc">-118045.76349909 </i>
    <i name="eentropy">     -0.00000000 </i>
    <i name="bandstr"> -14690.81323059 </i>
    <i name="atom"> 118542.86816856 </i>
    <i name="e_fr_energy">   -746.63089382 </i>
    <i name="e_wo_entrp">   -746.63089382 </i>
    <i name="e_0_energy">   -746.63089382 </i>
   </energy>
  </scstep>
  <structure>
   <crystal>
    <varray name="basis" >
     <v>      15.21162830       0.00516956      -2.78361592 </v>
     <v>      -0.40798665      11.93565774      -2.20735884 </v>
     <v>      -0.06175567      -0.11168197      10.54442638 </v>
    </varray>
    <i name="volume">   1908.54869108 </i>
    <varray name="rec_basis" >
     <v>       0.06581343       0.00232549       0.00041008 </v>
     <v>       0.00013433       0.08395174       0.00088997 </v>
     <v>       0.01740216       0.01818827       0.09513139 </v>
    </varray>
   </crystal>
   <varray name="positions" >
    <v>       0.47527516       0.00074367       0.00446200 </v>
    <v>       0.97527516       0.00074367       0.00446200 </v>
    <v>       0.47527516       0.33407700       0.00446200 </v>
    <v>       0.97527516       0.33407700       0.00446200 </v>
    <v>       0.47527516       0.66741034       0.00446200 </v>
    <v>       0.97527516       0.66741034       0.00446200 </v>
    <v>       0.27472484       0.33258966       0.99553800 </v>
    <v>       0.77472484       0.33258966       0.99553800 </v>
    <v>       0.27472484       0.66592300       0.99553800 </v>
    <v>       0.77472484       0.66592300       0.99553800 </v>
    <v>       0.27472484       0.99925633       0.99553800 </v>
    <v>       0.77472484       0.99925633       0.99553800 </v>
    <v>       0.17788805       0.26797179       0.60783074 </v>
    <v>       0.67788805       0.26797179       0.60783074 </v>
    <v>       0.17788805       0.60130513       0.60783074 </v>
    <v>       0.67788805       0.60130513       0.60783074 </v>
    <v>       0.17788805       0.93463846       0.60783074 </v>
    <v>       0.67788805       0.93463846       0.60783074 </v>
    <v>       0.07211195       0.06536154       0.39216926 </v>
    <v>       0.57211195       0.06536154       0.39216926 </v>
    <v>       0.07211195       0.39869487       0.39216926 </v>
    <v>       0.57211195       0.39869487       0.39216926 </v>
    <v>       0.07211195       0.73202821       0.39216926 </v>
    <v>       0.57211195       0.73202821       0.39216926 </v>
    <v>       0.10669210       0.30765571       0.84593428 </v>
    <v>       0.60733875       0.30765571       0.84593428 </v>
    <v>       0.10733875       0.64098905       0.84593428 </v>
    <v>       0.60733875       0.64098905       0.84593428 </v>
    <v>       0.10733875       0.97432238       0.84593428 </v>
    <v>       0.60733875       0.97432238       0.84593428 </v>
    <v>       0.34464416       0.29539312       0.77235872 </v>
    <v>       0.84464416       0.29539312       0.77235872 </v>
    <v>       0.34464416       0.62872645       0.77235872 </v>
    <v>       0.84464416       0.62872645       0.77235872 </v>
    <v>       0.34464416       0.96205979       0.77235872 </v>
    <v>       0.84464416       0.96205979       0.77235872 </v>
    <v>       0.14266125       0.02567762       0.15406572 </v>
    <v>       0.64266125       0.02567762       0.15406572 </v>
    <v>       0.14266125       0.35901095       0.15406572 </v>
    <v>       0.64266125       0.35901095       0.15406572 </v>
    <v>       0.14266125       0.69234429       0.15406572 </v>
    <v>       0.64266125       0.69234429       0.15406572 </v>
    <v>       0.40535584       0.03794021       0.22764128 </v>
    <v>       0.90535584       0.03794021       0.22764128 </v>
    <v>       0.40535584       0.37127355       0.22764128 </v>
    <v>       0.90535584       0.37127355       0.22764128 </v>
    <v>       0.40535584       0.70460688       0.22764128 </v>
    <v>       0.90535584       0.70460688       0.22764128 </v>
    <v>       0.46517249       0.26691416       0.60148498 </v>
    <v>       0.96517249       0.26691416       0.60148498 </v>
    <v>       0.46517249       0.60024750       0.60148498 </v>
    <v>       0.96517249       0.60024750       0.60148498 </v>
    <v>       0.46517249       0.93358083       0.60148498 </v>
    <v>       0.96517249       0.93358083       0.60148498 </v>
    <v>       0.28482751       0.06641917       0.39851502 </v>
    <v>       0.78482751       0.06641917       0.39851502 </v>
    <v>       0.28482751       0.39975250       0.39851502 </v>
    <v>       0.78482751       0.39975250       0.39851502 </v>
    <v>       0.28482751       0.73308584       0.39851502 </v>
    <v>       0.78482751       0.73308584       0.39851502 </v>
    <v>       0.22447416       0.13353711       0.80122268 </v>
    <v>       0.72447416       0.13353711       0.80122268 </v>
    <v>       0.22447416       0.46687045       0.80122268 </v>
    <v>       0.72447416       0.46687045       0.80122268 </v>
    <v>       0.22447416       0.80020378       0.80122268 </v>
    <v>       0.72447416       0.80020378       0.80122268 </v>
    <v>       0.47796479       0.13582521       0.81495126 </v>
    <v>       0.97796479       0.13582521       0.81495126 </v>
    <v>       0.47796479       0.46915854       0.81495126 </v>
    <v>       0.97796479       0.46915854       0.81495126 </v>
    <v>       0.47796479       0.80249188       0.81495126 </v>
    <v>       0.97796479       0.80249188       0.81495126 </v>
    <v>       0.02552584       0.19979622       0.19877732 </v>
    <v>       0.52552584       0.19979622       0.19877732 </v>
    <v>       0.02552584       0.53312955       0.19877732 </v>
    <v>       0.52552584       0.53312955       0.19877732 </v>
    <v>       0.02552584       0.86646289       0.19877732 </v>
    <v>       0.52552584       0.86646289       0.19877732 </v>
    <v>       0.27203521       0.19750812       0.18504874 </v>
    <v>       0.77203521       0.19750812       0.18504874 </v>
    <v>       0.27203521       0.53084146       0.18504874 </v>
    <v>       0.77203521       0.53084146       0.18504874 </v>
    <v>       0.27203521       0.86417479       0.18504874 </v>
    <v>       0.77203521       0.86417479       0.18504874 </v>
    <v>       0.12500000       0.16666667       0.00000000 </v>
    <v>       0.62500000       0.16666667       0.00000000 </v>
    <v>       0.12500000       0.50000000       0.00000000 </v>
    <v>       0.62500000       0.50000000       0.00000000 </v>
    <v>       0.12500000       0.83333333       0.00000000 </v>
    <v>       0.62500000       0.83333333       0.00000000 </v>
    <v>       0.37500000       0.16666667       0.00000000 </v>
    <v>       0.87500000       0.16666667       0.00000000 </v>
    <v>       0.37500000       0.50000000       0.00000000 </v>
    <v>       0.87500000       0.50000000       0.00000000 </v>
    <v>       0.37500000       0.83333333       0.00000000 </v>
    <v>       0.87500000       0.83333333       0.00000000 </v>
    <v>       0.17614737       0.22809805       0.36858830 </v>
    <v>       0.67614737       0.22809805       0.36858830 </v>
    <v>       0.17614737       0.56143138       0.36858830 </v>
    <v>       0.67614737       0.56143138       0.36858830 </v>
    <v>       0.17614737       0.89476472       0.36858830 </v>
    <v>       0.67614737       0.89476472       0.36858830 </v>
    <v>       0.41542106       0.22793643       0.36761855 </v>
    <v>       0.91542106       0.22793643       0.36761855 </v>
    <v>       0.41542106       0.56126976       0.36761855 </v>
    <v>       0.91542106       0.56126976       0.36761855 </v>
    <v>       0.41542106       0.89460309       0.36761855 </v>
    <v>       0.91542106       0.89460309       0.36761855 </v>
    <v>       0.07385263       0.10523528       0.63141170 </v>
    <v>       0.57385263       0.10523528       0.63141170 </v>
    <v>       0.07385263       0.43856862       0.63141170 </v>
    <v>       0.57385263       0.43856862       0.63141170 </v>
    <v>       0.07385263       0.77190195       0.63141170 </v>
    <v>       0.57385263       0.77190195       0.63141170 </v>
    <v>       0.33457894       0.10539691       0.63238145 </v>
    <v>       0.83457894       0.10539691       0.63238145 </v>
    <v>       0.33457894       0.43873024       0.63238145 </v>
    <v>       0.83457894       0.43873024       0.63238145 </v>
    <v>       0.33457894       0.77206357       0.63238145 </v>
    <v>       0.83457894       0.77206357       0.63238145 </v>
    <v>       0.22527003       0.30093342       0.80560053 </v>
    <v>       0.72527003       0.30093342       0.80560053 </v>
    <v>       0.22527003       0.63426676       0.80560053 </v>
    <v>       0.72527003       0.63426676       0.80560053 </v>
    <v>       0.22527003       0.96760009       0.80560053 </v>
    <v>       0.72527003       0.96760009       0.80560053 </v>
    <v>       0.47618324       0.30143353       0.80860116 </v>
    <v>       0.97618324       0.30143353       0.80860116 </v>
    <v>       0.47618324       0.63476686       0.80860116 </v>
    <v>       0.97618324       0.63476686       0.80860116 </v>
    <v>       0.47618324       0.96810019       0.80860116 </v>
    <v>       0.97618324       0.96810019       0.80860116 </v>
    <v>       0.02472997       0.03239991       0.19439947 </v>
    <v>       0.52472997       0.03239991       0.19439947 </v>
    <v>       0.02472997       0.36573324       0.19439947 </v>
    <v>       0.52472997       0.36573324       0.19439947 </v>
    <v>       0.02472997       0.69906658       0.19439947 </v>
    <v>       0.52472997       0.69906658       0.19439947 </v>
    <v>       0.27381676       0.03189981       0.19139884 </v>
    <v>       0.77381676       0.03189981       0.19139884 </v>
    <v>       0.27381676       0.36523314       0.19139884 </v>
    <v>       0.77381676       0.36523314       0.19139884 </v>
    <v>       0.27381676       0.69856647       0.19139884 </v>
    <v>       0.77381676       0.69856647       0.19139884 </v>
   </varray>
  </structure>
  <varray name="forces" >
   <v>      -0.00007465       0.00003113      -0.00011404 </v>
   <v>       0.00046261      -0.00009908      -0.00003297 </v>
   <v>      -0.00017623      -0.00011935      -0.00015764 </v>
   <v>      -0.00235736       0.00056224       0.00392217 </v>
   <v>      -0.00005605      -0.00024107      -0.00007674 </v>
   <v>       0.00047120      -0.00006952      -0.00001338 </v>
   <v>      -0.00490983      -0.00068132      -0.00323200 </v>
   <v>      -0.00039231       0.00011769       0.00021547 </v>
   <v>       0.00012382       0.00002999      -0.00008328 </v>
   <v>      -0.00030737       0.00022664       0.00012100 </v>
   <v>       0.00011920       0.00010601      -0.00008793 </v>
   <v>      -0.00030936      -0.00003432       0.00014022 </v>
   <v>      -0.00013238       0.00106110       0.00349825 </v>
   <v>      -0.00071569       0.00041961       0.00012456 </v>
   <v>      -0.00012497       0.00048261       0.00021232 </v>
   <v>      -0.00067293       0.00049766       0.00011768 </v>
   <v>      -0.00013442       0.00041854       0.00022773 </v>
   <v>      -0.00066630       0.00033676       0.00014644 </v>
   <v>       0.00049502      -0.00042180      -0.00021719 </v>
   <v>       0.00029804      -0.00042406      -0.00009896 </v>
   <v>       0.00054010      -0.00044868      -0.00015625 </v>
   <v>       0.00029028      -0.00041847      -0.00010860 </v>
   <v>       0.00051997      -0.00042288      -0.00014390 </v>
   <v>       0.00031138      -0.00043409      -0.00009980 </v>
   <v>       0.06159561      -0.00001765      -0.01227190 </v>
   <v>      -0.00049005       0.00009955      -0.00020654 </v>
   <v>       0.00003927       0.00013229      -0.00022210 </v>
   <v>      -0.00042929       0.00008883      -0.00020866 </v>
   <v>       0.00005136       0.00009012      -0.00021545 </v>
   <v>      -0.00042150       0.00009213      -0.00021055 </v>
   <v>      -0.00270276      -0.00021060       0.00038620 </v>
   <v>      -0.00255892      -0.00026087       0.00009391 </v>
   <v>      -0.00137170      -0.00038506      -0.00001865 </v>
   <v>      -0.00136036      -0.00010213      -0.00001006 </v>
   <v>      -0.00139268      -0.00011898      -0.00006223 </v>
   <v>      -0.00135828      -0.00038065       0.00003231 </v>
   <v>       0.00009421      -0.00005917       0.00025824 </v>
   <v>       0.00015971      -0.00011835       0.00017819 </v>
   <v>       0.00088384      -0.00010270       0.00018591 </v>
   <v>       0.00015045      -0.00009799       0.00017452 </v>
   <v>       0.00005839      -0.00011726       0.00026558 </v>
   <v>       0.00018732      -0.00010920       0.00017090 </v>
   <v>       0.00133952       0.00033430      -0.00008295 </v>
   <v>       0.00143140       0.00011015       0.00011689 </v>
   <v>       0.00124189       0.00021422      -0.00008256 </v>
   <v>       0.00134790       0.00033154       0.00012056 </v>
   <v>       0.00136099       0.00013348      -0.00005187 </v>
   <v>       0.00141729       0.00035130       0.00010389 </v>
   <v>      -0.00040114       0.00047062      -0.00005467 </v>
   <v>      -0.00204114      -0.00076583      -0.00635533 </v>
   <v>      -0.00035585       0.00024230      -0.00012576 </v>
   <v>       0.00026553       0.00040715      -0.00049947 </v>
   <v>      -0.00034378       0.00063569      -0.00015327 </v>
   <v>       0.00025953       0.00039346      -0.00052798 </v>
   <v>       0.00026131      -0.00032309       0.00064625 </v>
   <v>      -0.00015559      -0.00056439      -0.00019567 </v>
   <v>       0.00027155      -0.00040741       0.00045423 </v>
   <v>      -0.00016144      -0.00049880      -0.00018782 </v>
   <v>       0.00014332      -0.00042972       0.00034653 </v>
   <v>      -0.00001248      -0.00043434       0.00019236 </v>
   <v>      -0.00376550       0.00978592       0.00029506 </v>
   <v>      -0.00040643      -0.00030692       0.00030972 </v>
   <v>      -0.00308861      -0.00971761       0.00389357 </v>
   <v>      -0.00040835      -0.00008963       0.00028154 </v>
   <v>       0.00025927      -0.00020586       0.00019272 </v>
   <v>      -0.00010410      -0.00022353       0.00019531 </v>
   <v>      -0.00070421       0.00010779      -0.00015391 </v>
   <v>      -0.00391814      -0.00915752       0.00153168 </v>
   <v>      -0.00069342      -0.00011583      -0.00011792 </v>
   <v>      -0.00455626       0.00890452      -0.00178714 </v>
   <v>      -0.00039535      -0.00001249      -0.00016828 </v>
   <v>      -0.00007433       0.00002168      -0.00011656 </v>
   <v>       0.00063359      -0.00021239      -0.00036488 </v>
   <v>      -0.00060506       0.00015743      -0.00035092 </v>
   <v>       0.00046688       0.00061074      -0.00045829 </v>
   <v>      -0.00057481       0.00016117      -0.00035596 </v>
   <v>       0.00010779       0.00019079      -0.00018771 </v>
   <v>      -0.00029150       0.00019694      -0.00020190 </v>
   <v>       0.00075337       0.00044410       0.00005743 </v>
   <v>      -0.00016911       0.00001822       0.00030454 </v>
   <v>       0.00082500      -0.00045007       0.00018076 </v>
   <v>      -0.00005063       0.00007792       0.00035568 </v>
   <v>       0.00038075       0.00002895       0.00011818 </v>
   <v>       0.00016346      -0.00007624       0.00015382 </v>
   <v>      -0.00342646      -0.00013219       0.00070031 </v>
   <v>       0.00044464       0.00001144      -0.00000384 </v>
   <v>      -0.00341835       0.00015297       0.00067108 </v>
   <v>       0.00042598       0.00000394      -0.00001503 </v>
   <v>      -0.00023054      -0.00000834       0.00001777 </v>
   <v>       0.00024458       0.00001804       0.00001255 </v>
   <v>       0.00083759      -0.00048639       0.00072669 </v>
   <v>       0.00043093       0.00045246      -0.00082337 </v>
   <v>       0.00078739       0.00077269       0.00050819 </v>
   <v>       0.00048786      -0.00069989      -0.00067263 </v>
   <v>       0.00005441       0.00001465       0.00008890 </v>
   <v>      -0.00003465      -0.00001721      -0.00007833 </v>
   <v>      -0.00024181      -0.00044396      -0.00000054 </v>
   <v>       0.00036986      -0.00036663       0.00023500 </v>
   <v>      -0.00021289      -0.00038490       0.00021257 </v>
   <v>       0.00032107      -0.00046236       0.00025708 </v>
   <v>      -0.00018885      -0.00038900       0.00021077 </v>
   <v>       0.00029360      -0.00026662       0.00022594 </v>
   <v>       0.00022262      -0.00034763      -0.00006147 </v>
   <v>       0.00009820      -0.00021528       0.00036638 </v>
   <v>       0.00019167      -0.00019421      -0.00007951 </v>
   <v>      -0.00006173      -0.00039024      -0.00005471 </v>
   <v>       0.00015022      -0.00040480      -0.00015414 </v>
   <v>      -0.00007587      -0.00027377       0.00003746 </v>
   <v>      -0.00221280       0.00048640       0.00037838 </v>
   <v>       0.00037804       0.00038514      -0.00021544 </v>
   <v>      -0.00220898       0.00034049       0.00039622 </v>
   <v>       0.00038644       0.00038800      -0.00021372 </v>
   <v>      -0.00031275       0.00037883      -0.00013822 </v>
   <v>       0.00021607       0.00040891      -0.00018528 </v>
   <v>       0.00050533      -0.00043237      -0.00069265 </v>
   <v>       0.00067929       0.00115332       0.00051871 </v>
   <v>       0.00046918       0.00077287      -0.00088254 </v>
   <v>       0.00073187      -0.00023966       0.00075465 </v>
   <v>      -0.00010202       0.00030098      -0.00007993 </v>
   <v>      -0.00004958       0.00032526       0.00007518 </v>
   <v>      -0.01698955       0.00044671       0.00507866 </v>
   <v>       0.00049716       0.00008071      -0.00008184 </v>
   <v>      -0.00026872       0.00104818      -0.00008113 </v>
   <v>       0.00025930      -0.00009228      -0.00000515 </v>
   <v>      -0.00019755      -0.00084432       0.00026814 </v>
   <v>       0.00026267       0.00029362      -0.00006559 </v>
   <v>       0.00006338      -0.00013294      -0.00024629 </v>
   <v>      -0.01387907      -0.00003491       0.00277477 </v>
   <v>      -0.00017180       0.00006597      -0.00021812 </v>
   <v>      -0.00050487      -0.00089267      -0.00005056 </v>
   <v>      -0.00016604      -0.00029093      -0.00016680 </v>
   <v>      -0.00056784       0.00064158      -0.00036731 </v>
   <v>      -0.00036503      -0.00020862       0.00033061 </v>
   <v>       0.00037768      -0.00024248       0.00009505 </v>
   <v>      -0.00035410      -0.00021916      -0.00040854 </v>
   <v>       0.00038605      -0.00007693       0.00006021 </v>
   <v>      -0.00036730       0.00013589       0.00017132 </v>
   <v>       0.00038106       0.00011723       0.00001814 </v>
   <v>       0.00005780       0.00022414      -0.00002451 </v>
   <v>       0.00063237       0.00036149       0.00011288 </v>
   <v>       0.00029364       0.00024314       0.00068196 </v>
   <v>       0.00065403       0.00004009       0.00017159 </v>
   <v>       0.00004967      -0.00006961       0.00010339 </v>
   <v>       0.00057798      -0.00004120       0.00011398 </v>
  </varray>
  <varray name="stress" >
   <v>      -0.11611062       0.01812904       0.02865996 </v>
   <v>       0.00816187      -0.13881631      -0.07379944 </v>
   <v>      -0.00994946      -0.04492330      -0.09305997 </v>
  </varray>
  <energy>
   <i name="e_fr_energy">   -746.63089382 </i>
   <i name="e_wo_entrp">   -746.63089382 </i>
   <i name="e_0_energy">     -0.00000000 </i>
  </energy>
  <time name="totalsc"> 8646.13 8831.34</time>
  <eigenvalues>
   <array>
    <dimension dim="1">band</dimension>
    <dimension dim="2">kpoint</dimension>
    <dimension dim="3">spin</dimension>
    <field>eigene</field>
    <field>occ</field>
    <set>
     <set comment="spin 1">
      <set comment="kpoint 1">
       <r>  -51.6048    1.0000 </r>
       <r>  -51.6032    1.0000 </r>
       <r>  -51.6031    1.0000 </r>
       <r>  -51.6029    1.0000 </r>
       <r>  -51.6028    1.0000 </r>
       <r>  -51.6026    1.0000 </r>
       <r>  -51.6025    1.0000 </r>
       <r>  -51.6025    1.0000 </r>
       <r>  -51.6023    1.0000 </r>
       <r>  -51.6023    1.0000 </r>
       <r>  -51.6022    1.0000 </r>
       <r>  -51.6019    1.0000 </r>
       <r>  -51.4204    1.0000 </r>
       <r>  -51.4201    1.0000 </r>
       <r>  -51.4182    1.0000 </r>
       <r>  -51.4180    1.0000 </r>
       <r>  -51.4180    1.0000 </r>
       <r>  -51.4177    1.0000 </r>
       <r>  -51.4177    1.0000 </r>
       <r>  -51.4176    1.0000 </r>
       <r>  -51.4175    1.0000 </r>
       <r>  -51.4174    1.0000 </r>
       <r>  -51.4173    1.0000 </r>
       <r>  -51.4171    1.0000 </r>
       <r>  -51.2982    1.0000 </r>
       <r>  -51.2981    1.0000 </r>
       <r>  -51.2979    1.0000 </r>
       <r>  -51.2979    1.0000 </r>
       <r>  -51.2977    1.0000 </r>
       <r>  -51.2976    1.0000 </r>
       <r>  -51.2973    1.0000 </r>
       <r>  -51.2973    1.0000 </r>
       <r>  -51.2971    1.0000 </r>
       <r>  -51.2969    1.0000 </r>
       <r>  -51.2950    1.0000 </r>
       <r>  -51.2944    1.0000 </r>
       <r>  -50.1592    1.0000 </r>
       <r>  -50.1580    1.0000 </r>
       <r>  -50.1578    1.0000 </r>
       <r>  -50.1577    1.0000 </r>
       <r>  -50.1573    1.0000 </r>
       <r>  -50.1573    1.0000 </r>
       <r>  -50.1573    1.0000 </r>
       <r>  -50.1571    1.0000 </r>
       <r>  -50.1571    1.0000 </r>
       <r>  -50.1570    1.0000 </r>
       <r>  -50.1566    1.0000 </r>
       <r>  -50.1562    1.0000 </r>
       <r>  -50.0674    1.0000 </r>
       <r>  -50.0663    1.0000 </r>
       <r>  -50.0662    1.0000 </r>
       <r>  -50.0660    1.0000 </r>
       <r>  -50.0658    1.0000 </r>
       <r>  -50.0658    1.0000 </r>
       <r>  -50.0657    1.0000 </r>
       <r>  -50.0656    1.0000 </r>
       <r>  -50.0655    1.0000 </r>
       <r>  -50.0653    1.0000 </r>
       <r>  -50.0652    1.0000 </r>
       <r>  -50.0651    1.0000 </r>
       <r>  -49.9639    1.0000 </r>
       <r>  -49.9638    1.0000 </r>
       <r>  -49.9620    1.0000 </r>
       <r>  -49.9618    1.0000 </r>
       <r>  -49.9618    1.0000 </r>
       <r>  -49.9617    1.0000 </r>
       <r>  -49.9616    1.0000 </r>
       <r>  -49.9614    1.0000 </r>
       <r>  -49.9614    1.0000 </r>
       <r>  -49.9614    1.0000 </r>
       <r>  -49.9612    1.0000 </r>
       <r>  -49.9611    1.0000 </r>
       <r>  -49.9547    1.0000 </r>
       <r>  -49.9545    1.0000 </r>
       <r>  -49.9529    1.0000 </r>
       <r>  -49.9527    1.0000 </r>
       <r>  -49.9527    1.0000 </r>
       <r>  -49.9526    1.0000 </r>
       <r>  -49.9524    1.0000 </r>
       <r>  -49.9523    1.0000 </r>
       <r>  -49.9522    1.0000 </r>
       <r>  -49.9522    1.0000 </r>
       <r>  -49.9521    1.0000 </r>
       <r>  -49.9520    1.0000 </r>
       <r>  -49.8891    1.0000 </r>
       <r>  -49.8890    1.0000 </r>
       <r>  -49.8889    1.0000 </r>
       <r>  -49.8888    1.0000 </r>
       <r>  -49.8887    1.0000 </r>
[...]
       <r>   -32.5891     0.0000   156.0000 </r>
       <r>   -32.3495     0.0000   156.0000 </r>
       <r>   -32.1099     0.0000   156.0000 </r>
       <r>   -31.8703     0.0000   156.0000 </r>
       <r>   -31.6307     0.0000   156.0000 </r>
       <r>   -31.3911     0.0000   156.0000 </r>
       <r>   -31.1515     0.0000   156.0000 </r>
       <r>   -30.9119     0.0000   156.0000 </r>
       <r>   -30.6723     0.0000   156.0000 </r>
       <r>   -30.4326     0.0000   156.0000 </r>
       <r>   -30.1930     0.0000   156.0000 </r>
       <r>   -29.9534     0.0000   156.0000 </r>
       <r>   -29.7138     0.0000   156.0000 </r>
       <r>   -29.4742     0.0000   156.0000 </r>
       <r>   -29.2346     0.0000   156.0000 </r>
       <r>   -28.9950     0.0000   156.0000 </r>
       <r>   -28.7554     0.0000   156.0000 </r>
       <r>   -28.5158     0.0000   156.0000 </r>
       <r>   -28.2762     0.0000   156.0000 </r>
       <r>   -28.0366     0.0000   156.0000 </r>
       <r>   -27.7970     0.0000   156.0000 </r>
       <r>   -27.5574     0.0000   156.0000 </r>
       <r>   -27.3178     0.0000   156.0000 </r>
       <r>   -27.0782     0.0000   156.0000 </r>
       <r>   -26.8386     0.0000   156.0000 </r>
       <r>   -26.5990     0.0000   156.0000 </r>
       <r>   -26.3594     0.0000   156.0000 </r>
       <r>   -26.1198     0.0000   156.0000 </r>
       <r>   -25.8802     0.0000   156.0000 </r>
       <r>   -25.6406     0.0000   156.0000 </r>
       <r>   -25.4010     0.0000   156.0000 </r>
       <r>   -25.1614     0.0000   156.0000 </r>
       <r>   -24.9218     0.0000   156.0000 </r>
       <r>   -24.6822     0.0000   156.0000 </r>
       <r>   -24.4426     0.0000   156.0000 </r>
       <r>   -24.2030     0.0000   156.0000 </r>
       <r>   -23.9634     0.0000   156.0000 </r>
       <r>   -23.7238     0.0000   156.0000 </r>
       <r>   -23.4842     0.0000   156.0000 </r>
       <r>   -23.2446     0.0000   156.0000 </r>
       <r>   -23.0050     0.0000   156.0000 </r>
       <r>   -22.7654     0.0000   156.0000 </r>
       <r>   -22.5258     0.0000   156.0000 </r>
       <r>   -22.2862     0.0000   156.0000 </r>
       <r>   -22.0466     0.0000   156.0000 </r>
       <r>   -21.8070     0.0000   156.0000 </r>
       <r>   -21.5674     0.0000   156.0000 </r>
       <r>   -21.3278     0.0000   156.0000 </r>
       <r>   -21.0882     0.0000   156.0000 </r>
       <r>   -20.8486     0.0000   156.0000 </r>
       <r>   -20.6090     0.0000   156.0000 </r>
       <r>   -20.3694     0.0000   156.0000 </r>
       <r>   -20.1298     0.0000   156.0000 </r>
       <r>   -19.8902     0.0000   156.0000 </r>
       <r>   -19.6506     0.0000   156.0000 </r>
       <r>   -19.4110     0.0000   156.0000 </r>
       <r>   -19.1714     0.0000   156.0000 </r>
       <r>   -18.9318     0.0000   156.0000 </r>
       <r>   -18.6922     0.0000   156.0000 </r>
       <r>   -18.4525     0.0000   156.0000 </r>
       <r>   -18.2129     0.0000   156.0000 </r>
       <r>   -17.9733     0.0000   156.0000 </r>
       <r>   -17.7337     0.0000   156.0000 </r>
       <r>   -17.4941     0.0000   156.0000 </r>
       <r>   -17.2545     0.0000   156.0000 </r>
       <r>   -17.0149     0.0000   156.0000 </r>
       <r>   -16.7753     0.0000   156.0000 </r>
       <r>   -16.5357     0.0000   156.0000 </r>
       <r>   -16.2961     0.0000   156.0000 </r>
       <r>   -16.0565     0.0000   156.0000 </r>
       <r>   -15.8169     0.0000   156.0000 </r>
       <r>   -15.5773     0.0000   156.0000 </r>
       <r>   -15.3377     0.0000   156.0000 </r>
       <r>   -15.0981     0.0000   156.0000 </r>
       <r>   -14.8585     0.0000   156.0000 </r>
       <r>   -14.6189     0.0000   156.0000 </r>
       <r>   -14.3793     0.0000   156.0000 </r>
       <r>   -14.1397     0.0000   156.0000 </r>
       <r>   -13.9001     0.0000   156.0000 </r>
       <r>   -13.6605     0.0000   156.0000 </r>
       <r>   -13.4209     1.8167   156.4353 </r>
       <r>   -13.1813    44.4571   167.0873 </r>
       <r>   -12.9417     4.4628   168.1566 </r>
       <r>   -12.7021    41.8273   178.1785 </r>
       <r>   -12.4625     7.6023   180.0000 </r>
       <r>   -12.2229     0.0000   180.0000 </r>
       <r>   -11.9833     0.0000   180.0000 </r>
       <r>   -11.7437     0.0000   180.0000 </r>
       <r>   -11.5041     0.0000   180.0000 </r>
       <r>   -11.2645     0.0000   180.0000 </r>
       <r>   -11.0249     0.0000   180.0000 </r>
       <r>   -10.7853     0.0000   180.0000 </r>
       <r>   -10.5457     0.0000   180.0000 </r>
       <r>   -10.3061     0.0000   180.0000 </r>
       <r>   -10.0665     0.0000   180.0000 </r>
       <r>    -9.8269     0.0000   180.0000 </r>
       <r>    -9.5873     0.0000   180.0000 </r>
       <r>    -9.3477     0.0000   180.0000 </r>
       <r>    -9.1081     0.0000   180.0000 </r>
       <r>    -8.8685     0.0000   180.0000 </r>
       <r>    -8.6289     0.0000   180.0000 </r>
       <r>    -8.3893     0.0000   180.0000 </r>
       <r>    -8.1497     0.0000   180.0000 </r>
       <r>    -7.9101     0.0000   180.0000 </r>
       <r>    -7.6705     0.0163   180.0039 </r>
       <r>    -7.4309    11.9431   182.8655 </r>
       <r>    -7.1913    28.4983   189.6937 </r>
       <r>    -6.9517    59.8439   204.0325 </r>
       <r>    -6.7121    46.5824   215.1937 </r>
       <r>    -6.4724     3.3651   216.0000 </r>
       <r>    -6.2328     0.0000   216.0000 </r>
       <r>    -5.9932     0.0000   216.0000 </r>
       <r>    -5.7536     0.0000   216.0000 </r>
       <r>    -5.5140     0.0000   216.0000 </r>
       <r>    -5.2744     0.0000   216.0000 </r>
       <r>    -5.0348     0.0000   216.0000 </r>
       <r>    -4.7952     0.0000   216.0000 </r>
       <r>    -4.5556     0.0000   216.0000 </r>
       <r>    -4.3160     0.0000   216.0000 </r>
       <r>    -4.0764     0.0000   216.0000 </r>
       <r>    -3.8368     0.0000   216.0000 </r>
       <r>    -3.5972     0.0000   216.0000 </r>
       <r>    -3.3576     0.0000   216.0000 </r>
       <r>    -3.1180     0.0000   216.0000 </r>
       <r>    -2.8784     0.0000   216.0000 </r>
       <r>    -2.6388     0.0000   216.0000 </r>
       <r>    -2.3992     0.0000   216.0000 </r>
       <r>    -2.1596     0.0000   216.0000 </r>
       <r>    -1.9200     0.0000   216.0000 </r>
       <r>    -1.6804     0.0000   216.0000 </r>
       <r>    -1.4408     0.0000   216.0000 </r>
       <r>    -1.2012     0.0874   216.0209 </r>
       <r>    -0.9616     4.4141   217.0786 </r>
       <r>    -0.7220    14.0505   220.4451 </r>
       <r>    -0.4824    15.2895   224.1085 </r>
       <r>    -0.2428    19.5725   228.7981 </r>
       <r>    -0.0032    41.2919   238.6917 </r>
       <r>     0.2364    33.9263   246.8205 </r>
       <r>     0.4760    42.1516   256.9201 </r>
       <r>     0.7156    33.6358   264.9793 </r>
       <r>     0.9552    52.8262   277.6366 </r>
       <r>     1.1948    60.5527   292.1452 </r>
       <r>     1.4344    44.4275   302.7901 </r>
       <r>     1.6740    40.0988   312.3978 </r>
       <r>     1.9136    38.4434   321.6090 </r>
       <r>     2.1532    37.4031   330.5708 </r>
       <r>     2.3928    38.2723   339.7410 </r>
       <r>     2.6324    49.3559   351.5667 </r>
       <r>     2.8720    62.9104   366.6402 </r>
       <r>     3.1116    58.7535   380.7176 </r>
       <r>     3.3512    48.0456   392.2295 </r>
       <r>     3.5908    29.9087   399.3957 </r>
       <r>     3.8304    61.2140   414.0626 </r>
       <r>     4.0700    73.4761   431.6677 </r>
       <r>     4.3096     1.3870   432.0000 </r>
       <r>     4.5492     0.0000   432.0000 </r>
       <r>     4.7888     0.0000   432.0000 </r>
       <r>     5.0284     0.0000   432.0000 </r>
       <r>     5.2680     0.0000   432.0000 </r>
       <r>     5.5077     0.0000   432.0000 </r>
       <r>     5.7473     0.0000   432.0000 </r>
       <r>     5.9869     0.0000   432.0000 </r>
       <r>     6.2265     0.1441   432.0345 </r>
       <r>     6.4661     8.1351   433.9837 </r>
       <r>     6.7057    30.2283   441.2265 </r>
       <r>     6.9453    43.3611   451.6159 </r>
       <r>     7.1849    73.1552   469.1440 </r>
       <r>     7.4245    80.8311   488.5113 </r>
       <r>     7.6641    65.4073   504.1830 </r>
       <r>     7.9037    87.8915   525.2420 </r>
       <r>     8.1433    71.3175   542.3298 </r>
       <r>     8.3829    54.4388   555.3735 </r>
       <r>     8.6225    37.2067   564.2882 </r>
       <r>     8.8621    39.1939   573.6792 </r>
       <r>     9.1017    19.3926   578.3257 </r>
       <r>     9.3413    13.8796   581.6513 </r>
       <r>     9.5809    20.5842   586.5833 </r>
       <r>     9.8205    29.9860   593.7680 </r>
       <r>    10.0601    26.5528   600.1301 </r>
       <r>    10.2997    34.6986   608.4440 </r>
       <r>    10.5393    35.4774   616.9444 </r>
       <r>    10.7789    27.9335   623.6373 </r>
       <r>    11.0185    22.4645   629.0199 </r>
       <r>    11.2581    21.5709   634.1883 </r>
       <r>    11.4977    32.2860   641.9241 </r>
       <r>    11.7373    38.7564   651.2102 </r>
       <r>    11.9769    42.5789   661.4122 </r>
       <r>    12.2165    51.9480   673.8590 </r>
       <r>    12.4561    46.8219   685.0777 </r>
       <r>    12.6957    35.9713   693.6965 </r>
       <r>    12.9353    41.2632   703.5832 </r>
       <r>    13.1749    39.7695   713.1121 </r>
       <r>    13.4145    34.2556   721.3198 </r>
       <r>    13.6541    24.1834   727.1142 </r>
       <r>    13.8937     3.6970   728.0000 </r>
       <r>    14.1333     0.0000   728.0000 </r>
       <r>    14.3729     0.0000   728.0000 </r>
       <r>    14.6125     0.0000   728.0000 </r>
       <r>    14.8521     0.0000   728.0000 </r>
       <r>    15.0917     0.0000   728.0000 </r>
       <r>    15.3313     0.0000   728.0000 </r>
       <r>    15.5709     0.0000   728.0000 </r>
       <r>    15.8105     0.0000   728.0000 </r>
       <r>    16.0501     0.0000   728.0000 </r>
       <r>    16.2897     0.0000   728.0000 </r>
       <r>    16.5293     0.0000   728.0000 </r>
       <r>    16.7689     0.0000   728.0000 </r>
       <r>    17.0085     0.0000   728.0000 </r>
      </set>
     </set>
    </array>
   </total>
  </dos>
 </calculation>
 <structure name="finalpos" >
  <crystal>
   <varray name="basis" >
    <v>      15.21162830       0.00516956      -2.78361592 </v>
    <v>      -0.40798665      11.93565774      -2.20735884 </v>
    <v>      -0.06175567      -0.11168197      10.54442638 </v>
   </varray>
   <i name="volume">   1908.54869108 </i>
   <varray name="rec_basis" >
    <v>       0.06581343       0.00232549       0.00041008 </v>
    <v>       0.00013433       0.08395174       0.00088997 </v>
    <v>       0.01740216       0.01818827       0.09513139 </v>
   </varray>
  </crystal>
  <varray name="positions" >
   <v>       0.47527516       0.00074367       0.00446200 </v>
   <v>       0.97527516       0.00074367       0.00446200 </v>
   <v>       0.47527516       0.33407700       0.00446200 </v>
   <v>       0.97527516       0.33407700       0.00446200 </v>
   <v>       0.47527516       0.66741034       0.00446200 </v>
   <v>       0.97527516       0.66741034       0.00446200 </v>
   <v>       0.27472484       0.33258966       0.99553800 </v>
   <v>       0.77472484       0.33258966       0.99553800 </v>
   <v>       0.27472484       0.66592300       0.99553800 </v>
   <v>       0.77472484       0.66592300       0.99553800 </v>
   <v>       0.27472484       0.99925633       0.99553800 </v>
   <v>       0.77472484       0.99925633       0.99553800 </v>
   <v>       0.17788805       0.26797179       0.60783074 </v>
   <v>       0.67788805       0.26797179       0.60783074 </v>
   <v>       0.17788805       0.60130513       0.60783074 </v>
   <v>       0.67788805       0.60130513       0.60783074 </v>
   <v>       0.17788805       0.93463846       0.60783074 </v>
   <v>       0.67788805       0.93463846       0.60783074 </v>
   <v>       0.07211195       0.06536154       0.39216926 </v>
   <v>       0.57211195       0.06536154       0.39216926 </v>
   <v>       0.07211195       0.39869487       0.39216926 </v>
   <v>       0.57211195       0.39869487       0.39216926 </v>
   <v>       0.07211195       0.73202821       0.39216926 </v>
   <v>       0.57211195       0.73202821       0.39216926 </v>
   <v>       0.10669210       0.30765571       0.84593428 </v>
   <v>       0.60733875       0.30765571       0.84593428 </v>
   <v>       0.10733875       0.64098905       0.84593428 </v>
   <v>       0.60733875       0.64098905       0.84593428 </v>
   <v>       0.10733875       0.97432238       0.84593428 </v>
   <v>       0.60733875       0.97432238       0.84593428 </v>
   <v>       0.34464416       0.29539312       0.77235872 </v>
   <v>       0.84464416       0.29539312       0.77235872 </v>
   <v>       0.34464416       0.62872645       0.77235872 </v>
   <v>       0.84464416       0.62872645       0.77235872 </v>
   <v>       0.34464416       0.96205979       0.77235872 </v>
   <v>       0.84464416       0.96205979       0.77235872 </v>
   <v>       0.14266125       0.02567762       0.15406572 </v>
   <v>       0.64266125       0.02567762       0.15406572 </v>
   <v>       0.14266125       0.35901095       0.15406572 </v>
   <v>       0.64266125       0.35901095       0.15406572 </v>
   <v>       0.14266125       0.69234429       0.15406572 </v>
   <v>       0.64266125       0.69234429       0.15406572 </v>
   <v>       0.40535584       0.03794021       0.22764128 </v>
   <v>       0.90535584       0.03794021       0.22764128 </v>
   <v>       0.40535584       0.37127355       0.22764128 </v>
   <v>       0.90535584       0.37127355       0.22764128 </v>
   <v>       0.40535584       0.70460688       0.22764128 </v>
   <v>       0.90535584       0.70460688       0.22764128 </v>
   <v>       0.46517249       0.26691416       0.60148498 </v>
   <v>       0.96517249       0.26691416       0.60148498 </v>
   <v>       0.46517249       0.60024750       0.60148498 </v>
   <v>       0.96517249       0.60024750       0.60148498 </v>
   <v>       0.46517249       0.93358083       0.60148498 </v>
   <v>       0.96517249       0.93358083       0.60148498 </v>
   <v>       0.28482751       0.06641917       0.39851502 </v>
   <v>       0.78482751       0.06641917       0.39851502 </v>
   <v>       0.28482751       0.39975250       0.39851502 </v>
   <v>       0.78482751       0.39975250       0.39851502 </v>
   <v>       0.28482751       0.73308584       0.39851502 </v>
   <v>       0.78482751       0.73308584       0.39851502 </v>
   <v>       0.22447416       0.13353711       0.80122268 </v>
   <v>       0.72447416       0.13353711       0.80122268 </v>
   <v>       0.22447416       0.46687045       0.80122268 </v>
   <v>       0.72447416       0.46687045       0.80122268 </v>
   <v>       0.22447416       0.80020378       0.80122268 </v>
   <v>       0.72447416       0.80020378       0.80122268 </v>
   <v>       0.47796479       0.13582521       0.81495126 </v>
   <v>       0.97796479       0.13582521       0.81495126 </v>
   <v>       0.47796479       0.46915854       0.81495126 </v>
   <v>       0.97796479       0.46915854       0.81495126 </v>
   <v>       0.47796479       0.80249188       0.81495126 </v>
   <v>       0.97796479       0.80249188       0.81495126 </v>
   <v>       0.02552584       0.19979622       0.19877732 </v>
   <v>       0.52552584       0.19979622       0.19877732 </v>
   <v>       0.02552584       0.53312955       0.19877732 </v>
   <v>       0.52552584       0.53312955       0.19877732 </v>
   <v>       0.02552584       0.86646289       0.19877732 </v>
   <v>       0.52552584       0.86646289       0.19877732 </v>
   <v>       0.27203521       0.19750812       0.18504874 </v>
   <v>       0.77203521       0.19750812       0.18504874 </v>
   <v>       0.27203521       0.53084146       0.18504874 </v>
   <v>       0.77203521       0.53084146       0.18504874 </v>
   <v>       0.27203521       0.86417479       0.18504874 </v>
   <v>       0.77203521       0.86417479       0.18504874 </v>
   <v>       0.12500000       0.16666667       0.00000000 </v>
   <v>       0.62500000       0.16666667       0.00000000 </v>
   <v>       0.12500000       0.50000000       0.00000000 </v>
   <v>       0.62500000       0.50000000       0.00000000 </v>
   <v>       0.12500000       0.83333333       0.00000000 </v>
   <v>       0.62500000       0.83333333       0.00000000 </v>
   <v>       0.37500000       0.16666667       0.00000000 </v>
   <v>       0.87500000       0.16666667       0.00000000 </v>
   <v>       0.37500000       0.50000000       0.00000000 </v>
   <v>       0.87500000       0.50000000       0.00000000 </v>
   <v>       0.37500000       0.83333333       0.00000000 </v>
   <v>       0.87500000       0.83333333       0.00000000 </v>
   <v>       0.17614737       0.22809805       0.36858830 </v>
   <v>       0.67614737       0.22809805       0.36858830 </v>
   <v>       0.17614737       0.56143138       0.36858830 </v>
   <v>       0.67614737       0.56143138       0.36858830 </v>
   <v>       0.17614737       0.89476472       0.36858830 </v>
   <v>       0.67614737       0.89476472       0.36858830 </v>
   <v>       0.41542106       0.22793643       0.36761855 </v>
   <v>       0.91542106       0.22793643       0.36761855 </v>
   <v>       0.41542106       0.56126976       0.36761855 </v>
   <v>       0.91542106       0.56126976       0.36761855 </v>
   <v>       0.41542106       0.89460309       0.36761855 </v>
   <v>       0.91542106       0.89460309       0.36761855 </v>
   <v>       0.07385263       0.10523528       0.63141170 </v>
   <v>       0.57385263       0.10523528       0.63141170 </v>
   <v>       0.07385263       0.43856862       0.63141170 </v>
   <v>       0.57385263       0.43856862       0.63141170 </v>
   <v>       0.07385263       0.77190195       0.63141170 </v>
   <v>       0.57385263       0.77190195       0.63141170 </v>
   <v>       0.33457894       0.10539691       0.63238145 </v>
   <v>       0.83457894       0.10539691       0.63238145 </v>
   <v>       0.33457894       0.43873024       0.63238145 </v>
   <v>       0.83457894       0.43873024       0.63238145 </v>
   <v>       0.33457894       0.77206357       0.63238145 </v>
   <v>       0.83457894       0.77206357       0.63238145 </v>
   <v>       0.22527003       0.30093342       0.80560053 </v>
   <v>       0.72527003       0.30093342       0.80560053 </v>
   <v>       0.22527003       0.63426676       0.80560053 </v>
   <v>       0.72527003       0.63426676       0.80560053 </v>
   <v>       0.22527003       0.96760009       0.80560053 </v>
   <v>       0.72527003       0.96760009       0.80560053 </v>
   <v>       0.47618324       0.30143353       0.80860116 </v>
   <v>       0.97618324       0.30143353       0.80860116 </v>
   <v>       0.47618324       0.63476686       0.80860116 </v>
   <v>       0.97618324       0.63476686       0.80860116 </v>
   <v>       0.47618324       0.96810019       0.80860116 </v>
   <v>       0.97618324       0.96810019       0.80860116 </v>
   <v>       0.02472997       0.03239991       0.19439947 </v>
   <v>       0.52472997       0.03239991       0.19439947 </v>
   <v>       0.02472997       0.36573324       0.19439947 </v>
   <v>       0.52472997       0.36573324       0.19439947 </v>
   <v>       0.02472997       0.69906658       0.19439947 </v>
   <v>       0.52472997       0.69906658       0.19439947 </v>
   <v>       0.27381676       0.03189981       0.19139884 </v>
   <v>       0.77381676       0.03189981       0.19139884 </v>
   <v>       0.27381676       0.36523314       0.19139884 </v>
   <v>       0.77381676       0.36523314       0.19139884 </v>
   <v>       0.27381676       0.69856647       0.19139884 </v>
   <v>       0.77381676       0.69856647       0.19139884 </v>
  </varray>
 </structure>
</modeling>
