 120 120   0   0
  0.1228332E+02  0.1173587E-08  0.1121847E-08  0.1119562E-08  0.5000000E-15
  1.000000000000000E-004
  CAR 
 unknown system                          
     16.73352664    -54.73413752  301      4.40535457      1.00000000
    -54.734  0.0000E+00  0.0000E+00  0.0000E+00  0.0000E+00
    -54.496  0.0000E+00  0.0000E+00  0.0000E+00  0.0000E+00
    -54.258  0.0000E+00  0.0000E+00  0.0000E+00  0.0000E+00
    -54.019  0.0000E+00  0.0000E+00  0.0000E+00  0.0000E+00
    -53.781  0.0000E+00  0.0000E+00  0.0000E+00  0.0000E+00
    -53.543  0.0000E+00  0.0000E+00  0.0000E+00  0.0000E+00
    -53.305  0.0000E+00  0.0000E+00  0.0000E+00  0.0000E+00
    -53.067  0.0000E+00  0.0000E+00  0.0000E+00  0.0000E+00
    -52.828  0.0000E+00  0.0000E+00  0.0000E+00  0.0000E+00
    -52.590  0.0000E+00  0.0000E+00  0.0000E+00  0.0000E+00
    -52.352  0.0000E+00  0.0000E+00  0.0000E+00  0.0000E+00
    -52.114  0.0000E+00  0.0000E+00  0.0000E+00  0.0000E+00
    -51.875  0.0000E+00  0.0000E+00  0.0000E+00  0.0000E+00
    -51.637  0.1787E-03  0.0000E+00  0.4256E-04  0.0000E+00
    -51.399  0.9726E+02  0.0000E+00  0.2317E+02  0.0000E+00
    -51.161  0.3487E+01  0.0000E+00  0.2400E+02  0.0000E+00
    -50.923  0.0000E+00  0.0000E+00  0.2400E+02  0.0000E+00
    -50.684  0.0000E+00  0.0000E+00  0.2400E+02  0.0000E+00
    -50.446  0.1589E-09  0.0000E+00  0.2400E+02  0.0000E+00
    -50.208  0.4000E+02  0.0000E+00  0.3353E+02  0.0000E+00
    -49.970  0.1325E+03  0.0000E+00  0.6508E+02  0.0000E+00
    -49.731  0.2903E+02  0.0000E+00  0.7200E+02  0.0000E+00
    -49.493  0.0000E+00  0.0000E+00  0.7200E+02  0.0000E+00
    -49.255  0.0000E+00  0.0000E+00  0.7200E+02  0.0000E+00
    -49.017  0.0000E+00  0.0000E+00  0.7200E+02  0.0000E+00
    -48.778  0.0000E+00  0.0000E+00  0.7200E+02  0.0000E+00
    -48.540  0.0000E+00  0.0000E+00  0.7200E+02  0.0000E+00
    -48.302  0.0000E+00  0.0000E+00  0.7200E+02  0.0000E+00
    -48.064  0.0000E+00  0.0000E+00  0.7200E+02  0.0000E+00
    -47.826  0.0000E+00  0.0000E+00  0.7200E+02  0.0000E+00
    -47.587  0.0000E+00  0.0000E+00  0.7200E+02  0.0000E+00
    -47.349  0.0000E+00  0.0000E+00  0.7200E+02  0.0000E+00
    -47.111  0.0000E+00  0.0000E+00  0.7200E+02  0.0000E+00
    -46.873  0.0000E+00  0.4951E-01  0.7200E+02  0.1179E-01
    -46.634  0.0000E+00  0.1006E+03  0.7200E+02  0.2397E+02
    -46.396  0.0000E+00  0.9224E+02  0.7200E+02  0.4594E+02
    -46.158  0.0000E+00  0.1094E+03  0.7200E+02  0.7200E+02
    -45.920  0.0000E+00  0.0000E+00  0.7200E+02  0.7200E+02
    -45.682  0.0000E+00  0.0000E+00  0.7200E+02  0.7200E+02
    -45.443  0.0000E+00  0.0000E+00  0.7200E+02  0.7200E+02
    -45.205  0.0000E+00  0.0000E+00  0.7200E+02  0.7200E+02
    -44.967  0.0000E+00  0.0000E+00  0.7200E+02  0.7200E+02
    -44.729  0.0000E+00  0.0000E+00  0.7200E+02  0.7200E+02
    -44.490  0.0000E+00  0.0000E+00  0.7200E+02  0.7200E+02
    -44.252  0.0000E+00  0.0000E+00  0.7200E+02  0.7200E+02
    -44.014  0.0000E+00  0.0000E+00  0.7200E+02  0.7200E+02
    -43.776  0.0000E+00  0.0000E+00  0.7200E+02  0.7200E+02
    -43.538  0.0000E+00  0.0000E+00  0.7200E+02  0.7200E+02
    -43.299  0.0000E+00  0.0000E+00  0.7200E+02  0.7200E+02
    -43.061  0.0000E+00  0.0000E+00  0.7200E+02  0.7200E+02
    -42.823  0.0000E+00  0.0000E+00  0.7200E+02  0.7200E+02
    -42.585  0.0000E+00  0.0000E+00  0.7200E+02  0.7200E+02
    -42.346  0.0000E+00  0.0000E+00  0.7200E+02  0.7200E+02
    -42.108  0.0000E+00  0.0000E+00  0.7200E+02  0.7200E+02
    -41.870  0.0000E+00  0.0000E+00  0.7200E+02  0.7200E+02
    -41.632  0.0000E+00  0.0000E+00  0.7200E+02  0.7200E+02
    -41.394  0.0000E+00  0.0000E+00  0.7200E+02  0.7200E+02
    -41.155  0.0000E+00  0.0000E+00  0.7200E+02  0.7200E+02
    -40.917  0.0000E+00  0.0000E+00  0.7200E+02  0.7200E+02
    -40.679  0.1919E-03  0.5757E-04  0.7200E+02  0.7200E+02
    -40.441  0.9848E+02  0.9681E+02  0.9546E+02  0.9506E+02
    -40.202  0.1028E+03  0.1045E+03  0.1200E+03  0.1200E+03
    -39.964  0.2014E+00  0.2014E+00  0.1200E+03  0.1200E+03
    -39.726  0.0000E+00  0.0000E+00  0.1200E+03  0.1200E+03
    -39.488  0.0000E+00  0.0000E+00  0.1200E+03  0.1200E+03
    -39.249  0.0000E+00  0.0000E+00  0.1200E+03  0.1200E+03
    -39.011  0.0000E+00  0.0000E+00  0.1200E+03  0.1200E+03
    -38.773  0.0000E+00  0.0000E+00  0.1200E+03  0.1200E+03
    -38.535  0.0000E+00  0.0000E+00  0.1200E+03  0.1200E+03
    -38.297  0.0000E+00  0.0000E+00  0.1200E+03  0.1200E+03
    -38.058  0.0000E+00  0.0000E+00  0.1200E+03  0.1200E+03
    -37.820  0.0000E+00  0.0000E+00  0.1200E+03  0.1200E+03
    -37.582  0.0000E+00  0.0000E+00  0.1200E+03  0.1200E+03
    -37.344  0.0000E+00  0.0000E+00  0.1200E+03  0.1200E+03
    -37.105  0.0000E+00  0.0000E+00  0.1200E+03  0.1200E+03
    -36.867  0.0000E+00  0.0000E+00  0.1200E+03  0.1200E+03
    -36.629  0.0000E+00  0.0000E+00  0.1200E+03  0.1200E+03
    -36.391  0.0000E+00  0.0000E+00  0.1200E+03  0.1200E+03
    -36.153  0.0000E+00  0.0000E+00  0.1200E+03  0.1200E+03
    -35.914  0.0000E+00  0.0000E+00  0.1200E+03  0.1200E+03
    -35.676  0.0000E+00  0.0000E+00  0.1200E+03  0.1200E+03
    -35.438  0.0000E+00  0.0000E+00  0.1200E+03  0.1200E+03
    -35.200  0.0000E+00  0.0000E+00  0.1200E+03  0.1200E+03
    -34.961  0.0000E+00  0.0000E+00  0.1200E+03  0.1200E+03
    -34.723  0.0000E+00  0.0000E+00  0.1200E+03  0.1200E+03
    -34.485  0.0000E+00  0.0000E+00  0.1200E+03  0.1200E+03
    -34.247  0.0000E+00  0.0000E+00  0.1200E+03  0.1200E+03
    -34.009  0.0000E+00  0.0000E+00  0.1200E+03  0.1200E+03
    -33.770  0.0000E+00  0.0000E+00  0.1200E+03  0.1200E+03
    -33.532  0.0000E+00  0.0000E+00  0.1200E+03  0.1200E+03
    -33.294  0.0000E+00  0.0000E+00  0.1200E+03  0.1200E+03
    -33.056  0.0000E+00  0.0000E+00  0.1200E+03  0.1200E+03
    -32.817  0.0000E+00  0.0000E+00  0.1200E+03  0.1200E+03
    -32.579  0.0000E+00  0.0000E+00  0.1200E+03  0.1200E+03
    -32.341  0.0000E+00  0.0000E+00  0.1200E+03  0.1200E+03
    -32.103  0.0000E+00  0.0000E+00  0.1200E+03  0.1200E+03
    -31.864  0.0000E+00  0.0000E+00  0.1200E+03  0.1200E+03
    -31.626  0.0000E+00  0.0000E+00  0.1200E+03  0.1200E+03
    -31.388  0.0000E+00  0.0000E+00  0.1200E+03  0.1200E+03
    -31.150  0.0000E+00  0.0000E+00  0.1200E+03  0.1200E+03
    -30.912  0.0000E+00  0.0000E+00  0.1200E+03  0.1200E+03
    -30.673  0.0000E+00  0.0000E+00  0.1200E+03  0.1200E+03
    -30.435  0.0000E+00  0.0000E+00  0.1200E+03  0.1200E+03
    -30.197  0.0000E+00  0.0000E+00  0.1200E+03  0.1200E+03
    -29.959  0.0000E+00  0.0000E+00  0.1200E+03  0.1200E+03
    -29.720  0.0000E+00  0.0000E+00  0.1200E+03  0.1200E+03
    -29.482  0.0000E+00  0.0000E+00  0.1200E+03  0.1200E+03
    -29.244  0.0000E+00  0.0000E+00  0.1200E+03  0.1200E+03
    -29.006  0.0000E+00  0.0000E+00  0.1200E+03  0.1200E+03
    -28.768  0.0000E+00  0.0000E+00  0.1200E+03  0.1200E+03
    -28.529  0.0000E+00  0.0000E+00  0.1200E+03  0.1200E+03
    -28.291  0.0000E+00  0.0000E+00  0.1200E+03  0.1200E+03
    -28.053  0.0000E+00  0.0000E+00  0.1200E+03  0.1200E+03
    -27.815  0.0000E+00  0.0000E+00  0.1200E+03  0.1200E+03
    -27.576  0.0000E+00  0.0000E+00  0.1200E+03  0.1200E+03
    -27.338  0.0000E+00  0.0000E+00  0.1200E+03  0.1200E+03
    -27.100  0.0000E+00  0.0000E+00  0.1200E+03  0.1200E+03
    -26.862  0.0000E+00  0.0000E+00  0.1200E+03  0.1200E+03
    -26.624  0.0000E+00  0.0000E+00  0.1200E+03  0.1200E+03
    -26.385  0.0000E+00  0.0000E+00  0.1200E+03  0.1200E+03
    -26.147  0.0000E+00  0.0000E+00  0.1200E+03  0.1200E+03
    -25.909  0.0000E+00  0.0000E+00  0.1200E+03  0.1200E+03
    -25.671  0.0000E+00  0.0000E+00  0.1200E+03  0.1200E+03
    -25.432  0.0000E+00  0.0000E+00  0.1200E+03  0.1200E+03
    -25.194  0.0000E+00  0.0000E+00  0.1200E+03  0.1200E+03
    -24.956  0.0000E+00  0.0000E+00  0.1200E+03  0.1200E+03
    -24.718  0.0000E+00  0.0000E+00  0.1200E+03  0.1200E+03
    -24.479  0.0000E+00  0.0000E+00  0.1200E+03  0.1200E+03
    -24.241  0.0000E+00  0.0000E+00  0.1200E+03  0.1200E+03
    -24.003  0.0000E+00  0.0000E+00  0.1200E+03  0.1200E+03
    -23.765  0.0000E+00  0.0000E+00  0.1200E+03  0.1200E+03
    -23.527  0.0000E+00  0.0000E+00  0.1200E+03  0.1200E+03
    -23.288  0.0000E+00  0.0000E+00  0.1200E+03  0.1200E+03
    -23.050  0.0000E+00  0.0000E+00  0.1200E+03  0.1200E+03
    -22.812  0.0000E+00  0.0000E+00  0.1200E+03  0.1200E+03
    -22.574  0.0000E+00  0.0000E+00  0.1200E+03  0.1200E+03
    -22.335  0.0000E+00  0.0000E+00  0.1200E+03  0.1200E+03
    -22.097  0.0000E+00  0.0000E+00  0.1200E+03  0.1200E+03
    -21.859  0.0000E+00  0.0000E+00  0.1200E+03  0.1200E+03
    -21.621  0.0000E+00  0.0000E+00  0.1200E+03  0.1200E+03
    -21.383  0.0000E+00  0.0000E+00  0.1200E+03  0.1200E+03
    -21.144  0.0000E+00  0.0000E+00  0.1200E+03  0.1200E+03
    -20.906  0.0000E+00  0.0000E+00  0.1200E+03  0.1200E+03
    -20.668  0.0000E+00  0.0000E+00  0.1200E+03  0.1200E+03
    -20.430  0.0000E+00  0.0000E+00  0.1200E+03  0.1200E+03
    -20.191  0.0000E+00  0.0000E+00  0.1200E+03  0.1200E+03
    -19.953  0.0000E+00  0.0000E+00  0.1200E+03  0.1200E+03
    -19.715  0.0000E+00  0.0000E+00  0.1200E+03  0.1200E+03
    -19.477  0.0000E+00  0.0000E+00  0.1200E+03  0.1200E+03
    -19.239  0.0000E+00  0.0000E+00  0.1200E+03  0.1200E+03
    -19.000  0.0000E+00  0.0000E+00  0.1200E+03  0.1200E+03
    -18.762  0.0000E+00  0.0000E+00  0.1200E+03  0.1200E+03
    -18.524  0.0000E+00  0.0000E+00  0.1200E+03  0.1200E+03
    -18.286  0.0000E+00  0.0000E+00  0.1200E+03  0.1200E+03
    -18.047  0.0000E+00  0.0000E+00  0.1200E+03  0.1200E+03
    -17.809  0.0000E+00  0.0000E+00  0.1200E+03  0.1200E+03
    -17.571  0.0000E+00  0.0000E+00  0.1200E+03  0.1200E+03
    -17.333  0.0000E+00  0.0000E+00  0.1200E+03  0.1200E+03
    -17.095  0.0000E+00  0.0000E+00  0.1200E+03  0.1200E+03
    -16.856  0.0000E+00  0.0000E+00  0.1200E+03  0.1200E+03
    -16.618  0.0000E+00  0.0000E+00  0.1200E+03  0.1200E+03
    -16.380  0.0000E+00  0.0000E+00  0.1200E+03  0.1200E+03
    -16.142  0.0000E+00  0.0000E+00  0.1200E+03  0.1200E+03
    -15.903  0.0000E+00  0.0000E+00  0.1200E+03  0.1200E+03
    -15.665  0.0000E+00  0.0000E+00  0.1200E+03  0.1200E+03
    -15.427  0.0000E+00  0.0000E+00  0.1200E+03  0.1200E+03
    -15.189  0.0000E+00  0.0000E+00  0.1200E+03  0.1200E+03
    -14.950  0.0000E+00  0.0000E+00  0.1200E+03  0.1200E+03
    -14.712  0.0000E+00  0.0000E+00  0.1200E+03  0.1200E+03
    -14.474  0.0000E+00  0.0000E+00  0.1200E+03  0.1200E+03
    -14.236  0.0000E+00  0.0000E+00  0.1200E+03  0.1200E+03
    -13.998  0.0000E+00  0.0000E+00  0.1200E+03  0.1200E+03
    -13.759  0.1330E-08  0.0000E+00  0.1200E+03  0.1200E+03
    -13.521  0.8863E+01  0.2416E-15  0.1221E+03  0.1200E+03
    -13.283  0.5998E+02  0.3263E+00  0.1364E+03  0.1201E+03
    -13.045  0.3191E+02  0.6715E+02  0.1440E+03  0.1361E+03
    -12.806  0.2680E-03  0.3327E+02  0.1440E+03  0.1440E+03
    -12.568  0.0000E+00  0.3294E-04  0.1440E+03  0.1440E+03
    -12.330  0.0000E+00  0.0000E+00  0.1440E+03  0.1440E+03
    -12.092  0.0000E+00  0.0000E+00  0.1440E+03  0.1440E+03
    -11.854  0.0000E+00  0.0000E+00  0.1440E+03  0.1440E+03
    -11.615  0.0000E+00  0.0000E+00  0.1440E+03  0.1440E+03
    -11.377  0.0000E+00  0.0000E+00  0.1440E+03  0.1440E+03
    -11.139  0.0000E+00  0.0000E+00  0.1440E+03  0.1440E+03
    -10.901  0.0000E+00  0.0000E+00  0.1440E+03  0.1440E+03
    -10.662  0.0000E+00  0.0000E+00  0.1440E+03  0.1440E+03
    -10.424  0.0000E+00  0.0000E+00  0.1440E+03  0.1440E+03
    -10.186  0.0000E+00  0.0000E+00  0.1440E+03  0.1440E+03
     -9.948  0.0000E+00  0.0000E+00  0.1440E+03  0.1440E+03
     -9.710  0.0000E+00  0.0000E+00  0.1440E+03  0.1440E+03
     -9.471  0.0000E+00  0.0000E+00  0.1440E+03  0.1440E+03
     -9.233  0.0000E+00  0.0000E+00  0.1440E+03  0.1440E+03
     -8.995  0.0000E+00  0.0000E+00  0.1440E+03  0.1440E+03
     -8.757  0.0000E+00  0.0000E+00  0.1440E+03  0.1440E+03
     -8.518  0.0000E+00  0.0000E+00  0.1440E+03  0.1440E+03
     -8.280  0.0000E+00  0.0000E+00  0.1440E+03  0.1440E+03
     -8.042  0.0000E+00  0.0000E+00  0.1440E+03  0.1440E+03
     -7.804  0.1221E-01  0.2675E-15  0.1440E+03  0.1440E+03
     -7.565  0.1848E+02  0.1359E+00  0.1484E+03  0.1440E+03
     -7.327  0.4817E+02  0.2903E+02  0.1599E+03  0.1509E+03
     -7.089  0.3323E+02  0.4936E+02  0.1678E+03  0.1627E+03
     -6.851  0.8475E+00  0.2157E+02  0.1680E+03  0.1678E+03
     -6.613  0.0000E+00  0.6477E+00  0.1680E+03  0.1680E+03
     -6.374  0.0000E+00  0.0000E+00  0.1680E+03  0.1680E+03
     -6.136  0.0000E+00  0.0000E+00  0.1680E+03  0.1680E+03
     -5.898  0.0000E+00  0.0000E+00  0.1680E+03  0.1680E+03
     -5.660  0.0000E+00  0.0000E+00  0.1680E+03  0.1680E+03
     -5.421  0.0000E+00  0.0000E+00  0.1680E+03  0.1680E+03
     -5.183  0.0000E+00  0.0000E+00  0.1680E+03  0.1680E+03
     -4.945  0.0000E+00  0.0000E+00  0.1680E+03  0.1680E+03
     -4.707  0.0000E+00  0.0000E+00  0.1680E+03  0.1680E+03
     -4.469  0.0000E+00  0.0000E+00  0.1680E+03  0.1680E+03
     -4.230  0.0000E+00  0.0000E+00  0.1680E+03  0.1680E+03
     -3.992  0.0000E+00  0.0000E+00  0.1680E+03  0.1680E+03
     -3.754  0.0000E+00  0.0000E+00  0.1680E+03  0.1680E+03
     -3.516  0.0000E+00  0.0000E+00  0.1680E+03  0.1680E+03
     -3.277  0.0000E+00  0.0000E+00  0.1680E+03  0.1680E+03
     -3.039  0.0000E+00  0.0000E+00  0.1680E+03  0.1680E+03
     -2.801  0.0000E+00  0.0000E+00  0.1680E+03  0.1680E+03
     -2.563  0.0000E+00  0.0000E+00  0.1680E+03  0.1680E+03
     -2.325  0.0000E+00  0.0000E+00  0.1680E+03  0.1680E+03
     -2.086  0.2602E-05  0.0000E+00  0.1680E+03  0.1680E+03
     -1.848  0.8137E+01  0.0000E+00  0.1699E+03  0.1680E+03
     -1.610  0.5838E+02  0.0000E+00  0.1838E+03  0.1680E+03
     -1.372  0.4133E+02  0.0000E+00  0.1937E+03  0.1680E+03
     -1.133  0.3257E+02  0.0000E+00  0.2015E+03  0.1680E+03
     -0.895  0.5401E+02  0.2794E-08  0.2143E+03  0.1680E+03
     -0.657  0.5332E+02  0.1827E+01  0.2270E+03  0.1684E+03
     -0.419  0.6703E+02  0.1732E+02  0.2430E+03  0.1726E+03
     -0.180  0.5423E+02  0.3879E+02  0.2559E+03  0.1818E+03
      0.058  0.3446E+02  0.3504E+02  0.2641E+03  0.1901E+03
      0.296  0.5515E+02  0.2291E+02  0.2773E+03  0.1956E+03
      0.534  0.4764E+02  0.4866E+02  0.2886E+03  0.2072E+03
      0.772  0.3246E+02  0.4858E+02  0.2963E+03  0.2188E+03
      1.011  0.4990E+02  0.6844E+02  0.3082E+03  0.2351E+03
      1.249  0.4907E+02  0.2599E+02  0.3199E+03  0.2413E+03
      1.487  0.5431E+02  0.2302E+02  0.3329E+03  0.2468E+03
      1.725  0.6190E+02  0.3817E+02  0.3476E+03  0.2558E+03
      1.964  0.3401E+02  0.4597E+02  0.3557E+03  0.2668E+03
      2.202  0.2425E+02  0.2946E+02  0.3615E+03  0.2738E+03
      2.440  0.1368E+02  0.3577E+02  0.3647E+03  0.2823E+03
      2.678  0.3760E+02  0.2538E+02  0.3737E+03  0.2884E+03
      2.916  0.3867E+02  0.4571E+02  0.3829E+03  0.2993E+03
      3.155  0.3036E+02  0.4175E+02  0.3901E+03  0.3092E+03
      3.393  0.4382E+02  0.1445E+02  0.4006E+03  0.3127E+03
      3.631  0.5349E+02  0.3072E+02  0.4133E+03  0.3200E+03
      3.869  0.4724E+02  0.5696E+02  0.4246E+03  0.3335E+03
      4.108  0.2917E+02  0.1029E+02  0.4315E+03  0.3360E+03
      4.346  0.2016E+01  0.7640E-05  0.4320E+03  0.3360E+03
      4.584  0.0000E+00  0.0000E+00  0.4320E+03  0.3360E+03
      4.822  0.0000E+00  0.0000E+00  0.4320E+03  0.3360E+03
      5.060  0.0000E+00  0.0000E+00  0.4320E+03  0.3360E+03
      5.299  0.0000E+00  0.0000E+00  0.4320E+03  0.3360E+03
      5.537  0.0000E+00  0.0000E+00  0.4320E+03  0.3360E+03
      5.775  0.0000E+00  0.0000E+00  0.4320E+03  0.3360E+03
      6.013  0.0000E+00  0.4153E-02  0.4320E+03  0.3360E+03
      6.252  0.0000E+00  0.1916E+01  0.4320E+03  0.3365E+03
      6.490  0.0000E+00  0.1357E+02  0.4320E+03  0.3397E+03
      6.728  0.0000E+00  0.2694E+02  0.4320E+03  0.3461E+03
      6.966  0.0000E+00  0.2516E+02  0.4320E+03  0.3521E+03
      7.205  0.9636E-05  0.5770E+02  0.4320E+03  0.3658E+03
      7.443  0.1552E+00  0.7560E+02  0.4320E+03  0.3839E+03
      7.681  0.7392E+00  0.2939E+02  0.4322E+03  0.3909E+03
      7.919  0.1503E+01  0.4125E+02  0.4326E+03  0.4007E+03
      8.157  0.4820E+01  0.7802E+02  0.4337E+03  0.4193E+03
      8.396  0.7100E+01  0.5008E+02  0.4354E+03  0.4312E+03
      8.634  0.1573E+02  0.3757E+01  0.4392E+03  0.4321E+03
      8.872  0.2393E+02  0.1148E+01  0.4449E+03  0.4324E+03
      9.110  0.1975E+02  0.4491E+01  0.4496E+03  0.4334E+03
      9.349  0.1941E+02  0.1072E+02  0.4542E+03  0.4360E+03
      9.587  0.1986E+02  0.2099E+02  0.4589E+03  0.4410E+03
      9.825  0.2443E+02  0.2880E+02  0.4647E+03  0.4479E+03
     10.063  0.2203E+02  0.3013E+02  0.4700E+03  0.4550E+03
     10.301  0.1789E+02  0.3007E+02  0.4742E+03  0.4622E+03
     10.540  0.2470E+02  0.2579E+02  0.4801E+03  0.4683E+03
     10.778  0.1503E+02  0.2590E+02  0.4837E+03  0.4745E+03
     11.016  0.2739E+02  0.2432E+02  0.4902E+03  0.4803E+03
     11.254  0.4548E+02  0.1029E+02  0.5011E+03  0.4828E+03
     11.493  0.4866E+02  0.2582E+02  0.5127E+03  0.4889E+03
     11.731  0.3526E+02  0.3039E+02  0.5211E+03  0.4961E+03
     11.969  0.2029E+02  0.5659E+02  0.5259E+03  0.5096E+03
     12.207  0.2080E+02  0.4443E+02  0.5308E+03  0.5202E+03
     12.445  0.3006E+02  0.2680E+02  0.5380E+03  0.5266E+03
     12.684  0.3248E+02  0.2375E+02  0.5457E+03  0.5323E+03
     12.922  0.1858E+02  0.2756E+02  0.5502E+03  0.5388E+03
     13.160  0.7585E+01  0.3304E+02  0.5520E+03  0.5467E+03
     13.398  0.8679E-01  0.1823E+02  0.5520E+03  0.5510E+03
     13.637  0.0000E+00  0.4056E+01  0.5520E+03  0.5520E+03
     13.875  0.0000E+00  0.4031E-05  0.5520E+03  0.5520E+03
     14.113  0.0000E+00  0.0000E+00  0.5520E+03  0.5520E+03
     14.351  0.0000E+00  0.0000E+00  0.5520E+03  0.5520E+03
     14.589  0.0000E+00  0.0000E+00  0.5520E+03  0.5520E+03
     14.828  0.0000E+00  0.0000E+00  0.5520E+03  0.5520E+03
     15.066  0.0000E+00  0.0000E+00  0.5520E+03  0.5520E+03
     15.304  0.0000E+00  0.0000E+00  0.5520E+03  0.5520E+03
     15.542  0.0000E+00  0.0000E+00  0.5520E+03  0.5520E+03
     15.781  0.0000E+00  0.0000E+00  0.5520E+03  0.5520E+03
     16.019  0.0000E+00  0.0000E+00  0.5520E+03  0.5520E+03
     16.257  0.0000E+00  0.0000E+00  0.5520E+03  0.5520E+03
     16.495  0.0000E+00  0.0000E+00  0.5520E+03  0.5520E+03
     16.734  0.0000E+00  0.0000E+00  0.5520E+03  0.5520E+03
