<?xml version="1.0" encoding="ISO-8859-1"?>
<modeling>
 <generator>
  <i name="program" type="string">vasp </i>
  <i name="version" type="string">5.4.4.18Apr17-6-g9f103f2a35  </i>
  <i name="subversion" type="string">(build Oct 25 2017 14:42:18) complex            parallel </i>
  <i name="platform" type="string">LinuxIFC </i>
  <i name="date" type="string">2021 04 18 </i>
  <i name="time" type="string">02:42:19 </i>
 </generator>
 <incar>
  <i type="string" name="PREC">accurate</i>
  <i type="string" name="ALGO"> normal</i>
  <i type="logical" name="ADDGRID"> T  </i>
  <i type="int" name="ISPIN">     2</i>
  <i type="int" name="ICHARG">     1</i>
  <i type="int" name="NELM">   200</i>
  <i type="int" name="NELMIN">     8</i>
  <i name="EDIFF">      0.00000100</i>
  <i type="int" name="ISYM">     0</i>
  <i name="ENCUT">    650.00000000</i>
  <v name="MAGMOM">      0.60000000      0.60000000      0.60000000      0.60000000      0.60000000      0.60000000      0.60000000      0.60000000      0.60000000      0.60000000      0.60000000      0.60000000      0.60000000      0.60000000      0.60000000      0.60000000      0.60000000      0.60000000      0.60000000      0.60000000
      0.60000000      0.60000000      0.60000000      0.60000000      0.60000000      0.60000000      0.60000000      0.60000000      0.60000000      0.60000000      0.60000000      0.60000000      0.60000000      0.60000000      0.60000000      0.60000000      0.60000000      0.60000000      0.60000000      0.60000000
      0.60000000      0.60000000      0.60000000      0.60000000      0.60000000      0.60000000      0.60000000      0.60000000      5.00000000      5.00000000      5.00000000      5.00000000      5.00000000      5.00000000      5.00000000      5.00000000      5.00000000      5.00000000      5.00000000      5.00000000
      5.00000000      5.00000000      5.00000000      5.00000000      5.00000000      5.00000000      5.00000000      5.00000000      5.00000000      5.00000000      5.00000000      5.00000000      5.00000000      5.00000000      5.00000000      5.00000000      5.00000000      5.00000000      5.00000000      5.00000000
      5.00000000      5.00000000      5.00000000      5.00000000      0.60000000      0.60000000      0.60000000      0.60000000      0.60000000      0.60000000      0.60000000      0.60000000      0.60000000      0.60000000      0.60000000      0.60000000      0.60000000      0.60000000      0.60000000      0.60000000
      0.60000000      0.60000000      0.60000000      0.60000000      0.60000000      0.60000000      0.60000000      0.60000000      0.60000000      0.60000000      0.60000000      0.60000000      0.60000000      0.60000000      0.60000000      0.60000000      0.60000000      0.60000000      0.60000000      0.60000000
      0.60000000      0.60000000      0.60000000      0.60000000      0.60000000      0.60000000      0.60000000      0.60000000      0.60000000      0.60000000      0.60000000      0.60000000      0.60000000      0.60000000      0.60000000      0.60000000      0.60000000      0.60000000      0.60000000      0.60000000
      0.60000000      0.60000000      0.60000000      0.60000000</v>
  <i type="logical" name="LREAL"> F  </i>
  <i type="int" name="ISMEAR">     0</i>
  <i name="SIGMA">      0.05000000</i>
  <i type="int" name="NWRITE">     1</i>
  <i type="int" name="LMAXMIX">     4</i>
  <i type="logical" name="LWAVE"> F  </i>
  <i type="logical" name="LASPH"> T  </i>
  <v type="int" name="KPOINT_BSE">    -1     0     0     0</v>
  <i type="int" name="NELM">   200</i>
  <i type="string" name="GGA"> pe</i>
  <i type="logical" name="LDAU"> T  </i>
  <v type="int" name="LDAUTYPE">     2</v>
  <v type="int" name="LDAUL">    -1     2    -1    -1</v>
  <v name="LDAUU">      0.00000000      4.00000000      0.00000000      0.00000000</v>
  <v name="LDAUJ">      0.00000000      0.00000000      0.00000000      0.00000000</v>
  <i type="logical" name="LASPH"> T  </i>
 </incar>
 <structure name="primitive_cell" >
  <crystal>
   <varray name="basis" >
    <v>      15.21162830       0.00516956      -2.78361592 </v>
    <v>      -0.40798665      11.93565774      -2.20735884 </v>
    <v>      -0.06175567      -0.11168197      10.54442638 </v>
   </varray>
   <i name="volume">   1908.54869108 </i>
   <varray name="rec_basis" >
    <v>       0.06581343       0.00232549       0.00041008 </v>
    <v>       0.00013433       0.08395174       0.00088997 </v>
    <v>       0.01740216       0.01818827       0.09513139 </v>
   </varray>
  </crystal>
  <varray name="positions" >
   <v>       0.47527516       0.00074367       0.00446200 </v>
   <v>      -0.47527003       0.03239991       0.19439947 </v>
   <v>       0.47618324      -0.03189981      -0.19139884 </v>
   <v>       0.37500000       0.16666667       0.00000000 </v>
   <v>       0.37500000      -0.16666667       0.00000000 </v>
   <v>       0.40535584       0.03794021       0.22764128 </v>
   <v>      -0.35733875       0.02567762       0.15406572 </v>
   <v>       0.47796480       0.13582521      -0.18504874 </v>
   <v>       0.47796480      -0.19750812      -0.18504874 </v>
   <v>       0.34464416      -0.03794021      -0.22764128 </v>
   <v>      -0.39266125      -0.02567762      -0.15406572 </v>
   <v>      -0.47447416       0.19979622       0.19877732 </v>
   <v>      -0.47447416      -0.13353711       0.19877732 </v>
   <v>      -0.37500000       0.16666667       0.00000000 </v>
   <v>      -0.37500000      -0.16666667       0.00000000 </v>
   <v>       0.27472484      -0.00074367      -0.00446200 </v>
   <v>       0.27381676       0.03189981       0.19139884 </v>
   <v>      -0.42788806       0.06536154       0.39216926 </v>
   <v>       0.22527003      -0.03239991      -0.19439947 </v>
   <v>       0.47527516      -0.33258966       0.00446200 </v>
   <v>       0.47527516       0.33407700       0.00446200 </v>
   <v>       0.46517249      -0.06641917      -0.39851502 </v>
   <v>       0.27203520       0.19750812       0.18504874 </v>
   <v>       0.27203520      -0.13582521       0.18504874 </v>
   <v>      -0.47527003       0.36573324       0.19439947 </v>
   <v>      -0.47527003      -0.30093342       0.19439947 </v>
   <v>       0.41542107       0.22793643       0.36761855 </v>
   <v>       0.41542107      -0.10539691       0.36761855 </v>
   <v>       0.22447416       0.13353711      -0.19877732 </v>
   <v>       0.22447416      -0.19979622      -0.19877732 </v>
   <v>       0.33457893       0.10539691      -0.36761855 </v>
   <v>       0.33457893      -0.22793643      -0.36761855 </v>
   <v>       0.47618324       0.30143353      -0.19139884 </v>
   <v>       0.47618324      -0.36523314      -0.19139884 </v>
   <v>      -0.22527516      -0.00074367      -0.00446200 </v>
   <v>      -0.22618324       0.03189981       0.19139884 </v>
   <v>      -0.27472997      -0.03239991      -0.19439947 </v>
   <v>      -0.32385262       0.22809805       0.36858830 </v>
   <v>      -0.32385262      -0.10523528       0.36858830 </v>
   <v>      -0.42614738       0.10523528      -0.36858830 </v>
   <v>      -0.42614738      -0.22809805      -0.36858830 </v>
   <v>       0.40535584       0.37127355       0.22764128 </v>
   <v>       0.40535584      -0.29539312       0.22764128 </v>
   <v>      -0.35733875       0.35901095       0.15406572 </v>
   <v>      -0.35733875      -0.30765571       0.15406572 </v>
   <v>       0.34464416       0.29539312      -0.22764128 </v>
   <v>       0.34464416      -0.37127355      -0.22764128 </v>
   <v>      -0.39266125       0.30765571      -0.15406572 </v>
   <v>      -0.39266125      -0.35901095      -0.15406572 </v>
   <v>      -0.22796480       0.19750812       0.18504874 </v>
   <v>      -0.22796480      -0.13582521       0.18504874 </v>
   <v>       0.27472484       0.33258966      -0.00446200 </v>
   <v>       0.27472484      -0.33407700      -0.00446200 </v>
   <v>      -0.27552584       0.13353711      -0.19877732 </v>
   <v>      -0.27552584      -0.19979622      -0.19877732 </v>
   <v>       0.28482751       0.06641917       0.39851502 </v>
   <v>       0.17788806      -0.06536154      -0.39216926 </v>
   <v>       0.10733875      -0.02567762      -0.15406572 </v>
   <v>      -0.32211194      -0.06536154      -0.39216926 </v>
   <v>       0.14266125       0.02567762       0.15406572 </v>
   <v>       0.27381676       0.36523314       0.19139884 </v>
   <v>       0.27381676      -0.30143353       0.19139884 </v>
   <v>      -0.21517249       0.06641917       0.39851502 </v>
   <v>      -0.42788806       0.39869487       0.39216926 </v>
   <v>      -0.42788806      -0.26797179       0.39216926 </v>
   <v>       0.22527003      -0.36573324      -0.19439947 </v>
   <v>       0.22462338       0.30093342      -0.19439947 </v>
   <v>       0.12500000       0.16666667       0.00000000 </v>
   <v>       0.12500000      -0.16666667       0.00000000 </v>
   <v>       0.46517249       0.26691416      -0.39851502 </v>
   <v>       0.46517249      -0.39975250      -0.39851502 </v>
   <v>      -0.22527516       0.33258966      -0.00446200 </v>
   <v>      -0.22527516      -0.33407700      -0.00446200 </v>
   <v>      -0.22618324       0.36523314       0.19139884 </v>
   <v>      -0.22618324      -0.30143353       0.19139884 </v>
   <v>      -0.27472997       0.30093342      -0.19439947 </v>
   <v>      -0.27472997      -0.36573324      -0.19439947 </v>
   <v>       0.37500000      -0.50000000       0.00000000 </v>
   <v>       0.47796480       0.46915854      -0.18504874 </v>
   <v>      -0.47447416      -0.46687045       0.19877732 </v>
   <v>      -0.37500000      -0.50000000       0.00000000 </v>
   <v>      -0.12500000       0.16666667       0.00000000 </v>
   <v>      -0.12500000      -0.16666667       0.00000000 </v>
   <v>      -0.15535584      -0.03794021      -0.22764128 </v>
   <v>      -0.09464416       0.03794021       0.22764128 </v>
   <v>       0.28482751      -0.26691416       0.39851502 </v>
   <v>      -0.32211194       0.26797179      -0.39216926 </v>
   <v>       0.28482751       0.39975250       0.39851502 </v>
   <v>       0.17614738       0.22809805       0.36858830 </v>
   <v>       0.17614738      -0.10523528       0.36858830 </v>
   <v>       0.17788806       0.26797179      -0.39216926 </v>
   <v>       0.17788806      -0.39869487      -0.39216926 </v>
   <v>       0.10733875       0.30765571      -0.15406572 </v>
   <v>       0.10733875      -0.35901095      -0.15406572 </v>
   <v>      -0.32211194      -0.39869487      -0.39216926 </v>
   <v>       0.14266125       0.35901095       0.15406572 </v>
   <v>       0.14266125      -0.30765571       0.15406572 </v>
   <v>       0.07385262       0.10523528      -0.36858830 </v>
   <v>       0.07385262      -0.22809805      -0.36858830 </v>
   <v>      -0.21517249       0.39975250       0.39851502 </v>
   <v>      -0.21517249      -0.26691416       0.39851502 </v>
   <v>       0.27203520      -0.46915854       0.18504874 </v>
   <v>       0.41542107      -0.43873024       0.36761855 </v>
   <v>       0.22447416       0.46687045      -0.19877732 </v>
   <v>       0.33457893       0.43873024      -0.36761855 </v>
   <v>      -0.08457893       0.22793643       0.36761855 </v>
   <v>      -0.08457893      -0.10539691       0.36761855 </v>
   <v>      -0.32385262      -0.43856862       0.36858830 </v>
   <v>      -0.42614738       0.43856862      -0.36858830 </v>
   <v>       0.02472997       0.03239991       0.19439947 </v>
   <v>      -0.02381676      -0.03189981      -0.19139884 </v>
   <v>      -0.16542107       0.10539691      -0.36761855 </v>
   <v>      -0.16542107      -0.22793643      -0.36761855 </v>
   <v>      -0.22796480      -0.46915854       0.18504874 </v>
   <v>      -0.27552584       0.46687045      -0.19877732 </v>
   <v>      -0.02472484       0.00074367       0.00446200 </v>
   <v>      -0.15535584       0.29539312      -0.22764128 </v>
   <v>      -0.15535584      -0.37127355      -0.22764128 </v>
   <v>      -0.09464416       0.37127355       0.22764128 </v>
   <v>      -0.09464416      -0.29539312       0.22764128 </v>
   <v>      -0.02203520       0.13582521      -0.18504874 </v>
   <v>      -0.02203520      -0.19750812      -0.18504874 </v>
   <v>       0.02552584       0.19979622       0.19877732 </v>
   <v>       0.02552584      -0.13353711       0.19877732 </v>
   <v>       0.07211194       0.06536154       0.39216926 </v>
   <v>       0.12500000      -0.50000000       0.00000000 </v>
   <v>      -0.03482751      -0.06641917      -0.39851502 </v>
   <v>       0.07211194      -0.26797179       0.39216926 </v>
   <v>       0.17614738      -0.43856862       0.36858830 </v>
   <v>       0.02472997       0.36573324       0.19439947 </v>
   <v>       0.02472997      -0.30093342       0.19439947 </v>
   <v>      -0.02381676       0.30143353      -0.19139884 </v>
   <v>      -0.02381676      -0.36523314      -0.19139884 </v>
   <v>      -0.12500000      -0.50000000       0.00000000 </v>
   <v>      -0.16542107       0.43873024      -0.36761855 </v>
   <v>      -0.02472484      -0.33258966       0.00446200 </v>
   <v>      -0.02472484       0.33407700       0.00446200 </v>
   <v>       0.07211194       0.39869487       0.39216926 </v>
   <v>       0.07385262       0.43856862      -0.36858830 </v>
   <v>      -0.03482751       0.26691416      -0.39851502 </v>
   <v>      -0.03482751      -0.39975250      -0.39851502 </v>
   <v>      -0.08457893      -0.43873024       0.36761855 </v>
   <v>      -0.02203520       0.46915854      -0.18504874 </v>
   <v>       0.02552584      -0.46687045       0.19877732 </v>
  </varray>
 </structure>
 <varray name="primitive_index" >
  <v type="int" >        1 </v>
  <v type="int" >      134 </v>
  <v type="int" >      131 </v>
  <v type="int" >       91 </v>
  <v type="int" >       95 </v>
  <v type="int" >       43 </v>
  <v type="int" >       38 </v>
  <v type="int" >       67 </v>
  <v type="int" >       71 </v>
  <v type="int" >       35 </v>
  <v type="int" >       30 </v>
  <v type="int" >       74 </v>
  <v type="int" >       78 </v>
  <v type="int" >       86 </v>
  <v type="int" >       90 </v>
  <v type="int" >       11 </v>
  <v type="int" >      139 </v>
  <v type="int" >       20 </v>
  <v type="int" >      125 </v>
  <v type="int" >        5 </v>
  <v type="int" >        3 </v>
  <v type="int" >       53 </v>
  <v type="int" >       79 </v>
  <v type="int" >       83 </v>
  <v type="int" >      136 </v>
  <v type="int" >      138 </v>
  <v type="int" >      103 </v>
  <v type="int" >      107 </v>
  <v type="int" >       61 </v>
  <v type="int" >       65 </v>
  <v type="int" >      115 </v>
  <v type="int" >      119 </v>
  <v type="int" >      127 </v>
  <v type="int" >      129 </v>
  <v type="int" >       12 </v>
  <v type="int" >      140 </v>
  <v type="int" >      126 </v>
  <v type="int" >       98 </v>
  <v type="int" >      102 </v>
  <v type="int" >      110 </v>
  <v type="int" >      114 </v>
  <v type="int" >       45 </v>
  <v type="int" >       47 </v>
  <v type="int" >       40 </v>
  <v type="int" >       42 </v>
  <v type="int" >       31 </v>
  <v type="int" >       33 </v>
  <v type="int" >       26 </v>
  <v type="int" >       28 </v>
  <v type="int" >       80 </v>
  <v type="int" >       84 </v>
  <v type="int" >        7 </v>
  <v type="int" >        9 </v>
  <v type="int" >       62 </v>
  <v type="int" >       66 </v>
  <v type="int" >       55 </v>
  <v type="int" >       17 </v>
  <v type="int" >       29 </v>
  <v type="int" >       18 </v>
  <v type="int" >       37 </v>
  <v type="int" >      141 </v>
  <v type="int" >      143 </v>
  <v type="int" >       56 </v>
  <v type="int" >       22 </v>
  <v type="int" >       24 </v>
  <v type="int" >      123 </v>
  <v type="int" >      121 </v>
  <v type="int" >       85 </v>
  <v type="int" >       89 </v>
  <v type="int" >       49 </v>
  <v type="int" >       51 </v>
  <v type="int" >        8 </v>
  <v type="int" >       10 </v>
  <v type="int" >      142 </v>
  <v type="int" >      144 </v>
  <v type="int" >      122 </v>
  <v type="int" >      124 </v>
  <v type="int" >       93 </v>
  <v type="int" >       69 </v>
  <v type="int" >       76 </v>
  <v type="int" >       88 </v>
  <v type="int" >       92 </v>
  <v type="int" >       96 </v>
  <v type="int" >       36 </v>
  <v type="int" >       44 </v>
  <v type="int" >       59 </v>
  <v type="int" >       14 </v>
  <v type="int" >       57 </v>
  <v type="int" >       97 </v>
  <v type="int" >      101 </v>
  <v type="int" >       13 </v>
  <v type="int" >       15 </v>
  <v type="int" >       25 </v>
  <v type="int" >       27 </v>
  <v type="int" >       16 </v>
  <v type="int" >       39 </v>
  <v type="int" >       41 </v>
  <v type="int" >      109 </v>
  <v type="int" >      113 </v>
  <v type="int" >       58 </v>
  <v type="int" >       60 </v>
  <v type="int" >       81 </v>
  <v type="int" >      105 </v>
  <v type="int" >       63 </v>
  <v type="int" >      117 </v>
  <v type="int" >      104 </v>
  <v type="int" >      108 </v>
  <v type="int" >      100 </v>
  <v type="int" >      112 </v>
  <v type="int" >      133 </v>
  <v type="int" >      132 </v>
  <v type="int" >      116 </v>
  <v type="int" >      120 </v>
  <v type="int" >       82 </v>
  <v type="int" >       64 </v>
  <v type="int" >        2 </v>
  <v type="int" >       32 </v>
  <v type="int" >       34 </v>
  <v type="int" >       46 </v>
  <v type="int" >       48 </v>
  <v type="int" >       68 </v>
  <v type="int" >       72 </v>
  <v type="int" >       73 </v>
  <v type="int" >       77 </v>
  <v type="int" >       19 </v>
  <v type="int" >       87 </v>
  <v type="int" >       54 </v>
  <v type="int" >       23 </v>
  <v type="int" >       99 </v>
  <v type="int" >      135 </v>
  <v type="int" >      137 </v>
  <v type="int" >      128 </v>
  <v type="int" >      130 </v>
  <v type="int" >       94 </v>
  <v type="int" >      118 </v>
  <v type="int" >        6 </v>
  <v type="int" >        4 </v>
  <v type="int" >       21 </v>
  <v type="int" >      111 </v>
  <v type="int" >       50 </v>
  <v type="int" >       52 </v>
  <v type="int" >      106 </v>
  <v type="int" >       70 </v>
  <v type="int" >       75 </v>
 </varray>
 <kpoints>
  <generation param="Gamma">
   <v type="int" name="divisions">       2        3        3 </v>
   <v name="usershift">      0.00000000       0.00000000       0.00000000 </v>
   <v name="genvec1">      0.50000000       0.00000000      -0.00000000 </v>
   <v name="genvec2">      0.00000000       0.33333333       0.00000000 </v>
   <v name="genvec3">      0.00000000       0.00000000       0.33333333 </v>
   <v name="shift">      0.00000000       0.00000000       0.00000000 </v>
  </generation>
  <varray name="kpointlist" >
   <v>       0.00000000       0.00000000       0.00000000 </v>
   <v>       0.50000000      -0.00000000       0.00000000 </v>
   <v>      -0.00000000       0.33333333      -0.00000000 </v>
   <v>       0.50000000       0.33333333      -0.00000000 </v>
   <v>      -0.00000000       0.00000000       0.33333333 </v>
   <v>       0.50000000       0.00000000       0.33333333 </v>
   <v>      -0.00000000       0.33333333       0.33333333 </v>
   <v>       0.50000000       0.33333333       0.33333333 </v>
   <v>      -0.00000000      -0.33333333       0.33333333 </v>
   <v>       0.50000000      -0.33333333       0.33333333 </v>
  </varray>
  <varray name="weights" >
   <v>       0.05555556 </v>
   <v>       0.05555556 </v>
   <v>       0.11111111 </v>
   <v>       0.11111111 </v>
   <v>       0.11111111 </v>
   <v>       0.11111111 </v>
   <v>       0.11111111 </v>
   <v>       0.11111111 </v>
   <v>       0.11111111 </v>
   <v>       0.11111111 </v>
  </varray>
 </kpoints>
 <parameters>
  <separator name="general" >
   <i type="string" name="SYSTEM">unknown system</i>
   <i type="logical" name="LCOMPAT"> F  </i>
  </separator>
  <separator name="electronic" >
   <i type="string" name="PREC">accura</i>
   <i name="ENMAX">    650.00000000</i>
   <i name="ENAUG">    628.94500000</i>
   <i name="EDIFF">      0.00000100</i>
   <i type="int" name="IALGO">    38</i>
   <i type="int" name="IWAVPR">    10</i>
   <i type="int" name="NBANDS">   728</i>
   <i name="NELECT">   1008.00000000</i>
   <i type="int" name="TURBO">     0</i>
   <i type="int" name="IRESTART">     0</i>
   <i type="int" name="NREBOOT">     0</i>
   <i type="int" name="NMIN">     0</i>
   <i name="EREF">      0.00000000</i>
   <separator name="electronic smearing" >
    <i type="int" name="ISMEAR">     0</i>
    <i name="SIGMA">      0.05000000</i>
    <i name="KSPACING">      0.50000000</i>
    <i type="logical" name="KGAMMA"> T  </i>
   </separator>
   <separator name="electronic projectors" >
    <i type="logical" name="LREAL"> F  </i>
    <v name="ROPT">      0.00000000      0.00000000      0.00000000      0.00000000</v>
    <i type="int" name="LMAXPAW">  -100</i>
    <i type="int" name="LMAXMIX">     4</i>
    <i type="logical" name="NLSPLINE"> F  </i>
   </separator>
   <separator name="electronic startup" >
    <i type="int" name="ISTART">     0</i>
    <i type="int" name="ICHARG">     1</i>
    <i type="int" name="INIWAV">     1</i>
   </separator>
   <separator name="electronic spin" >
    <i type="int" name="ISPIN">     2</i>
    <i type="logical" name="LNONCOLLINEAR"> F  </i>
    <v name="MAGMOM">      0.60000000      0.60000000      0.60000000      0.60000000      0.60000000      0.60000000      0.60000000      0.60000000      0.60000000      0.60000000      0.60000000      0.60000000      0.60000000      0.60000000      0.60000000      0.60000000      0.60000000      0.60000000      0.60000000      0.60000000
      0.60000000      0.60000000      0.60000000      0.60000000      0.60000000      0.60000000      0.60000000      0.60000000      0.60000000      0.60000000      0.60000000      0.60000000      0.60000000      0.60000000      0.60000000      0.60000000      0.60000000      0.60000000      0.60000000      0.60000000
      0.60000000      0.60000000      0.60000000      0.60000000      0.60000000      0.60000000      0.60000000      0.60000000      5.00000000      5.00000000      5.00000000      5.00000000      5.00000000      5.00000000      5.00000000      5.00000000      5.00000000      5.00000000      5.00000000      5.00000000
      5.00000000      5.00000000      5.00000000      5.00000000      5.00000000      5.00000000      5.00000000      5.00000000      5.00000000      5.00000000      5.00000000      5.00000000      5.00000000      5.00000000      5.00000000      5.00000000      5.00000000      5.00000000      5.00000000      5.00000000
      5.00000000      5.00000000      5.00000000      5.00000000      0.60000000      0.60000000      0.60000000      0.60000000      0.60000000      0.60000000      0.60000000      0.60000000      0.60000000      0.60000000      0.60000000      0.60000000      0.60000000      0.60000000      0.60000000      0.60000000
      0.60000000      0.60000000      0.60000000      0.60000000      0.60000000      0.60000000      0.60000000      0.60000000      0.60000000      0.60000000      0.60000000      0.60000000      0.60000000      0.60000000      0.60000000      0.60000000      0.60000000      0.60000000      0.60000000      0.60000000
      0.60000000      0.60000000      0.60000000      0.60000000      0.60000000      0.60000000      0.60000000      0.60000000      0.60000000      0.60000000      0.60000000      0.60000000      0.60000000      0.60000000      0.60000000      0.60000000      0.60000000      0.60000000      0.60000000      0.60000000
      0.60000000      0.60000000      0.60000000      0.60000000</v>
    <i name="NUPDOWN">     -1.00000000</i>
    <i type="logical" name="LSORBIT"> F  </i>
    <v name="SAXIS">      0.00000000      0.00000000      1.00000000</v>
    <i type="logical" name="LSPIRAL"> F  </i>
    <v name="QSPIRAL">      0.00000000      0.00000000      0.00000000</v>
    <i type="logical" name="LZEROZ"> F  </i>
   </separator>
   <separator name="electronic exchange-correlation" >
    <i type="logical" name="LASPH"> T  </i>
    <i type="logical" name="LMETAGGA"> F  </i>
   </separator>
   <separator name="electronic convergence" >
    <i type="int" name="NELM">   200</i>
    <i type="int" name="NELMDL">     0</i>
    <i type="int" name="NELMIN">     8</i>
    <i name="ENINI">    650.00000000</i>
    <separator name="electronic convergence detail" >
     <i type="logical" name="LDIAG"> T  </i>
     <i type="logical" name="LSUBROT"> F  </i>
     <i name="WEIMIN">      0.00000000</i>
     <i name="EBREAK">      0.00000000</i>
     <i name="DEPER">      0.30000000</i>
     <i type="int" name="NRMM">     4</i>
     <i name="TIME">      0.40000000</i>
    </separator>
   </separator>
   <separator name="electronic mixer" >
    <i name="AMIX">      0.40000000</i>
    <i name="BMIX">      1.00000000</i>
    <i name="AMIN">      0.10000000</i>
    <i name="AMIX_MAG">      1.60000000</i>
    <i name="BMIX_MAG">      1.00000000</i>
    <separator name="electronic mixer details" >
     <i type="int" name="IMIX">     4</i>
     <i type="logical" name="MIXFIRST"> F  </i>
     <i type="int" name="MAXMIX">   -45</i>
     <i name="WC">    100.00000000</i>
     <i type="int" name="INIMIX">     1</i>
     <i type="int" name="MIXPRE">     1</i>
     <i type="int" name="MREMOVE">     5</i>
    </separator>
   </separator>
   <separator name="electronic dipolcorrection" >
    <i type="logical" name="LDIPOL"> F  </i>
    <i type="logical" name="LMONO"> F  </i>
    <i type="int" name="IDIPOL">     0</i>
    <i name="EPSILON">      1.00000000</i>
    <v name="DIPOL">   -100.00000000   -100.00000000   -100.00000000</v>
    <i name="EFIELD">      0.00000000</i>
   </separator>
  </separator>
  <separator name="grids" >
   <i type="int" name="NGX">   140</i>
   <i type="int" name="NGY">   108</i>
   <i type="int" name="NGZ">    90</i>
   <i type="int" name="NGXF">   280</i>
   <i type="int" name="NGYF">   216</i>
   <i type="int" name="NGZF">   180</i>
   <i type="logical" name="ADDGRID"> T  </i>
  </separator>
  <separator name="ionic" >
   <i type="int" name="NSW">     0</i>
   <i type="int" name="IBRION">    -1</i>
   <i type="int" name="MDALGO">     0</i>
   <i type="int" name="ISIF">     2</i>
   <i name="PSTRESS">      0.00000000</i>
   <i name="EDIFFG">      0.00001000</i>
   <i type="int" name="NFREE">     0</i>
   <i name="POTIM">      0.50000000</i>
   <i name="SMASS">     -3.00000000</i>
   <i name="SCALEE">      1.00000000</i>
  </separator>
  <separator name="ionic md" >
   <i name="TEBEG">      0.00010000</i>
   <i name="TEEND">      0.00010000</i>
   <i type="int" name="NBLOCK">     1</i>
   <i type="int" name="KBLOCK">     1</i>
   <i type="int" name="NPACO">   256</i>
   <i name="APACO">     16.00000000</i>
  </separator>
  <separator name="symmetry" >
   <i type="int" name="ISYM">     0</i>
   <i name="SYMPREC">      0.00001000</i>
  </separator>
  <separator name="dos" >
   <i type="int" name="LORBIT">     0</i>
   <v name="RWIGS">     -1.00000000     -1.00000000     -1.00000000     -1.00000000</v>
   <i type="int" name="NEDOS">   301</i>
   <i name="EMIN">     10.00000000</i>
   <i name="EMAX">    -10.00000000</i>
   <i name="EFERMI">      0.00000000</i>
  </separator>
  <separator name="writing" >
   <i type="int" name="NWRITE">     1</i>
   <i type="logical" name="LWAVE"> F  </i>
   <i type="logical" name="LDOWNSAMPLE"> F  </i>
   <i type="logical" name="LCHARG"> T  </i>
   <i type="logical" name="LPARD"> F  </i>
   <i type="logical" name="LVTOT"> F  </i>
   <i type="logical" name="LVHAR"> F  </i>
   <i type="logical" name="LELF"> F  </i>
   <i type="logical" name="LOPTICS"> F  </i>
   <v name="STM">      0.00000000      0.00000000      0.00000000      0.00000000      0.00000000      0.00000000      0.00000000</v>
  </separator>
  <separator name="performance" >
   <i type="int" name="NPAR">     4</i>
   <i type="int" name="NSIM">     4</i>
   <i type="int" name="NBLK">    -1</i>
   <i type="logical" name="LPLANE"> T  </i>
   <i type="logical" name="LSCALAPACK"> T  </i>
   <i type="logical" name="LSCAAWARE"> F  </i>
   <i type="logical" name="LSCALU"> F  </i>
   <i type="logical" name="LASYNC"> F  </i>
   <i type="logical" name="LORBITALREAL"> F  </i>
  </separator>
  <separator name="miscellaneous" >
   <i type="int" name="IDIOT">     3</i>
   <i type="int" name="ISPECIAL">     0</i>
   <i type="logical" name="LMUSIC"> F  </i>
   <v name="POMASS">      7.01000000     55.84700000     32.06600000     16.00000000</v>
   <v name="DARWINR">      0.00000000      0.00000000      0.00000000      0.00000000</v>
   <v name="DARWINV">      1.00000000      1.00000000      1.00000000      1.00000000</v>
   <i type="logical" name="LCORR"> T  </i>
  </separator>
  <i type="logical" name="GGA_COMPAT"> T  </i>
  <i type="logical" name="LBERRY"> F  </i>
  <i type="int" name="ICORELEVEL">     0</i>
  <i type="logical" name="LDAU"> T  </i>
  <v type="int" name="LDAUTYPE">     2</v>
  <v type="int" name="LDAUL">    -1</v>
  <v name="LDAUU">      0.00000000</v>
  <v name="LDAUJ">      0.00000000</v>
  <i type="int" name="LDAUPRINT">     0</i>
  <i type="int" name="I_CONSTRAINED_M">     0</i>
  <separator name="electronic exchange-correlation" >
   <i type="string" name="GGA">PE</i>
   <i type="int" name="VOSKOWN">     0</i>
   <i type="logical" name="LHFCALC"> F  </i>
   <i type="string" name="PRECFOCK"></i>
   <i type="logical" name="LSYMGRAD"> F  </i>
   <i type="logical" name="LHFONE"> F  </i>
   <i type="logical" name="LRHFCALC"> F  </i>
   <i type="logical" name="LTHOMAS"> F  </i>
   <i type="logical" name="LMODELHF"> F  </i>
   <i name="ENCUT4O">     -1.00000000</i>
   <i type="int" name="EXXOEP">     0</i>
   <i type="int" name="FOURORBIT">     0</i>
   <i name="AEXX">      0.00000000</i>
   <i name="HFALPHA">      0.00000000</i>
   <i name="MCALPHA">      0.00000000</i>
   <i name="ALDAX">      1.00000000</i>
   <i name="AGGAX">      1.00000000</i>
   <i name="ALDAC">      1.00000000</i>
   <i name="AGGAC">      1.00000000</i>
   <i type="int" name="NKREDX">     1</i>
   <i type="int" name="NKREDY">     1</i>
   <i type="int" name="NKREDZ">     1</i>
   <i type="logical" name="SHIFTRED"> F  </i>
   <i type="logical" name="ODDONLY"> F  </i>
   <i type="logical" name="EVENONLY"> F  </i>
   <i type="int" name="LMAXFOCK">     0</i>
   <i type="int" name="NMAXFOCKAE">     0</i>
   <i type="logical" name="LFOCKAEDFT"> F  </i>
   <i name="HFSCREEN">      0.00000000</i>
   <i name="HFSCREENC">      0.00000000</i>
   <i type="int" name="NBANDSGWLOW">     0</i>
  </separator>
  <separator name="vdW DFT" >
   <i type="logical" name="LUSE_VDW"> F  </i>
   <i name="Zab_VDW">     -0.84910000</i>
   <i name="PARAM1">      0.12340000</i>
   <i name="PARAM2">      1.00000000</i>
   <i name="PARAM3">      0.00000000</i>
  </separator>
  <separator name="model GW" >
   <i type="int" name="MODEL_GW">     0</i>
   <i name="MODEL_EPS0">      7.95228621</i>
   <i name="MODEL_ALPHA">      1.00000000</i>
  </separator>
  <separator name="linear response parameters" >
   <i type="logical" name="LEPSILON"> F  </i>
   <i type="logical" name="LRPA"> F  </i>
   <i type="logical" name="LNABLA"> F  </i>
   <i type="logical" name="LVEL"> F  </i>
   <i type="int" name="KINTER">     0</i>
   <i name="CSHIFT">      0.10000000</i>
   <i name="OMEGAMAX">     -1.00000000</i>
   <i name="DEG_THRESHOLD">      0.00200000</i>
   <i name="RTIME">     -0.10000000</i>
   <i name="WPLASMAI">      0.00000000</i>
   <v name="DFIELD">      0.00000000      0.00000000      0.00000000</v>
   <v name="WPLASMA">      0.00000000      0.00000000      0.00000000      0.00000000      0.00000000      0.00000000      0.00000000      0.00000000      0.00000000</v>
  </separator>
  <separator name="orbital magnetization" >
   <i type="logical" name="NUCIND"> F  </i>
   <v name="MAGPOS">      0.00000000      0.00000000      0.00000000</v>
   <i type="logical" name="LNICSALL"> T  </i>
   <i type="logical" name="ORBITALMAG"> F  </i>
   <i type="logical" name="LMAGBLOCH"> F  </i>
   <i type="logical" name="LCHIMAG"> F  </i>
   <i type="logical" name="LGAUGE"> T  </i>
   <i type="int" name="MAGATOM">     0</i>
   <v name="MAGDIPOL">      0.00000000      0.00000000      0.00000000</v>
   <v name="AVECCONST">      0.00000000      0.00000000      0.00000000</v>
  </separator>
  <separator name="response functions" >
   <i type="logical" name="LADDER"> F  </i>
   <i type="logical" name="LRPAFORCE"> F  </i>
   <i type="logical" name="LFXC"> F  </i>
   <i type="logical" name="LHARTREE"> T  </i>
   <i type="int" name="IBSE">     0</i>
   <v type="int" name="KPOINT">    -1     0     0     0</v>
   <i type="logical" name="LTCTE"> F  </i>
   <i type="logical" name="LTETE"> F  </i>
   <i type="logical" name="LTRIPLET"> F  </i>
   <i type="logical" name="LFXCEPS"> F  </i>
   <i type="logical" name="LFXHEG"> F  </i>
   <i type="int" name="NATURALO">     2</i>
   <i type="logical" name="L2ORDER"> F  </i>
   <i type="logical" name="LMP2LT"> F  </i>
   <i type="logical" name="LUSEW"> F  </i>
   <i name="ENCUTGW">     -2.00000000</i>
   <i name="ENCUTGWSOFT">     -2.00000000</i>
   <i name="ENCUTLF">     -1.00000000</i>
   <i type="int" name="LMAXMP2">    -1</i>
   <i name="SCISSOR">      0.00000000</i>
   <i type="int" name="NOMEGA">     0</i>
   <i type="int" name="NOMEGAR">     0</i>
   <i type="int" name="NBANDSGW">    -1</i>
   <i type="int" name="NBANDSO">    -1</i>
   <i type="int" name="NBANDSV">    -1</i>
   <i type="int" name="NELM">   200</i>
   <i type="int" name="NELMHF">     1</i>
   <i type="int" name="DIM">     3</i>
   <i type="int" name="ANTIRES">     0</i>
   <i name="OMEGAMAX">    -30.00000000</i>
   <i name="OMEGAMIN">    -30.00000000</i>
   <i name="OMEGATL">   -200.00000000</i>
   <i type="int" name="OMEGAGRID">   140</i>
   <i name="CSHIFT">     -0.10000000</i>
   <i type="logical" name="SELFENERGY"> F  </i>
   <i type="logical" name="LSPECTRAL"> F  </i>
   <i type="logical" name="LSPECTRALGW"> F  </i>
   <i type="logical" name="LSINGLES"> F  </i>
   <i type="logical" name="LFERMIGW"> F  </i>
   <i type="logical" name="ODDONLYGW"> F  </i>
   <i type="logical" name="EVENONLYGW"> F  </i>
   <i type="int" name="NKREDLFX">     1</i>
   <i type="int" name="NKREDLFY">     1</i>
   <i type="int" name="NKREDLFZ">     1</i>
   <i type="int" name="MAXMEM">  2800</i>
   <i type="int" name="TELESCOPE">     0</i>
   <i type="int" name="TAUPAR">     1</i>
   <i type="int" name="OMEGAPAR">    -1</i>
   <i name="LAMBDA">      1.00000000</i>
  </separator>
  <separator name="External order field" >
   <i name="OFIELD_KAPPA">      0.00000000</i>
   <v name="OFIELD_K">      0.00000000      0.00000000      0.00000000</v>
   <i name="OFIELD_Q6_NEAR">      0.00000000</i>
   <i name="OFIELD_Q6_FAR">      0.00000000</i>
   <i name="OFIELD_A">      0.00000000</i>
  </separator>
 </parameters>
 <atominfo>
  <atoms>     144 </atoms>
  <types>       4 </types>
  <array name="atoms" >
   <dimension dim="1">ion</dimension>
   <field type="string">element</field>
   <field type="int">atomtype</field>
   <set>
    <rc><c>Li</c><c>   1</c></rc>
    <rc><c>Li</c><c>   1</c></rc>
    <rc><c>Li</c><c>   1</c></rc>
    <rc><c>Li</c><c>   1</c></rc>
    <rc><c>Li</c><c>   1</c></rc>
    <rc><c>Li</c><c>   1</c></rc>
    <rc><c>Li</c><c>   1</c></rc>
    <rc><c>Li</c><c>   1</c></rc>
    <rc><c>Li</c><c>   1</c></rc>
    <rc><c>Li</c><c>   1</c></rc>
    <rc><c>Li</c><c>   1</c></rc>
    <rc><c>Li</c><c>   1</c></rc>
    <rc><c>Li</c><c>   1</c></rc>
    <rc><c>Li</c><c>   1</c></rc>
    <rc><c>Li</c><c>   1</c></rc>
    <rc><c>Li</c><c>   1</c></rc>
    <rc><c>Li</c><c>   1</c></rc>
    <rc><c>Li</c><c>   1</c></rc>
    <rc><c>Li</c><c>   1</c></rc>
    <rc><c>Li</c><c>   1</c></rc>
    <rc><c>Li</c><c>   1</c></rc>
    <rc><c>Li</c><c>   1</c></rc>
    <rc><c>Li</c><c>   1</c></rc>
    <rc><c>Li</c><c>   1</c></rc>
    <rc><c>Li</c><c>   1</c></rc>
    <rc><c>Li</c><c>   1</c></rc>
    <rc><c>Li</c><c>   1</c></rc>
    <rc><c>Li</c><c>   1</c></rc>
    <rc><c>Li</c><c>   1</c></rc>
    <rc><c>Li</c><c>   1</c></rc>
    <rc><c>Li</c><c>   1</c></rc>
    <rc><c>Li</c><c>   1</c></rc>
    <rc><c>Li</c><c>   1</c></rc>
    <rc><c>Li</c><c>   1</c></rc>
    <rc><c>Li</c><c>   1</c></rc>
    <rc><c>Li</c><c>   1</c></rc>
    <rc><c>Li</c><c>   1</c></rc>
    <rc><c>Li</c><c>   1</c></rc>
    <rc><c>Li</c><c>   1</c></rc>
    <rc><c>Li</c><c>   1</c></rc>
    <rc><c>Li</c><c>   1</c></rc>
    <rc><c>Li</c><c>   1</c></rc>
    <rc><c>Li</c><c>   1</c></rc>
    <rc><c>Li</c><c>   1</c></rc>
    <rc><c>Li</c><c>   1</c></rc>
    <rc><c>Li</c><c>   1</c></rc>
    <rc><c>Li</c><c>   1</c></rc>
    <rc><c>Li</c><c>   1</c></rc>
    <rc><c>Fe</c><c>   2</c></rc>
    <rc><c>Fe</c><c>   2</c></rc>
    <rc><c>Fe</c><c>   2</c></rc>
    <rc><c>Fe</c><c>   2</c></rc>
    <rc><c>Fe</c><c>   2</c></rc>
    <rc><c>Fe</c><c>   2</c></rc>
    <rc><c>Fe</c><c>   2</c></rc>
    <rc><c>Fe</c><c>   2</c></rc>
    <rc><c>Fe</c><c>   2</c></rc>
    <rc><c>Fe</c><c>   2</c></rc>
    <rc><c>Fe</c><c>   2</c></rc>
    <rc><c>Fe</c><c>   2</c></rc>
    <rc><c>Fe</c><c>   2</c></rc>
    <rc><c>Fe</c><c>   2</c></rc>
    <rc><c>Fe</c><c>   2</c></rc>
    <rc><c>Fe</c><c>   2</c></rc>
    <rc><c>Fe</c><c>   2</c></rc>
    <rc><c>Fe</c><c>   2</c></rc>
    <rc><c>Fe</c><c>   2</c></rc>
    <rc><c>Fe</c><c>   2</c></rc>
    <rc><c>Fe</c><c>   2</c></rc>
    <rc><c>Fe</c><c>   2</c></rc>
    <rc><c>Fe</c><c>   2</c></rc>
    <rc><c>Fe</c><c>   2</c></rc>
    <rc><c>Fe</c><c>   2</c></rc>
    <rc><c>Fe</c><c>   2</c></rc>
    <rc><c>Fe</c><c>   2</c></rc>
    <rc><c>Fe</c><c>   2</c></rc>
    <rc><c>Fe</c><c>   2</c></rc>
    <rc><c>Fe</c><c>   2</c></rc>
    <rc><c>Fe</c><c>   2</c></rc>
    <rc><c>Fe</c><c>   2</c></rc>
    <rc><c>Fe</c><c>   2</c></rc>
    <rc><c>Fe</c><c>   2</c></rc>
    <rc><c>Fe</c><c>   2</c></rc>
    <rc><c>Fe</c><c>   2</c></rc>
    <rc><c>S </c><c>   3</c></rc>
    <rc><c>S </c><c>   3</c></rc>
    <rc><c>S </c><c>   3</c></rc>
    <rc><c>S </c><c>   3</c></rc>
    <rc><c>S </c><c>   3</c></rc>
    <rc><c>S </c><c>   3</c></rc>
    <rc><c>S </c><c>   3</c></rc>
    <rc><c>S </c><c>   3</c></rc>
    <rc><c>S </c><c>   3</c></rc>
    <rc><c>S </c><c>   3</c></rc>
    <rc><c>S </c><c>   3</c></rc>
    <rc><c>S </c><c>   3</c></rc>
    <rc><c>S </c><c>   3</c></rc>
    <rc><c>S </c><c>   3</c></rc>
    <rc><c>S </c><c>   3</c></rc>
    <rc><c>S </c><c>   3</c></rc>
    <rc><c>S </c><c>   3</c></rc>
    <rc><c>S </c><c>   3</c></rc>
    <rc><c>S </c><c>   3</c></rc>
    <rc><c>S </c><c>   3</c></rc>
    <rc><c>S </c><c>   3</c></rc>
    <rc><c>S </c><c>   3</c></rc>
    <rc><c>S </c><c>   3</c></rc>
    <rc><c>S </c><c>   3</c></rc>
    <rc><c>S </c><c>   3</c></rc>
    <rc><c>S </c><c>   3</c></rc>
    <rc><c>S </c><c>   3</c></rc>
    <rc><c>S </c><c>   3</c></rc>
    <rc><c>S </c><c>   3</c></rc>
    <rc><c>S </c><c>   3</c></rc>
    <rc><c>S </c><c>   3</c></rc>
    <rc><c>S </c><c>   3</c></rc>
    <rc><c>S </c><c>   3</c></rc>
    <rc><c>S </c><c>   3</c></rc>
    <rc><c>S </c><c>   3</c></rc>
    <rc><c>S </c><c>   3</c></rc>
    <rc><c>O </c><c>   4</c></rc>
    <rc><c>O </c><c>   4</c></rc>
    <rc><c>O </c><c>   4</c></rc>
    <rc><c>O </c><c>   4</c></rc>
    <rc><c>O </c><c>   4</c></rc>
    <rc><c>O </c><c>   4</c></rc>
    <rc><c>O </c><c>   4</c></rc>
    <rc><c>O </c><c>   4</c></rc>
    <rc><c>O </c><c>   4</c></rc>
    <rc><c>O </c><c>   4</c></rc>
    <rc><c>O </c><c>   4</c></rc>
    <rc><c>O </c><c>   4</c></rc>
    <rc><c>O </c><c>   4</c></rc>
    <rc><c>O </c><c>   4</c></rc>
    <rc><c>O </c><c>   4</c></rc>
    <rc><c>O </c><c>   4</c></rc>
    <rc><c>O </c><c>   4</c></rc>
    <rc><c>O </c><c>   4</c></rc>
    <rc><c>O </c><c>   4</c></rc>
    <rc><c>O </c><c>   4</c></rc>
    <rc><c>O </c><c>   4</c></rc>
    <rc><c>O </c><c>   4</c></rc>
    <rc><c>O </c><c>   4</c></rc>
    <rc><c>O </c><c>   4</c></rc>
   </set>
  </array>
  <array name="atomtypes" >
   <dimension dim="1">type</dimension>
   <field type="int">atomspertype</field>
   <field type="string">element</field>
   <field>mass</field>
   <field>valence</field>
   <field type="string">pseudopotential</field>
   <set>
    <rc><c>  48</c><c>Li</c><c>      7.01000000</c><c>      3.00000000</c><c>  PAW_PBE Li_sv 10Sep2004               </c></rc>
    <rc><c>  36</c><c>Fe</c><c>     55.84700000</c><c>     14.00000000</c><c>  PAW_PBE Fe_pv 02Aug2007               </c></rc>
    <rc><c>  36</c><c>S </c><c>     32.06600000</c><c>      6.00000000</c><c>  PAW_PBE S 06Sep2000                   </c></rc>
    <rc><c>  24</c><c>O </c><c>     16.00000000</c><c>      6.00000000</c><c>  PAW_PBE O 08Apr2002                   </c></rc>
   </set>
  </array>
 </atominfo>
 <structure name="initialpos" >
  <crystal>
   <varray name="basis" >
    <v>      15.21162830       0.00516956      -2.78361592 </v>
    <v>      -0.40798665      11.93565774      -2.20735884 </v>
    <v>      -0.06175567      -0.11168197      10.54442638 </v>
   </varray>
   <i name="volume">   1908.54869108 </i>
   <varray name="rec_basis" >
    <v>       0.06581343       0.00232549       0.00041008 </v>
    <v>       0.00013433       0.08395174       0.00088997 </v>
    <v>       0.01740216       0.01818827       0.09513139 </v>
   </varray>
  </crystal>
  <varray name="positions" >
   <v>       0.47527516       0.00074367       0.00446200 </v>
   <v>       0.97527516       0.00074367       0.00446200 </v>
   <v>       0.47527516       0.33407700       0.00446200 </v>
   <v>       0.97527516       0.33407700       0.00446200 </v>
   <v>       0.47527516       0.66741034       0.00446200 </v>
   <v>       0.97527516       0.66741034       0.00446200 </v>
   <v>       0.27472484       0.33258966       0.99553800 </v>
   <v>       0.77472484       0.33258966       0.99553800 </v>
   <v>       0.27472484       0.66592300       0.99553800 </v>
   <v>       0.77472484       0.66592300       0.99553800 </v>
   <v>       0.27472484       0.99925633       0.99553800 </v>
   <v>       0.77472484       0.99925633       0.99553800 </v>
   <v>       0.17788805       0.26797179       0.60783074 </v>
   <v>       0.67788805       0.26797179       0.60783074 </v>
   <v>       0.17788805       0.60130513       0.60783074 </v>
   <v>       0.67788805       0.60130513       0.60783074 </v>
   <v>       0.17788805       0.93463846       0.60783074 </v>
   <v>       0.67788805       0.93463846       0.60783074 </v>
   <v>       0.07211195       0.06536154       0.39216926 </v>
   <v>       0.57211195       0.06536154       0.39216926 </v>
   <v>       0.07211195       0.39869487       0.39216926 </v>
   <v>       0.57211195       0.39869487       0.39216926 </v>
   <v>       0.07211195       0.73202821       0.39216926 </v>
   <v>       0.57211195       0.73202821       0.39216926 </v>
   <v>       0.10733875       0.30765571       0.84593428 </v>
   <v>       0.60733875       0.30765571       0.84593428 </v>
   <v>       0.10733875       0.64098905       0.84593428 </v>
   <v>       0.60733875       0.64098905       0.84593428 </v>
   <v>       0.10733875       0.97432238       0.84593428 </v>
   <v>       0.60733875       0.97432238       0.84593428 </v>
   <v>       0.34464416       0.29539312       0.77235872 </v>
   <v>       0.84464416       0.29539312       0.77235872 </v>
   <v>       0.34464416       0.62872645       0.77235872 </v>
   <v>       0.84464416       0.62872645       0.77235872 </v>
   <v>       0.34464416       0.96205979       0.77235872 </v>
   <v>       0.84464416       0.96205979       0.77235872 </v>
   <v>       0.14266125       0.02567762       0.15406572 </v>
   <v>       0.64266125       0.02567762       0.15406572 </v>
   <v>       0.14266125       0.35901095       0.15406572 </v>
   <v>       0.64266125       0.35901095       0.15406572 </v>
   <v>       0.14266125       0.69234429       0.15406572 </v>
   <v>       0.64266125       0.69234429       0.15406572 </v>
   <v>       0.40535584       0.03794021       0.22764128 </v>
   <v>       0.90535584       0.03794021       0.22764128 </v>
   <v>       0.40535584       0.37127355       0.22764128 </v>
   <v>       0.90535584       0.37127355       0.22764128 </v>
   <v>       0.40535584       0.70460688       0.22764128 </v>
   <v>       0.90535584       0.70460688       0.22764128 </v>
   <v>       0.46517249       0.26691416       0.60148498 </v>
   <v>       0.96517249       0.26691416       0.60148498 </v>
   <v>       0.46517249       0.60024750       0.60148498 </v>
   <v>       0.96517249       0.60024750       0.60148498 </v>
   <v>       0.46517249       0.93358083       0.60148498 </v>
   <v>       0.96517249       0.93358083       0.60148498 </v>
   <v>       0.28482751       0.06641917       0.39851502 </v>
   <v>       0.78482751       0.06641917       0.39851502 </v>
   <v>       0.28482751       0.39975250       0.39851502 </v>
   <v>       0.78482751       0.39975250       0.39851502 </v>
   <v>       0.28482751       0.73308584       0.39851502 </v>
   <v>       0.78482751       0.73308584       0.39851502 </v>
   <v>       0.22447416       0.13353711       0.80122268 </v>
   <v>       0.72447416       0.13353711       0.80122268 </v>
   <v>       0.22447416       0.46687045       0.80122268 </v>
   <v>       0.72447416       0.46687045       0.80122268 </v>
   <v>       0.22447416       0.80020378       0.80122268 </v>
   <v>       0.72447416       0.80020378       0.80122268 </v>
   <v>       0.47796479       0.13582521       0.81495126 </v>
   <v>       0.97796479       0.13582521       0.81495126 </v>
   <v>       0.47796479       0.46915854       0.81495126 </v>
   <v>       0.97796479       0.46915854       0.81495126 </v>
   <v>       0.47796479       0.80249188       0.81495126 </v>
   <v>       0.97796479       0.80249188       0.81495126 </v>
   <v>       0.02552584       0.19979622       0.19877732 </v>
   <v>       0.52552584       0.19979622       0.19877732 </v>
   <v>       0.02552584       0.53312955       0.19877732 </v>
   <v>       0.52552584       0.53312955       0.19877732 </v>
   <v>       0.02552584       0.86646289       0.19877732 </v>
   <v>       0.52552584       0.86646289       0.19877732 </v>
   <v>       0.27203521       0.19750812       0.18504874 </v>
   <v>       0.77203521       0.19750812       0.18504874 </v>
   <v>       0.27203521       0.53084146       0.18504874 </v>
   <v>       0.77203521       0.53084146       0.18504874 </v>
   <v>       0.27203521       0.86417479       0.18504874 </v>
   <v>       0.77203521       0.86417479       0.18504874 </v>
   <v>       0.12500000       0.16666667       0.00000000 </v>
   <v>       0.62500000       0.16666667       0.00000000 </v>
   <v>       0.12500000       0.50000000       0.00000000 </v>
   <v>       0.62500000       0.50000000       0.00000000 </v>
   <v>       0.12500000       0.83333333       0.00000000 </v>
   <v>       0.62500000       0.83333333       0.00000000 </v>
   <v>       0.37500000       0.16666667       0.00000000 </v>
   <v>       0.87500000       0.16666667       0.00000000 </v>
   <v>       0.37500000       0.50000000       0.00000000 </v>
   <v>       0.87500000       0.50000000       0.00000000 </v>
   <v>       0.37500000       0.83333333       0.00000000 </v>
   <v>       0.87500000       0.83333333       0.00000000 </v>
   <v>       0.17614737       0.22809805       0.36858830 </v>
   <v>       0.67614737       0.22809805       0.36858830 </v>
   <v>       0.17614737       0.56143138       0.36858830 </v>
   <v>       0.67614737       0.56143138       0.36858830 </v>
   <v>       0.17614737       0.89476472       0.36858830 </v>
   <v>       0.67614737       0.89476472       0.36858830 </v>
   <v>       0.41542106       0.22793643       0.36761855 </v>
   <v>       0.91542106       0.22793643       0.36761855 </v>
   <v>       0.41542106       0.56126976       0.36761855 </v>
   <v>       0.91542106       0.56126976       0.36761855 </v>
   <v>       0.41542106       0.89460309       0.36761855 </v>
   <v>       0.91542106       0.89460309       0.36761855 </v>
   <v>       0.07385263       0.10523528       0.63141170 </v>
   <v>       0.57385263       0.10523528       0.63141170 </v>
   <v>       0.07385263       0.43856862       0.63141170 </v>
   <v>       0.57385263       0.43856862       0.63141170 </v>
   <v>       0.07385263       0.77190195       0.63141170 </v>
   <v>       0.57385263       0.77190195       0.63141170 </v>
   <v>       0.33457894       0.10539691       0.63238145 </v>
   <v>       0.83457894       0.10539691       0.63238145 </v>
   <v>       0.33457894       0.43873024       0.63238145 </v>
   <v>       0.83457894       0.43873024       0.63238145 </v>
   <v>       0.33457894       0.77206357       0.63238145 </v>
   <v>       0.83457894       0.77206357       0.63238145 </v>
   <v>       0.22462338       0.30093342       0.80560053 </v>
   <v>       0.72527003       0.30093342       0.80560053 </v>
   <v>       0.22527003       0.63426676       0.80560053 </v>
   <v>       0.72527003       0.63426676       0.80560053 </v>
   <v>       0.22527003       0.96760009       0.80560053 </v>
   <v>       0.72527003       0.96760009       0.80560053 </v>
   <v>       0.47618324       0.30143353       0.80860116 </v>
   <v>       0.97618324       0.30143353       0.80860116 </v>
   <v>       0.47618324       0.63476686       0.80860116 </v>
   <v>       0.97618324       0.63476686       0.80860116 </v>
   <v>       0.47618324       0.96810019       0.80860116 </v>
   <v>       0.97618324       0.96810019       0.80860116 </v>
   <v>       0.02472997       0.03239991       0.19439947 </v>
   <v>       0.52472997       0.03239991       0.19439947 </v>
   <v>       0.02472997       0.36573324       0.19439947 </v>
   <v>       0.52472997       0.36573324       0.19439947 </v>
   <v>       0.02472997       0.69906658       0.19439947 </v>
   <v>       0.52472997       0.69906658       0.19439947 </v>
   <v>       0.27381676       0.03189981       0.19139884 </v>
   <v>       0.77381676       0.03189981       0.19139884 </v>
   <v>       0.27381676       0.36523314       0.19139884 </v>
   <v>       0.77381676       0.36523314       0.19139884 </v>
   <v>       0.27381676       0.69856647       0.19139884 </v>
   <v>       0.77381676       0.69856647       0.19139884 </v>
  </varray>
 </structure>
 <calculation>
  <scstep>
   <time name="dav">  335.79  342.46</time>
   <time name="total">  338.37  345.05</time>
   <energy>
    <i name="alphaZ">   2668.72143546 </i>
    <i name="ewald"> -68025.91659608 </i>
    <i name="hartreedc"> -39875.35960584 </i>
    <i name="XCdc">   4298.62055939 </i>
    <i name="pawpsdc"> 114383.84820647 </i>
    <i name="pawaedc">-118048.71515856 </i>
    <i name="eentropy">     -0.02985640 </i>
    <i name="bandstr">   -564.32329352 </i>
    <i name="atom"> 118542.86816856 </i>
    <i name="e_fr_energy">  13379.71385949 </i>
    <i name="e_wo_entrp">  13379.74371589 </i>
    <i name="e_0_energy">  13379.72878769 </i>
   </energy>
  </scstep>
  <scstep>
   <time name="dav">  324.09  330.68</time>
   <time name="total">  324.09  330.69</time>
   <energy>
    <i name="e_fr_energy">   1421.87918003 </i>
    <i name="e_wo_entrp">   1421.96384568 </i>
    <i name="e_0_energy">   1421.92151286 </i>
   </energy>
  </scstep>
  <scstep>
   <time name="dav">  350.24  356.38</time>
   <time name="total">  350.24  356.38</time>
   <energy>
    <i name="e_fr_energy">   -473.37625617 </i>
    <i name="e_wo_entrp">   -473.37625617 </i>
    <i name="e_0_energy">   -473.37625617 </i>
   </energy>
  </scstep>
  <scstep>
   <time name="dav">  392.69  399.99</time>
   <time name="total">  392.69  399.99</time>
   <energy>
    <i name="e_fr_energy">   -715.93715386 </i>
    <i name="e_wo_entrp">   -715.93715386 </i>
    <i name="e_0_energy">   -715.93715386 </i>
   </energy>
  </scstep>
  <scstep>
   <time name="dav">  517.35  525.03</time>
   <time name="total">  527.91  535.72</time>
   <energy>
    <i name="e_fr_energy">   -745.35822784 </i>
    <i name="e_wo_entrp">   -745.35822784 </i>
    <i name="e_0_energy">   -745.35822784 </i>
   </energy>
  </scstep>
  <scstep>
   <time name="dav">  415.21  418.61</time>
   <time name="total">  428.34  431.98</time>
   <energy>
    <i name="e_fr_energy">   -746.58133917 </i>
    <i name="e_wo_entrp">   -746.58133917 </i>
    <i name="e_0_energy">   -746.58133917 </i>
   </energy>
  </scstep>
  <scstep>
   <time name="dav">  472.84  477.12</time>
   <time name="total">  486.18  490.52</time>
   <energy>
    <i name="e_fr_energy">   -746.63637973 </i>
    <i name="e_wo_entrp">   -746.63637973 </i>
    <i name="e_0_energy">   -746.63637973 </i>
   </energy>
  </scstep>
  <scstep>
   <time name="dav">  444.89  448.76</time>
   <time name="total">  458.10  462.08</time>
   <energy>
    <i name="e_fr_energy">   -746.63556496 </i>
    <i name="e_wo_entrp">   -746.63556496 </i>
    <i name="e_0_energy">   -746.63556496 </i>
   </energy>
  </scstep>
  <scstep>
   <time name="dav">  473.70  477.78</time>
   <time name="total">  487.01  491.16</time>
   <energy>
    <i name="e_fr_energy">   -746.63488000 </i>
    <i name="e_wo_entrp">   -746.63488000 </i>
    <i name="e_0_energy">   -746.63488000 </i>
   </energy>
  </scstep>
  <scstep>
   <time name="dav">  499.48  503.76</time>
   <time name="total">  512.88  517.18</time>
   <energy>
    <i name="e_fr_energy">   -746.63329828 </i>
    <i name="e_wo_entrp">   -746.63329828 </i>
    <i name="e_0_energy">   -746.63329828 </i>
   </energy>
  </scstep>
  <scstep>
   <time name="dav">  464.27  468.24</time>
   <time name="total">  477.68  481.66</time>
   <energy>
    <i name="e_fr_energy">   -746.63143128 </i>
    <i name="e_wo_entrp">   -746.63143128 </i>
    <i name="e_0_energy">   -746.63143128 </i>
   </energy>
  </scstep>
  <scstep>
   <time name="dav">  402.70  406.23</time>
   <time name="total">  416.11  419.66</time>
   <energy>
    <i name="e_fr_energy">   -746.63102806 </i>
    <i name="e_wo_entrp">   -746.63102806 </i>
    <i name="e_0_energy">   -746.63102806 </i>
   </energy>
  </scstep>
  <scstep>
   <time name="dav">  431.86  435.58</time>
   <time name="total">  445.06  448.97</time>
   <energy>
    <i name="e_fr_energy">   -746.63090798 </i>
    <i name="e_wo_entrp">   -746.63090798 </i>
    <i name="e_0_energy">   -746.63090798 </i>
   </energy>
  </scstep>
  <scstep>
   <time name="dav">  493.67  498.68</time>
   <time name="total">  506.80  512.05</time>
   <energy>
    <i name="e_fr_energy">   -746.63083814 </i>
    <i name="e_wo_entrp">   -746.63083814 </i>
    <i name="e_0_energy">   -746.63083814 </i>
   </energy>
  </scstep>
  <scstep>
   <time name="dav">  381.97  385.23</time>
   <time name="total">  395.34  398.69</time>
   <energy>
    <i name="e_fr_energy">   -746.63078120 </i>
    <i name="e_wo_entrp">   -746.63078120 </i>
    <i name="e_0_energy">   -746.63078120 </i>
   </energy>
  </scstep>
  <scstep>
   <time name="dav">  473.42  476.90</time>
   <time name="total">  486.61  490.32</time>
   <energy>
    <i name="e_fr_energy">   -746.63076761 </i>
    <i name="e_wo_entrp">   -746.63076761 </i>
    <i name="e_0_energy">   -746.63076761 </i>
   </energy>
  </scstep>
  <scstep>
   <time name="dav">  404.69  408.09</time>
   <time name="total">  418.11  421.54</time>
   <energy>
    <i name="e_fr_energy">   -746.63077129 </i>
    <i name="e_wo_entrp">   -746.63077129 </i>
    <i name="e_0_energy">   -746.63077129 </i>
   </energy>
  </scstep>
  <scstep>
   <time name="dav">  252.73  254.90</time>
   <time name="total">  266.15  268.34</time>
   <energy>
    <i name="e_fr_energy">   -746.63077255 </i>
    <i name="e_wo_entrp">   -746.63077255 </i>
    <i name="e_0_energy">   -746.63077255 </i>
   </energy>
  </scstep>
  <scstep>
   <time name="dav">  244.12  246.20</time>
   <time name="total">  257.43  259.65</time>
   <energy>
    <i name="e_fr_energy">   -746.63077686 </i>
    <i name="e_wo_entrp">   -746.63077686 </i>
    <i name="e_0_energy">   -746.63077686 </i>
   </energy>
  </scstep>
  <scstep>
   <time name="dav">  252.87  255.08</time>
   <time name="total">  266.22  268.53</time>
   <energy>
    <i name="e_fr_energy">   -746.63077851 </i>
    <i name="e_wo_entrp">   -746.63077851 </i>
    <i name="e_0_energy">   -746.63077851 </i>
   </energy>
  </scstep>
  <scstep>
   <time name="dav">  245.10  246.88</time>
   <time name="total">  247.74  249.53</time>
   <energy>
    <i name="alphaZ">   2668.72143546 </i>
    <i name="ewald"> -68025.91659608 </i>
    <i name="hartreedc"> -39875.40665482 </i>
    <i name="XCdc">   4298.62272589 </i>
    <i name="pawpsdc"> 114384.89918551 </i>
    <i name="pawaedc">-118049.78124187 </i>
    <i name="eentropy">     -0.00000000 </i>
    <i name="bandstr"> -14690.63780147 </i>
    <i name="atom"> 118542.86816856 </i>
    <i name="e_fr_energy">   -746.63077881 </i>
    <i name="e_wo_entrp">   -746.63077881 </i>
    <i name="e_0_energy">   -746.63077881 </i>
   </energy>
  </scstep>
  <structure>
   <crystal>
    <varray name="basis" >
     <v>      15.21162830       0.00516956      -2.78361592 </v>
     <v>      -0.40798665      11.93565774      -2.20735884 </v>
     <v>      -0.06175567      -0.11168197      10.54442638 </v>
    </varray>
    <i name="volume">   1908.54869108 </i>
    <varray name="rec_basis" >
     <v>       0.06581343       0.00232549       0.00041008 </v>
     <v>       0.00013433       0.08395174       0.00088997 </v>
     <v>       0.01740216       0.01818827       0.09513139 </v>
    </varray>
   </crystal>
   <varray name="positions" >
    <v>       0.47527516       0.00074367       0.00446200 </v>
    <v>       0.97527516       0.00074367       0.00446200 </v>
    <v>       0.47527516       0.33407700       0.00446200 </v>
    <v>       0.97527516       0.33407700       0.00446200 </v>
    <v>       0.47527516       0.66741034       0.00446200 </v>
    <v>       0.97527516       0.66741034       0.00446200 </v>
    <v>       0.27472484       0.33258966       0.99553800 </v>
    <v>       0.77472484       0.33258966       0.99553800 </v>
    <v>       0.27472484       0.66592300       0.99553800 </v>
    <v>       0.77472484       0.66592300       0.99553800 </v>
    <v>       0.27472484       0.99925633       0.99553800 </v>
    <v>       0.77472484       0.99925633       0.99553800 </v>
    <v>       0.17788805       0.26797179       0.60783074 </v>
    <v>       0.67788805       0.26797179       0.60783074 </v>
    <v>       0.17788805       0.60130513       0.60783074 </v>
    <v>       0.67788805       0.60130513       0.60783074 </v>
    <v>       0.17788805       0.93463846       0.60783074 </v>
    <v>       0.67788805       0.93463846       0.60783074 </v>
    <v>       0.07211195       0.06536154       0.39216926 </v>
    <v>       0.57211195       0.06536154       0.39216926 </v>
    <v>       0.07211195       0.39869487       0.39216926 </v>
    <v>       0.57211195       0.39869487       0.39216926 </v>
    <v>       0.07211195       0.73202821       0.39216926 </v>
    <v>       0.57211195       0.73202821       0.39216926 </v>
    <v>       0.10733875       0.30765571       0.84593428 </v>
    <v>       0.60733875       0.30765571       0.84593428 </v>
    <v>       0.10733875       0.64098905       0.84593428 </v>
    <v>       0.60733875       0.64098905       0.84593428 </v>
    <v>       0.10733875       0.97432238       0.84593428 </v>
    <v>       0.60733875       0.97432238       0.84593428 </v>
    <v>       0.34464416       0.29539312       0.77235872 </v>
    <v>       0.84464416       0.29539312       0.77235872 </v>
    <v>       0.34464416       0.62872645       0.77235872 </v>
    <v>       0.84464416       0.62872645       0.77235872 </v>
    <v>       0.34464416       0.96205979       0.77235872 </v>
    <v>       0.84464416       0.96205979       0.77235872 </v>
    <v>       0.14266125       0.02567762       0.15406572 </v>
    <v>       0.64266125       0.02567762       0.15406572 </v>
    <v>       0.14266125       0.35901095       0.15406572 </v>
    <v>       0.64266125       0.35901095       0.15406572 </v>
    <v>       0.14266125       0.69234429       0.15406572 </v>
    <v>       0.64266125       0.69234429       0.15406572 </v>
    <v>       0.40535584       0.03794021       0.22764128 </v>
    <v>       0.90535584       0.03794021       0.22764128 </v>
    <v>       0.40535584       0.37127355       0.22764128 </v>
    <v>       0.90535584       0.37127355       0.22764128 </v>
    <v>       0.40535584       0.70460688       0.22764128 </v>
    <v>       0.90535584       0.70460688       0.22764128 </v>
    <v>       0.46517249       0.26691416       0.60148498 </v>
    <v>       0.96517249       0.26691416       0.60148498 </v>
    <v>       0.46517249       0.60024750       0.60148498 </v>
    <v>       0.96517249       0.60024750       0.60148498 </v>
    <v>       0.46517249       0.93358083       0.60148498 </v>
    <v>       0.96517249       0.93358083       0.60148498 </v>
    <v>       0.28482751       0.06641917       0.39851502 </v>
    <v>       0.78482751       0.06641917       0.39851502 </v>
    <v>       0.28482751       0.39975250       0.39851502 </v>
    <v>       0.78482751       0.39975250       0.39851502 </v>
    <v>       0.28482751       0.73308584       0.39851502 </v>
    <v>       0.78482751       0.73308584       0.39851502 </v>
    <v>       0.22447416       0.13353711       0.80122268 </v>
    <v>       0.72447416       0.13353711       0.80122268 </v>
    <v>       0.22447416       0.46687045       0.80122268 </v>
    <v>       0.72447416       0.46687045       0.80122268 </v>
    <v>       0.22447416       0.80020378       0.80122268 </v>
    <v>       0.72447416       0.80020378       0.80122268 </v>
    <v>       0.47796479       0.13582521       0.81495126 </v>
    <v>       0.97796479       0.13582521       0.81495126 </v>
    <v>       0.47796479       0.46915854       0.81495126 </v>
    <v>       0.97796479       0.46915854       0.81495126 </v>
    <v>       0.47796479       0.80249188       0.81495126 </v>
    <v>       0.97796479       0.80249188       0.81495126 </v>
    <v>       0.02552584       0.19979622       0.19877732 </v>
    <v>       0.52552584       0.19979622       0.19877732 </v>
    <v>       0.02552584       0.53312955       0.19877732 </v>
    <v>       0.52552584       0.53312955       0.19877732 </v>
    <v>       0.02552584       0.86646289       0.19877732 </v>
    <v>       0.52552584       0.86646289       0.19877732 </v>
    <v>       0.27203521       0.19750812       0.18504874 </v>
    <v>       0.77203521       0.19750812       0.18504874 </v>
    <v>       0.27203521       0.53084146       0.18504874 </v>
    <v>       0.77203521       0.53084146       0.18504874 </v>
    <v>       0.27203521       0.86417479       0.18504874 </v>
    <v>       0.77203521       0.86417479       0.18504874 </v>
    <v>       0.12500000       0.16666667       0.00000000 </v>
    <v>       0.62500000       0.16666667       0.00000000 </v>
    <v>       0.12500000       0.50000000       0.00000000 </v>
    <v>       0.62500000       0.50000000       0.00000000 </v>
    <v>       0.12500000       0.83333333       0.00000000 </v>
    <v>       0.62500000       0.83333333       0.00000000 </v>
    <v>       0.37500000       0.16666667       0.00000000 </v>
    <v>       0.87500000       0.16666667       0.00000000 </v>
    <v>       0.37500000       0.50000000       0.00000000 </v>
    <v>       0.87500000       0.50000000       0.00000000 </v>
    <v>       0.37500000       0.83333333       0.00000000 </v>
    <v>       0.87500000       0.83333333       0.00000000 </v>
    <v>       0.17614737       0.22809805       0.36858830 </v>
    <v>       0.67614737       0.22809805       0.36858830 </v>
    <v>       0.17614737       0.56143138       0.36858830 </v>
    <v>       0.67614737       0.56143138       0.36858830 </v>
    <v>       0.17614737       0.89476472       0.36858830 </v>
    <v>       0.67614737       0.89476472       0.36858830 </v>
    <v>       0.41542106       0.22793643       0.36761855 </v>
    <v>       0.91542106       0.22793643       0.36761855 </v>
    <v>       0.41542106       0.56126976       0.36761855 </v>
    <v>       0.91542106       0.56126976       0.36761855 </v>
    <v>       0.41542106       0.89460309       0.36761855 </v>
    <v>       0.91542106       0.89460309       0.36761855 </v>
    <v>       0.07385263       0.10523528       0.63141170 </v>
    <v>       0.57385263       0.10523528       0.63141170 </v>
    <v>       0.07385263       0.43856862       0.63141170 </v>
    <v>       0.57385263       0.43856862       0.63141170 </v>
    <v>       0.07385263       0.77190195       0.63141170 </v>
    <v>       0.57385263       0.77190195       0.63141170 </v>
    <v>       0.33457894       0.10539691       0.63238145 </v>
    <v>       0.83457894       0.10539691       0.63238145 </v>
    <v>       0.33457894       0.43873024       0.63238145 </v>
    <v>       0.83457894       0.43873024       0.63238145 </v>
    <v>       0.33457894       0.77206357       0.63238145 </v>
    <v>       0.83457894       0.77206357       0.63238145 </v>
    <v>       0.22462338       0.30093342       0.80560053 </v>
    <v>       0.72527003       0.30093342       0.80560053 </v>
    <v>       0.22527003       0.63426676       0.80560053 </v>
    <v>       0.72527003       0.63426676       0.80560053 </v>
    <v>       0.22527003       0.96760009       0.80560053 </v>
    <v>       0.72527003       0.96760009       0.80560053 </v>
    <v>       0.47618324       0.30143353       0.80860116 </v>
    <v>       0.97618324       0.30143353       0.80860116 </v>
    <v>       0.47618324       0.63476686       0.80860116 </v>
    <v>       0.97618324       0.63476686       0.80860116 </v>
    <v>       0.47618324       0.96810019       0.80860116 </v>
    <v>       0.97618324       0.96810019       0.80860116 </v>
    <v>       0.02472997       0.03239991       0.19439947 </v>
    <v>       0.52472997       0.03239991       0.19439947 </v>
    <v>       0.02472997       0.36573324       0.19439947 </v>
    <v>       0.52472997       0.36573324       0.19439947 </v>
    <v>       0.02472997       0.69906658       0.19439947 </v>
    <v>       0.52472997       0.69906658       0.19439947 </v>
    <v>       0.27381676       0.03189981       0.19139884 </v>
    <v>       0.77381676       0.03189981       0.19139884 </v>
    <v>       0.27381676       0.36523314       0.19139884 </v>
    <v>       0.77381676       0.36523314       0.19139884 </v>
    <v>       0.27381676       0.69856647       0.19139884 </v>
    <v>       0.77381676       0.69856647       0.19139884 </v>
   </varray>
  </structure>
  <varray name="forces" >
   <v>       0.00067206      -0.00069782      -0.00029086 </v>
   <v>       0.00049532       0.00020864      -0.00032848 </v>
   <v>       0.00109395      -0.00001315       0.00017653 </v>
   <v>       0.00057568      -0.00017388      -0.00061273 </v>
   <v>       0.00062401       0.00043113      -0.00049994 </v>
   <v>       0.00050641      -0.00043781      -0.00021783 </v>
   <v>      -0.00693919      -0.00020067      -0.00023552 </v>
   <v>       0.00031130       0.00012542       0.00014106 </v>
   <v>      -0.00121088       0.00027753       0.00018874 </v>
   <v>       0.00025763       0.00010708       0.00017924 </v>
   <v>      -0.00119962      -0.00011794       0.00024035 </v>
   <v>       0.00026633       0.00014386       0.00016088 </v>
   <v>      -0.00629122       0.00035243       0.00080171 </v>
   <v>       0.00004227       0.00041696       0.00000459 </v>
   <v>      -0.00155861       0.00021849       0.00027756 </v>
   <v>      -0.00001637       0.00044850       0.00002678 </v>
   <v>      -0.00157502       0.00060762       0.00025119 </v>
   <v>      -0.00001702       0.00039888       0.00001905 </v>
   <v>       0.00007271      -0.00039337       0.00059528 </v>
   <v>       0.00074197      -0.00044390      -0.00009705 </v>
   <v>       0.00008026      -0.00020877       0.00055010 </v>
   <v>       0.00076236      -0.00040538      -0.00010472 </v>
   <v>       0.00018228      -0.00044153      -0.00000330 </v>
   <v>       0.00075892      -0.00037854      -0.00003835 </v>
   <v>      -0.01828858       0.00099545       0.00795233 </v>
   <v>       0.00022190       0.00012066      -0.00016819 </v>
   <v>      -0.00048294      -0.00068309      -0.00005571 </v>
   <v>      -0.00002008       0.00018561      -0.00016793 </v>
   <v>      -0.00054314       0.00087254      -0.00034129 </v>
   <v>      -0.00002634       0.00005577      -0.00014598 </v>
   <v>      -0.01872829       0.00046222       0.00702557 </v>
   <v>      -0.00075210      -0.00025298      -0.00016816 </v>
   <v>      -0.00151397       0.00053135      -0.00010076 </v>
   <v>      -0.00099904      -0.00031517      -0.00013666 </v>
   <v>      -0.00145267      -0.00100484       0.00018047 </v>
   <v>      -0.00100203      -0.00020039      -0.00015601 </v>
   <v>      -0.00026686       0.00033269      -0.00049733 </v>
   <v>       0.00066511      -0.00013065       0.00024725 </v>
   <v>      -0.00013128      -0.00026665      -0.00063860 </v>
   <v>       0.00068540      -0.00007679       0.00026178 </v>
   <v>      -0.00018734      -0.00079388      -0.00029725 </v>
   <v>       0.00067316      -0.00003407       0.00022517 </v>
   <v>       0.00120366      -0.00008006       0.00055242 </v>
   <v>       0.00146630       0.00029996       0.00010305 </v>
   <v>       0.00124653       0.00034664       0.00047720 </v>
   <v>       0.00148034       0.00025618       0.00009533 </v>
   <v>       0.00110932       0.00071277       0.00043158 </v>
   <v>       0.00141635       0.00023730       0.00011083 </v>
   <v>       0.00090008       0.00028734      -0.00116348 </v>
   <v>       0.00161558       0.00063972       0.00055473 </v>
   <v>       0.00095627       0.00132808      -0.00058076 </v>
   <v>       0.00133354      -0.00084335      -0.00013102 </v>
   <v>       0.00096626      -0.00046503      -0.00035814 </v>
   <v>       0.00125507       0.00175657      -0.00057843 </v>
   <v>      -0.00127212      -0.00057199      -0.00126019 </v>
   <v>       0.00067242      -0.00037870       0.00042572 </v>
   <v>      -0.00132413      -0.00090218      -0.00113098 </v>
   <v>       0.00067984      -0.00039000       0.00042626 </v>
   <v>      -0.00063414      -0.00051824       0.00003374 </v>
   <v>       0.00066050      -0.00040540       0.00024892 </v>
   <v>      -0.00869495      -0.00015222       0.00159763 </v>
   <v>       0.00094941      -0.00020292       0.00006969 </v>
   <v>      -0.00869971      -0.00034255       0.00163563 </v>
   <v>       0.00095852      -0.00020183       0.00007269 </v>
   <v>      -0.00081721      -0.00023473       0.00025575 </v>
   <v>       0.00071413      -0.00020083       0.00011455 </v>
   <v>       0.00118856      -0.00082549      -0.00012953 </v>
   <v>       0.00108959       0.00084109      -0.00082490 </v>
   <v>       0.00113028       0.00087317      -0.00043203 </v>
   <v>       0.00115826      -0.00091513      -0.00049918 </v>
   <v>      -0.00005115       0.00003368      -0.00009921 </v>
   <v>      -0.00016225      -0.00001959      -0.00034540 </v>
   <v>       0.00026797      -0.00005816      -0.00112977 </v>
   <v>       0.00133857       0.00048253       0.00037839 </v>
   <v>       0.00029138       0.00010421      -0.00115634 </v>
   <v>       0.00134402       0.00021917       0.00043828 </v>
   <v>      -0.00033725       0.00024014      -0.00021512 </v>
   <v>       0.00033054       0.00024493      -0.00024956 </v>
   <v>      -0.00185345      -0.00008218       0.00031356 </v>
   <v>       0.00106155       0.00003713       0.00024199 </v>
   <v>      -0.00183299       0.00007057       0.00029898 </v>
   <v>       0.00106875       0.00006929       0.00023471 </v>
   <v>      -0.00054756      -0.00011149       0.00011423 </v>
   <v>       0.00091373       0.00000575       0.00027270 </v>
   <v>      -0.00102851      -0.00302300       0.00500479 </v>
   <v>      -0.00101060       0.00003847      -0.00007280 </v>
   <v>      -0.00129661       0.00452804       0.00360570 </v>
   <v>      -0.00101528      -0.00012951      -0.00004942 </v>
   <v>       0.00062600       0.00004275       0.00009874 </v>
   <v>      -0.00063580      -0.00002980      -0.00004028 </v>
   <v>      -0.00304133       0.00338950      -0.00425334 </v>
   <v>      -0.00079935      -0.00006961       0.00021512 </v>
   <v>      -0.00275129      -0.00488151      -0.00273026 </v>
   <v>      -0.00080348       0.00008497       0.00017984 </v>
   <v>       0.00048713       0.00002428       0.00003320 </v>
   <v>      -0.00043779      -0.00000595       0.00004181 </v>
   <v>       0.00132657      -0.00031115       0.00020370 </v>
   <v>      -0.00074441      -0.00041907       0.00007553 </v>
   <v>       0.00111624      -0.00041107       0.00038122 </v>
   <v>      -0.00073082      -0.00044207       0.00008069 </v>
   <v>       0.00097034      -0.00030837       0.00010425 </v>
   <v>      -0.00069241      -0.00042857       0.00010185 </v>
   <v>       0.00015560      -0.00026876       0.00015777 </v>
   <v>      -0.00053159      -0.00041831      -0.00040464 </v>
   <v>       0.00015197      -0.00057526       0.00026073 </v>
   <v>      -0.00062434      -0.00013125      -0.00051112 </v>
   <v>       0.00014547       0.00011551       0.00049231 </v>
   <v>      -0.00059235      -0.00069940      -0.00045228 </v>
   <v>      -0.00370993      -0.00561887      -0.00204444 </v>
   <v>      -0.00087377       0.00051547       0.00002839 </v>
   <v>      -0.00408073       0.00505562      -0.00401083 </v>
   <v>      -0.00088398       0.00030641       0.00005158 </v>
   <v>       0.00041723       0.00042181      -0.00013715 </v>
   <v>      -0.00056224       0.00036098      -0.00010151 </v>
   <v>      -0.00241568       0.00547959       0.00354497 </v>
   <v>      -0.00106917       0.00018571      -0.00000757 </v>
   <v>      -0.00207186      -0.00340188       0.00517724 </v>
   <v>      -0.00108253       0.00035648      -0.00003616 </v>
   <v>       0.00042870       0.00030356      -0.00003947 </v>
   <v>      -0.00071298       0.00029722       0.00004748 </v>
   <v>       0.08381296      -0.00052823      -0.01888114 </v>
   <v>      -0.00085960       0.00009992       0.00016747 </v>
   <v>       0.00210803       0.00012806      -0.00030398 </v>
   <v>      -0.00069332       0.00007928       0.00012717 </v>
   <v>       0.00211145       0.00009010      -0.00029988 </v>
   <v>      -0.00069617       0.00009537       0.00012518 </v>
   <v>      -0.00312434      -0.00016207       0.00013327 </v>
   <v>      -0.00311339      -0.00023007      -0.00024490 </v>
   <v>      -0.00095146      -0.00089397      -0.00015477 </v>
   <v>      -0.00095320       0.00063519      -0.00003106 </v>
   <v>      -0.00099786       0.00056420      -0.00040474 </v>
   <v>      -0.00090235      -0.00080586       0.00023680 </v>
   <v>      -0.00007453      -0.00067321       0.00067682 </v>
   <v>      -0.00093927       0.00058239      -0.00052636 </v>
   <v>      -0.00002382      -0.00002499       0.00046195 </v>
   <v>      -0.00077682      -0.00019895      -0.00034191 </v>
   <v>      -0.00009219       0.00071731       0.00048232 </v>
   <v>      -0.00092645      -0.00094779      -0.00020376 </v>
   <v>       0.00160108       0.00024826       0.00032177 </v>
   <v>      -0.00017831       0.00007593       0.00006717 </v>
   <v>       0.00188251       0.00012432      -0.00008826 </v>
   <v>      -0.00021212       0.00008992       0.00006760 </v>
   <v>       0.00158921       0.00012123       0.00015630 </v>
   <v>      -0.00024327       0.00007499       0.00004384 </v>
  </varray>
  <varray name="stress" >
   <v>      -0.14431365       0.01678035       0.02163950 </v>
   <v>       0.00681375      -0.16321573      -0.07540518 </v>
   <v>      -0.01696657      -0.04652831      -0.12483863 </v>
  </varray>
  <energy>
   <i name="e_fr_energy">   -746.63077881 </i>
   <i name="e_wo_entrp">   -746.63077881 </i>
   <i name="e_0_energy">     -0.00000000 </i>
  </energy>
  <time name="totalsc"> 9069.06 9164.46</time>
  <eigenvalues>
   <array>
    <dimension dim="1">band</dimension>
    <dimension dim="2">kpoint</dimension>
    <dimension dim="3">spin</dimension>
    <field>eigene</field>
    <field>occ</field>
    <set>
     <set comment="spin 1">
      <set comment="kpoint 1">
       <r>  -51.6041    1.0000 </r>
       <r>  -51.6040    1.0000 </r>
       <r>  -51.6037    1.0000 </r>
       <r>  -51.6037    1.0000 </r>
       <r>  -51.6035    1.0000 </r>
       <r>  -51.6029    1.0000 </r>
       <r>  -51.6023    1.0000 </r>
       <r>  -51.6023    1.0000 </r>
       <r>  -51.6020    1.0000 </r>
       <r>  -51.6011    1.0000 </r>
       <r>  -51.6010    1.0000 </r>
       <r>  -51.6006    1.0000 </r>
       <r>  -51.4193    1.0000 </r>
       <r>  -51.4191    1.0000 </r>
       <r>  -51.4184    1.0000 </r>
       <r>  -51.4181    1.0000 </r>
       <r>  -51.4180    1.0000 </r>
       <r>  -51.4177    1.0000 </r>
       <r>  -51.4175    1.0000 </r>
       <r>  -51.4175    1.0000 </r>
       <r>  -51.4171    1.0000 </r>
       <r>  -51.4167    1.0000 </r>
       <r>  -51.4161    1.0000 </r>
       <r>  -51.4158    1.0000 </r>
       <r>  -51.2989    1.0000 </r>
       <r>  -51.2987    1.0000 </r>
       <r>  -51.2980    1.0000 </r>
       <r>  -51.2978    1.0000 </r>
       <r>  -51.2978    1.0000 </r>
       <r>  -51.2977    1.0000 </r>
       <r>  -51.2976    1.0000 </r>
       <r>  -51.2970    1.0000 </r>
       <r>  -51.2970    1.0000 </r>
       <r>  -51.2969    1.0000 </r>
       <r>  -51.2967    1.0000 </r>
       <r>  -51.2960    1.0000 </r>
       <r>  -50.1590    1.0000 </r>
       <r>  -50.1589    1.0000 </r>
       <r>  -50.1585    1.0000 </r>
       <r>  -50.1583    1.0000 </r>
       <r>  -50.1581    1.0000 </r>
       <r>  -50.1574    1.0000 </r>
       <r>  -50.1571    1.0000 </r>
       <r>  -50.1571    1.0000 </r>
       <r>  -50.1564    1.0000 </r>
       <r>  -50.1558    1.0000 </r>
       <r>  -50.1557    1.0000 </r>
       <r>  -50.1550    1.0000 </r>
       <r>  -50.0672    1.0000 </r>
       <r>  -50.0670    1.0000 </r>
       <r>  -50.0669    1.0000 </r>
       <r>  -50.0665    1.0000 </r>
       <r>  -50.0665    1.0000 </r>
       <r>  -50.0660    1.0000 </r>
       <r>  -50.0655    1.0000 </r>
       <r>  -50.0654    1.0000 </r>
       <r>  -50.0654    1.0000 </r>
       <r>  -50.0640    1.0000 </r>
       <r>  -50.0640    1.0000 </r>
       <r>  -50.0638    1.0000 </r>
       <r>  -49.9632    1.0000 </r>
       <r>  -49.9630    1.0000 </r>
       <r>  -49.9623    1.0000 </r>
       <r>  -49.9619    1.0000 </r>
       <r>  -49.9617    1.0000 </r>
       <r>  -49.9617    1.0000 </r>
       <r>  -49.9614    1.0000 </r>
       <r>  -49.9612    1.0000 </r>
       <r>  -49.9612    1.0000 </r>
       <r>  -49.9607    1.0000 </r>
       <r>  -49.9600    1.0000 </r>
       <r>  -49.9598    1.0000 </r>
       <r>  -49.9540    1.0000 </r>
       <r>  -49.9539    1.0000 </r>
       <r>  -49.9532    1.0000 </r>
       <r>  -49.9528    1.0000 </r>
       <r>  -49.9527    1.0000 </r>
       <r>  -49.9526    1.0000 </r>
       <r>  -49.9522    1.0000 </r>
       <r>  -49.9521    1.0000 </r>
       <r>  -49.9521    1.0000 </r>
[...]
       <r>   -32.5911     0.0000   156.0000 </r>
       <r>   -32.3516     0.0000   156.0000 </r>
       <r>   -32.1120     0.0000   156.0000 </r>
       <r>   -31.8724     0.0000   156.0000 </r>
       <r>   -31.6329     0.0000   156.0000 </r>
       <r>   -31.3933     0.0000   156.0000 </r>
       <r>   -31.1537     0.0000   156.0000 </r>
       <r>   -30.9142     0.0000   156.0000 </r>
       <r>   -30.6746     0.0000   156.0000 </r>
       <r>   -30.4350     0.0000   156.0000 </r>
       <r>   -30.1955     0.0000   156.0000 </r>
       <r>   -29.9559     0.0000   156.0000 </r>
       <r>   -29.7163     0.0000   156.0000 </r>
       <r>   -29.4768     0.0000   156.0000 </r>
       <r>   -29.2372     0.0000   156.0000 </r>
       <r>   -28.9976     0.0000   156.0000 </r>
       <r>   -28.7581     0.0000   156.0000 </r>
       <r>   -28.5185     0.0000   156.0000 </r>
       <r>   -28.2789     0.0000   156.0000 </r>
       <r>   -28.0393     0.0000   156.0000 </r>
       <r>   -27.7998     0.0000   156.0000 </r>
       <r>   -27.5602     0.0000   156.0000 </r>
       <r>   -27.3206     0.0000   156.0000 </r>
       <r>   -27.0811     0.0000   156.0000 </r>
       <r>   -26.8415     0.0000   156.0000 </r>
       <r>   -26.6019     0.0000   156.0000 </r>
       <r>   -26.3624     0.0000   156.0000 </r>
       <r>   -26.1228     0.0000   156.0000 </r>
       <r>   -25.8832     0.0000   156.0000 </r>
       <r>   -25.6437     0.0000   156.0000 </r>
       <r>   -25.4041     0.0000   156.0000 </r>
       <r>   -25.1645     0.0000   156.0000 </r>
       <r>   -24.9250     0.0000   156.0000 </r>
       <r>   -24.6854     0.0000   156.0000 </r>
       <r>   -24.4458     0.0000   156.0000 </r>
       <r>   -24.2063     0.0000   156.0000 </r>
       <r>   -23.9667     0.0000   156.0000 </r>
       <r>   -23.7271     0.0000   156.0000 </r>
       <r>   -23.4875     0.0000   156.0000 </r>
       <r>   -23.2480     0.0000   156.0000 </r>
       <r>   -23.0084     0.0000   156.0000 </r>
       <r>   -22.7688     0.0000   156.0000 </r>
       <r>   -22.5293     0.0000   156.0000 </r>
       <r>   -22.2897     0.0000   156.0000 </r>
       <r>   -22.0501     0.0000   156.0000 </r>
       <r>   -21.8106     0.0000   156.0000 </r>
       <r>   -21.5710     0.0000   156.0000 </r>
       <r>   -21.3314     0.0000   156.0000 </r>
       <r>   -21.0919     0.0000   156.0000 </r>
       <r>   -20.8523     0.0000   156.0000 </r>
       <r>   -20.6127     0.0000   156.0000 </r>
       <r>   -20.3732     0.0000   156.0000 </r>
       <r>   -20.1336     0.0000   156.0000 </r>
       <r>   -19.8940     0.0000   156.0000 </r>
       <r>   -19.6545     0.0000   156.0000 </r>
       <r>   -19.4149     0.0000   156.0000 </r>
       <r>   -19.1753     0.0000   156.0000 </r>
       <r>   -18.9357     0.0000   156.0000 </r>
       <r>   -18.6962     0.0000   156.0000 </r>
       <r>   -18.4566     0.0000   156.0000 </r>
       <r>   -18.2170     0.0000   156.0000 </r>
       <r>   -17.9775     0.0000   156.0000 </r>
       <r>   -17.7379     0.0000   156.0000 </r>
       <r>   -17.4983     0.0000   156.0000 </r>
       <r>   -17.2588     0.0000   156.0000 </r>
       <r>   -17.0192     0.0000   156.0000 </r>
       <r>   -16.7796     0.0000   156.0000 </r>
       <r>   -16.5401     0.0000   156.0000 </r>
       <r>   -16.3005     0.0000   156.0000 </r>
       <r>   -16.0609     0.0000   156.0000 </r>
       <r>   -15.8214     0.0000   156.0000 </r>
       <r>   -15.5818     0.0000   156.0000 </r>
       <r>   -15.3422     0.0000   156.0000 </r>
       <r>   -15.1027     0.0000   156.0000 </r>
       <r>   -14.8631     0.0000   156.0000 </r>
       <r>   -14.6235     0.0000   156.0000 </r>
       <r>   -14.3839     0.0000   156.0000 </r>
       <r>   -14.1444     0.0000   156.0000 </r>
       <r>   -13.9048     0.0000   156.0000 </r>
       <r>   -13.6652     0.0000   156.0000 </r>
       <r>   -13.4257     1.3696   156.3281 </r>
       <r>   -13.1861    44.0791   166.8881 </r>
       <r>   -12.9465     5.1527   168.1225 </r>
       <r>   -12.7070    41.2077   177.9946 </r>
       <r>   -12.4674     8.3710   180.0000 </r>
       <r>   -12.2278     0.0000   180.0000 </r>
       <r>   -11.9883     0.0000   180.0000 </r>
       <r>   -11.7487     0.0000   180.0000 </r>
       <r>   -11.5091     0.0000   180.0000 </r>
       <r>   -11.2696     0.0000   180.0000 </r>
       <r>   -11.0300     0.0000   180.0000 </r>
       <r>   -10.7904     0.0000   180.0000 </r>
       <r>   -10.5509     0.0000   180.0000 </r>
       <r>   -10.3113     0.0000   180.0000 </r>
       <r>   -10.0717     0.0000   180.0000 </r>
       <r>    -9.8321     0.0000   180.0000 </r>
       <r>    -9.5926     0.0000   180.0000 </r>
       <r>    -9.3530     0.0000   180.0000 </r>
       <r>    -9.1134     0.0000   180.0000 </r>
       <r>    -8.8739     0.0000   180.0000 </r>
       <r>    -8.6343     0.0000   180.0000 </r>
       <r>    -8.3947     0.0000   180.0000 </r>
       <r>    -8.1552     0.0000   180.0000 </r>
       <r>    -7.9156     0.0000   180.0000 </r>
       <r>    -7.6760     0.0108   180.0026 </r>
       <r>    -7.4365    11.5259   182.7638 </r>
       <r>    -7.1969    27.7610   189.4145 </r>
       <r>    -6.9573    59.1824   203.5927 </r>
       <r>    -6.7178    47.9805   215.0873 </r>
       <r>    -6.4782     3.8097   216.0000 </r>
       <r>    -6.2386     0.0000   216.0000 </r>
       <r>    -5.9991     0.0000   216.0000 </r>
       <r>    -5.7595     0.0000   216.0000 </r>
       <r>    -5.5199     0.0000   216.0000 </r>
       <r>    -5.2803     0.0000   216.0000 </r>
       <r>    -5.0408     0.0000   216.0000 </r>
       <r>    -4.8012     0.0000   216.0000 </r>
       <r>    -4.5616     0.0000   216.0000 </r>
       <r>    -4.3221     0.0000   216.0000 </r>
       <r>    -4.0825     0.0000   216.0000 </r>
       <r>    -3.8429     0.0000   216.0000 </r>
       <r>    -3.6034     0.0000   216.0000 </r>
       <r>    -3.3638     0.0000   216.0000 </r>
       <r>    -3.1242     0.0000   216.0000 </r>
       <r>    -2.8847     0.0000   216.0000 </r>
       <r>    -2.6451     0.0000   216.0000 </r>
       <r>    -2.4055     0.0000   216.0000 </r>
       <r>    -2.1660     0.0000   216.0000 </r>
       <r>    -1.9264     0.0000   216.0000 </r>
       <r>    -1.6868     0.0000   216.0000 </r>
       <r>    -1.4473     0.0000   216.0000 </r>
       <r>    -1.2077     0.0591   216.0142 </r>
       <r>    -0.9681     4.3539   217.0572 </r>
       <r>    -0.7285    13.7784   220.3581 </r>
       <r>    -0.4890    15.1218   223.9808 </r>
       <r>    -0.2494    18.9995   228.5325 </r>
       <r>    -0.0098    41.4040   238.4516 </r>
       <r>     0.2297    33.9863   246.5936 </r>
       <r>     0.4693    41.5904   256.5573 </r>
       <r>     0.7089    34.1855   264.7471 </r>
       <r>     0.9484    51.9814   277.2002 </r>
       <r>     1.1880    61.0501   291.8259 </r>
       <r>     1.4276    44.3736   302.4564 </r>
       <r>     1.6671    40.5490   312.1707 </r>
       <r>     1.9067    38.2224   321.3276 </r>
       <r>     2.1463    37.5645   330.3268 </r>
       <r>     2.3858    38.0958   339.4534 </r>
       <r>     2.6254    48.5272   351.0789 </r>
       <r>     2.8650    63.3170   366.2477 </r>
       <r>     3.1045    58.7810   380.3298 </r>
       <r>     3.3441    48.8244   392.0266 </r>
       <r>     3.5837    29.0761   398.9923 </r>
       <r>     3.8233    60.2960   413.4373 </r>
       <r>     4.0628    75.8571   431.6103 </r>
       <r>     4.3024     1.6267   432.0000 </r>
       <r>     4.5420     0.0000   432.0000 </r>
       <r>     4.7815     0.0000   432.0000 </r>
       <r>     5.0211     0.0000   432.0000 </r>
       <r>     5.2607     0.0000   432.0000 </r>
       <r>     5.5002     0.0000   432.0000 </r>
       <r>     5.7398     0.0000   432.0000 </r>
       <r>     5.9794     0.0000   432.0000 </r>
       <r>     6.2189     0.1184   432.0284 </r>
       <r>     6.4585     7.7453   433.8839 </r>
       <r>     6.6981    29.6327   440.9830 </r>
       <r>     6.9376    42.5277   451.1713 </r>
       <r>     7.1772    72.1650   468.4597 </r>
       <r>     7.4168    81.2806   487.9320 </r>
       <r>     7.6563    65.3359   503.5844 </r>
       <r>     7.8959    87.9358   524.6510 </r>
       <r>     8.1355    71.9097   541.8783 </r>
       <r>     8.3751    55.0097   555.0569 </r>
       <r>     8.6146    37.0848   563.9413 </r>
       <r>     8.8542    39.9035   573.5009 </r>
       <r>     9.0938    19.8491   578.2561 </r>
       <r>     9.3333    13.4429   581.4766 </r>
       <r>     9.5729    20.5601   586.4022 </r>
       <r>     9.8125    29.8011   593.5416 </r>
       <r>    10.0520    26.5133   599.8933 </r>
       <r>    10.2916    34.0889   608.0599 </r>
       <r>    10.5312    36.1237   616.7140 </r>
       <r>    10.7707    27.7493   623.3619 </r>
       <r>    11.0103    22.9227   628.8534 </r>
       <r>    11.2499    21.1794   633.9273 </r>
       <r>    11.4894    32.1444   641.6281 </r>
       <r>    11.7290    38.8524   650.9359 </r>
       <r>    11.9686    42.2463   661.0568 </r>
       <r>    12.2081    51.6694   673.4352 </r>
       <r>    12.4477    47.2399   684.7524 </r>
       <r>    12.6873    36.0572   693.3905 </r>
       <r>    12.9269    41.1119   703.2396 </r>
       <r>    13.1664    40.2247   712.8762 </r>
       <r>    13.4060    33.9916   721.0195 </r>
       <r>    13.6456    24.9739   727.0025 </r>
       <r>    13.8851     4.1637   728.0000 </r>
       <r>    14.1247     0.0000   728.0000 </r>
       <r>    14.3643     0.0000   728.0000 </r>
       <r>    14.6038     0.0000   728.0000 </r>
       <r>    14.8434     0.0000   728.0000 </r>
       <r>    15.0830     0.0000   728.0000 </r>
       <r>    15.3225     0.0000   728.0000 </r>
       <r>    15.5621     0.0000   728.0000 </r>
       <r>    15.8017     0.0000   728.0000 </r>
       <r>    16.0412     0.0000   728.0000 </r>
       <r>    16.2808     0.0000   728.0000 </r>
       <r>    16.5204     0.0000   728.0000 </r>
       <r>    16.7599     0.0000   728.0000 </r>
       <r>    16.9995     0.0000   728.0000 </r>
      </set>
     </set>
    </array>
   </total>
  </dos>
 </calculation>
 <structure name="finalpos" >
  <crystal>
   <varray name="basis" >
    <v>      15.21162830       0.00516956      -2.78361592 </v>
    <v>      -0.40798665      11.93565774      -2.20735884 </v>
    <v>      -0.06175567      -0.11168197      10.54442638 </v>
   </varray>
   <i name="volume">   1908.54869108 </i>
   <varray name="rec_basis" >
    <v>       0.06581343       0.00232549       0.00041008 </v>
    <v>       0.00013433       0.08395174       0.00088997 </v>
    <v>       0.01740216       0.01818827       0.09513139 </v>
   </varray>
  </crystal>
  <varray name="positions" >
   <v>       0.47527516       0.00074367       0.00446200 </v>
   <v>       0.97527516       0.00074367       0.00446200 </v>
   <v>       0.47527516       0.33407700       0.00446200 </v>
   <v>       0.97527516       0.33407700       0.00446200 </v>
   <v>       0.47527516       0.66741034       0.00446200 </v>
   <v>       0.97527516       0.66741034       0.00446200 </v>
   <v>       0.27472484       0.33258966       0.99553800 </v>
   <v>       0.77472484       0.33258966       0.99553800 </v>
   <v>       0.27472484       0.66592300       0.99553800 </v>
   <v>       0.77472484       0.66592300       0.99553800 </v>
   <v>       0.27472484       0.99925633       0.99553800 </v>
   <v>       0.77472484       0.99925633       0.99553800 </v>
   <v>       0.17788805       0.26797179       0.60783074 </v>
   <v>       0.67788805       0.26797179       0.60783074 </v>
   <v>       0.17788805       0.60130513       0.60783074 </v>
   <v>       0.67788805       0.60130513       0.60783074 </v>
   <v>       0.17788805       0.93463846       0.60783074 </v>
   <v>       0.67788805       0.93463846       0.60783074 </v>
   <v>       0.07211195       0.06536154       0.39216926 </v>
   <v>       0.57211195       0.06536154       0.39216926 </v>
   <v>       0.07211195       0.39869487       0.39216926 </v>
   <v>       0.57211195       0.39869487       0.39216926 </v>
   <v>       0.07211195       0.73202821       0.39216926 </v>
   <v>       0.57211195       0.73202821       0.39216926 </v>
   <v>       0.10733875       0.30765571       0.84593428 </v>
   <v>       0.60733875       0.30765571       0.84593428 </v>
   <v>       0.10733875       0.64098905       0.84593428 </v>
   <v>       0.60733875       0.64098905       0.84593428 </v>
   <v>       0.10733875       0.97432238       0.84593428 </v>
   <v>       0.60733875       0.97432238       0.84593428 </v>
   <v>       0.34464416       0.29539312       0.77235872 </v>
   <v>       0.84464416       0.29539312       0.77235872 </v>
   <v>       0.34464416       0.62872645       0.77235872 </v>
   <v>       0.84464416       0.62872645       0.77235872 </v>
   <v>       0.34464416       0.96205979       0.77235872 </v>
   <v>       0.84464416       0.96205979       0.77235872 </v>
   <v>       0.14266125       0.02567762       0.15406572 </v>
   <v>       0.64266125       0.02567762       0.15406572 </v>
   <v>       0.14266125       0.35901095       0.15406572 </v>
   <v>       0.64266125       0.35901095       0.15406572 </v>
   <v>       0.14266125       0.69234429       0.15406572 </v>
   <v>       0.64266125       0.69234429       0.15406572 </v>
   <v>       0.40535584       0.03794021       0.22764128 </v>
   <v>       0.90535584       0.03794021       0.22764128 </v>
   <v>       0.40535584       0.37127355       0.22764128 </v>
   <v>       0.90535584       0.37127355       0.22764128 </v>
   <v>       0.40535584       0.70460688       0.22764128 </v>
   <v>       0.90535584       0.70460688       0.22764128 </v>
   <v>       0.46517249       0.26691416       0.60148498 </v>
   <v>       0.96517249       0.26691416       0.60148498 </v>
   <v>       0.46517249       0.60024750       0.60148498 </v>
   <v>       0.96517249       0.60024750       0.60148498 </v>
   <v>       0.46517249       0.93358083       0.60148498 </v>
   <v>       0.96517249       0.93358083       0.60148498 </v>
   <v>       0.28482751       0.06641917       0.39851502 </v>
   <v>       0.78482751       0.06641917       0.39851502 </v>
   <v>       0.28482751       0.39975250       0.39851502 </v>
   <v>       0.78482751       0.39975250       0.39851502 </v>
   <v>       0.28482751       0.73308584       0.39851502 </v>
   <v>       0.78482751       0.73308584       0.39851502 </v>
   <v>       0.22447416       0.13353711       0.80122268 </v>
   <v>       0.72447416       0.13353711       0.80122268 </v>
   <v>       0.22447416       0.46687045       0.80122268 </v>
   <v>       0.72447416       0.46687045       0.80122268 </v>
   <v>       0.22447416       0.80020378       0.80122268 </v>
   <v>       0.72447416       0.80020378       0.80122268 </v>
   <v>       0.47796479       0.13582521       0.81495126 </v>
   <v>       0.97796479       0.13582521       0.81495126 </v>
   <v>       0.47796479       0.46915854       0.81495126 </v>
   <v>       0.97796479       0.46915854       0.81495126 </v>
   <v>       0.47796479       0.80249188       0.81495126 </v>
   <v>       0.97796479       0.80249188       0.81495126 </v>
   <v>       0.02552584       0.19979622       0.19877732 </v>
   <v>       0.52552584       0.19979622       0.19877732 </v>
   <v>       0.02552584       0.53312955       0.19877732 </v>
   <v>       0.52552584       0.53312955       0.19877732 </v>
   <v>       0.02552584       0.86646289       0.19877732 </v>
   <v>       0.52552584       0.86646289       0.19877732 </v>
   <v>       0.27203521       0.19750812       0.18504874 </v>
   <v>       0.77203521       0.19750812       0.18504874 </v>
   <v>       0.27203521       0.53084146       0.18504874 </v>
   <v>       0.77203521       0.53084146       0.18504874 </v>
   <v>       0.27203521       0.86417479       0.18504874 </v>
   <v>       0.77203521       0.86417479       0.18504874 </v>
   <v>       0.12500000       0.16666667       0.00000000 </v>
   <v>       0.62500000       0.16666667       0.00000000 </v>
   <v>       0.12500000       0.50000000       0.00000000 </v>
   <v>       0.62500000       0.50000000       0.00000000 </v>
   <v>       0.12500000       0.83333333       0.00000000 </v>
   <v>       0.62500000       0.83333333       0.00000000 </v>
   <v>       0.37500000       0.16666667       0.00000000 </v>
   <v>       0.87500000       0.16666667       0.00000000 </v>
   <v>       0.37500000       0.50000000       0.00000000 </v>
   <v>       0.87500000       0.50000000       0.00000000 </v>
   <v>       0.37500000       0.83333333       0.00000000 </v>
   <v>       0.87500000       0.83333333       0.00000000 </v>
   <v>       0.17614737       0.22809805       0.36858830 </v>
   <v>       0.67614737       0.22809805       0.36858830 </v>
   <v>       0.17614737       0.56143138       0.36858830 </v>
   <v>       0.67614737       0.56143138       0.36858830 </v>
   <v>       0.17614737       0.89476472       0.36858830 </v>
   <v>       0.67614737       0.89476472       0.36858830 </v>
   <v>       0.41542106       0.22793643       0.36761855 </v>
   <v>       0.91542106       0.22793643       0.36761855 </v>
   <v>       0.41542106       0.56126976       0.36761855 </v>
   <v>       0.91542106       0.56126976       0.36761855 </v>
   <v>       0.41542106       0.89460309       0.36761855 </v>
   <v>       0.91542106       0.89460309       0.36761855 </v>
   <v>       0.07385263       0.10523528       0.63141170 </v>
   <v>       0.57385263       0.10523528       0.63141170 </v>
   <v>       0.07385263       0.43856862       0.63141170 </v>
   <v>       0.57385263       0.43856862       0.63141170 </v>
   <v>       0.07385263       0.77190195       0.63141170 </v>
   <v>       0.57385263       0.77190195       0.63141170 </v>
   <v>       0.33457894       0.10539691       0.63238145 </v>
   <v>       0.83457894       0.10539691       0.63238145 </v>
   <v>       0.33457894       0.43873024       0.63238145 </v>
   <v>       0.83457894       0.43873024       0.63238145 </v>
   <v>       0.33457894       0.77206357       0.63238145 </v>
   <v>       0.83457894       0.77206357       0.63238145 </v>
   <v>       0.22462338       0.30093342       0.80560053 </v>
   <v>       0.72527003       0.30093342       0.80560053 </v>
   <v>       0.22527003       0.63426676       0.80560053 </v>
   <v>       0.72527003       0.63426676       0.80560053 </v>
   <v>       0.22527003       0.96760009       0.80560053 </v>
   <v>       0.72527003       0.96760009       0.80560053 </v>
   <v>       0.47618324       0.30143353       0.80860116 </v>
   <v>       0.97618324       0.30143353       0.80860116 </v>
   <v>       0.47618324       0.63476686       0.80860116 </v>
   <v>       0.97618324       0.63476686       0.80860116 </v>
   <v>       0.47618324       0.96810019       0.80860116 </v>
   <v>       0.97618324       0.96810019       0.80860116 </v>
   <v>       0.02472997       0.03239991       0.19439947 </v>
   <v>       0.52472997       0.03239991       0.19439947 </v>
   <v>       0.02472997       0.36573324       0.19439947 </v>
   <v>       0.52472997       0.36573324       0.19439947 </v>
   <v>       0.02472997       0.69906658       0.19439947 </v>
   <v>       0.52472997       0.69906658       0.19439947 </v>
   <v>       0.27381676       0.03189981       0.19139884 </v>
   <v>       0.77381676       0.03189981       0.19139884 </v>
   <v>       0.27381676       0.36523314       0.19139884 </v>
   <v>       0.77381676       0.36523314       0.19139884 </v>
   <v>       0.27381676       0.69856647       0.19139884 </v>
   <v>       0.77381676       0.69856647       0.19139884 </v>
  </varray>
 </structure>
</modeling>
