# epsilon and Z* of atoms 1 3 5 7 9
   5.55748629    0.00000000    0.00000000    0.00000000    5.55748629    0.00000000    0.00000000    0.00000000    5.76859423 
   1.29531492    0.00000000   -0.00000000    0.00000000    1.29531492   -0.00000000    0.00000000   -0.00000000    0.93809920 
   1.38674238   -0.00000000   -0.00000000    0.00000000    0.97694743    0.00000000    0.00000000    0.00000000    1.33398813 
   2.28231586    0.00000000   -0.00000000   -0.00000000    2.75393640    0.00000000    0.00000000    0.00000000    2.27234726 
  -2.16896365    0.00000000   -0.00000000    0.00000000   -2.16896365    0.00000000    0.00000000    0.00000000   -2.52148713 
  -1.98800480    0.00000000   -0.00000000    0.00000000   -3.66463981    0.00000000    0.00000000    0.00000000   -2.02294747 