320  
7    

1    
  0.0071777758116118   0.0000000000000000   0.0069627246389786
  -0.0100966400    0.0000000000   -0.0570431200
   0.0007253300    0.0000000000   -0.0001613600
   0.0002336700    0.0000000000   -0.0000396800
   0.0008281000    0.0000000000   -0.0002722200
  -0.0009089400    0.0000565600   -0.0002176900
   0.0005612900    0.0004701200    0.0000588800
   0.0001692100   -0.0000173600   -0.0000100200
   0.0005346900   -0.0004985400    0.0000843500
  -0.0002727300    0.0000000000   -0.0000393700
   0.0000943600    0.0000000000   -0.0000300600
   0.0001131400    0.0000000000   -0.0000087500
   0.0000596100    0.0000000000    0.0000059600
  -0.0009089400   -0.0000565600   -0.0002176900
   0.0005612900   -0.0004701200    0.0000588800
   0.0001692100    0.0000173600   -0.0000100200
   0.0005346900    0.0004985400    0.0000843500
  -0.0000648000    0.0000000000    0.0001412800
   0.0000150700    0.0000000000    0.0000703300
   0.0000501600    0.0000000000    0.0000215400
  -0.0000025600    0.0000000000    0.0000873100
  -0.0000531300   -0.0000089000    0.0000786700
   0.0000129500    0.0000000700    0.0000552000
   0.0000431900   -0.0000078800    0.0000156200
  -0.0000052100   -0.0000179000    0.0000725000
  -0.0000414700    0.0000000000    0.0000211400
   0.0000090600    0.0000000000    0.0000101700
   0.0000372200    0.0000000000    0.0000048100
  -0.0000067800    0.0000000000    0.0000253700
  -0.0000531300    0.0000089000    0.0000786700
   0.0000129500   -0.0000000700    0.0000552000
   0.0000431900    0.0000078800    0.0000156200
  -0.0000052100    0.0000179000    0.0000725000
  -0.0003770600    0.0000000000    0.0011489400
  -0.0001099800    0.0000000000   -0.0000429300
   0.0001177300    0.0000000000    0.0000193000
   0.0000837800    0.0000000000    0.0001564800
  -0.0001648900   -0.0001528200   -0.0000020200
  -0.0000549400   -0.0000802200   -0.0001447700
   0.0000981900   -0.0000384800   -0.0000006100
   0.0001394500   -0.0001509500    0.0000571400
  -0.0001098600    0.0000000000    0.0000008300
   0.0000014500    0.0000000000   -0.0000177900
   0.0000797700    0.0000000000    0.0000034700
   0.0000304700    0.0000000000    0.0000129800
  -0.0001648900    0.0001528200   -0.0000020200
  -0.0000549400    0.0000802200   -0.0001447700
   0.0000981900    0.0000384800   -0.0000006100
   0.0001394500    0.0001509500    0.0000571400
  -0.0001343100    0.0000000000    0.0011541400
   0.0001756500    0.0000000000    0.0001566200
   0.0001144300    0.0000000000    0.0000026700
  -0.0001298100    0.0000000000   -0.0001590600
  -0.0001152200    0.0000950900    0.0000555300
   0.0001257000    0.0001328800    0.0000750600
   0.0000920800    0.0000146200   -0.0000037900
  -0.0001058300    0.0000621700   -0.0001630700
  -0.0000739500    0.0000000000    0.0000192500
   0.0000391000    0.0000000000    0.0000381700
   0.0000743200    0.0000000000    0.0000040700
  -0.0000373200    0.0000000000   -0.0000396100
  -0.0001152200   -0.0000950900    0.0000555300
   0.0001257000   -0.0001328800    0.0000750600
   0.0000920800   -0.0000146200   -0.0000037900
  -0.0001058300   -0.0000621700   -0.0001630700
  -0.0012177400    0.0031402400    0.0015177000
   0.0003448600    0.0001404300   -0.0005311200
   0.0001813800    0.0000226600   -0.0000331000
   0.0003643200    0.0002048300    0.0001859300
  -0.0012177400   -0.0031402400    0.0015177000
   0.0003448600   -0.0001404300   -0.0005311200
   0.0001813800   -0.0000226600   -0.0000331000
   0.0003643200   -0.0002048300    0.0001859300
  -0.0001625700   -0.0000314300   -0.0000336900
   0.0000381300    0.0000953500   -0.0000543800
   0.0000909800   -0.0000072100   -0.0000112400
   0.0000296600   -0.0000899200    0.0000088600
  -0.0001625700    0.0000314300   -0.0000336900
   0.0000381300   -0.0000953500   -0.0000543800
   0.0000909800    0.0000072100   -0.0000112400
   0.0000296600    0.0000899200    0.0000088600
  -0.0001436300   -0.0000327300    0.0001780600
   0.0001261200   -0.0000034300    0.0001730500
   0.0000999300   -0.0000001200    0.0000367600
  -0.0000846000    0.0000167600    0.0000997800
  -0.0001436300    0.0000327300    0.0001780600
   0.0001261200    0.0000034300    0.0001730500
   0.0000999300    0.0000001200    0.0000367600
  -0.0000846000   -0.0000167600    0.0000997800
  -0.0000633700    0.0000246400    0.0000342100
   0.0000219100    0.0000287600    0.0000384000
   0.0000601600    0.0000043600    0.0000123000
  -0.0000192100    0.0000115900    0.0000113000
  -0.0000633700   -0.0000246400    0.0000342100
   0.0000219100   -0.0000287600    0.0000384000
   0.0000601600   -0.0000043600    0.0000123000
  -0.0000192100   -0.0000115900    0.0000113000
  -0.0000054100    0.0000000000    0.0002660800
  -0.0000717900    0.0000000000    0.0000916000
   0.0000164700    0.0000000000    0.0000011700
   0.0000671100    0.0000000000    0.0000661600
  -0.0000391500   -0.0001557100    0.0002014100
  -0.0000268000   -0.0000543600    0.0000719300
   0.0000126900   -0.0000029400   -0.0000013700
   0.0000527900   -0.0000380600    0.0000517300
  -0.0000229300    0.0000000000    0.0000763500
  -0.0000214000    0.0000000000   -0.0000028600
   0.0000165200    0.0000000000   -0.0000093300
   0.0000281000    0.0000000000    0.0000339500
  -0.0000391500    0.0001557100    0.0002014100
  -0.0000268000    0.0000543600    0.0000719300
   0.0000126900    0.0000029400   -0.0000013700
   0.0000527900    0.0000380600    0.0000517300
  -0.0014311700    0.0000000000   -0.0017117800
   0.0048886300    0.0000000000    0.0047849800
   0.0002182700    0.0000000000    0.0000179200
   0.0001573800    0.0000000000   -0.0000848600
  -0.0003573600   -0.0003612400   -0.0006571900
  -0.0000127600    0.0003825900    0.0003135100
   0.0001372100    0.0000389300    0.0000129700
   0.0001386900   -0.0000467900   -0.0000583000
  -0.0000745300    0.0000000000   -0.0001410400
  -0.0000292400    0.0000000000    0.0000747000
   0.0000581300    0.0000000000    0.0000099100
   0.0000473100    0.0000000000   -0.0000320800
  -0.0003573600    0.0003612400   -0.0006571900
  -0.0000127600   -0.0003825900    0.0003135100
   0.0001372100   -0.0000389300    0.0000129700
   0.0001386900    0.0000467900   -0.0000583000
  -0.0003217600    0.0000922100    0.0003323100
  -0.0000829600   -0.0000219300    0.0001589500
   0.0001662000    0.0000128500    0.0000803700
   0.0002194000    0.0000233500    0.0003206300
  -0.0003217600   -0.0000922100    0.0003323100
  -0.0000829600    0.0000219300    0.0001589500
   0.0001662000   -0.0000128500    0.0000803700
   0.0002194000   -0.0000233500    0.0003206300
  -0.0001407100   -0.0000918700    0.0000499500
   0.0000186700   -0.0000455000    0.0000001100
   0.0001064200   -0.0000264700    0.0000208700
   0.0000163900   -0.0000994800    0.0000723000
  -0.0001407100    0.0000918700    0.0000499500
   0.0000186700    0.0000455000    0.0000001100
   0.0001064200    0.0000264700    0.0000208700
   0.0000163900    0.0000994800    0.0000723000
  -0.0024540600   -0.0076165100    0.0033854800
   0.0006501800   -0.0002453000    0.0003802200
   0.0002916300   -0.0000118400   -0.0000819200
   0.0006616700   -0.0001222100   -0.0010729400
  -0.0024540600    0.0076165100    0.0033854800
   0.0006501800    0.0002453000    0.0003802200
   0.0002916300    0.0000118400   -0.0000819200
   0.0006616700    0.0001222100   -0.0010729400
  -0.0002561800    0.0002603400   -0.0000555600
   0.0000927100    0.0002171000    0.0000422300
   0.0001498700   -0.0000074100   -0.0000203400
   0.0000118400   -0.0002813100   -0.0001078200
  -0.0002561800   -0.0002603400   -0.0000555600
   0.0000927100   -0.0002171000    0.0000422300
   0.0001498700    0.0000074100   -0.0000203400
   0.0000118400    0.0002813100   -0.0001078200
   0.0101743100    0.0000000000    0.0093742400
  -0.0049847700    0.0000000000   -0.0026929400
   0.0002971100    0.0000000000   -0.0001447800
   0.0008203500    0.0000000000    0.0000334800
  -0.0002707300   -0.0006729400    0.0005129500
  -0.0006369500    0.0006873500   -0.0012060100
   0.0004105500    0.0000301200   -0.0000982600
   0.0003454600   -0.0001091600    0.0000335400
  -0.0001053800    0.0000000000    0.0000676300
  -0.0001251500    0.0000000000   -0.0002302800
   0.0001200700    0.0000000000   -0.0000534800
   0.0001107700    0.0000000000    0.0000143700
  -0.0002707300    0.0006729400    0.0005129500
  -0.0006369500   -0.0006873500   -0.0012060100
   0.0004105500   -0.0000301200   -0.0000982600
   0.0003454600    0.0001091600    0.0000335400
  -0.0001853300    0.0000000000    0.0002425800
   0.0000016000    0.0000000000    0.0004211500
   0.0001837300    0.0000000000    0.0001096600
  -0.0000004200    0.0000000000   -0.0000096700
  -0.0000666400    0.0000824300    0.0001793600
  -0.0000666700    0.0002207900    0.0003002400
   0.0001425000    0.0000327300    0.0000828700
  -0.0000056500   -0.0000355100   -0.0000101000
  -0.0000571600    0.0000000000    0.0000475400
  -0.0000326800    0.0000000000    0.0001139800
   0.0000689500    0.0000000000    0.0000567700
   0.0000192100    0.0000000000   -0.0000152300
  -0.0000666400   -0.0000824300    0.0001793600
  -0.0000666700   -0.0002207900    0.0003002400
   0.0001425000   -0.0000327300    0.0000828700
  -0.0000056500    0.0000355100   -0.0000101000
  -0.0003623900   -0.0018164100    0.0021805500
  -0.0002270000    0.0019171600    0.0022678100
  -0.0004663500    0.0000076900    0.0000882700
  -0.0005054300   -0.0000747900    0.0000757000
  -0.0003623900    0.0018164100    0.0021805500
  -0.0002270000   -0.0019171600    0.0022678100
  -0.0004663500   -0.0000076900    0.0000882700
  -0.0005054300    0.0000747900    0.0000757000
   0.0001979500    0.0003526600    0.0001267800
   0.0001304600   -0.0003906800    0.0000496200
  -0.0001656900   -0.0000559000    0.0000220000
  -0.0001435800    0.0000799400    0.0000287000
   0.0001979500   -0.0003526600    0.0001267800
   0.0001304600    0.0003906800    0.0000496200
  -0.0001656900    0.0000559000    0.0000220000
  -0.0001435800   -0.0000799400    0.0000287000
   0.0000672300   -0.0000075700   -0.0002894800
   0.0000649700    0.0000138200   -0.0002739800
  -0.0000658100    0.0000016100   -0.0001001700
  -0.0000673500   -0.0000138100   -0.0000998700
   0.0000672300    0.0000075700   -0.0002894800
   0.0000649700   -0.0000138200   -0.0002739800
  -0.0000658100   -0.0000016100   -0.0001001700
  -0.0000673500    0.0000138100   -0.0000998700
   0.0000528800    0.0000071600   -0.0001018100
   0.0000426800   -0.0000110900   -0.0000986200
  -0.0000504300   -0.0000067300   -0.0000549600
  -0.0000448500    0.0000128700   -0.0000537200
   0.0000528800   -0.0000071600   -0.0001018100
   0.0000426800    0.0000110900   -0.0000986200
  -0.0000504300    0.0000067300   -0.0000549600
  -0.0000448500   -0.0000128700   -0.0000537200
  -0.0002861600   -0.0006155700   -0.0008629500
   0.0006542500   -0.0004955500   -0.0001194000
  -0.0000867700   -0.0000198800    0.0001153800
  -0.0002569700   -0.0000906300   -0.0001356500
  -0.0002861600    0.0006155700   -0.0008629500
   0.0006542500    0.0004955500   -0.0001194000
  -0.0000867700    0.0000198800    0.0001153800
  -0.0002569700    0.0000906300   -0.0001356500
   0.0000867500    0.0001388600   -0.0000872700
   0.0001116000    0.0000061200    0.0001390500
  -0.0001029200   -0.0000313400    0.0000852100
  -0.0001075300    0.0000636500   -0.0000511300
   0.0000867500   -0.0001388600   -0.0000872700
   0.0001116000   -0.0000061200    0.0001390500
  -0.0001029200    0.0000313400    0.0000852100
  -0.0001075300   -0.0000636500   -0.0000511300
   0.0007652800    0.0004577100   -0.0002153800
  -0.0003458000    0.0004812300   -0.0007677100
  -0.0002624200    0.0000430000   -0.0001089700
  -0.0001179800   -0.0000110000    0.0001636900
   0.0007652800   -0.0004577100   -0.0002153800
  -0.0003458000   -0.0004812300   -0.0007677100
  -0.0002624200   -0.0000430000   -0.0001089700
  -0.0001179800    0.0000110000    0.0001636900
   0.0001554100   -0.0000487800    0.0000440600
   0.0000483300   -0.0001169300   -0.0000724000
  -0.0001219400   -0.0000413500   -0.0000444900
  -0.0000923400    0.0000410000    0.0000848300
   0.0001554100    0.0000487800    0.0000440600
   0.0000483300    0.0001169300   -0.0000724000
  -0.0001219400    0.0000413500   -0.0000444900
  -0.0000923400   -0.0000410000    0.0000848300
   0.0002342500    0.0000000000   -0.0003454200
   0.0000340500    0.0000000000   -0.0000692500
  -0.0001339300    0.0000000000   -0.0000540600
  -0.0001288600    0.0000000000   -0.0002352800
   0.0001808000    0.0001950600   -0.0001620300
   0.0000580100    0.0001151000   -0.0000757500
  -0.0001141400    0.0000517400   -0.0000416800
  -0.0001262600    0.0002484400   -0.0002020500
   0.0001301900    0.0000000000   -0.0000485000
  -0.0000135100    0.0000000000    0.0000012000
  -0.0001013800    0.0000000000   -0.0000196000
  -0.0000158600    0.0000000000   -0.0000708500
   0.0001808000   -0.0001950600   -0.0001620300
   0.0000580100   -0.0001151000   -0.0000757500
  -0.0001141400   -0.0000517400   -0.0000416800
  -0.0001262600   -0.0002484400   -0.0002020500
   0.0035237800    0.0000000000    0.0159552200
  -0.0007489600    0.0000000000   -0.0003187700
  -0.0002629200    0.0000000000    0.0000557900
  -0.0002265700    0.0000000000    0.0006437300
   0.0007138000   -0.0008638200    0.0000171000
  -0.0003463200   -0.0004801200   -0.0002420200
  -0.0001994500    0.0000091800    0.0000447600
  -0.0004330600    0.0006927900    0.0006524000
   0.0002545900    0.0000000000    0.0000485900
  -0.0000932400    0.0000000000   -0.0000409800
  -0.0001379000    0.0000000000    0.0000230700
  -0.0000223000    0.0000000000    0.0001122100
   0.0007138000    0.0008638200    0.0000171000
  -0.0003463200    0.0004801200   -0.0002420200
  -0.0001994500   -0.0000091800    0.0000447600
  -0.0004330600   -0.0006927900    0.0006524000
   0.0048838900    0.0000000000    0.0151095400
  -0.0000899200    0.0000000000    0.0006738700
  -0.0005207100    0.0000000000    0.0000479300
  -0.0018144900    0.0000000000   -0.0006407600
   0.0012393400    0.0002609000    0.0001611300
  -0.0006934100   -0.0004230600    0.0006223100
  -0.0003818100    0.0000364400    0.0000350600
  -0.0004849000    0.0003422200   -0.0002186800
   0.0004087800    0.0000000000    0.0000561500
  -0.0000930700    0.0000000000    0.0000983600
  -0.0002346800    0.0000000000    0.0000219200
  -0.0000765700    0.0000000000   -0.0000132600
   0.0012393400   -0.0002609000    0.0001611300
  -0.0006934100    0.0004230600    0.0006223100
  -0.0003818100   -0.0000364400    0.0000350600
  -0.0004849000   -0.0003422200   -0.0002186800
   0.0003228600    0.0000000000   -0.0003496300
  -0.0002439000    0.0000000000   -0.0002246500
  -0.0002302000    0.0000000000   -0.0000466500
   0.0001542800    0.0000000000   -0.0001003900
   0.0002378100   -0.0000795100   -0.0001543300
  -0.0002010700   -0.0001210300   -0.0001820400
  -0.0001923100   -0.0000021800   -0.0000366400
   0.0001604200   -0.0000614600   -0.0000996100
   0.0001616400    0.0000000000   -0.0000535700
  -0.0000544700    0.0000000000   -0.0000630600
  -0.0001575500    0.0000000000   -0.0000182600
   0.0000470100    0.0000000000   -0.0000205700
   0.0002378100    0.0000795100   -0.0001543300
  -0.0002010700    0.0001210300   -0.0001820400
  -0.0001923100    0.0000021800   -0.0000366400
   0.0001604200    0.0000614600   -0.0000996100

1    
 -0.0071777758116118   0.0000000000000000  -0.0069627246389786
   0.0102343400    0.0000000000    0.0570949600
  -0.0007246700    0.0000000000    0.0001570500
  -0.0002344500    0.0000000000    0.0000367000
  -0.0008422600    0.0000000000    0.0002783700
   0.0009078400   -0.0000577500    0.0002176900
  -0.0005617000   -0.0004714400   -0.0000586100
  -0.0001703100    0.0000167900    0.0000098000
  -0.0005357200    0.0004965400   -0.0000872400
   0.0002719900    0.0000000000    0.0000354800
  -0.0000940300    0.0000000000    0.0000258500
  -0.0001137700    0.0000000000    0.0000050700
  -0.0000612400    0.0000000000   -0.0000087700
   0.0009078400    0.0000577500    0.0002176900
  -0.0005617000    0.0004714400   -0.0000586100
  -0.0001703100   -0.0000167900    0.0000098000
  -0.0005357200   -0.0004965400   -0.0000872400
   0.0000639400    0.0000000000   -0.0001410400
  -0.0000166400    0.0000000000   -0.0000704900
  -0.0000510300    0.0000000000   -0.0000224800
   0.0000016700    0.0000000000   -0.0000904000
   0.0000525300    0.0000087700   -0.0000806900
  -0.0000130500   -0.0000004300   -0.0000566800
  -0.0000450500    0.0000078100   -0.0000189300
   0.0000047200    0.0000177700   -0.0000757100
   0.0000412300    0.0000000000   -0.0000228800
  -0.0000099000    0.0000000000   -0.0000100400
  -0.0000384800    0.0000000000   -0.0000043000
   0.0000056400    0.0000000000   -0.0000257500
   0.0000525300   -0.0000087700   -0.0000806900
  -0.0000130500    0.0000004300   -0.0000566800
  -0.0000450500   -0.0000078100   -0.0000189300
   0.0000047200   -0.0000177700   -0.0000757100
   0.0003848600    0.0000000000   -0.0011450300
   0.0001111300    0.0000000000    0.0000452200
  -0.0001178300    0.0000000000   -0.0000194900
  -0.0000819400    0.0000000000   -0.0001560400
   0.0001646100    0.0001522300    0.0000028600
   0.0000572600    0.0000805600    0.0001461200
  -0.0000970700    0.0000372200    0.0000021500
  -0.0001393600    0.0001506600   -0.0000547800
   0.0001103900    0.0000000000    0.0000020200
  -0.0000010200    0.0000000000    0.0000205900
  -0.0000789000    0.0000000000   -0.0000015700
  -0.0000296800    0.0000000000   -0.0000096800
   0.0001646100   -0.0001522300    0.0000028600
   0.0000572600   -0.0000805600    0.0001461200
  -0.0000970700   -0.0000372200    0.0000021500
  -0.0001393600   -0.0001506600   -0.0000547800
   0.0001330100    0.0000000000   -0.0011412000
  -0.0001744700    0.0000000000   -0.0001555000
  -0.0001116900    0.0000000000    0.0000022800
   0.0001310300    0.0000000000    0.0001607000
   0.0001148500   -0.0000968800   -0.0000555600
  -0.0001247200   -0.0001329300   -0.0000744600
  -0.0000920000   -0.0000143100    0.0000041800
   0.0001069200   -0.0000628500    0.0001647200
   0.0000771300    0.0000000000   -0.0000192700
  -0.0000384700    0.0000000000   -0.0000375100
  -0.0000747100    0.0000000000   -0.0000022000
   0.0000367700    0.0000000000    0.0000406300
   0.0001148500    0.0000968800   -0.0000555600
  -0.0001247200    0.0001329300   -0.0000744600
  -0.0000920000    0.0000143100    0.0000041800
   0.0001069200    0.0000628500    0.0001647200
   0.0012303400   -0.0031414500   -0.0015154000
  -0.0003435200   -0.0001391500    0.0005305800
  -0.0001812000   -0.0000223300    0.0000338000
  -0.0003658100   -0.0002086400   -0.0001850600
   0.0012303400    0.0031414500   -0.0015154000
  -0.0003435200    0.0001391500    0.0005305800
  -0.0001812000    0.0000223300    0.0000338000
  -0.0003658100    0.0002086400   -0.0001850600
   0.0001631100    0.0000303600    0.0000334400
  -0.0000379600   -0.0000943000    0.0000546900
  -0.0000906800    0.0000065800    0.0000118700
  -0.0000301200    0.0000909500   -0.0000087400
   0.0001631100   -0.0000303600    0.0000334400
  -0.0000379600    0.0000943000    0.0000546900
  -0.0000906800   -0.0000065800    0.0000118700
  -0.0000301200   -0.0000909500   -0.0000087400
   0.0001444000    0.0000334400   -0.0001787100
  -0.0001260300    0.0000021400   -0.0001728200
  -0.0000998600    0.0000008000   -0.0000369400
   0.0000842800   -0.0000158300   -0.0000996900
   0.0001444000   -0.0000334400   -0.0001787100
  -0.0001260300   -0.0000021400   -0.0001728200
  -0.0000998600   -0.0000008000   -0.0000369400
   0.0000842800    0.0000158300   -0.0000996900
   0.0000642200   -0.0000269800   -0.0000341700
  -0.0000222900   -0.0000290300   -0.0000382300
  -0.0000603500   -0.0000056000   -0.0000127000
   0.0000182200   -0.0000107600   -0.0000112700
   0.0000642200    0.0000269800   -0.0000341700
  -0.0000222900    0.0000290300   -0.0000382300
  -0.0000603500    0.0000056000   -0.0000127000
   0.0000182200    0.0000107600   -0.0000112700
   0.0000059100    0.0000000000   -0.0002663600
   0.0000713800    0.0000000000   -0.0000909400
  -0.0000144200    0.0000000000   -0.0000021300
  -0.0000673400    0.0000000000   -0.0000668000
   0.0000398700    0.0001563400   -0.0002006200
   0.0000264500    0.0000541600   -0.0000715700
  -0.0000126300    0.0000026800    0.0000017600
  -0.0000530500    0.0000376000   -0.0000506800
   0.0000222800    0.0000000000   -0.0000765500
   0.0000236500    0.0000000000    0.0000025300
  -0.0000177700    0.0000000000    0.0000089300
  -0.0000262800    0.0000000000   -0.0000342100
   0.0000398700   -0.0001563400   -0.0002006200
   0.0000264500   -0.0000541600   -0.0000715700
  -0.0000126300   -0.0000026800    0.0000017600
  -0.0000530500   -0.0000376000   -0.0000506800
   0.0014523200    0.0000000000    0.0016909500
  -0.0047936400    0.0000000000   -0.0046841500
  -0.0002178900    0.0000000000   -0.0000178400
  -0.0001570100    0.0000000000    0.0000852300
   0.0003592800    0.0003633000    0.0006599000
   0.0000139900   -0.0003831100   -0.0003138600
  -0.0001355800   -0.0000387500   -0.0000124100
  -0.0001418700    0.0000470600    0.0000584900
   0.0000726700    0.0000000000    0.0001409200
   0.0000310900    0.0000000000   -0.0000732600
  -0.0000591400    0.0000000000   -0.0000086800
  -0.0000458700    0.0000000000    0.0000319300
   0.0003592800   -0.0003633000    0.0006599000
   0.0000139900    0.0003831100   -0.0003138600
  -0.0001355800    0.0000387500   -0.0000124100
  -0.0001418700   -0.0000470600    0.0000584900
   0.0003249400   -0.0000948400   -0.0003319500
   0.0000829100    0.0000216800   -0.0001595900
  -0.0001668400   -0.0000093400   -0.0000804500
  -0.0002217500   -0.0000200400   -0.0003216700
   0.0003249400    0.0000948400   -0.0003319500
   0.0000829100   -0.0000216800   -0.0001595900
  -0.0001668400    0.0000093400   -0.0000804500
  -0.0002217500    0.0000200400   -0.0003216700
   0.0001415600    0.0000900700   -0.0000502200
  -0.0000188300    0.0000477100   -0.0000003600
  -0.0001068900    0.0000261700   -0.0000211100
  -0.0000165900    0.0001012200   -0.0000714300
   0.0001415600   -0.0000900700   -0.0000502200
  -0.0000188300   -0.0000477100   -0.0000003600
  -0.0001068900   -0.0000261700   -0.0000211100
  -0.0000165900   -0.0001012200   -0.0000714300
   0.0024266500    0.0075983800   -0.0033798600
  -0.0006501000    0.0002427000   -0.0003824000
  -0.0002927300    0.0000097100    0.0000811000
  -0.0006644300    0.0001219700    0.0010749300
   0.0024266500   -0.0075983800   -0.0033798600
  -0.0006501000   -0.0002427000   -0.0003824000
  -0.0002927300   -0.0000097100    0.0000811000
  -0.0006644300   -0.0001219700    0.0010749300
   0.0002569000   -0.0002617800    0.0000557600
  -0.0000908100   -0.0002202600   -0.0000422800
  -0.0001491200    0.0000038400    0.0000203500
  -0.0000131300    0.0002823400    0.0001064200
   0.0002569000    0.0002617800    0.0000557600
  -0.0000908100    0.0002202600   -0.0000422800
  -0.0001491200   -0.0000038400    0.0000203500
  -0.0000131300   -0.0002823400    0.0001064200
  -0.0103426000    0.0000000000   -0.0095874400
   0.0049285400    0.0000000000    0.0027359900
  -0.0003003800    0.0000000000    0.0001458000
  -0.0008226700    0.0000000000   -0.0000343000
   0.0002696200    0.0006723800   -0.0005090800
   0.0006355700   -0.0006849500    0.0012011100
  -0.0004078700   -0.0000302600    0.0000984700
  -0.0003470500    0.0001103500   -0.0000332400
   0.0001035600    0.0000000000   -0.0000661600
   0.0001253800    0.0000000000    0.0002301900
  -0.0001205100    0.0000000000    0.0000550600
  -0.0001087800    0.0000000000   -0.0000133600
   0.0002696200   -0.0006723800   -0.0005090800
   0.0006355700    0.0006849500    0.0012011100
  -0.0004078700    0.0000302600    0.0000984700
  -0.0003470500   -0.0001103500   -0.0000332400
   0.0001863900    0.0000000000   -0.0002431700
  -0.0000026200    0.0000000000   -0.0004211700
  -0.0001809200    0.0000000000   -0.0001097500
  -0.0000020800    0.0000000000    0.0000096200
   0.0000666700   -0.0000831200   -0.0001806700
   0.0000670900   -0.0002207400   -0.0003002200
  -0.0001419000   -0.0000330900   -0.0000822500
   0.0000051000    0.0000353300    0.0000106200
   0.0000546800    0.0000000000   -0.0000471100
   0.0000348200    0.0000000000   -0.0001138600
  -0.0000703600    0.0000000000   -0.0000571100
  -0.0000165200    0.0000000000    0.0000152200
   0.0000666700    0.0000831200   -0.0001806700
   0.0000670900    0.0002207400   -0.0003002200
  -0.0001419000    0.0000330900   -0.0000822500
   0.0000051000   -0.0000353300    0.0000106200
   0.0003394300    0.0018016700   -0.0022104200
   0.0002507000   -0.0019218400   -0.0022475300
   0.0004707100   -0.0000070200   -0.0001031400
   0.0005054000    0.0000793400   -0.0000880000
   0.0003394300   -0.0018016700   -0.0022104200
   0.0002507000    0.0019218400   -0.0022475300
   0.0004707100    0.0000070200   -0.0001031400
   0.0005054000   -0.0000793400   -0.0000880000
  -0.0001985900   -0.0003554700   -0.0001273700
  -0.0001275100    0.0003912900   -0.0000559200
   0.0001631800    0.0000601000   -0.0000315800
   0.0001436600   -0.0000784300   -0.0000375600
  -0.0001985900    0.0003554700   -0.0001273700
  -0.0001275100   -0.0003912900   -0.0000559200
   0.0001631800   -0.0000601000   -0.0000315800
   0.0001436600    0.0000784300   -0.0000375600
  -0.0000653600    0.0000110600    0.0002860300
  -0.0000658400   -0.0000074400    0.0002662100
   0.0000631400   -0.0000051900    0.0000925500
   0.0000681900    0.0000111600    0.0000914200
  -0.0000653600   -0.0000110600    0.0002860300
  -0.0000658400    0.0000074400    0.0002662100
   0.0000631400    0.0000051900    0.0000925500
   0.0000681900   -0.0000111600    0.0000914200
  -0.0000512300   -0.0000094100    0.0000970100
  -0.0000441200    0.0000124400    0.0000870400
   0.0000538500    0.0000017500    0.0000437900
   0.0000426300   -0.0000120200    0.0000453500
  -0.0000512300    0.0000094100    0.0000970100
  -0.0000441200   -0.0000124400    0.0000870400
   0.0000538500   -0.0000017500    0.0000437900
   0.0000426300    0.0000120200    0.0000453500
   0.0002855400    0.0006173400    0.0008680300
  -0.0006532900    0.0004967500    0.0001260600
   0.0000903800    0.0000170100   -0.0001050900
   0.0002553800    0.0000873900    0.0001493000
   0.0002855400   -0.0006173400    0.0008680300
  -0.0006532900   -0.0004967500    0.0001260600
   0.0000903800   -0.0000170100   -0.0001050900
   0.0002553800   -0.0000873900    0.0001493000
  -0.0000854400   -0.0001400400    0.0000910600
  -0.0001129300   -0.0000035300   -0.0001295100
   0.0001015000    0.0000291100   -0.0000764800
   0.0001072000   -0.0000637900    0.0000559600
  -0.0000854400    0.0001400400    0.0000910600
  -0.0001129300    0.0000035300   -0.0001295100
   0.0001015000   -0.0000291100   -0.0000764800
   0.0001072000    0.0000637900    0.0000559600
  -0.0007689700   -0.0004615200    0.0002202300
   0.0003464500   -0.0004787000    0.0007744100
   0.0002635300   -0.0000403600    0.0001195300
   0.0001193600    0.0000181200   -0.0001555600
  -0.0007689700    0.0004615200    0.0002202300
   0.0003464500    0.0004787000    0.0007744100
   0.0002635300    0.0000403600    0.0001195300
   0.0001193600   -0.0000181200   -0.0001555600
  -0.0001547000    0.0000480900   -0.0000420700
  -0.0000492200    0.0001207200    0.0000819600
   0.0001256300    0.0000457900    0.0000565200
   0.0000885000   -0.0000381100   -0.0000740100
  -0.0001547000   -0.0000480900   -0.0000420700
  -0.0000492200   -0.0001207200    0.0000819600
   0.0001256300   -0.0000457900    0.0000565200
   0.0000885000    0.0000381100   -0.0000740100
  -0.0002348200    0.0000000000    0.0003489400
  -0.0000299800    0.0000000000    0.0000704400
   0.0001306300    0.0000000000    0.0000527100
   0.0001281200    0.0000000000    0.0002358000
  -0.0001804700   -0.0001992300    0.0001640200
  -0.0000583000   -0.0001119000    0.0000773200
   0.0001142600   -0.0000532700    0.0000431800
   0.0001252400   -0.0002449900    0.0002044200
  -0.0001287300    0.0000000000    0.0000477300
   0.0000145400    0.0000000000   -0.0000012200
   0.0001007800    0.0000000000    0.0000166000
   0.0000178600    0.0000000000    0.0000694800
  -0.0001804700    0.0001992300    0.0001640200
  -0.0000583000    0.0001119000    0.0000773200
   0.0001142600    0.0000532700    0.0000431800
   0.0001252400    0.0002449900    0.0002044200
  -0.0035953000    0.0000000000   -0.0151130900
   0.0007479200    0.0000000000    0.0003172200
   0.0002602700    0.0000000000   -0.0000559300
   0.0002298000    0.0000000000   -0.0006441800
  -0.0007110700    0.0008614700   -0.0000159100
   0.0003488800    0.0004886200    0.0002457000
   0.0001980500   -0.0000063400   -0.0000440700
   0.0004291800   -0.0006923700   -0.0006505100
  -0.0002528500    0.0000000000   -0.0000481200
   0.0000919300    0.0000000000    0.0000442900
   0.0001382000    0.0000000000   -0.0000195300
   0.0000221700    0.0000000000   -0.0001122200
  -0.0007110700   -0.0008614700   -0.0000159100
   0.0003488800   -0.0004886200    0.0002457000
   0.0001980500    0.0000063400   -0.0000440700
   0.0004291800    0.0006923700   -0.0006505100
  -0.0048262300    0.0000000000   -0.0159588100
   0.0000950000    0.0000000000   -0.0006742600
   0.0005191200    0.0000000000   -0.0000486600
   0.0018260000    0.0000000000    0.0006436300
  -0.0012406700   -0.0002604500   -0.0001640900
   0.0006909000    0.0004234200   -0.0006222700
   0.0003849800   -0.0000357900   -0.0000347200
   0.0004821400   -0.0003397600    0.0002127000
  -0.0004100500    0.0000000000   -0.0000565100
   0.0000958400    0.0000000000   -0.0001020800
   0.0002284600    0.0000000000   -0.0000183300
   0.0000821600    0.0000000000    0.0000116900
  -0.0012406700    0.0002604500   -0.0001640900