phonopy:
  version: 2.9.3
  frequency_unit_conversion_factor: 15.633302
  symmetry_tolerance: 1.00000e-05
  nac_unit_conversion_factor: 14.399652

physical_unit:
  atomic_mass: "AMU"

primitive_matrix:
- [  1.000000000000000,  0.000000000000000,  0.000000000000000 ]
- [  0.000000000000000,  1.000000000000000,  0.000000000000000 ]
- [  0.000000000000000,  0.000000000000000,  1.000000000000000 ]

supercell_matrix:
- [   4,   0,   0 ]
- [   0,   4,   0 ]
- [   0,   0,   2 ]

primitive_cell:
  lattice:
  - [     3.972662300000000,     0.000000000000000,     0.000000000000000 ] # a
  - [     0.000000000000000,     3.972662300000000,     0.000000000000000 ] # b
  - [     0.000000000000000,     0.000000000000000,     7.707277130000000 ] # c
  points:
  - symbol: Li # 1
    coordinates: [  0.500000000000000,  0.500000000000000,  0.750000000000000 ]
    mass: 6.941000
  - symbol: Li # 2
    coordinates: [  0.500000000000000,  0.500000000000000,  0.250000000000000 ]
    mass: 6.941000
  - symbol: Li # 3
    coordinates: [  0.500000000000000,  0.000000000000000,  0.500000000000000 ]
    mass: 6.941000
  - symbol: Li # 4
    coordinates: [  0.000000000000000,  0.500000000000000,  0.000000000000000 ]
    mass: 6.941000
  - symbol: Fe # 5
    coordinates: [  0.500000000000000,  0.000000000000000,  0.000000000000000 ]
    mass: 55.845000
  - symbol: Fe # 6
    coordinates: [  0.000000000000000,  0.500000000000000,  0.500000000000000 ]
    mass: 55.845000
  - symbol: S  # 7
    coordinates: [  0.000000000000000,  0.000000000000000,  0.750000000000000 ]
    mass: 32.065000
  - symbol: S  # 8
    coordinates: [  0.000000000000000,  0.000000000000000,  0.250000000000000 ]
    mass: 32.065000
  - symbol: O  # 9
    coordinates: [  0.500000000000000,  0.500000000000000,  0.000000000000000 ]
    mass: 15.999400
  - symbol: O  # 10
    coordinates: [  0.500000000000000,  0.500000000000000,  0.500000000000000 ]
    mass: 15.999400
  reciprocal_lattice: # without 2pi
  - [     0.251720363948378,     0.000000000000000,     0.000000000000000 ] # a*
  - [     0.000000000000000,     0.251720363948378,     0.000000000000000 ] # b*
  - [     0.000000000000000,     0.000000000000000,     0.129747507859497 ] # c*

unit_cell:
  lattice:
  - [     3.972662300000000,     0.000000000000000,     0.000000000000000 ] # a
  - [     0.000000000000000,     3.972662300000000,     0.000000000000000 ] # b
  - [     0.000000000000000,     0.000000000000000,     7.707277130000000 ] # c
  points:
  - symbol: Li # 1
    coordinates: [  0.500000000000000,  0.500000000000000,  0.750000000000000 ]
    mass: 6.941000
    reduced_to: 1
  - symbol: Li # 2
    coordinates: [  0.500000000000000,  0.500000000000000,  0.250000000000000 ]
    mass: 6.941000
    reduced_to: 2
  - symbol: Li # 3
    coordinates: [  0.500000000000000,  0.000000000000000,  0.500000000000000 ]
    mass: 6.941000
    reduced_to: 3
  - symbol: Li # 4
    coordinates: [  0.000000000000000,  0.500000000000000,  0.000000000000000 ]
    mass: 6.941000
    reduced_to: 4
  - symbol: Fe # 5
    coordinates: [  0.500000000000000,  0.000000000000000,  0.000000000000000 ]
    mass: 55.845000
    reduced_to: 5
  - symbol: Fe # 6
    coordinates: [  0.000000000000000,  0.500000000000000,  0.500000000000000 ]
    mass: 55.845000
    reduced_to: 6
  - symbol: S  # 7
    coordinates: [  0.000000000000000,  0.000000000000000,  0.750000000000000 ]
    mass: 32.065000
    reduced_to: 7
  - symbol: S  # 8
    coordinates: [  0.000000000000000,  0.000000000000000,  0.250000000000000 ]
    mass: 32.065000
    reduced_to: 8
  - symbol: O  # 9
    coordinates: [  0.500000000000000,  0.500000000000000,  0.000000000000000 ]
    mass: 15.999400
    reduced_to: 9
  - symbol: O  # 10
    coordinates: [  0.500000000000000,  0.500000000000000,  0.500000000000000 ]
    mass: 15.999400
    reduced_to: 10

supercell:
  lattice:
  - [    15.890649200000000,     0.000000000000000,     0.000000000000000 ] # a
  - [     0.000000000000000,    15.890649200000000,     0.000000000000000 ] # b
  - [     0.000000000000000,     0.000000000000000,    15.414554259999999 ] # c
  points:
  - symbol: Li # 1
    coordinates: [  0.125000000000000,  0.125000000000000,  0.375000000000000 ]
    mass: 6.941000
    reduced_to: 1
  - symbol: Li # 2
    coordinates: [  0.375000000000000,  0.125000000000000,  0.375000000000000 ]
    mass: 6.941000
    reduced_to: 1
  - symbol: Li # 3
    coordinates: [  0.625000000000000,  0.125000000000000,  0.375000000000000 ]
    mass: 6.941000
    reduced_to: 1
  - symbol: Li # 4
    coordinates: [  0.875000000000000,  0.125000000000000,  0.375000000000000 ]
    mass: 6.941000
    reduced_to: 1
  - symbol: Li # 5
    coordinates: [  0.125000000000000,  0.375000000000000,  0.375000000000000 ]
    mass: 6.941000
    reduced_to: 1
  - symbol: Li # 6
    coordinates: [  0.375000000000000,  0.375000000000000,  0.375000000000000 ]
    mass: 6.941000
    reduced_to: 1
  - symbol: Li # 7
    coordinates: [  0.625000000000000,  0.375000000000000,  0.375000000000000 ]
    mass: 6.941000
    reduced_to: 1
  - symbol: Li # 8
    coordinates: [  0.875000000000000,  0.375000000000000,  0.375000000000000 ]
    mass: 6.941000
    reduced_to: 1
  - symbol: Li # 9
    coordinates: [  0.125000000000000,  0.625000000000000,  0.375000000000000 ]
    mass: 6.941000
    reduced_to: 1
  - symbol: Li # 10
    coordinates: [  0.375000000000000,  0.625000000000000,  0.375000000000000 ]
    mass: 6.941000
    reduced_to: 1
  - symbol: Li # 11
    coordinates: [  0.625000000000000,  0.625000000000000,  0.375000000000000 ]
    mass: 6.941000
    reduced_to: 1
  - symbol: Li # 12
    coordinates: [  0.875000000000000,  0.625000000000000,  0.375000000000000 ]
    mass: 6.941000
    reduced_to: 1
  - symbol: Li # 13
    coordinates: [  0.125000000000000,  0.875000000000000,  0.375000000000000 ]
    mass: 6.941000
    reduced_to: 1
  - symbol: Li # 14
    coordinates: [  0.375000000000000,  0.875000000000000,  0.375000000000000 ]
    mass: 6.941000
    reduced_to: 1
  - symbol: Li # 15
    coordinates: [  0.625000000000000,  0.875000000000000,  0.375000000000000 ]
    mass: 6.941000
    reduced_to: 1
  - symbol: Li # 16
    coordinates: [  0.875000000000000,  0.875000000000000,  0.375000000000000 ]
    mass: 6.941000
    reduced_to: 1
  - symbol: Li # 17
    coordinates: [  0.125000000000000,  0.125000000000000,  0.875000000000000 ]
    mass: 6.941000
    reduced_to: 1
  - symbol: Li # 18
    coordinates: [  0.375000000000000,  0.125000000000000,  0.875000000000000 ]
    mass: 6.941000
    reduced_to: 1
  - symbol: Li # 19
    coordinates: [  0.625000000000000,  0.125000000000000,  0.875000000000000 ]
    mass: 6.941000
    reduced_to: 1
  - symbol: Li # 20
    coordinates: [  0.875000000000000,  0.125000000000000,  0.875000000000000 ]
    mass: 6.941000
    reduced_to: 1
  - symbol: Li # 21
    coordinates: [  0.125000000000000,  0.375000000000000,  0.875000000000000 ]
    mass: 6.941000
    reduced_to: 1
  - symbol: Li # 22
    coordinates: [  0.375000000000000,  0.375000000000000,  0.875000000000000 ]
    mass: 6.941000
    reduced_to: 1
  - symbol: Li # 23
    coordinates: [  0.625000000000000,  0.375000000000000,  0.875000000000000 ]
    mass: 6.941000
    reduced_to: 1
  - symbol: Li # 24
    coordinates: [  0.875000000000000,  0.375000000000000,  0.875000000000000 ]
    mass: 6.941000
    reduced_to: 1
  - symbol: Li # 25
    coordinates: [  0.125000000000000,  0.625000000000000,  0.875000000000000 ]
    mass: 6.941000
    reduced_to: 1
  - symbol: Li # 26
    coordinates: [  0.375000000000000,  0.625000000000000,  0.875000000000000 ]
    mass: 6.941000
    reduced_to: 1
  - symbol: Li # 27
    coordinates: [  0.625000000000000,  0.625000000000000,  0.875000000000000 ]
    mass: 6.941000
    reduced_to: 1
  - symbol: Li # 28
    coordinates: [  0.875000000000000,  0.625000000000000,  0.875000000000000 ]
    mass: 6.941000
    reduced_to: 1
  - symbol: Li # 29
    coordinates: [  0.125000000000000,  0.875000000000000,  0.875000000000000 ]
    mass: 6.941000
    reduced_to: 1
  - symbol: Li # 30
    coordinates: [  0.375000000000000,  0.875000000000000,  0.875000000000000 ]
    mass: 6.941000
    reduced_to: 1
  - symbol: Li # 31
    coordinates: [  0.625000000000000,  0.875000000000000,  0.875000000000000 ]
    mass: 6.941000
    reduced_to: 1
  - symbol: Li # 32
    coordinates: [  0.875000000000000,  0.875000000000000,  0.875000000000000 ]
    mass: 6.941000
    reduced_to: 1
  - symbol: Li # 33
    coordinates: [  0.125000000000000,  0.125000000000000,  0.125000000000000 ]
    mass: 6.941000
    reduced_to: 33
  - symbol: Li # 34
    coordinates: [  0.375000000000000,  0.125000000000000,  0.125000000000000 ]
    mass: 6.941000
    reduced_to: 33
  - symbol: Li # 35
    coordinates: [  0.625000000000000,  0.125000000000000,  0.125000000000000 ]
    mass: 6.941000
    reduced_to: 33
  - symbol: Li # 36
    coordinates: [  0.875000000000000,  0.125000000000000,  0.125000000000000 ]
    mass: 6.941000
    reduced_to: 33
  - symbol: Li # 37
    coordinates: [  0.125000000000000,  0.375000000000000,  0.125000000000000 ]
    mass: 6.941000
    reduced_to: 33
  - symbol: Li # 38
    coordinates: [  0.375000000000000,  0.375000000000000,  0.125000000000000 ]
    mass: 6.941000
    reduced_to: 33
  - symbol: Li # 39
    coordinates: [  0.625000000000000,  0.375000000000000,  0.125000000000000 ]
    mass: 6.941000
    reduced_to: 33
  - symbol: Li # 40
    coordinates: [  0.875000000000000,  0.375000000000000,  0.125000000000000 ]
    mass: 6.941000
    reduced_to: 33
  - symbol: Li # 41
    coordinates: [  0.125000000000000,  0.625000000000000,  0.125000000000000 ]
    mass: 6.941000
    reduced_to: 33
  - symbol: Li # 42
    coordinates: [  0.375000000000000,  0.625000000000000,  0.125000000000000 ]
    mass: 6.941000
    reduced_to: 33
  - symbol: Li # 43
    coordinates: [  0.625000000000000,  0.625000000000000,  0.125000000000000 ]
    mass: 6.941000
    reduced_to: 33
  - symbol: Li # 44
    coordinates: [  0.875000000000000,  0.625000000000000,  0.125000000000000 ]
    mass: 6.941000
    reduced_to: 33
  - symbol: Li # 45
    coordinates: [  0.125000000000000,  0.875000000000000,  0.125000000000000 ]
    mass: 6.941000
    reduced_to: 33
  - symbol: Li # 46
    coordinates: [  0.375000000000000,  0.875000000000000,  0.125000000000000 ]
    mass: 6.941000
    reduced_to: 33
  - symbol: Li # 47
    coordinates: [  0.625000000000000,  0.875000000000000,  0.125000000000000 ]
    mass: 6.941000
    reduced_to: 33
  - symbol: Li # 48
    coordinates: [  0.875000000000000,  0.875000000000000,  0.125000000000000 ]
    mass: 6.941000
    reduced_to: 33
  - symbol: Li # 49
    coordinates: [  0.125000000000000,  0.125000000000000,  0.625000000000000 ]
    mass: 6.941000
    reduced_to: 33
  - symbol: Li # 50
    coordinates: [  0.375000000000000,  0.125000000000000,  0.625000000000000 ]
    mass: 6.941000
    reduced_to: 33
  - symbol: Li # 51
    coordinates: [  0.625000000000000,  0.125000000000000,  0.625000000000000 ]
    mass: 6.941000
    reduced_to: 33
  - symbol: Li # 52
    coordinates: [  0.875000000000000,  0.125000000000000,  0.625000000000000 ]
    mass: 6.941000
    reduced_to: 33
  - symbol: Li # 53
    coordinates: [  0.125000000000000,  0.375000000000000,  0.625000000000000 ]
    mass: 6.941000
    reduced_to: 33
  - symbol: Li # 54
    coordinates: [  0.375000000000000,  0.375000000000000,  0.625000000000000 ]
    mass: 6.941000
    reduced_to: 33
  - symbol: Li # 55
    coordinates: [  0.625000000000000,  0.375000000000000,  0.625000000000000 ]
    mass: 6.941000
    reduced_to: 33
  - symbol: Li # 56
    coordinates: [  0.875000000000000,  0.375000000000000,  0.625000000000000 ]
    mass: 6.941000
    reduced_to: 33
  - symbol: Li # 57
    coordinates: [  0.125000000000000,  0.625000000000000,  0.625000000000000 ]
    mass: 6.941000
    reduced_to: 33
  - symbol: Li # 58
    coordinates: [  0.375000000000000,  0.625000000000000,  0.625000000000000 ]
    mass: 6.941000
    reduced_to: 33
  - symbol: Li # 59
    coordinates: [  0.625000000000000,  0.625000000000000,  0.625000000000000 ]
    mass: 6.941000
    reduced_to: 33
  - symbol: Li # 60
    coordinates: [  0.875000000000000,  0.625000000000000,  0.625000000000000 ]
    mass: 6.941000
    reduced_to: 33
  - symbol: Li # 61
    coordinates: [  0.125000000000000,  0.875000000000000,  0.625000000000000 ]
    mass: 6.941000
    reduced_to: 33
  - symbol: Li # 62
    coordinates: [  0.375000000000000,  0.875000000000000,  0.625000000000000 ]
    mass: 6.941000
    reduced_to: 33
  - symbol: Li # 63
    coordinates: [  0.625000000000000,  0.875000000000000,  0.625000000000000 ]
    mass: 6.941000
    reduced_to: 33
  - symbol: Li # 64
    coordinates: [  0.875000000000000,  0.875000000000000,  0.625000000000000 ]
    mass: 6.941000
    reduced_to: 33
  - symbol: Li # 65
    coordinates: [  0.125000000000000,  0.000000000000000,  0.250000000000000 ]
    mass: 6.941000
    reduced_to: 65
  - symbol: Li # 66
    coordinates: [  0.375000000000000,  0.000000000000000,  0.250000000000000 ]
    mass: 6.941000
    reduced_to: 65
  - symbol: Li # 67
    coordinates: [  0.625000000000000,  0.000000000000000,  0.250000000000000 ]
    mass: 6.941000
    reduced_to: 65
  - symbol: Li # 68
    coordinates: [  0.875000000000000,  0.000000000000000,  0.250000000000000 ]
    mass: 6.941000
    reduced_to: 65
  - symbol: Li # 69
    coordinates: [  0.125000000000000,  0.250000000000000,  0.250000000000000 ]
    mass: 6.941000
    reduced_to: 65
  - symbol: Li # 70
    coordinates: [  0.375000000000000,  0.250000000000000,  0.250000000000000 ]
    mass: 6.941000
    reduced_to: 65
  - symbol: Li # 71
    coordinates: [  0.625000000000000,  0.250000000000000,  0.250000000000000 ]
    mass: 6.941000
    reduced_to: 65
  - symbol: Li # 72
    coordinates: [  0.875000000000000,  0.250000000000000,  0.250000000000000 ]
    mass: 6.941000
    reduced_to: 65
  - symbol: Li # 73
    coordinates: [  0.125000000000000,  0.500000000000000,  0.250000000000000 ]
    mass: 6.941000
    reduced_to: 65
  - symbol: Li # 74
    coordinates: [  0.375000000000000,  0.500000000000000,  0.250000000000000 ]
    mass: 6.941000
    reduced_to: 65
  - symbol: Li # 75
    coordinates: [  0.625000000000000,  0.500000000000000,  0.250000000000000 ]
    mass: 6.941000
    reduced_to: 65
  - symbol: Li # 76
    coordinates: [  0.875000000000000,  0.500000000000000,  0.250000000000000 ]
    mass: 6.941000
    reduced_to: 65
  - symbol: Li # 77
    coordinates: [  0.125000000000000,  0.750000000000000,  0.250000000000000 ]
    mass: 6.941000
    reduced_to: 65
  - symbol: Li # 78
    coordinates: [  0.375000000000000,  0.750000000000000,  0.250000000000000 ]
    mass: 6.941000
    reduced_to: 65
  - symbol: Li # 79
    coordinates: [  0.625000000000000,  0.750000000000000,  0.250000000000000 ]
    mass: 6.941000
    reduced_to: 65
  - symbol: Li # 80
    coordinates: [  0.875000000000000,  0.750000000000000,  0.250000000000000 ]
    mass: 6.941000
    reduced_to: 65
  - symbol: Li # 81
    coordinates: [  0.125000000000000,  0.000000000000000,  0.750000000000000 ]
    mass: 6.941000
    reduced_to: 65
  - symbol: Li # 82
    coordinates: [  0.375000000000000,  0.000000000000000,  0.750000000000000 ]
    mass: 6.941000
    reduced_to: 65
  - symbol: Li # 83
    coordinates: [  0.625000000000000,  0.000000000000000,  0.750000000000000 ]
    mass: 6.941000
    reduced_to: 65
  - symbol: Li # 84
    coordinates: [  0.875000000000000,  0.000000000000000,  0.750000000000000 ]
    mass: 6.941000
    reduced_to: 65
  - symbol: Li # 85
    coordinates: [  0.125000000000000,  0.250000000000000,  0.750000000000000 ]
    mass: 6.941000
    reduced_to: 65
  - symbol: Li # 86
    coordinates: [  0.375000000000000,  0.250000000000000,  0.750000000000000 ]
    mass: 6.941000
    reduced_to: 65
  - symbol: Li # 87
    coordinates: [  0.625000000000000,  0.250000000000000,  0.750000000000000 ]
    mass: 6.941000
    reduced_to: 65
  - symbol: Li # 88
    coordinates: [  0.875000000000000,  0.250000000000000,  0.750000000000000 ]
    mass: 6.941000
    reduced_to: 65
  - symbol: Li # 89
    coordinates: [  0.125000000000000,  0.500000000000000,  0.750000000000000 ]
    mass: 6.941000
    reduced_to: 65
  - symbol: Li # 90
    coordinates: [  0.375000000000000,  0.500000000000000,  0.750000000000000 ]
    mass: 6.941000
    reduced_to: 65
  - symbol: Li # 91
    coordinates: [  0.625000000000000,  0.500000000000000,  0.750000000000000 ]
    mass: 6.941000
    reduced_to: 65
  - symbol: Li # 92
    coordinates: [  0.875000000000000,  0.500000000000000,  0.750000000000000 ]
    mass: 6.941000
    reduced_to: 65
  - symbol: Li # 93
    coordinates: [  0.125000000000000,  0.750000000000000,  0.750000000000000 ]
    mass: 6.941000
    reduced_to: 65
  - symbol: Li # 94
    coordinates: [  0.375000000000000,  0.750000000000000,  0.750000000000000 ]
    mass: 6.941000
    reduced_to: 65
  - symbol: Li # 95
    coordinates: [  0.625000000000000,  0.750000000000000,  0.750000000000000 ]
    mass: 6.941000
    reduced_to: 65
  - symbol: Li # 96
    coordinates: [  0.875000000000000,  0.750000000000000,  0.750000000000000 ]
    mass: 6.941000
    reduced_to: 65
  - symbol: Li # 97
    coordinates: [  0.000000000000000,  0.125000000000000,  0.000000000000000 ]
    mass: 6.941000
    reduced_to: 97
  - symbol: Li # 98
    coordinates: [  0.250000000000000,  0.125000000000000,  0.000000000000000 ]
    mass: 6.941000
    reduced_to: 97
  - symbol: Li # 99
    coordinates: [  0.500000000000000,  0.125000000000000,  0.000000000000000 ]
    mass: 6.941000
    reduced_to: 97
  - symbol: Li # 100
    coordinates: [  0.750000000000000,  0.125000000000000,  0.000000000000000 ]
    mass: 6.941000
    reduced_to: 97
  - symbol: Li # 101
    coordinates: [  0.000000000000000,  0.375000000000000,  0.000000000000000 ]
    mass: 6.941000
    reduced_to: 97
  - symbol: Li # 102
    coordinates: [  0.250000000000000,  0.375000000000000,  0.000000000000000 ]
    mass: 6.941000
    reduced_to: 97
  - symbol: Li # 103
    coordinates: [  0.500000000000000,  0.375000000000000,  0.000000000000000 ]
    mass: 6.941000
    reduced_to: 97
  - symbol: Li # 104
    coordinates: [  0.750000000000000,  0.375000000000000,  0.000000000000000 ]
    mass: 6.941000
    reduced_to: 97
  - symbol: Li # 105
    coordinates: [  0.000000000000000,  0.625000000000000,  0.000000000000000 ]
    mass: 6.941000
    reduced_to: 97
  - symbol: Li # 106
    coordinates: [  0.250000000000000,  0.625000000000000,  0.000000000000000 ]
    mass: 6.941000
    reduced_to: 97
  - symbol: Li # 107
    coordinates: [  0.500000000000000,  0.625000000000000,  0.000000000000000 ]
    mass: 6.941000
    reduced_to: 97
  - symbol: Li # 108
    coordinates: [  0.750000000000000,  0.625000000000000,  0.000000000000000 ]
    mass: 6.941000
    reduced_to: 97
  - symbol: Li # 109
    coordinates: [  0.000000000000000,  0.875000000000000,  0.000000000000000 ]
    mass: 6.941000
    reduced_to: 97
  - symbol: Li # 110
    coordinates: [  0.250000000000000,  0.875000000000000,  0.000000000000000 ]
    mass: 6.941000
    reduced_to: 97
  - symbol: Li # 111
    coordinates: [  0.500000000000000,  0.875000000000000,  0.000000000000000 ]
    mass: 6.941000
    reduced_to: 97
  - symbol: Li # 112
    coordinates: [  0.750000000000000,  0.875000000000000,  0.000000000000000 ]
    mass: 6.941000
    reduced_to: 97
  - symbol: Li # 113
    coordinates: [  0.000000000000000,  0.125000000000000,  0.500000000000000 ]
    mass: 6.941000
    reduced_to: 97
  - symbol: Li # 114
    coordinates: [  0.250000000000000,  0.125000000000000,  0.500000000000000 ]
    mass: 6.941000
    reduced_to: 97
  - symbol: Li # 115
    coordinates: [  0.500000000000000,  0.125000000000000,  0.500000000000000 ]
    mass: 6.941000
    reduced_to: 97
  - symbol: Li # 116
    coordinates: [  0.750000000000000,  0.125000000000000,  0.500000000000000 ]
    mass: 6.941000
    reduced_to: 97
  - symbol: Li # 117
    coordinates: [  0.000000000000000,  0.375000000000000,  0.500000000000000 ]
    mass: 6.941000
    reduced_to: 97
  - symbol: Li # 118
    coordinates: [  0.250000000000000,  0.375000000000000,  0.500000000000000 ]
    mass: 6.941000
    reduced_to: 97
  - symbol: Li # 119
    coordinates: [  0.500000000000000,  0.375000000000000,  0.500000000000000 ]
    mass: 6.941000
    reduced_to: 97
  - symbol: Li # 120
    coordinates: [  0.750000000000000,  0.375000000000000,  0.500000000000000 ]
    mass: 6.941000
    reduced_to: 97
  - symbol: Li # 121
    coordinates: [  0.000000000000000,  0.625000000000000,  0.500000000000000 ]
    mass: 6.941000
    reduced_to: 97
  - symbol: Li # 122
    coordinates: [  0.250000000000000,  0.625000000000000,  0.500000000000000 ]
    mass: 6.941000
    reduced_to: 97
  - symbol: Li # 123
    coordinates: [  0.500000000000000,  0.625000000000000,  0.500000000000000 ]
    mass: 6.941000
    reduced_to: 97
  - symbol: Li # 124
    coordinates: [  0.750000000000000,  0.625000000000000,  0.500000000000000 ]
    mass: 6.941000
    reduced_to: 97
  - symbol: Li # 125
    coordinates: [  0.000000000000000,  0.875000000000000,  0.500000000000000 ]
    mass: 6.941000
    reduced_to: 97
  - symbol: Li # 126
    coordinates: [  0.250000000000000,  0.875000000000000,  0.500000000000000 ]
    mass: 6.941000
    reduced_to: 97
  - symbol: Li # 127
    coordinates: [  0.500000000000000,  0.875000000000000,  0.500000000000000 ]
    mass: 6.941000
    reduced_to: 97
  - symbol: Li # 128
    coordinates: [  0.750000000000000,  0.875000000000000,  0.500000000000000 ]
    mass: 6.941000
    reduced_to: 97
  - symbol: Fe # 129
    coordinates: [  0.125000000000000,  0.000000000000000,  0.000000000000000 ]
    mass: 55.845000
    reduced_to: 129
  - symbol: Fe # 130
    coordinates: [  0.375000000000000,  0.000000000000000,  0.000000000000000 ]
    mass: 55.845000
    reduced_to: 129
  - symbol: Fe # 131
    coordinates: [  0.625000000000000,  0.000000000000000,  0.000000000000000 ]
    mass: 55.845000
    reduced_to: 129
  - symbol: Fe # 132
    coordinates: [  0.875000000000000,  0.000000000000000,  0.000000000000000 ]
    mass: 55.845000
    reduced_to: 129
  - symbol: Fe # 133
    coordinates: [  0.125000000000000,  0.250000000000000,  0.000000000000000 ]
    mass: 55.845000
    reduced_to: 129
  - symbol: Fe # 134
    coordinates: [  0.375000000000000,  0.250000000000000,  0.000000000000000 ]
    mass: 55.845000
    reduced_to: 129
  - symbol: Fe # 135
    coordinates: [  0.625000000000000,  0.250000000000000,  0.000000000000000 ]
    mass: 55.845000
    reduced_to: 129
  - symbol: Fe # 136
    coordinates: [  0.875000000000000,  0.250000000000000,  0.000000000000000 ]
    mass: 55.845000
    reduced_to: 129
  - symbol: Fe # 137
    coordinates: [  0.125000000000000,  0.500000000000000,  0.000000000000000 ]
    mass: 55.845000
    reduced_to: 129
  - symbol: Fe # 138
    coordinates: [  0.375000000000000,  0.500000000000000,  0.000000000000000 ]
    mass: 55.845000
    reduced_to: 129
  - symbol: Fe # 139
    coordinates: [  0.625000000000000,  0.500000000000000,  0.000000000000000 ]
    mass: 55.845000
    reduced_to: 129
  - symbol: Fe # 140
    coordinates: [  0.875000000000000,  0.500000000000000,  0.000000000000000 ]
    mass: 55.845000
    reduced_to: 129
  - symbol: Fe # 141
    coordinates: [  0.125000000000000,  0.750000000000000,  0.000000000000000 ]
    mass: 55.845000
    reduced_to: 129
  - symbol: Fe # 142
    coordinates: [  0.375000000000000,  0.750000000000000,  0.000000000000000 ]
    mass: 55.845000
    reduced_to: 129
  - symbol: Fe # 143
    coordinates: [  0.625000000000000,  0.750000000000000,  0.000000000000000 ]
    mass: 55.845000
    reduced_to: 129
  - symbol: Fe # 144
    coordinates: [  0.875000000000000,  0.750000000000000,  0.000000000000000 ]
    mass: 55.845000
    reduced_to: 129
  - symbol: Fe # 145
    coordinates: [  0.125000000000000,  0.000000000000000,  0.500000000000000 ]
    mass: 55.845000
    reduced_to: 129
  - symbol: Fe # 146
    coordinates: [  0.375000000000000,  0.000000000000000,  0.500000000000000 ]
    mass: 55.845000
    reduced_to: 129
  - symbol: Fe # 147
    coordinates: [  0.625000000000000,  0.000000000000000,  0.500000000000000 ]
    mass: 55.845000
    reduced_to: 129
  - symbol: Fe # 148
    coordinates: [  0.875000000000000,  0.000000000000000,  0.500000000000000 ]
    mass: 55.845000
    reduced_to: 129
  - symbol: Fe # 149
    coordinates: [  0.125000000000000,  0.250000000000000,  0.500000000000000 ]
    mass: 55.845000
    reduced_to: 129
  - symbol: Fe # 150
    coordinates: [  0.375000000000000,  0.250000000000000,  0.500000000000000 ]
    mass: 55.845000
    reduced_to: 129
  - symbol: Fe # 151
    coordinates: [  0.625000000000000,  0.250000000000000,  0.500000000000000 ]
    mass: 55.845000
    reduced_to: 129
  - symbol: Fe # 152
    coordinates: [  0.875000000000000,  0.250000000000000,  0.500000000000000 ]
    mass: 55.845000
    reduced_to: 129
  - symbol: Fe # 153
    coordinates: [  0.125000000000000,  0.500000000000000,  0.500000000000000 ]
    mass: 55.845000
    reduced_to: 129
  - symbol: Fe # 154
    coordinates: [  0.375000000000000,  0.500000000000000,  0.500000000000000 ]
    mass: 55.845000
    reduced_to: 129
  - symbol: Fe # 155
    coordinates: [  0.625000000000000,  0.500000000000000,  0.500000000000000 ]
    mass: 55.845000
    reduced_to: 129
  - symbol: Fe # 156
    coordinates: [  0.875000000000000,  0.500000000000000,  0.500000000000000 ]
    mass: 55.845000
    reduced_to: 129
  - symbol: Fe # 157
    coordinates: [  0.125000000000000,  0.750000000000000,  0.500000000000000 ]
    mass: 55.845000
    reduced_to: 129
  - symbol: Fe # 158
    coordinates: [  0.375000000000000,  0.750000000000000,  0.500000000000000 ]
    mass: 55.845000
    reduced_to: 129
  - symbol: Fe # 159
    coordinates: [  0.625000000000000,  0.750000000000000,  0.500000000000000 ]
    mass: 55.845000
    reduced_to: 129
  - symbol: Fe # 160
    coordinates: [  0.875000000000000,  0.750000000000000,  0.500000000000000 ]
    mass: 55.845000
    reduced_to: 129
  - symbol: Fe # 161
    coordinates: [  0.000000000000000,  0.125000000000000,  0.250000000000000 ]
    mass: 55.845000
    reduced_to: 161
  - symbol: Fe # 162
    coordinates: [  0.250000000000000,  0.125000000000000,  0.250000000000000 ]
    mass: 55.845000
    reduced_to: 161
  - symbol: Fe # 163
    coordinates: [  0.500000000000000,  0.125000000000000,  0.250000000000000 ]
    mass: 55.845000
    reduced_to: 161
  - symbol: Fe # 164
    coordinates: [  0.750000000000000,  0.125000000000000,  0.250000000000000 ]
    mass: 55.845000
    reduced_to: 161
  - symbol: Fe # 165
    coordinates: [  0.000000000000000,  0.375000000000000,  0.250000000000000 ]
    mass: 55.845000
    reduced_to: 161
  - symbol: Fe # 166
    coordinates: [  0.250000000000000,  0.375000000000000,  0.250000000000000 ]
    mass: 55.845000
    reduced_to: 161
  - symbol: Fe # 167
    coordinates: [  0.500000000000000,  0.375000000000000,  0.250000000000000 ]
    mass: 55.845000
    reduced_to: 161
  - symbol: Fe # 168
    coordinates: [  0.750000000000000,  0.375000000000000,  0.250000000000000 ]
    mass: 55.845000
    reduced_to: 161
  - symbol: Fe # 169
    coordinates: [  0.000000000000000,  0.625000000000000,  0.250000000000000 ]
    mass: 55.845000
    reduced_to: 161
  - symbol: Fe # 170
    coordinates: [  0.250000000000000,  0.625000000000000,  0.250000000000000 ]
    mass: 55.845000
    reduced_to: 161
  - symbol: Fe # 171
    coordinates: [  0.500000000000000,  0.625000000000000,  0.250000000000000 ]
    mass: 55.845000
    reduced_to: 161
  - symbol: Fe # 172
    coordinates: [  0.750000000000000,  0.625000000000000,  0.250000000000000 ]
    mass: 55.845000
    reduced_to: 161
  - symbol: Fe # 173
    coordinates: [  0.000000000000000,  0.875000000000000,  0.250000000000000 ]
    mass: 55.845000
    reduced_to: 161
  - symbol: Fe # 174
    coordinates: [  0.250000000000000,  0.875000000000000,  0.250000000000000 ]
    mass: 55.845000
    reduced_to: 161
  - symbol: Fe # 175
    coordinates: [  0.500000000000000,  0.875000000000000,  0.250000000000000 ]
    mass: 55.845000
    reduced_to: 161
  - symbol: Fe # 176
    coordinates: [  0.750000000000000,  0.875000000000000,  0.250000000000000 ]
    mass: 55.845000
    reduced_to: 161
  - symbol: Fe # 177
    coordinates: [  0.000000000000000,  0.125000000000000,  0.750000000000000 ]
    mass: 55.845000
    reduced_to: 161
  - symbol: Fe # 178
    coordinates: [  0.250000000000000,  0.125000000000000,  0.750000000000000 ]
    mass: 55.845000
    reduced_to: 161
  - symbol: Fe # 179
    coordinates: [  0.500000000000000,  0.125000000000000,  0.750000000000000 ]
    mass: 55.845000
    reduced_to: 161
  - symbol: Fe # 180
    coordinates: [  0.750000000000000,  0.125000000000000,  0.750000000000000 ]
    mass: 55.845000
    reduced_to: 161
  - symbol: Fe # 181
    coordinates: [  0.000000000000000,  0.375000000000000,  0.750000000000000 ]
    mass: 55.845000
    reduced_to: 161
  - symbol: Fe # 182
    coordinates: [  0.250000000000000,  0.375000000000000,  0.750000000000000 ]
    mass: 55.845000
    reduced_to: 161
  - symbol: Fe # 183
    coordinates: [  0.500000000000000,  0.375000000000000,  0.750000000000000 ]
    mass: 55.845000
    reduced_to: 161
  - symbol: Fe # 184
    coordinates: [  0.750000000000000,  0.375000000000000,  0.750000000000000 ]
    mass: 55.845000
    reduced_to: 161
  - symbol: Fe # 185
    coordinates: [  0.000000000000000,  0.625000000000000,  0.750000000000000 ]
    mass: 55.845000
    reduced_to: 161
  - symbol: Fe # 186
    coordinates: [  0.250000000000000,  0.625000000000000,  0.750000000000000 ]
    mass: 55.845000
    reduced_to: 161
  - symbol: Fe # 187