 120 120   0   0
  0.1228332E+02  0.1173587E-08  0.1121847E-08  0.1119562E-08  0.5000000E-15
  1.000000000000000E-004
  CAR 
 unknown system                          
     16.73002254    -54.73085995  301      4.40302031      1.00000000
    -54.731  0.0000E+00  0.0000E+00  0.0000E+00  0.0000E+00
    -54.493  0.0000E+00  0.0000E+00  0.0000E+00  0.0000E+00
    -54.254  0.0000E+00  0.0000E+00  0.0000E+00  0.0000E+00
    -54.016  0.0000E+00  0.0000E+00  0.0000E+00  0.0000E+00
    -53.778  0.0000E+00  0.0000E+00  0.0000E+00  0.0000E+00
    -53.540  0.0000E+00  0.0000E+00  0.0000E+00  0.0000E+00
    -53.302  0.0000E+00  0.0000E+00  0.0000E+00  0.0000E+00
    -53.063  0.0000E+00  0.0000E+00  0.0000E+00  0.0000E+00
    -52.825  0.0000E+00  0.0000E+00  0.0000E+00  0.0000E+00
    -52.587  0.0000E+00  0.0000E+00  0.0000E+00  0.0000E+00
    -52.349  0.0000E+00  0.0000E+00  0.0000E+00  0.0000E+00
    -52.111  0.0000E+00  0.0000E+00  0.0000E+00  0.0000E+00
    -51.872  0.0000E+00  0.0000E+00  0.0000E+00  0.0000E+00
    -51.634  0.2548E-03  0.0000E+00  0.6069E-04  0.0000E+00
    -51.396  0.9786E+02  0.0000E+00  0.2331E+02  0.0000E+00
    -51.158  0.2891E+01  0.0000E+00  0.2400E+02  0.0000E+00
    -50.920  0.0000E+00  0.0000E+00  0.2400E+02  0.0000E+00
    -50.681  0.0000E+00  0.0000E+00  0.2400E+02  0.0000E+00
    -50.443  0.2480E-09  0.0000E+00  0.2400E+02  0.0000E+00
    -50.205  0.4311E+02  0.0000E+00  0.3427E+02  0.0000E+00
    -49.967  0.1319E+03  0.0000E+00  0.6570E+02  0.0000E+00
    -49.729  0.2647E+02  0.0000E+00  0.7200E+02  0.0000E+00
    -49.490  0.0000E+00  0.0000E+00  0.7200E+02  0.0000E+00
    -49.252  0.0000E+00  0.0000E+00  0.7200E+02  0.0000E+00
    -49.014  0.0000E+00  0.0000E+00  0.7200E+02  0.0000E+00
    -48.776  0.0000E+00  0.0000E+00  0.7200E+02  0.0000E+00
    -48.538  0.0000E+00  0.0000E+00  0.7200E+02  0.0000E+00
    -48.299  0.0000E+00  0.0000E+00  0.7200E+02  0.0000E+00
    -48.061  0.0000E+00  0.0000E+00  0.7200E+02  0.0000E+00
    -47.823  0.0000E+00  0.0000E+00  0.7200E+02  0.0000E+00
    -47.585  0.0000E+00  0.0000E+00  0.7200E+02  0.0000E+00
    -47.347  0.0000E+00  0.0000E+00  0.7200E+02  0.0000E+00
    -47.108  0.0000E+00  0.0000E+00  0.7200E+02  0.0000E+00
    -46.870  0.0000E+00  0.6175E-01  0.7200E+02  0.1471E-01
    -46.632  0.0000E+00  0.1006E+03  0.7200E+02  0.2397E+02
    -46.394  0.0000E+00  0.9555E+02  0.7200E+02  0.4673E+02
    -46.156  0.0000E+00  0.1061E+03  0.7200E+02  0.7200E+02
    -45.917  0.0000E+00  0.0000E+00  0.7200E+02  0.7200E+02
    -45.679  0.0000E+00  0.0000E+00  0.7200E+02  0.7200E+02
    -45.441  0.0000E+00  0.0000E+00  0.7200E+02  0.7200E+02
    -45.203  0.0000E+00  0.0000E+00  0.7200E+02  0.7200E+02
    -44.965  0.0000E+00  0.0000E+00  0.7200E+02  0.7200E+02
    -44.726  0.0000E+00  0.0000E+00  0.7200E+02  0.7200E+02
    -44.488  0.0000E+00  0.0000E+00  0.7200E+02  0.7200E+02
    -44.250  0.0000E+00  0.0000E+00  0.7200E+02  0.7200E+02
    -44.012  0.0000E+00  0.0000E+00  0.7200E+02  0.7200E+02
    -43.774  0.0000E+00  0.0000E+00  0.7200E+02  0.7200E+02
    -43.535  0.0000E+00  0.0000E+00  0.7200E+02  0.7200E+02
    -43.297  0.0000E+00  0.0000E+00  0.7200E+02  0.7200E+02
    -43.059  0.0000E+00  0.0000E+00  0.7200E+02  0.7200E+02
    -42.821  0.0000E+00  0.0000E+00  0.7200E+02  0.7200E+02
    -42.583  0.0000E+00  0.0000E+00  0.7200E+02  0.7200E+02
    -42.344  0.0000E+00  0.0000E+00  0.7200E+02  0.7200E+02
    -42.106  0.0000E+00  0.0000E+00  0.7200E+02  0.7200E+02
    -41.868  0.0000E+00  0.0000E+00  0.7200E+02  0.7200E+02
    -41.630  0.0000E+00  0.0000E+00  0.7200E+02  0.7200E+02
    -41.391  0.0000E+00  0.0000E+00  0.7200E+02  0.7200E+02
    -41.153  0.0000E+00  0.0000E+00  0.7200E+02  0.7200E+02
    -40.915  0.0000E+00  0.0000E+00  0.7200E+02  0.7200E+02
    -40.677  0.3265E-03  0.1007E-03  0.7200E+02  0.7200E+02
    -40.439  0.9909E+02  0.9778E+02  0.9560E+02  0.9529E+02
    -40.200  0.1023E+03  0.1036E+03  0.1200E+03  0.1200E+03
    -39.962  0.1279E+00  0.1321E+00  0.1200E+03  0.1200E+03
    -39.724  0.0000E+00  0.0000E+00  0.1200E+03  0.1200E+03
    -39.486  0.0000E+00  0.0000E+00  0.1200E+03  0.1200E+03
    -39.248  0.0000E+00  0.0000E+00  0.1200E+03  0.1200E+03
    -39.009  0.0000E+00  0.0000E+00  0.1200E+03  0.1200E+03
    -38.771  0.0000E+00  0.0000E+00  0.1200E+03  0.1200E+03
    -38.533  0.0000E+00  0.0000E+00  0.1200E+03  0.1200E+03
    -38.295  0.0000E+00  0.0000E+00  0.1200E+03  0.1200E+03
    -38.057  0.0000E+00  0.0000E+00  0.1200E+03  0.1200E+03
    -37.818  0.0000E+00  0.0000E+00  0.1200E+03  0.1200E+03
    -37.580  0.0000E+00  0.0000E+00  0.1200E+03  0.1200E+03
    -37.342  0.0000E+00  0.0000E+00  0.1200E+03  0.1200E+03
    -37.104  0.0000E+00  0.0000E+00  0.1200E+03  0.1200E+03
    -36.866  0.0000E+00  0.0000E+00  0.1200E+03  0.1200E+03
    -36.627  0.0000E+00  0.0000E+00  0.1200E+03  0.1200E+03
    -36.389  0.0000E+00  0.0000E+00  0.1200E+03  0.1200E+03
    -36.151  0.0000E+00  0.0000E+00  0.1200E+03  0.1200E+03
    -35.913  0.0000E+00  0.0000E+00  0.1200E+03  0.1200E+03
    -35.675  0.0000E+00  0.0000E+00  0.1200E+03  0.1200E+03
    -35.436  0.0000E+00  0.0000E+00  0.1200E+03  0.1200E+03
    -35.198  0.0000E+00  0.0000E+00  0.1200E+03  0.1200E+03
    -34.960  0.0000E+00  0.0000E+00  0.1200E+03  0.1200E+03
    -34.722  0.0000E+00  0.0000E+00  0.1200E+03  0.1200E+03
    -34.484  0.0000E+00  0.0000E+00  0.1200E+03  0.1200E+03
    -34.245  0.0000E+00  0.0000E+00  0.1200E+03  0.1200E+03
    -34.007  0.0000E+00  0.0000E+00  0.1200E+03  0.1200E+03
    -33.769  0.0000E+00  0.0000E+00  0.1200E+03  0.1200E+03
    -33.531  0.0000E+00  0.0000E+00  0.1200E+03  0.1200E+03
    -33.293  0.0000E+00  0.0000E+00  0.1200E+03  0.1200E+03
    -33.054  0.0000E+00  0.0000E+00  0.1200E+03  0.1200E+03
    -32.816  0.0000E+00  0.0000E+00  0.1200E+03  0.1200E+03
    -32.578  0.0000E+00  0.0000E+00  0.1200E+03  0.1200E+03
    -32.340  0.0000E+00  0.0000E+00  0.1200E+03  0.1200E+03
    -32.102  0.0000E+00  0.0000E+00  0.1200E+03  0.1200E+03
    -31.863  0.0000E+00  0.0000E+00  0.1200E+03  0.1200E+03
    -31.625  0.0000E+00  0.0000E+00  0.1200E+03  0.1200E+03
    -31.387  0.0000E+00  0.0000E+00  0.1200E+03  0.1200E+03
    -31.149  0.0000E+00  0.0000E+00  0.1200E+03  0.1200E+03
    -30.911  0.0000E+00  0.0000E+00  0.1200E+03  0.1200E+03
    -30.672  0.0000E+00  0.0000E+00  0.1200E+03  0.1200E+03
    -30.434  0.0000E+00  0.0000E+00  0.1200E+03  0.1200E+03
    -30.196  0.0000E+00  0.0000E+00  0.1200E+03  0.1200E+03
    -29.958  0.0000E+00  0.0000E+00  0.1200E+03  0.1200E+03
    -29.720  0.0000E+00  0.0000E+00  0.1200E+03  0.1200E+03
    -29.481  0.0000E+00  0.0000E+00  0.1200E+03  0.1200E+03
    -29.243  0.0000E+00  0.0000E+00  0.1200E+03  0.1200E+03
    -29.005  0.0000E+00  0.0000E+00  0.1200E+03  0.1200E+03
    -28.767  0.0000E+00  0.0000E+00  0.1200E+03  0.1200E+03
    -28.529  0.0000E+00  0.0000E+00  0.1200E+03  0.1200E+03
    -28.290  0.0000E+00  0.0000E+00  0.1200E+03  0.1200E+03
    -28.052  0.0000E+00  0.0000E+00  0.1200E+03  0.1200E+03
    -27.814  0.0000E+00  0.0000E+00  0.1200E+03  0.1200E+03
    -27.576  0.0000E+00  0.0000E+00  0.1200E+03  0.1200E+03
    -27.338  0.0000E+00  0.0000E+00  0.1200E+03  0.1200E+03
    -27.099  0.0000E+00  0.0000E+00  0.1200E+03  0.1200E+03
    -26.861  0.0000E+00  0.0000E+00  0.1200E+03  0.1200E+03
    -26.623  0.0000E+00  0.0000E+00  0.1200E+03  0.1200E+03
    -26.385  0.0000E+00  0.0000E+00  0.1200E+03  0.1200E+03
    -26.147  0.0000E+00  0.0000E+00  0.1200E+03  0.1200E+03
    -25.908  0.0000E+00  0.0000E+00  0.1200E+03  0.1200E+03
    -25.670  0.0000E+00  0.0000E+00  0.1200E+03  0.1200E+03
    -25.432  0.0000E+00  0.0000E+00  0.1200E+03  0.1200E+03
    -25.194  0.0000E+00  0.0000E+00  0.1200E+03  0.1200E+03
    -24.955  0.0000E+00  0.0000E+00  0.1200E+03  0.1200E+03
    -24.717  0.0000E+00  0.0000E+00  0.1200E+03  0.1200E+03
    -24.479  0.0000E+00  0.0000E+00  0.1200E+03  0.1200E+03
    -24.241  0.0000E+00  0.0000E+00  0.1200E+03  0.1200E+03
    -24.003  0.0000E+00  0.0000E+00  0.1200E+03  0.1200E+03
    -23.764  0.0000E+00  0.0000E+00  0.1200E+03  0.1200E+03
    -23.526  0.0000E+00  0.0000E+00  0.1200E+03  0.1200E+03
    -23.288  0.0000E+00  0.0000E+00  0.1200E+03  0.1200E+03
    -23.050  0.0000E+00  0.0000E+00  0.1200E+03  0.1200E+03
    -22.812  0.0000E+00  0.0000E+00  0.1200E+03  0.1200E+03
    -22.573  0.0000E+00  0.0000E+00  0.1200E+03  0.1200E+03
    -22.335  0.0000E+00  0.0000E+00  0.1200E+03  0.1200E+03
    -22.097  0.0000E+00  0.0000E+00  0.1200E+03  0.1200E+03
    -21.859  0.0000E+00  0.0000E+00  0.1200E+03  0.1200E+03
    -21.621  0.0000E+00  0.0000E+00  0.1200E+03  0.1200E+03
    -21.382  0.0000E+00  0.0000E+00  0.1200E+03  0.1200E+03
    -21.144  0.0000E+00  0.0000E+00  0.1200E+03  0.1200E+03
    -20.906  0.0000E+00  0.0000E+00  0.1200E+03  0.1200E+03
    -20.668  0.0000E+00  0.0000E+00  0.1200E+03  0.1200E+03
    -20.430  0.0000E+00  0.0000E+00  0.1200E+03  0.1200E+03
    -20.191  0.0000E+00  0.0000E+00  0.1200E+03  0.1200E+03
    -19.953  0.0000E+00  0.0000E+00  0.1200E+03  0.1200E+03
    -19.715  0.0000E+00  0.0000E+00  0.1200E+03  0.1200E+03
    -19.477  0.0000E+00  0.0000E+00  0.1200E+03  0.1200E+03
    -19.239  0.0000E+00  0.0000E+00  0.1200E+03  0.1200E+03
    -19.000  0.0000E+00  0.0000E+00  0.1200E+03  0.1200E+03
    -18.762  0.0000E+00  0.0000E+00  0.1200E+03  0.1200E+03
    -18.524  0.0000E+00  0.0000E+00  0.1200E+03  0.1200E+03
    -18.286  0.0000E+00  0.0000E+00  0.1200E+03  0.1200E+03
    -18.048  0.0000E+00  0.0000E+00  0.1200E+03  0.1200E+03
    -17.809  0.0000E+00  0.0000E+00  0.1200E+03  0.1200E+03
    -17.571  0.0000E+00  0.0000E+00  0.1200E+03  0.1200E+03
    -17.333  0.0000E+00  0.0000E+00  0.1200E+03  0.1200E+03
    -17.095  0.0000E+00  0.0000E+00  0.1200E+03  0.1200E+03
    -16.857  0.0000E+00  0.0000E+00  0.1200E+03  0.1200E+03
    -16.618  0.0000E+00  0.0000E+00  0.1200E+03  0.1200E+03
    -16.380  0.0000E+00  0.0000E+00  0.1200E+03  0.1200E+03
    -16.142  0.0000E+00  0.0000E+00  0.1200E+03  0.1200E+03
    -15.904  0.0000E+00  0.0000E+00  0.1200E+03  0.1200E+03
    -15.666  0.0000E+00  0.0000E+00  0.1200E+03  0.1200E+03
    -15.427  0.0000E+00  0.0000E+00  0.1200E+03  0.1200E+03
    -15.189  0.0000E+00  0.0000E+00  0.1200E+03  0.1200E+03
    -14.951  0.0000E+00  0.0000E+00  0.1200E+03  0.1200E+03
    -14.713  0.0000E+00  0.0000E+00  0.1200E+03  0.1200E+03
    -14.475  0.0000E+00  0.0000E+00  0.1200E+03  0.1200E+03
    -14.236  0.0000E+00  0.0000E+00  0.1200E+03  0.1200E+03
    -13.998  0.0000E+00  0.0000E+00  0.1200E+03  0.1200E+03
    -13.760  0.1205E-08  0.0000E+00  0.1200E+03  0.1200E+03
    -13.522  0.8734E+01  0.1899E-15  0.1221E+03  0.1200E+03
    -13.284  0.5996E+02  0.3127E+00  0.1364E+03  0.1201E+03
    -13.045  0.3206E+02  0.6692E+02  0.1440E+03  0.1360E+03
    -12.807  0.2844E-03  0.3352E+02  0.1440E+03  0.1440E+03
    -12.569  0.0000E+00  0.3642E-04  0.1440E+03  0.1440E+03
    -12.331  0.0000E+00  0.0000E+00  0.1440E+03  0.1440E+03
    -12.093  0.0000E+00  0.0000E+00  0.1440E+03  0.1440E+03
    -11.854  0.0000E+00  0.0000E+00  0.1440E+03  0.1440E+03
    -11.616  0.0000E+00  0.0000E+00  0.1440E+03  0.1440E+03
    -11.378  0.0000E+00  0.0000E+00  0.1440E+03  0.1440E+03
    -11.140  0.0000E+00  0.0000E+00  0.1440E+03  0.1440E+03
    -10.902  0.0000E+00  0.0000E+00  0.1440E+03  0.1440E+03
    -10.663  0.0000E+00  0.0000E+00  0.1440E+03  0.1440E+03
    -10.425  0.0000E+00  0.0000E+00  0.1440E+03  0.1440E+03
    -10.187  0.0000E+00  0.0000E+00  0.1440E+03  0.1440E+03
     -9.949  0.0000E+00  0.0000E+00  0.1440E+03  0.1440E+03
     -9.711  0.0000E+00  0.0000E+00  0.1440E+03  0.1440E+03
     -9.472  0.0000E+00  0.0000E+00  0.1440E+03  0.1440E+03
     -9.234  0.0000E+00  0.0000E+00  0.1440E+03  0.1440E+03
     -8.996  0.0000E+00  0.0000E+00  0.1440E+03  0.1440E+03
     -8.758  0.0000E+00  0.0000E+00  0.1440E+03  0.1440E+03
     -8.519  0.0000E+00  0.0000E+00  0.1440E+03  0.1440E+03
     -8.281  0.0000E+00  0.0000E+00  0.1440E+03  0.1440E+03
     -8.043  0.0000E+00  0.0000E+00  0.1440E+03  0.1440E+03
     -7.805  0.1098E-01  0.1813E-15  0.1440E+03  0.1440E+03
     -7.567  0.1829E+02  0.1247E+00  0.1484E+03  0.1440E+03
     -7.328  0.4804E+02  0.2878E+02  0.1598E+03  0.1509E+03
     -7.090  0.3353E+02  0.4936E+02  0.1678E+03  0.1626E+03
     -6.852  0.8921E+00  0.2180E+02  0.1680E+03  0.1678E+03
     -6.614  0.0000E+00  0.6806E+00  0.1680E+03  0.1680E+03
     -6.376  0.0000E+00  0.0000E+00  0.1680E+03  0.1680E+03
     -6.137  0.0000E+00  0.0000E+00  0.1680E+03  0.1680E+03
     -5.899  0.0000E+00  0.0000E+00  0.1680E+03  0.1680E+03
     -5.661  0.0000E+00  0.0000E+00  0.1680E+03  0.1680E+03
     -5.423  0.0000E+00  0.0000E+00  0.1680E+03  0.1680E+03
     -5.185  0.0000E+00  0.0000E+00  0.1680E+03  0.1680E+03
     -4.946  0.0000E+00  0.0000E+00  0.1680E+03  0.1680E+03
     -4.708  0.0000E+00  0.0000E+00  0.1680E+03  0.1680E+03
     -4.470  0.0000E+00  0.0000E+00  0.1680E+03  0.1680E+03
     -4.232  0.0000E+00  0.0000E+00  0.1680E+03  0.1680E+03
     -3.994  0.0000E+00  0.0000E+00  0.1680E+03  0.1680E+03
     -3.755  0.0000E+00  0.0000E+00  0.1680E+03  0.1680E+03
     -3.517  0.0000E+00  0.0000E+00  0.1680E+03  0.1680E+03
     -3.279  0.0000E+00  0.0000E+00  0.1680E+03  0.1680E+03
     -3.041  0.0000E+00  0.0000E+00  0.1680E+03  0.1680E+03
     -2.803  0.0000E+00  0.0000E+00  0.1680E+03  0.1680E+03
     -2.564  0.0000E+00  0.0000E+00  0.1680E+03  0.1680E+03
     -2.326  0.0000E+00  0.0000E+00  0.1680E+03  0.1680E+03
     -2.088  0.2052E-05  0.0000E+00  0.1680E+03  0.1680E+03
     -1.850  0.7855E+01  0.0000E+00  0.1699E+03  0.1680E+03
     -1.612  0.5812E+02  0.0000E+00  0.1837E+03  0.1680E+03
     -1.373  0.4171E+02  0.0000E+00  0.1937E+03  0.1680E+03
     -1.135  0.3247E+02  0.0000E+00  0.2014E+03  0.1680E+03
     -0.897  0.5379E+02  0.2046E-08  0.2142E+03  0.1680E+03
     -0.659  0.5341E+02  0.1751E+01  0.2269E+03  0.1684E+03
     -0.421  0.6686E+02  0.1715E+02  0.2428E+03  0.1725E+03
     -0.182  0.5451E+02  0.3875E+02  0.2558E+03  0.1817E+03
      0.056  0.3439E+02  0.3524E+02  0.2640E+03  0.1901E+03
      0.294  0.5505E+02  0.2265E+02  0.2771E+03  0.1955E+03
      0.532  0.4778E+02  0.4865E+02  0.2885E+03  0.2071E+03
      0.770  0.3248E+02  0.4850E+02  0.2963E+03  0.2187E+03
      1.009  0.4985E+02  0.6841E+02  0.3081E+03  0.2350E+03
      1.247  0.4885E+02  0.2639E+02  0.3198E+03  0.2412E+03
      1.485  0.5440E+02  0.2284E+02  0.3327E+03  0.2467E+03
      1.723  0.6192E+02  0.3801E+02  0.3475E+03  0.2557E+03
      1.961  0.3421E+02  0.4601E+02  0.3556E+03  0.2667E+03
      2.200  0.2445E+02  0.2958E+02  0.3615E+03  0.2737E+03
      2.438  0.1354E+02  0.3580E+02  0.3647E+03  0.2823E+03
      2.676  0.3761E+02  0.2535E+02  0.3736E+03  0.2883E+03
      2.914  0.3863E+02  0.4570E+02  0.3828E+03  0.2992E+03
      3.152  0.3027E+02  0.4177E+02  0.3900E+03  0.3091E+03
      3.391  0.4373E+02  0.1467E+02  0.4005E+03  0.3126E+03
      3.629  0.5338E+02  0.3028E+02  0.4132E+03  0.3199E+03
      3.867  0.4743E+02  0.5715E+02  0.4245E+03  0.3335E+03
      4.105  0.2945E+02  0.1062E+02  0.4315E+03  0.3360E+03
      4.343  0.2150E+01  0.1024E-04  0.4320E+03  0.3360E+03
      4.582  0.0000E+00  0.0000E+00  0.4320E+03  0.3360E+03
      4.820  0.0000E+00  0.0000E+00  0.4320E+03  0.3360E+03
      5.058  0.0000E+00  0.0000E+00  0.4320E+03  0.3360E+03
      5.296  0.0000E+00  0.0000E+00  0.4320E+03  0.3360E+03
      5.534  0.0000E+00  0.0000E+00  0.4320E+03  0.3360E+03
      5.773  0.0000E+00  0.0000E+00  0.4320E+03  0.3360E+03
      6.011  0.0000E+00  0.3457E-02  0.4320E+03  0.3360E+03
      6.249  0.0000E+00  0.1877E+01  0.4320E+03  0.3364E+03
      6.487  0.0000E+00  0.1342E+02  0.4320E+03  0.3396E+03
      6.725  0.0000E+00  0.2691E+02  0.4320E+03  0.3461E+03
      6.964  0.0000E+00  0.2505E+02  0.4320E+03  0.3520E+03
      7.202  0.7138E-05  0.5722E+02  0.4320E+03  0.3657E+03
      7.440  0.1551E+00  0.7601E+02  0.4320E+03  0.3838E+03
      7.678  0.7216E+00  0.2949E+02  0.4322E+03  0.3908E+03
      7.917  0.1476E+01  0.4115E+02  0.4326E+03  0.4006E+03
      8.155  0.4810E+01  0.7764E+02  0.4337E+03  0.4191E+03
      8.393  0.7009E+01  0.5076E+02  0.4354E+03  0.4312E+03
      8.631  0.1574E+02  0.3903E+01  0.4391E+03  0.4321E+03
      8.869  0.2386E+02  0.1119E+01  0.4448E+03  0.4324E+03
      9.108  0.1969E+02  0.4470E+01  0.4495E+03  0.4334E+03
      9.346  0.1942E+02  0.1059E+02  0.4541E+03  0.4360E+03
      9.584  0.1991E+02  0.2083E+02  0.4589E+03  0.4409E+03
      9.822  0.2440E+02  0.2875E+02  0.4647E+03  0.4478E+03
     10.060  0.2208E+02  0.3011E+02  0.4699E+03  0.4549E+03
     10.299  0.1784E+02  0.3013E+02  0.4742E+03  0.4621E+03
     10.537  0.2463E+02  0.2581E+02  0.4801E+03  0.4683E+03
     10.775  0.1518E+02  0.2595E+02  0.4837E+03  0.4744E+03
     11.013  0.2711E+02  0.2446E+02  0.4901E+03  0.4803E+03
     11.251  0.4543E+02  0.1020E+02  0.5009E+03  0.4827E+03
     11.490  0.4870E+02  0.2572E+02  0.5126E+03  0.4888E+03
     11.728  0.3544E+02  0.3011E+02  0.5210E+03  0.4960E+03
     11.966  0.2026E+02  0.5674E+02  0.5258E+03  0.5095E+03
     12.204  0.2083E+02  0.4451E+02  0.5308E+03  0.5201E+03
     12.442  0.2984E+02  0.2689E+02  0.5379E+03  0.5265E+03
     12.681  0.3270E+02  0.2369E+02  0.5457E+03  0.5322E+03
     12.919  0.1881E+02  0.2765E+02  0.5502E+03  0.5388E+03
     13.157  0.7650E+01  0.3303E+02  0.5520E+03  0.5466E+03
     13.395  0.9002E-01  0.1850E+02  0.5520E+03  0.5510E+03
     13.633  0.0000E+00  0.4085E+01  0.5520E+03  0.5520E+03
     13.872  0.0000E+00  0.4358E-05  0.5520E+03  0.5520E+03
     14.110  0.0000E+00  0.0000E+00  0.5520E+03  0.5520E+03
     14.348  0.0000E+00  0.0000E+00  0.5520E+03  0.5520E+03
     14.586  0.0000E+00  0.0000E+00  0.5520E+03  0.5520E+03
     14.824  0.0000E+00  0.0000E+00  0.5520E+03  0.5520E+03
     15.063  0.0000E+00  0.0000E+00  0.5520E+03  0.5520E+03
     15.301  0.0000E+00  0.0000E+00  0.5520E+03  0.5520E+03
     15.539  0.0000E+00  0.0000E+00  0.5520E+03  0.5520E+03
     15.777  0.0000E+00  0.0000E+00  0.5520E+03  0.5520E+03
     16.015  0.0000E+00  0.0000E+00  0.5520E+03  0.5520E+03
     16.254  0.0000E+00  0.0000E+00  0.5520E+03  0.5520E+03
     16.492  0.0000E+00  0.0000E+00  0.5520E+03  0.5520E+03
     16.730  0.0000E+00  0.0000E+00  0.5520E+03  0.5520E+03
