 vasp.5.4.4.18Apr17-6-g9f103f2a35 (build Oct 25 2017 14:42:18) complex          
  
 executed on             LinuxIFC date 2021.04.16  14:03:57
 running on   48 total cores
 distrk:  each k-point on   24 cores,    2 groups
 distr:  one band on NCORES_PER_BAND=   6 cores,    4 groups


--------------------------------------------------------------------------------------------------------


 INCAR:
 POTCAR:    PAW_PBE Li_sv 10Sep2004               
 POTCAR:    PAW_PBE O 08Apr2002                   
 POTCAR:    PAW_PBE S 06Sep2000                   
 POTCAR:    PAW_PBE Fe_pv 02Aug2007               

 ----------------------------------------------------------------------------- 
|                                                                             |
|           W    W    AA    RRRRR   N    N  II  N    N   GGGG   !!!           |
|           W    W   A  A   R    R  NN   N  II  NN   N  G    G  !!!           |
|           W    W  A    A  R    R  N N  N  II  N N  N  G       !!!           |
|           W WW W  AAAAAA  RRRRR   N  N N  II  N  N N  G  GGG   !            |
|           WW  WW  A    A  R   R   N   NN  II  N   NN  G    G                |
|           W    W  A    A  R    R  N    N  II  N    N   GGGG   !!!           |
|                                                                             |
|      You have enabled k-point parallelism (KPAR>1).                         |
|      This developmental code was originally  written by Paul Kent at ORNL,  |
|      and carefully double checked in Vienna.                                |
|      GW as well as linear response parallelism added by Martijn Marsman     |
|      and Georg Kresse.                                                      |
|      Carefully verify results versus KPAR=1.                                |
|      Report problems to Paul Kent and Vienna.                               |
|                                                                             |
 ----------------------------------------------------------------------------- 

 POTCAR:    PAW_PBE Li_sv 10Sep2004               
  local pseudopotential read in
  atomic valenz-charges read in
  non local Contribution for L=           0  read in
    real space projection operators read in
  non local Contribution for L=           0  read in
    real space projection operators read in
  non local Contribution for L=           1  read in
    real space projection operators read in
    PAW grid and wavefunctions read in
 
   number of l-projection  operators is LMAX  =           3
   number of lm-projection operators is LMMAX =           5
 
 POTCAR:    PAW_PBE O 08Apr2002                   
  local pseudopotential read in
  partial core-charges read in
  partial kinetic energy density read in
  kinetic energy density of atom read in
  atomic valenz-charges read in
  non local Contribution for L=           0  read in
    real space projection operators read in
  non local Contribution for L=           0  read in
    real space projection operators read in
  non local Contribution for L=           1  read in
    real space projection operators read in
  non local Contribution for L=           1  read in
    real space projection operators read in
    PAW grid and wavefunctions read in
 
   number of l-projection  operators is LMAX  =           4
   number of lm-projection operators is LMMAX =           8
 
 POTCAR:    PAW_PBE S 06Sep2000                   
  local pseudopotential read in
  partial core-charges read in
  partial kinetic energy density read in
  atomic valenz-charges read in
  non local Contribution for L=           0  read in
    real space projection operators read in
  non local Contribution for L=           0  read in
    real space projection operators read in
  non local Contribution for L=           1  read in
    real space projection operators read in
  non local Contribution for L=           1  read in
    real space projection operators read in
    PAW grid and wavefunctions read in
 
   number of l-projection  operators is LMAX  =           4
   number of lm-projection operators is LMMAX =           8
 
 POTCAR:    PAW_PBE Fe_pv 02Aug2007               
  local pseudopotential read in
  partial core-charges read in
  partial kinetic energy density read in
  atomic valenz-charges read in
  non local Contribution for L=           1  read in
    real space projection operators read in
  non local Contribution for L=           1  read in
    real space projection operators read in
  non local Contribution for L=           2  read in
    real space projection operators read in
  non local Contribution for L=           2  read in
    real space projection operators read in
  non local Contribution for L=           0  read in
    real space projection operators read in
  non local Contribution for L=           0  read in
    real space projection operators read in
    PAW grid and wavefunctions read in
 
   number of l-projection  operators is LMAX  =           6
   number of lm-projection operators is LMMAX =          18
 

 ----------------------------------------------------------------------------- 
|                                                                             |
|  ADVICE TO THIS USER RUNNING 'VASP/VAMP'   (HEAR YOUR MASTER'S VOICE ...):  |
|                                                                             |
|      You have a (more or less) 'large supercell' and for larger cells       |
|      it might be more efficient to use real space projection opertators     |
|      So try LREAL= Auto  in the INCAR   file.                               |
|      Mind:          For very  accurate calculation you might also keep the  |
|      reciprocal projection scheme          (i.e. LREAL=.FALSE.)             |
|                                                                             |
 ----------------------------------------------------------------------------- 

  PAW_PBE Li_sv 10Sep2004               :
 energy of atom  1       EATOM= -202.7858
 kinetic energy error for atom=    0.0072 (will be added to EATOM!!)
  PAW_PBE O 08Apr2002                   :
 energy of atom  2       EATOM= -432.3788
 kinetic energy error for atom=    0.0129 (will be added to EATOM!!)
  PAW_PBE S 06Sep2000                   :
 energy of atom  3       EATOM= -276.8230
 kinetic energy error for atom=    0.0008 (will be added to EATOM!!)
  PAW_PBE Fe_pv 02Aug2007               :
 energy of atom  4       EATOM=-2457.4239
 kinetic energy error for atom=    0.0041 (will be added to EATOM!!)
 
 
 POSCAR: # Compound: Li48O24S24Fe24. Old comment:
  positions in direct lattice
  No initial velocities read in
 exchange correlation table for  LEXCH =        8
   RHO(1)=    0.500       N(1)  =     2000
   RHO(2)=  100.500       N(2)  =     4000
 


--------------------------------------------------------------------------------------------------------


 ion  position               nearest neighbor table
   1  0.035  0.363  0.356-  51 1.97  49 1.97  73 2.65
   2  0.369  0.363  0.356-  49 1.97  50 1.97  74 2.65
   3  0.702  0.363  0.356-  50 1.97  51 1.97  75 2.65
   4  0.035  0.863  0.356-  54 1.97  52 1.97  76 2.65
   5  0.369  0.863  0.356-  52 1.97  53 1.97  77 2.65
   6  0.702  0.863  0.356-  53 1.97  54 1.97  78 2.65
   7  0.035  0.363  0.856-  57 1.97  55 1.97  79 2.65
   8  0.369  0.363  0.856-  55 1.97  56 1.97  80 2.65
   9  0.702  0.363  0.856-  56 1.97  57 1.97  81 2.65
  10  0.035  0.863  0.856-  60 1.97  58 1.97  82 2.65
  11  0.369  0.863  0.856-  58 1.97  59 1.97  83 2.65
  12  0.702  0.863  0.856-  59 1.97  60 1.97  84 2.65
  13  0.035  0.113  0.144-  63 1.97  61 1.97  85 2.65
  14  0.369  0.113  0.144-  61 1.97  62 1.97  86 2.65
  15  0.702  0.113  0.144-  62 1.97  63 1.97  87 2.65
  16  0.035  0.613  0.144-  66 1.97  64 1.97  88 2.65
  17  0.369  0.613  0.144-  64 1.97  65 1.97  89 2.65
  18  0.702  0.613  0.144-  65 1.97  66 1.97  90 2.65
  19  0.035  0.113  0.644-  69 1.97  67 1.97  91 2.65
  20  0.369  0.113  0.644-  67 1.97  68 1.97  92 2.65
  21  0.702  0.113  0.644-  68 1.97  69 1.97  93 2.65
  22  0.035  0.613  0.644-  72 1.97  70 1.97  94 2.65
  23  0.369  0.613  0.644-  70 1.97  71 1.97  95 2.65
  24  0.702  0.613  0.644-  71 1.97  72 1.97  96 2.65
  25  0.202  0.220  0.272-  61 2.00  49 2.01  85 2.55  86 2.55
  26  0.535  0.219  0.272-  62 1.99  50 2.02  86 2.55  87 2.55
  27  0.869  0.219  0.272-  63 1.99  51 2.02  87 2.55  85 2.55
  28  0.202  0.719  0.272-  64 1.99  52 2.02  88 2.55  89 2.55
  29  0.535  0.719  0.272-  65 1.99  53 2.02  89 2.55  90 2.55
  30  0.869  0.719  0.272-  66 1.99  54 2.02  90 2.55  88 2.55
  31  0.202  0.219  0.772-  67 1.99  55 2.02  91 2.55  92 2.55
  32  0.535  0.219  0.772-  68 1.99  56 2.02  92 2.55  93 2.55
  33  0.869  0.219  0.772-  69 1.99  57 2.02  93 2.55  91 2.55
  34  0.202  0.719  0.772-  70 1.99  58 2.02  94 2.55  95 2.55
  35  0.535  0.719  0.772-  71 1.99  59 2.02  95 2.55  96 2.55
  36  0.869  0.719  0.772-  72 1.99  60 2.02  96 2.55  94 2.55
  37  0.202  0.469  0.228-  49 1.99  64 2.02  73 2.55  74 2.55
  38  0.535  0.469  0.228-  50 1.99  65 2.02  74 2.55  75 2.55
  39  0.869  0.469  0.228-  51 1.99  66 2.02  75 2.55  73 2.55
  40  0.202  0.969  0.228-  52 1.99  61 2.02  76 2.55  77 2.55
  41  0.535  0.969  0.228-  53 1.99  62 2.02  77 2.55  78 2.55
  42  0.869  0.969  0.228-  54 1.99  63 2.02  78 2.55  76 2.55
  43  0.202  0.469  0.728-  55 1.99  70 2.02  79 2.55  80 2.55
  44  0.535  0.469  0.728-  56 1.99  71 2.02  80 2.55  81 2.55
  45  0.869  0.469  0.728-  57 1.99  72 2.02  81 2.55  79 2.55
  46  0.202  0.969  0.728-  58 1.99  67 2.02  82 2.55  83 2.55
  47  0.535  0.969  0.728-  59 1.99  68 2.02  83 2.55  84 2.55
  48  0.869  0.969  0.728-  60 1.99  69 2.02  84 2.55  82 2.55
  49  0.202  0.368  0.374-   2 1.97   1 1.97  37 1.99  25 2.01 100 2.01 115 2.02
  50  0.535  0.368  0.374-   3 1.97   2 1.97  38 1.99 101 2.01  26 2.02 116 2.02
  51  0.869  0.368  0.374-   1 1.97   3 1.97  39 1.99 102 2.01  27 2.02 117 2.02
  52  0.202  0.868  0.374-   5 1.97   4 1.97  40 1.99  97 2.01  28 2.02 118 2.02
  53  0.535  0.868  0.374-   6 1.97   5 1.97  41 1.99  98 2.01  29 2.02 119 2.02
  54  0.869  0.868  0.374-   4 1.97   6 1.97  42 1.99  99 2.01  30 2.02 120 2.02
  55  0.202  0.368  0.874-   8 1.97   7 1.97  43 1.99 106 2.01  31 2.02 109 2.02
  56  0.535  0.368  0.874-   9 1.97   8 1.97  44 1.99 107 2.01  32 2.02 110 2.02
  57  0.869  0.368  0.874-   7 1.97   9 1.97  45 1.99 108 2.01  33 2.02 111 2.02
  58  0.202  0.868  0.874-  11 1.97  10 1.97  46 1.99 103 2.01  34 2.02 112 2.02
  59  0.535  0.868  0.874-  12 1.97  11 1.97  47 1.99 104 2.01  35 2.02 113 2.02
  60  0.869  0.868  0.874-  10 1.97  12 1.97  48 1.99 105 2.01  36 2.02 114 2.02
  61  0.202  0.118  0.126-  14 1.97  13 1.97  25 2.00 109 2.01  40 2.02 103 2.02
  62  0.535  0.118  0.126-  15 1.97  14 1.97  26 1.99 110 2.01  41 2.02 104 2.02
  63  0.869  0.118  0.126-  13 1.97  15 1.97  27 1.99 111 2.01  42 2.02 105 2.02
  64  0.202  0.618  0.126-  17 1.97  16 1.97  28 1.99 112 2.01  37 2.02 106 2.02
  65  0.535  0.618  0.126-  18 1.97  17 1.97  29 1.99 113 2.01  38 2.02 107 2.02
  66  0.869  0.618  0.126-  16 1.97  18 1.97  30 1.99 114 2.01  39 2.02 108 2.02
  67  0.202  0.118  0.626-  20 1.97  19 1.97  31 1.99 115 2.01  46 2.02  97 2.02
  68  0.535  0.118  0.626-  21 1.97  20 1.97  32 1.99 116 2.01  47 2.02  98 2.02
  69  0.869  0.118  0.626-  19 1.97  21 1.97  33 1.99 117 2.01  48 2.02  99 2.02
  70  0.202  0.618  0.626-  23 1.97  22 1.97  34 1.99 118 2.01  43 2.02 100 2.02
  71  0.535  0.618  0.626-  24 1.97  23 1.97  35 1.99 119 2.01  44 2.02 101 2.02
  72  0.869  0.618  0.626-  22 1.97  24 1.97  36 1.99 120 2.01  45 2.02 102 2.02
  73  0.035  0.370  0.120-  37 2.55  39 2.55 111 2.56 109 2.56   1 2.65
  74  0.369  0.370  0.120-  38 2.55  37 2.55 109 2.56 110 2.56   2 2.65
  75  0.702  0.370  0.120-  39 2.55  38 2.55 110 2.56 111 2.56   3 2.65
  76  0.035  0.870  0.120-  40 2.55  42 2.55 114 2.56 112 2.56   4 2.65
  77  0.369  0.870  0.120-  41 2.55  40 2.55 112 2.56 113 2.56   5 2.65
  78  0.702  0.870  0.120-  42 2.55  41 2.55 113 2.56 114 2.56   6 2.65
  79  0.035  0.370  0.620-  43 2.55  45 2.55 117 2.56 115 2.56   7 2.65
  80  0.369  0.370  0.620-  44 2.55  43 2.55 115 2.56 116 2.56   8 2.65
  81  0.702  0.370  0.620-  45 2.55  44 2.55 116 2.56 117 2.56   9 2.65
  82  0.035  0.870  0.620-  46 2.55  48 2.55 120 2.56 118 2.56  10 2.65
  83  0.369  0.870  0.620-  47 2.55  46 2.55 118 2.56 119 2.56  11 2.65
  84  0.702  0.870  0.620-  48 2.55  47 2.55 119 2.56 120 2.56  12 2.65
  85  0.035  0.120  0.380-  27 2.55  25 2.55  99 2.56  97 2.56  13 2.65
  86  0.369  0.120  0.380-  26 2.55  25 2.55  97 2.56  98 2.56  14 2.65
  87  0.702  0.120  0.380-  27 2.55  26 2.55  98 2.56  99 2.56  15 2.65
  88  0.035  0.620  0.380-  28 2.55  30 2.55 102 2.56 100 2.56  16 2.65
  89  0.369  0.620  0.380-  29 2.55  28 2.55 100 2.56 101 2.56  17 2.65
  90  0.702  0.620  0.380-  30 2.55  29 2.55 101 2.56 102 2.56  18 2.65
  91  0.035  0.120  0.880-  31 2.55  33 2.55 105 2.56 103 2.56  19 2.65
  92  0.369  0.120  0.880-  32 2.55  31 2.55 103 2.56 104 2.56  20 2.65
  93  0.702  0.120  0.880-  33 2.55  32 2.55 104 2.56 105 2.56  21 2.65
  94  0.035  0.620  0.880-  34 2.55  36 2.55 108 2.56 106 2.56  22 2.65
  95  0.369  0.620  0.880-  35 2.55  34 2.55 106 2.56 107 2.56  23 2.65
  96  0.702  0.620  0.880-  36 2.55  35 2.55 107 2.56 108 2.56  24 2.65
  97  0.202  0.012  0.480-  52 2.01  67 2.02  86 2.56  85 2.56
  98  0.535  0.012  0.480-  53 2.01  68 2.02  87 2.56  86 2.56
  99  0.869  0.012  0.480-  54 2.01  69 2.02  85 2.56  87 2.56
 100  0.202  0.512  0.480-  49 2.01  70 2.02  89 2.56  88 2.56
 101  0.535  0.512  0.480-  50 2.01  71 2.02  90 2.56  89 2.56
 102  0.869  0.512  0.480-  51 2.01  72 2.02  88 2.56  90 2.56
 103  0.202  0.012  0.980-  58 2.01  61 2.02  92 2.56  91 2.56
 104  0.535  0.012  0.980-  59 2.01  62 2.02  93 2.56  92 2.56
 105  0.869  0.012  0.980-  60 2.01  63 2.02  91 2.56  93 2.56
 106  0.202  0.512  0.980-  55 2.01  64 2.02  95 2.56  94 2.56
 107  0.535  0.512  0.980-  56 2.01  65 2.02  96 2.56  95 2.56
 108  0.869  0.512  0.980-  57 2.01  66 2.02  94 2.56  96 2.56
 109  0.202  0.262  0.020-  61 2.01  55 2.02  74 2.56  73 2.56
 110  0.535  0.262  0.020-  62 2.01  56 2.02  75 2.56  74 2.56
 111  0.869  0.262  0.020-  63 2.01  57 2.02  73 2.56  75 2.56
 112  0.202  0.762  0.020-  64 2.01  58 2.02  77 2.56  76 2.56
 113  0.535  0.762  0.020-  65 2.01  59 2.02  78 2.56  77 2.56
 114  0.869  0.762  0.020-  66 2.01  60 2.02  76 2.56  78 2.56
 115  0.202  0.262  0.520-  67 2.01  49 2.02  80 2.56  79 2.56
 116  0.535  0.262  0.520-  68 2.01  50 2.02  81 2.56  80 2.56
 117  0.869  0.262  0.520-  69 2.01  51 2.02  79 2.56  81 2.56
 118  0.202  0.762  0.520-  70 2.01  52 2.02  83 2.56  82 2.56
 119  0.535  0.762  0.520-  71 2.01  53 2.02  84 2.56  83 2.56
 120  0.869  0.762  0.520-  72 2.01  54 2.02  82 2.56  84 2.56
 

IMPORTANT INFORMATION: All symmetrisations will be switched off!
NOSYMM: (Re-)initialisation of all symmetry stuff for point group C_1.

 
 
 KPOINTS: # No comment                            

Automatic generation of k-mesh.
Space group operators:
 irot       det(A)        alpha          n_x          n_y          n_z        tau_x        tau_y        tau_z
    1     1.000000     0.000000     1.000000     0.000000     0.000000     0.000000     0.000000     0.000000
 
 Subroutine IBZKPT returns following result:
 ===========================================
 
 Found     14 irreducible k-points:
 
 Following reciprocal coordinates:
            Coordinates               Weight
  0.000000  0.000000  0.000000      1.000000
  0.333333  0.000000  0.000000      2.000000
  0.000000  0.333333  0.000000      2.000000
  0.333333  0.333333  0.000000      2.000000
 -0.333333  0.333333  0.000000      2.000000
  0.000000  0.000000  0.333333      2.000000
  0.333333  0.000000  0.333333      2.000000
 -0.333333  0.000000  0.333333      2.000000
  0.000000  0.333333  0.333333      2.000000
  0.333333  0.333333  0.333333      2.000000
 -0.333333  0.333333  0.333333      2.000000
 -0.000000 -0.333333  0.333333      2.000000
  0.333333 -0.333333  0.333333      2.000000
 -0.333333 -0.333333  0.333333      2.000000
 
 Following cartesian coordinates:
            Coordinates               Weight
  0.000000  0.000000  0.000000      1.000000
  0.028403 -0.000139  0.000000      2.000000
  0.000145  0.029713  0.000000      2.000000
  0.028548  0.029574  0.000000      2.000000
 -0.028257  0.029851  0.000000      2.000000
  0.000000  0.000000  0.029774      2.000000
  0.028403 -0.000139  0.029774      2.000000
 -0.028403  0.000139  0.029774      2.000000
  0.000145  0.029713  0.029774      2.000000
  0.028548  0.029574  0.029774      2.000000
 -0.028257  0.029851  0.029774      2.000000
 -0.000145 -0.029713  0.029774      2.000000
  0.028257 -0.029851  0.029774      2.000000
 -0.028548 -0.029574  0.029774      2.000000
 


--------------------------------------------------------------------------------------------------------




 Dimension of arrays:
   k-points           NKPTS =     14   k-points in BZ     NKDIM =     14   number of bands    NBANDS=    552
   number of dos      NEDOS =    301   number of ions     NIONS =    120
   non local maximal  LDIM  =      6   non local SUM 2l+1 LMDIM =     18
   total plane-waves  NPLWV = 903168
   max r-space proj   IRMAX =      1   max aug-charges    IRDMAX= 154614
   dimension x,y,z NGX =    98 NGY =   96 NGZ =   96
   dimension x,y,z NGXF=   196 NGYF=  192 NGZF=  192
   support grid    NGXF=   392 NGYF=  384 NGZF=  384
   ions per type =              48  24  24  24
   NGX,Y,Z   is equivalent  to a cutoff of  13.88, 14.23, 14.26 a.u.
   NGXF,Y,Z  is equivalent  to a cutoff of  27.76, 28.45, 28.51 a.u.

 SYSTEM =  unknown system                          
 POSCAR =  # Compound: Li48O24S24Fe24. Old comment:

 Startparameter for this run:
   NWRITE =      1    write-flag & timer
   PREC   = accura    normal or accurate (medium, high low for compatibility)
   ISTART =      0    job   : 0-new  1-cont  2-samecut
   ICHARG =      1    charge: 1-file 2-atom 10-const
   ISPIN  =      2    spin polarized calculation?
   LNONCOLLINEAR =      F non collinear calculations
   LSORBIT =      F    spin-orbit coupling
   INIWAV =      1    electr: 0-lowe 1-rand  2-diag
   LASPH  =      T    aspherical Exc in radial PAW
   METAGGA=      F    non-selfconsistent MetaGGA calc.

 Electronic Relaxation 1
   ENCUT  =  650.0 eV  47.77 Ry    6.91 a.u.  24.40 23.32 23.27*2*pi/ulx,y,z
   ENINI  =  650.0     initial cutoff
   ENAUG  =  628.9 eV  augmentation charge cutoff
   NELM   =    200;   NELMIN=  8; NELMDL=  0     # of ELM steps 
   EDIFF  = 0.1E-05   stopping-criterion for ELM
   LREAL  =      F    real-space projection
   NLSPLINE    = F    spline interpolate recip. space projectors
   LCOMPAT=      F    compatible to vasp.4.4
   GGA_COMPAT  = T    GGA compatible to vasp.4.4-vasp.4.6
   LMAXPAW     = -100 max onsite density
   LMAXMIX     =    4 max onsite mixed and CHGCAR
   VOSKOWN=      0    Vosko Wilk Nusair interpolation
   ROPT   =    0.00000   0.00000   0.00000   0.00000
 Ionic relaxation
   EDIFFG = 0.1E-04   stopping-criterion for IOM
   NSW    =      0    number of steps for IOM
   NBLOCK =      1;   KBLOCK =      1    inner block; outer block 
   IBRION =     -1    ionic relax: 0-MD 1-quasi-New 2-CG
   NFREE  =      0    steps in history (QN), initial steepest desc. (CG)
   ISIF   =      3    stress and relaxation
   IWAVPR =     10    prediction:  0-non 1-charg 2-wave 3-comb
   ISYM   =      0    0-nonsym 1-usesym 2-fastsym
   LCORR  =      T    Harris-Foulkes like correction to forces

   POTIM  = 0.5000    time-step for ionic-motion
   TEIN   =    0.0    initial temperature
   TEBEG  =    0.0;   TEEND  =   0.0 temperature during run
   SMASS  =  -3.00    Nose mass-parameter (am)
   estimated Nose-frequenzy (Omega)   =  0.10E-29 period in steps =****** mass=  -0.315E-26a.u.
   SCALEE = 1.0000    scale energy and forces
   NPACO  =    256;   APACO  = 16.0  distance and # of slots for P.C.
   PSTRESS=    0.0 pullay stress

  Mass of Ions in am
   POMASS =   7.01 16.00 32.07 55.85
  Ionic Valenz
   ZVAL   =   3.00  6.00  6.00 14.00
  Atomic Wigner-Seitz radii
   RWIGS  =  -1.00 -1.00 -1.00 -1.00
  virtual crystal weights 
   VCA    =   1.00  1.00  1.00  1.00
   NELECT =     768.0000    total number of electrons
   NUPDOWN=      -1.0000    fix difference up-down

 DOS related values:
   EMIN   =  10.00;   EMAX   =-10.00  energy-range for DOS
   EFERMI =   0.00
   ISMEAR =     0;   SIGMA  =   0.05  broadening in eV -4-tet -1-fermi 0-gaus

 Electronic relaxation 2 (details)
   IALGO  =     38    algorithm
   LDIAG  =      T    sub-space diagonalisation (order eigenvalues)
   LSUBROT=      F    optimize rotation matrix (better conditioning)
   TURBO    =      0    0=normal 1=particle mesh
   IRESTART =      0    0=no restart 2=restart with 2 vectors
   NREBOOT  =      0    no. of reboots
   NMIN     =      0    reboot dimension
   EREF     =   0.00    reference energy to select bands
   IMIX   =      4    mixing-type and parameters
     AMIX     =   0.40;   BMIX     =  1.00
     AMIX_MAG =   1.60;   BMIX_MAG =  1.00
     AMIN     =   0.10
     WC   =   100.;   INIMIX=   1;  MIXPRE=   1;  MAXMIX= -45

 Intra band minimization:
   WEIMIN = 0.0000     energy-eigenvalue tresh-hold
   EBREAK =  0.45E-09  absolut break condition
   DEPER  =   0.30     relativ break condition  

   TIME   =   0.40     timestep for ELM

  volume/ion in A,a.u.               =      12.28        82.89
  Fermi-wavevector in a.u.,A,eV,Ry     =   1.317335  2.489402 23.611165  1.735372
  Thomas-Fermi vector in A             =   2.447383
 
 Write flags
   LWAVE        =      F    write WAVECAR
   LDOWNSAMPLE  =      F    k-point downsampling of WAVECAR
   LCHARG       =      T    write CHGCAR
   LVTOT        =      F    write LOCPOT, total local potential
   LVHAR        =      F    write LOCPOT, Hartree potential only
   LELF         =      F    write electronic localiz. function (ELF)
   LORBIT       =      0    0 simple, 1 ext, 2 COOP (PROOUT), +10 PAW based schemes


 Dipole corrections
   LMONO  =      F    monopole corrections only (constant potential shift)
   LDIPOL =      F    correct potential (dipole corrections)
   IDIPOL =      0    1-x, 2-y, 3-z, 4-all directions 
   EPSILON=  1.0000000 bulk dielectric constant

 LDA+U is selected, type is set to LDAUTYPE =  2
   angular momentum for each species LDAUL =    -1   -1   -1    2
   U (eV)           for each species LDAUU =   0.0  0.0  0.0  4.0
   J (eV)           for each species LDAUJ =   0.0  0.0  0.0  0.0
 Exchange correlation treatment:
   GGA     =    PE    GGA type
   LEXCH   =     8    internal setting for exchange type
   VOSKOWN=      0    Vosko Wilk Nusair interpolation
   LHFCALC =     F    Hartree Fock is set to
   LHFONE  =     F    Hartree Fock one center treatment
   AEXX    =    0.0000 exact exchange contribution

 Linear response parameters
   LEPSILON=     F    determine dielectric tensor
   LRPA    =     F    only Hartree local field effects (RPA)
   LNABLA  =     F    use nabla operator in PAW spheres
   LVEL    =     F    velocity operator in full k-point grid
   LINTERFAST=   F  fast interpolation
   KINTER  =     0    interpolate to denser k-point grid
   CSHIFT  =0.1000    complex shift for real part using Kramers Kronig
   OMEGAMAX=  -1.0    maximum frequency
   DEG_THRESHOLD= 0.2000000E-02 threshold for treating states as degnerate
   RTIME   =   -0.100 relaxation time in fs
  (WPLASMAI=    0.000 imaginary part of plasma frequency in eV, 0.658/RTIME)
   DFIELD  = 0.0000000 0.0000000 0.0000000 field for delta impulse in time
 
 Orbital magnetization related:
   ORBITALMAG=     F  switch on orbital magnetization
   LCHIMAG   =     F  perturbation theory with respect to B field
   DQ        =  0.001000  dq finite difference perturbation B field
   LLRAUG    =     F  two centre corrections for induced B field



--------------------------------------------------------------------------------------------------------


 Static calculation
 charge density and potential will be updated during run
 spin polarized calculation
 Variant of blocked Davidson
 Davidson routine will perform the subspace rotation
 perform sub-space diagonalisation
    after iterative eigenvector-optimisation
 modified Broyden-mixing scheme, WC =      100.0
 initial mixing is a Kerker type mixing with AMIX =  0.4000 and BMIX =      1.0000
 Hartree-type preconditioning will be used
 using additional bands          168
 reciprocal scheme for non local part
 use partial core corrections
 calculate Harris-corrections to forces 
   (improved forces if not selfconsistent)
 use gradient corrections 
 use of overlap-Matrix (Vanderbilt PP)
 Gauss-broadening in eV      SIGMA  =   0.05


--------------------------------------------------------------------------------------------------------


  energy-cutoff  :      650.00
  volume of cell :     1474.00
      direct lattice vectors                 reciprocal lattice vectors
    11.735727240 -0.057442860  0.000000000     0.085207850 -0.000416288  0.000000000
     0.054807880 11.218334900  0.000000000     0.000436302  0.089137657  0.000000000
     0.000000000  0.000000000 11.195620100     0.000000000  0.000000000  0.089320644

  length of vectors
    11.735867822 11.218468783 11.195620100     0.085208867  0.089138725  0.089320644


 
 k-points in units of 2pi/SCALE and weight: # No comment                            
   0.00000000  0.00000000  0.00000000       0.037
   0.02840262 -0.00013876  0.00000000       0.074
   0.00014543  0.02971255  0.00000000       0.074
   0.02854805  0.02957379  0.00000000       0.074
  -0.02825718  0.02985132  0.00000000       0.074
   0.00000000  0.00000000  0.02977355       0.074
   0.02840262 -0.00013876  0.02977355       0.074
  -0.02840262  0.00013876  0.02977355       0.074
   0.00014543  0.02971255  0.02977355       0.074
   0.02854805  0.02957379  0.02977355       0.074
  -0.02825718  0.02985132  0.02977355       0.074
  -0.00014543 -0.02971255  0.02977355       0.074
   0.02825718 -0.02985132  0.02977355       0.074
  -0.02854805 -0.02957379  0.02977355       0.074
 
 k-points in reciprocal lattice and weights: # No comment                            
   0.00000000  0.00000000  0.00000000       0.037
   0.33333333  0.00000000  0.00000000       0.074
   0.00000000  0.33333333  0.00000000       0.074
   0.33333333  0.33333333  0.00000000       0.074
  -0.33333333  0.33333333  0.00000000       0.074
   0.00000000  0.00000000  0.33333333       0.074
   0.33333333  0.00000000  0.33333333       0.074
  -0.33333333  0.00000000  0.33333333       0.074
   0.00000000  0.33333333  0.33333333       0.074
   0.33333333  0.33333333  0.33333333       0.074
  -0.33333333  0.33333333  0.33333333       0.074
  -0.00000000 -0.33333333  0.33333333       0.074
   0.33333333 -0.33333333  0.33333333       0.074
  -0.33333333 -0.33333333  0.33333333       0.074
 
 position of ions in fractional coordinates (direct lattice) 
   0.03541706  0.36277547  0.35648149
   0.36875039  0.36277547  0.35648149
   0.70208372  0.36277547  0.35648149
   0.03541706  0.86277547  0.35648149
   0.36875039  0.86277547  0.35648149
   0.70208372  0.86277547  0.35648149
   0.03541706  0.36277547  0.85648149
   0.36875039  0.36277547  0.85648149
   0.70208372  0.36277547  0.85648149
   0.03541706  0.86277547  0.85648149
   0.36875039  0.86277547  0.85648149
   0.70208372  0.86277547  0.85648149
   0.03541706  0.11277547  0.14351851
   0.36875039  0.11277547  0.14351851
   0.70208372  0.11277547  0.14351851
   0.03541706  0.61277547  0.14351851
   0.36875039  0.61277547  0.14351851
   0.70208372  0.61277547  0.14351851
   0.03541706  0.11277547  0.64351851
   0.36875039  0.11277547  0.64351851
   0.70208372  0.11277547  0.64351851
   0.03541706  0.61277547  0.64351851
   0.36875039  0.61277547  0.64351851
   0.70208372  0.61277547  0.64351851
   0.20209458  0.21987199  0.27246215
   0.53542792  0.21898060  0.27246215
   0.86876125  0.21898060  0.27246215
   0.20209458  0.71898060  0.27246215
   0.53542792  0.71898060  0.27246215
   0.86876125  0.71898060  0.27246215
   0.20209458  0.21898060  0.77246215
   0.53542792  0.21898060  0.77246215
   0.86876125  0.21898060  0.77246215
   0.20209458  0.71898060  0.77246215
   0.53542792  0.71898060  0.77246215
   0.86876125  0.71898060  0.77246215
   0.20209458  0.46898060  0.22753785
   0.53542792  0.46898060  0.22753785
   0.86876125  0.46898060  0.22753785
   0.20209458  0.96898060  0.22753785
   0.53542792  0.96898060  0.22753785
   0.86876125  0.96898060  0.22753785
   0.20209458  0.46898060  0.72753785
   0.53542792  0.46898060  0.72753785
   0.86876125  0.46898060  0.72753785
   0.20209458  0.96898060  0.72753785
   0.53542792  0.96898060  0.72753785
   0.86876125  0.96898060  0.72753785
   0.20209064  0.36769237  0.37376509
   0.53542398  0.36769237  0.37376509
   0.86875731  0.36769237  0.37376509
   0.20209064  0.86769237  0.37376509
   0.53542398  0.86769237  0.37376509
   0.86875731  0.86769237  0.37376509
   0.20209064  0.36769237  0.87376509
   0.53542398  0.36769237  0.87376509
   0.86875731  0.36769237  0.87376509
   0.20209064  0.86769237  0.87376509
   0.53542398  0.86769237  0.87376509
   0.86875731  0.86769237  0.87376509
   0.20209064  0.11769237  0.12623491
   0.53542398  0.11769237  0.12623491
   0.86875731  0.11769237  0.12623491
   0.20209064  0.61769237  0.12623491
   0.53542398  0.61769237  0.12623491
   0.86875731  0.61769237  0.12623491
   0.20209064  0.11769237  0.62623491
   0.53542398  0.11769237  0.62623491
   0.86875731  0.11769237  0.62623491
   0.20209064  0.61769237  0.62623491
   0.53542398  0.61769237  0.62623491
   0.86875731  0.61769237  0.62623491
   0.03542751  0.37011947  0.12029448
   0.36876084  0.37011947  0.12029448
   0.70209418  0.37011947  0.12029448
   0.03542751  0.87011947  0.12029448
   0.36876084  0.87011947  0.12029448
   0.70209418  0.87011947  0.12029448
   0.03542751  0.37011947  0.62029448
   0.36876084  0.37011947  0.62029448
   0.70209418  0.37011947  0.62029448
   0.03542751  0.87011947  0.62029448
   0.36876084  0.87011947  0.62029448
   0.70209418  0.87011947  0.62029448
   0.03542751  0.12011947  0.37970552
   0.36876084  0.12011947  0.37970552
   0.70209418  0.12011947  0.37970552
   0.03542751  0.62011947  0.37970552
   0.36876084  0.62011947  0.37970552
   0.70209418  0.62011947  0.37970552
   0.03542751  0.12011947  0.87970552
   0.36876084  0.12011947  0.87970552
   0.70209418  0.12011947  0.87970552
   0.03542751  0.62011947  0.87970552
   0.36876084  0.62011947  0.87970552
   0.70209418  0.62011947  0.87970552
   0.20209387  0.01225309  0.48003463
   0.53542720  0.01225309  0.48003463
   0.86876054  0.01225309  0.48003463
   0.20209387  0.51225309  0.48003463
   0.53542720  0.51225309  0.48003463
   0.86876054  0.51225309  0.48003463
   0.20209387  0.01225309  0.98003463
   0.53542720  0.01225309  0.98003463
   0.86876054  0.01225309  0.98003463
   0.20209387  0.51225309  0.98003463
   0.53542720  0.51225309  0.98003463
   0.86876054  0.51225309  0.98003463
   0.20209387  0.26225309  0.01996537
   0.53542720  0.26225309  0.01996537
   0.86876054  0.26225309  0.01996537
   0.20209387  0.76225309  0.01996537
   0.53542720  0.76225309  0.01996537
   0.86876054  0.76225309  0.01996537
   0.20209387  0.26225309  0.51996537
   0.53542720  0.26225309  0.51996537
   0.86876054  0.26225309  0.51996537
   0.20209387  0.76225309  0.51996537
   0.53542720  0.76225309  0.51996537
   0.86876054  0.76225309  0.51996537
 
 position of ions in cartesian coordinates  (Angst):
   0.43552787  4.06770226  3.99103128
   4.34743695  4.04855464  3.99103128
   8.25934603  4.02940702  3.99103128
   0.46293181  9.67686971  3.99103128
   4.37484089  9.65772209  3.99103128
   8.28674997  9.63857447  3.99103128
   0.43552787  4.06770226  9.58884133
   4.34743695  4.04855464  9.58884133
   8.25934603  4.02940702  9.58884133
   0.46293181  9.67686971  9.58884133
   4.37484089  9.65772209  9.58884133
   8.28674997  9.63857447  9.58884133
   0.42182590  1.26311853  1.60677877
   4.33373498  1.24397091  1.60677877
   8.24564406  1.22482329  1.60677877
   0.44922984  6.87228598  1.60677877
   4.36113892  6.85313836  1.60677877
   8.27304800  6.83399074  1.60677877
   0.42182590  1.26311853  7.20458882
   4.33373498  1.24397091  7.20458882
   8.24564406  1.22482329  7.20458882
   0.44922984  6.87228598  7.20458882
   4.36113892  6.85313836  7.20458882
   8.27304800  6.83399074  7.20458882
   2.38377762  2.45498870  3.05038272
   6.29563785  2.42584120  3.05038272
  10.20754693  2.40669358  3.05038272
   2.41113271  8.05415627  3.05038272
   6.32304179  8.03500865  3.05038272
  10.23495087  8.01586103  3.05038272
   2.38372877  2.44498882  8.64819277
   6.29563785  2.42584120  8.64819277
  10.20754693  2.40669358  8.64819277
   2.41113271  8.05415627  8.64819277
   6.32304179  8.03500865  8.64819277
  10.23495087  8.01586103  8.64819277
   2.39743074  5.24957254  2.54742733
   6.30933982  5.23042492  2.54742733
  10.22124890  5.21127730  2.54742733
   2.42483468 10.85873999  2.54742733
   6.33674376 10.83959237  2.54742733
  10.24865284 10.82044475  2.54742733
   2.39743074  5.24957254  8.14523738
   6.30933982  5.23042492  8.14523738
  10.22124890  5.21127730  8.14523738
   2.42483468 10.85873999  8.14523738
   6.33674376 10.83959237  8.14523738
  10.24865284 10.82044475  8.14523738
   2.39183311  4.11328754  4.18453195
   6.30374219  4.09413992  4.18453195
  10.21565127  4.07499230  4.18453195
   2.41923705  9.72245499  4.18453195
   6.33114613  9.70330737  4.18453195
  10.24305521  9.68415975  4.18453195
   2.39183311  4.11328754  9.78234200
   6.30374219  4.09413992  9.78234200
  10.21565127  4.07499230  9.78234200
   2.41923705  9.72245499  9.78234200
   6.33114613  9.70330737  9.78234200
  10.24305521  9.68415975  9.78234200
   2.37813114  1.30870381  1.41327810
   6.29004022  1.28955619  1.41327810
  10.20194930  1.27040857  1.41327810
   2.40553508  6.91787126  1.41327810
   6.31744416  6.89872364  1.41327810
  10.22935324  6.87957602  1.41327810
   2.37813114  1.30870381  7.01108815
   6.29004022  1.28955619  7.01108815
  10.20194930  1.27040857  7.01108815
   2.40553508  6.91787126  7.01108815
   6.31744416  6.89872364  7.01108815
  10.22935324  6.87957602  7.01108815
   0.43605306  4.15008905  1.34677124
   4.34796214  4.13094143  1.34677124
   8.25987122  4.11179381  1.34677124
   0.46345700  9.75925650  1.34677124
   4.37536608  9.74010888  1.34677124
   8.28727516  9.72096126  1.34677124
   0.43605306  4.15008905  6.94458129
   4.34796214  4.13094143  6.94458129
   8.25987122  4.11179381  6.94458129
   0.46345700  9.75925650  6.94458129
   4.37536608  9.74010888  6.94458129
   8.28727516  9.72096126  6.94458129
   0.42235109  1.34550533  4.25103881
   4.33426017  1.32635771  4.25103881
   8.24616925  1.30721009  4.25103881
   0.44975503  6.95467278  4.25103881
   4.36166411  6.93552516  4.25103881
   8.27357319  6.91637754  4.25103881
   0.42235109  1.34550533  9.84884886
   4.33426017  1.32635771  9.84884886
   8.24616925  1.30721009  9.84884886
   0.44975503  6.95467278  9.84884886
   4.36166411  6.93552516  9.84884886
   8.27357319  6.91637754  9.84884886
   2.37239010  0.12585042  5.37428530
   6.28429918  0.10670280  5.37428530
  10.19620826  0.08755518  5.37428530
   2.39979404  5.73501787  5.37428530
   6.31170312  5.71587025  5.37428530
  10.22361220  5.69672263  5.37428530
   2.37239010  0.12585042 10.97209535
   6.28429918  0.10670280 10.97209535
  10.19620826  0.08755518 10.97209535
   2.39979404  5.73501787 10.97209535
   6.31170312  5.71587025 10.97209535
  10.22361220  5.69672263 10.97209535
   2.38609207  2.93043414  0.22352475
   6.29800115  2.91128652  0.22352475
  10.20991023  2.89213890  0.22352475
   2.41349601  8.53960159  0.22352475
   6.32540509  8.52045397  0.22352475
  10.23731417  8.50130635  0.22352475
   2.38609207  2.93043414  5.82133480
   6.29800115  2.91128652  5.82133480
  10.20991023  2.89213890  5.82133480
   2.41349601  8.53960159  5.82133480
   6.32540509  8.52045397  5.82133480
  10.23731417  8.50130635  5.82133480
 


--------------------------------------------------------------------------------------------------------


 k-point  1 :   0.0000 0.0000 0.0000  plane waves:   55469
 k-point  2 :   0.3333 0.0000 0.0000  plane waves:   55443
 k-point  3 :   0.0000 0.3333 0.0000  plane waves:   55474
 k-point  4 :   0.3333 0.3333 0.0000  plane waves:   55456
 k-point  5 :  -0.3333 0.3333 0.0000  plane waves:   55456
 k-point  6 :   0.0000 0.0000 0.3333  plane waves:   55522
 k-point  7 :   0.3333 0.0000 0.3333  plane waves:   55468
 k-point  8 :  -0.3333 0.0000 0.3333  plane waves:   55468
 k-point  9 :   0.0000 0.3333 0.3333  plane waves:   55433
 k-point 10 :   0.3333 0.3333 0.3333  plane waves:   55444
 k-point 11 :  -0.3333 0.3333 0.3333  plane waves:   55444
 k-point 12 :  -0.0000-0.3333 0.3333  plane waves:   55433
 k-point 13 :   0.3333-0.3333 0.3333  plane waves:   55444
 k-point 14 :  -0.3333-0.3333 0.3333  plane waves:   55444

 maximum and minimum number of plane-waves per node :      9314     9185

 maximum number of plane-waves:     55522
 maximum index in each direction: 
   IXMAX=   24   IYMAX=   23   IZMAX=   23
   IXMIN=  -24   IYMIN=  -23   IZMIN=  -23


 parallel 3D FFT for wavefunctions:
    minimum data exchange during FFTs selected (reduces bandwidth)
 parallel 3D FFT for charge:
    minimum data exchange during FFTs selected (reduces bandwidth)


 total amount of memory used by VASP MPI-rank0   801761. kBytes
=======================================================================

   base      :      30000. kBytes
   nonl-proj :      92491. kBytes
   fftplans  :      50318. kBytes
   grid      :      44712. kBytes
   one-center:        622. kBytes
   wavefun   :     583618. kBytes
 
     INWAV:  cpu time    0.0001: real time    0.0002
 Broyden mixing: mesh for mixing (old mesh)
   NGX = 49   NGY = 47   NGZ = 47
  (NGX  =196   NGY  =192   NGZ  =192)
  gives a total of 108241 points

 initial charge density was supplied:
 number of electron     768.0000015 magnetization      96.0009074
 keeping initial charge density in first step


--------------------------------------------------------------------------------------------------------


 Maximum index for augmentation-charges         7847 (set IRDMAX)


--------------------------------------------------------------------------------------------------------


 First call to EWALD:  gamma=   0.156
 Maximum number of real-space cells 3x 3x 3
 Maximum number of reciprocal cells 3x 3x 3

    FEWALD:  cpu time    0.1004: real time    0.1066


--------------------------------------- Iteration      1(   1)  ---------------------------------------


    POTLOK:  cpu time    0.4815: real time    0.5009
    SETDIJ:  cpu time    1.4178: real time    1.4742
     EDDAV:  cpu time  219.2364: real time  221.2571
       DOS:  cpu time    0.0051: real time    0.0051
    --------------------------------------------
      LOOP:  cpu time  221.1407: real time  223.2372

 eigenvalue-minimisations  : 32400
 total energy-change (2. order) : 0.1004337E+05  (-0.4138224E+05)
 number of electron     768.0000015 magnetization      96.0009074
 augmentation part      768.0000015 magnetization      96.0009074

 Free energy of the ion-electron system (eV)
  ---------------------------------------------------
  alpha Z        PSCENC =      1915.67052055
  Ewald energy   TEWEN  =    -48532.20919391
  -Hartree energ DENC   =    -28983.33899416
  -exchange      EXHF   =         0.00000000
  -V(xc)+E(xc)   XCENC  =      3297.26498075
  PAW double counting   =     81710.32686745   -84426.12035439
  entropy T*S    EENTRO =        -0.01831042
  eigenvalues    EBANDS =      -670.16637684
  atomic energy  EATOM  =     85731.96378919
  Solvation  Ediel_sol  =         0.00000000
  ---------------------------------------------------
  free energy    TOTEN  =     10043.37292824 eV

  energy without entropy =    10043.39123866  energy(sigma->0) =    10043.38208345


--------------------------------------------------------------------------------------------------------




--------------------------------------- Iteration      1(   2)  ---------------------------------------


     EDDAV:  cpu time  211.7761: real time  213.4749
       DOS:  cpu time    0.0050: real time    0.0050
    --------------------------------------------
      LOOP:  cpu time  211.7811: real time  213.4798

 eigenvalue-minimisations  : 30912
 total energy-change (2. order) :-0.9006320E+04  (-0.8363409E+04)
 number of electron     768.0000015 magnetization      96.0009074
 augmentation part      768.0000015 magnetization      96.0009074

 Free energy of the ion-electron system (eV)
  ---------------------------------------------------
  alpha Z        PSCENC =      1915.67052055
  Ewald energy   TEWEN  =    -48532.20919391
  -Hartree energ DENC   =    -28983.33899416
  -exchange      EXHF   =         0.00000000
  -V(xc)+E(xc)   XCENC  =      3297.26498075
  PAW double counting   =     81710.32686745   -84426.12035439
  entropy T*S    EENTRO =        -0.05226830
  eigenvalues    EBANDS =     -9676.45247874
  atomic energy  EATOM  =     85731.96378919
  Solvation  Ediel_sol  =         0.00000000
  ---------------------------------------------------
  free energy    TOTEN  =      1037.05286846 eV

  energy without entropy =     1037.10513676  energy(sigma->0) =     1037.07900261


--------------------------------------------------------------------------------------------------------




--------------------------------------- Iteration      1(   3)  ---------------------------------------


     EDDAV:  cpu time  231.2356: real time  233.5379
       DOS:  cpu time    0.0020: real time    0.0020
    --------------------------------------------
      LOOP:  cpu time  231.2376: real time  233.5400

 eigenvalue-minimisations  : 34704
 total energy-change (2. order) :-0.1436949E+04  (-0.1296285E+04)
 number of electron     768.0000015 magnetization      96.0009074
 augmentation part      768.0000015 magnetization      96.0009074

 Free energy of the ion-electron system (eV)
  ---------------------------------------------------
  alpha Z        PSCENC =      1915.67052055
  Ewald energy   TEWEN  =    -48532.20919391
  -Hartree energ DENC   =    -28983.33899416
  -exchange      EXHF   =         0.00000000
  -V(xc)+E(xc)   XCENC  =      3297.26498075
  PAW double counting   =     81710.32686745   -84426.12035439
  entropy T*S    EENTRO =        -0.00000000
  eigenvalues    EBANDS =    -11113.45341167
  atomic energy  EATOM  =     85731.96378919
  Solvation  Ediel_sol  =         0.00000000
  ---------------------------------------------------
  free energy    TOTEN  =      -399.89579617 eV

  energy without entropy =     -399.89579617  energy(sigma->0) =     -399.89579617


--------------------------------------------------------------------------------------------------------




--------------------------------------- Iteration      1(   4)  ---------------------------------------


     EDDAV:  cpu time  263.9457: real time  266.3963
       DOS:  cpu time    0.0020: real time    0.0020
    --------------------------------------------
      LOOP:  cpu time  263.9476: real time  266.3982

 eigenvalue-minimisations  : 41064
 total energy-change (2. order) :-0.1904104E+03  (-0.1882537E+03)
 number of electron     768.0000015 magnetization      96.0009074
 augmentation part      768.0000015 magnetization      96.0009074

 Free energy of the ion-electron system (eV)
  ---------------------------------------------------
  alpha Z        PSCENC =      1915.67052055
  Ewald energy   TEWEN  =    -48532.20919391
  -Hartree energ DENC   =    -28983.33899416
  -exchange      EXHF   =         0.00000000
  -V(xc)+E(xc)   XCENC  =      3297.26498075
  PAW double counting   =     81710.32686745   -84426.12035439
  entropy T*S    EENTRO =        -0.00000000
  eigenvalues    EBANDS =    -11303.86383214
  atomic energy  EATOM  =     85731.96378919
  Solvation  Ediel_sol  =         0.00000000
  ---------------------------------------------------
  free energy    TOTEN  =      -590.30621664 eV

  energy without entropy =     -590.30621664  energy(sigma->0) =     -590.30621664


--------------------------------------------------------------------------------------------------------




--------------------------------------- Iteration      1(   5)  ---------------------------------------


     EDDAV:  cpu time  334.0623: real time  337.4095
       DOS:  cpu time    0.0023: real time    0.0023
    CHARGE:  cpu time    5.5729: real time    5.6387
    MIXING:  cpu time    0.0221: real time    0.0221
    --------------------------------------------
      LOOP:  cpu time  339.6595: real time  343.0727

 eigenvalue-minimisations  : 54400
 total energy-change (2. order) :-0.2512580E+02  (-0.2488834E+02)
 number of electron     768.0000015 magnetization      96.0005841
 augmentation part      246.8522673 magnetization      62.9057742

 Broyden mixing:
  rms(total) = 0.27967E+00    rms(broyden)= 0.27951E+00
  rms(prec ) = 0.28394E+00
  weight for this iteration     100.00

 Free energy of the ion-electron system (eV)
  ---------------------------------------------------
  alpha Z        PSCENC =      1915.67052055
  Ewald energy   TEWEN  =    -48532.20919391
  -Hartree energ DENC   =    -28983.33899416
  -exchange      EXHF   =         0.00000000
  -V(xc)+E(xc)   XCENC  =      3297.26498075
  PAW double counting   =     81710.32686745   -84426.12035439
  entropy T*S    EENTRO =        -0.00000000
  eigenvalues    EBANDS =    -11328.98963057
  atomic energy  EATOM  =     85731.96378919
  Solvation  Ediel_sol  =         0.00000000
  ---------------------------------------------------
  free energy    TOTEN  =      -615.43201507 eV

  energy without entropy =     -615.43201507  energy(sigma->0) =     -615.43201507


--------------------------------------------------------------------------------------------------------




--------------------------------------- Iteration      1(   6)  ---------------------------------------


    POTLOK:  cpu time    0.4964: real time    0.5054
    SETDIJ:  cpu time    1.4553: real time    1.4561
     EDDAV:  cpu time  271.1996: real time  273.8213
       DOS:  cpu time    0.0084: real time    0.0087
    CHARGE:  cpu time    5.5393: real time    5.6785
    MIXING:  cpu time    0.0273: real time    0.1625
    --------------------------------------------
      LOOP:  cpu time  278.7263: real time  281.6326

 eigenvalue-minimisations  : 42376
 total energy-change (2. order) :-0.9545565E+00  (-0.9832784E+00)
 number of electron     768.0000015 magnetization      96.0004370
 augmentation part      245.7260416 magnetization      63.0618958

 Broyden mixing:
  rms(total) = 0.12102E+00    rms(broyden)= 0.12087E+00
  rms(prec ) = 0.12249E+00
  weight for this iteration     100.00

 eigenvalues of (default mixing * dielectric matrix)
  average eigenvalue GAMMA=   0.6640
  0.6640

 Free energy of the ion-electron system (eV)
  ---------------------------------------------------
  alpha Z        PSCENC =      1915.67052055
  Ewald energy   TEWEN  =    -48532.20919391
  -Hartree energ DENC   =    -28977.23949429
  -exchange      EXHF   =         0.00000000
  -V(xc)+E(xc)   XCENC  =      3296.38432873
  PAW double counting   =     81549.77884717   -84261.65762319
  entropy T*S    EENTRO =        -0.00000000
  eigenvalues    EBANDS =    -11339.07774582
  atomic energy  EATOM  =     85731.96378919
  Solvation  Ediel_sol  =         0.00000000
  ---------------------------------------------------
  free energy    TOTEN  =      -616.38657157 eV

  energy without entropy =     -616.38657157  energy(sigma->0) =     -616.38657157


--------------------------------------------------------------------------------------------------------




--------------------------------------- Iteration      1(   7)  ---------------------------------------


    POTLOK:  cpu time    0.4858: real time    0.5014
    SETDIJ:  cpu time    1.4472: real time    1.4591
     EDDAV:  cpu time  306.2109: real time  308.7780
       DOS:  cpu time    0.0024: real time    0.0024
    CHARGE:  cpu time    5.6071: real time    5.6207
    MIXING:  cpu time    0.0220: real time    0.0220
    --------------------------------------------
      LOOP:  cpu time  313.7754: real time  316.3835

 eigenvalue-minimisations  : 49424
 total energy-change (2. order) :-0.4890423E-01  (-0.4847242E-01)
 number of electron     768.0000015 magnetization      96.0003796
 augmentation part      245.5255781 magnetization      63.0171113

 Broyden mixing:
  rms(total) = 0.84060E-01    rms(broyden)= 0.84004E-01
  rms(prec ) = 0.85732E-01
  weight for this iteration     100.00

 eigenvalues of (default mixing * dielectric matrix)
  average eigenvalue GAMMA=   0.5829
  0.5829  0.5829

 Free energy of the ion-electron system (eV)
  ---------------------------------------------------
  alpha Z        PSCENC =      1915.67052055
  Ewald energy   TEWEN  =    -48532.20919391
  -Hartree energ DENC   =    -28979.20751949
  -exchange      EXHF   =         0.00000000
  -V(xc)+E(xc)   XCENC  =      3296.63994594
  PAW double counting   =     81589.16229681   -84301.98079579
  entropy T*S    EENTRO =        -0.00000000
  eigenvalues    EBANDS =    -11336.47451911
  atomic energy  EATOM  =     85731.96378919
  Solvation  Ediel_sol  =         0.00000000
  ---------------------------------------------------
  free energy    TOTEN  =      -616.43547580 eV

  energy without entropy =     -616.43547580  energy(sigma->0) =     -616.43547580


--------------------------------------------------------------------------------------------------------




--------------------------------------- Iteration      1(   8)  ---------------------------------------


    POTLOK:  cpu time    0.4789: real time    0.4812
    SETDIJ:  cpu time    1.4653: real time    1.4662
     EDDAV:  cpu time  296.7750: real time  299.4549
       DOS:  cpu time    0.0066: real time    0.0066
    CHARGE:  cpu time    5.5723: real time    5.6324
    MIXING:  cpu time    0.0336: real time    0.0339
    --------------------------------------------
      LOOP:  cpu time  304.3318: real time  307.0752

 eigenvalue-minimisations  : 47432
 total energy-change (2. order) :-0.1760919E-03  (-0.1781453E-02)
 number of electron     768.0000015 magnetization      96.0003538
 augmentation part      245.4882399 magnetization      63.0147053

 Broyden mixing:
  rms(total) = 0.72876E-01    rms(broyden)= 0.72871E-01
  rms(prec ) = 0.74427E-01
  weight for this iteration     100.00

 eigenvalues of (default mixing * dielectric matrix)
  average eigenvalue GAMMA=   0.5431
  0.6175  0.6175  0.3942

 Free energy of the ion-electron system (eV)
  ---------------------------------------------------
  alpha Z        PSCENC =      1915.67052055
  Ewald energy   TEWEN  =    -48532.20919391
  -Hartree energ DENC   =    -28979.96047357
  -exchange      EXHF   =         0.00000000
  -V(xc)+E(xc)   XCENC  =      3296.74278574
  PAW double counting   =     81609.85615769   -84323.22617990
  entropy T*S    EENTRO =        -0.00000000
  eigenvalues    EBANDS =    -11335.27305769
  atomic energy  EATOM  =     85731.96378919
  Solvation  Ediel_sol  =         0.00000000
  ---------------------------------------------------
  free energy    TOTEN  =      -616.43565189 eV

  energy without entropy =     -616.43565189  energy(sigma->0) =     -616.43565189


--------------------------------------------------------------------------------------------------------




--------------------------------------- Iteration      1(   9)  ---------------------------------------


    POTLOK:  cpu time    0.4854: real time    0.4874
    SETDIJ:  cpu time    1.5114: real time    1.5125
     EDDAV:  cpu time  304.6155: real time  307.3794
       DOS:  cpu time    0.0021: real time    0.0021
    CHARGE:  cpu time    5.5988: real time    5.6647
    MIXING:  cpu time    0.0257: real time    0.0307
    --------------------------------------------
      LOOP:  cpu time  312.2389: real time  315.0769

 eigenvalue-minimisations  : 49160
 total energy-change (2. order) : 0.6351145E-03  (-0.1054991E-03)
 number of electron     768.0000015 magnetization      96.0003549
 augmentation part      245.4934935 magnetization      63.0121832

 Broyden mixing:
  rms(total) = 0.66505E-01    rms(broyden)= 0.66505E-01
  rms(prec ) = 0.67903E-01
  weight for this iteration     100.00

 eigenvalues of (default mixing * dielectric matrix)
  average eigenvalue GAMMA=   0.4669
  0.6117  0.6117  0.3222  0.3222

 Free energy of the ion-electron system (eV)
  ---------------------------------------------------
  alpha Z        PSCENC =      1915.67052055
  Ewald energy   TEWEN  =    -48532.20919391
  -Hartree energ DENC   =    -28980.15586140
  -exchange      EXHF   =         0.00000000
  -V(xc)+E(xc)   XCENC  =      3296.78814802
  PAW double counting   =     81617.15623683   -84330.74555971
  entropy T*S    EENTRO =        -0.00000000
  eigenvalues    EBANDS =    -11334.90309636
  atomic energy  EATOM  =     85731.96378919
  Solvation  Ediel_sol  =         0.00000000
  ---------------------------------------------------
  free energy    TOTEN  =      -616.43501678 eV

  energy without entropy =     -616.43501678  energy(sigma->0) =     -616.43501678


--------------------------------------------------------------------------------------------------------




--------------------------------------- Iteration      1(  10)  ---------------------------------------


    POTLOK:  cpu time    0.4794: real time    0.4864
    SETDIJ:  cpu time    1.4386: real time    1.4606
     EDDAV:  cpu time  302.7526: real time  305.5180
       DOS:  cpu time    0.0024: real time    0.0024
    CHARGE:  cpu time    5.6250: real time    5.6353
    MIXING:  cpu time    0.0222: real time    0.0222
    --------------------------------------------
      LOOP:  cpu time  310.3202: real time  313.1250

 eigenvalue-minimisations  : 48488
 total energy-change (2. order) :-0.1443359E-04  (-0.1079406E-04)
 number of electron     768.0000015 magnetization      96.0003109
 augmentation part      245.4978446 magnetization      63.0118658

 Broyden mixing:
  rms(total) = 0.66457E-01    rms(broyden)= 0.66457E-01
  rms(prec ) = 0.67831E-01
  weight for this iteration     100.00

 eigenvalues of (default mixing * dielectric matrix)
  average eigenvalue GAMMA=   0.5084
  0.7503  0.7503  0.4445  0.4445  0.1525

 Free energy of the ion-electron system (eV)
  ---------------------------------------------------
  alpha Z        PSCENC =      1915.67052055
  Ewald energy   TEWEN  =    -48532.20919391
  -Hartree energ DENC   =    -28980.14381950
  -exchange      EXHF   =         0.00000000
  -V(xc)+E(xc)   XCENC  =      3296.78641179
  PAW double counting   =     81616.87483434   -84330.45562173
  entropy T*S    EENTRO =        -0.00000000
  eigenvalues    EBANDS =    -11334.92195194
  atomic energy  EATOM  =     85731.96378919
  Solvation  Ediel_sol  =         0.00000000
  ---------------------------------------------------
  free energy    TOTEN  =      -616.43503121 eV

  energy without entropy =     -616.43503121  energy(sigma->0) =     -616.43503121


--------------------------------------------------------------------------------------------------------




--------------------------------------- Iteration      1(  11)  ---------------------------------------


    POTLOK:  cpu time    0.4780: real time    0.4803
    SETDIJ:  cpu time    1.5077: real time    1.5088
     EDDAV:  cpu time  277.8805: real time  280.4133
       DOS:  cpu time    0.0020: real time    0.0020
    CHARGE:  cpu time    5.7202: real time    5.7592
    MIXING:  cpu time    0.0252: real time    0.0252
    --------------------------------------------
      LOOP:  cpu time  285.6136: real time  288.1887

 eigenvalue-minimisations  : 43736
 total energy-change (2. order) : 0.7965558E-03  (-0.7134933E-05)
 number of electron     768.0000015 magnetization      96.0002522
 augmentation part      245.5024226 magnetization      63.0109390

 Broyden mixing:
  rms(total) = 0.57391E-01    rms(broyden)= 0.57391E-01
  rms(prec ) = 0.58575E-01
  weight for this iteration     100.00

 eigenvalues of (default mixing * dielectric matrix)
  average eigenvalue GAMMA=   0.5817
  0.9174  0.9174  0.5036  0.5036  0.4312  0.2173

 Free energy of the ion-electron system (eV)
  ---------------------------------------------------
  alpha Z        PSCENC =      1915.67052055
  Ewald energy   TEWEN  =    -48532.20919391
  -Hartree energ DENC   =    -28980.50702978
  -exchange      EXHF   =         0.00000000
  -V(xc)+E(xc)   XCENC  =      3296.85493894
  PAW double counting   =     81630.21670243   -84344.17814302
  entropy T*S    EENTRO =        -0.00000000
  eigenvalues    EBANDS =    -11334.24581908
  atomic energy  EATOM  =     85731.96378919
  Solvation  Ediel_sol  =         0.00000000
  ---------------------------------------------------
  free energy    TOTEN  =      -616.43423466 eV

  energy without entropy =     -616.43423466  energy(sigma->0) =     -616.43423466


--------------------------------------------------------------------------------------------------------




--------------------------------------- Iteration      1(  12)  ---------------------------------------


    POTLOK:  cpu time    0.4793: real time    0.4817
    SETDIJ:  cpu time    1.3841: real time    1.4709
     EDDAV:  cpu time  294.2348: real time  296.9453
       DOS:  cpu time    0.0031: real time    0.0031
    CHARGE:  cpu time    5.7148: real time    5.7357
    MIXING:  cpu time    0.0388: real time    0.0388
    --------------------------------------------
      LOOP:  cpu time  301.8548: real time  304.6755

 eigenvalue-minimisations  : 47136
 total energy-change (2. order) : 0.7678625E-03  (-0.2931598E-04)
 number of electron     768.0000015 magnetization      96.0001754
 augmentation part      245.5139101 magnetization      63.0109933

 Broyden mixing:
  rms(total) = 0.45475E-01    rms(broyden)= 0.45474E-01
  rms(prec ) = 0.46398E-01
  weight for this iteration     100.00

 eigenvalues of (default mixing * dielectric matrix)
  average eigenvalue GAMMA=   0.6970
  1.2419  1.2419  0.6118  0.6118  0.4750  0.4750  0.2217

 Free energy of the ion-electron system (eV)
  ---------------------------------------------------
  alpha Z        PSCENC =      1915.67052055
  Ewald energy   TEWEN  =    -48532.20919391
  -Hartree energ DENC   =    -28981.04419297
  -exchange      EXHF   =         0.00000000
  -V(xc)+E(xc)   XCENC  =      3296.94104390
  PAW double counting   =     81647.47093932   -84361.90689735
  entropy T*S    EENTRO =        -0.00000000
  eigenvalues    EBANDS =    -11333.31947553
  atomic energy  EATOM  =     85731.96378919
  Solvation  Ediel_sol  =         0.00000000
  ---------------------------------------------------
  free energy    TOTEN  =      -616.43346680 eV

  energy without entropy =     -616.43346680  energy(sigma->0) =     -616.43346680


--------------------------------------------------------------------------------------------------------




--------------------------------------- Iteration      1(  13)  ---------------------------------------


    POTLOK:  cpu time    0.4815: real time    0.4866
    SETDIJ:  cpu time    1.3797: real time    1.5048
     EDDAV:  cpu time  301.4429: real time  304.3306
       DOS:  cpu time    0.0022: real time    0.0022
    CHARGE:  cpu time    5.6060: real time    5.6927
    MIXING:  cpu time    0.0235: real time    0.0235
    --------------------------------------------
      LOOP:  cpu time  308.9358: real time  312.0403

 eigenvalue-minimisations  : 48168
 total energy-change (2. order) : 0.6459473E-03  (-0.2033864E-04)
 number of electron     768.0000015 magnetization      96.0001443
 augmentation part      245.5218435 magnetization      63.0117988

 Broyden mixing:
  rms(total) = 0.30877E-01    rms(broyden)= 0.30877E-01
  rms(prec ) = 0.31515E-01
  weight for this iteration     100.00

 eigenvalues of (default mixing * dielectric matrix)
  average eigenvalue GAMMA=   0.7274
  1.4244  1.4244  0.6768  0.6768  0.4790  0.4790  0.4368  0.2225

 Free energy of the ion-electron system (eV)
  ---------------------------------------------------
  alpha Z        PSCENC =      1915.67052055
  Ewald energy   TEWEN  =    -48532.20919391
  -Hartree energ DENC   =    -28981.75995563
  -exchange      EXHF   =         0.00000000
  -V(xc)+E(xc)   XCENC  =      3297.04815768
  PAW double counting   =     81668.71683333   -84383.68815853
  entropy T*S    EENTRO =        -0.00000000
  eigenvalues    EBANDS =    -11332.17481355
  atomic energy  EATOM  =     85731.96378919
  Solvation  Ediel_sol  =         0.00000000
  ---------------------------------------------------
  free energy    TOTEN  =      -616.43282085 eV

  energy without entropy =     -616.43282085  energy(sigma->0) =     -616.43282085


--------------------------------------------------------------------------------------------------------




--------------------------------------- Iteration      1(  14)  ---------------------------------------


    POTLOK:  cpu time    0.4776: real time    0.4804
    SETDIJ:  cpu time    1.4577: real time    1.4688
     EDDAV:  cpu time  255.6330: real time  258.1029
       DOS:  cpu time    0.0022: real time    0.0027
    CHARGE:  cpu time    5.5788: real time    5.5834
    MIXING:  cpu time    0.0245: real time    0.0286
    --------------------------------------------
      LOOP:  cpu time  263.1739: real time  265.6670

 eigenvalue-minimisations  : 39344
 total energy-change (2. order) : 0.1396989E-03  (-0.1210851E-04)
 number of electron     768.0000015 magnetization      96.0001067
 augmentation part      245.5260884 magnetization      63.0103332

 Broyden mixing:
  rms(total) = 0.25660E-01    rms(broyden)= 0.25659E-01
  rms(prec ) = 0.26186E-01
  weight for this iteration     100.00

 eigenvalues of (default mixing * dielectric matrix)
  average eigenvalue GAMMA=   0.7981
  1.6969  1.6969  0.8153  0.8153  0.2227  0.5269  0.5269  0.4412  0.4412

 Free energy of the ion-electron system (eV)
  ---------------------------------------------------
  alpha Z        PSCENC =      1915.67052055
  Ewald energy   TEWEN  =    -48532.20919391
  -Hartree energ DENC   =    -28982.03207262
  -exchange      EXHF   =         0.00000000
  -V(xc)+E(xc)   XCENC  =      3297.08571866
  PAW double counting   =     81676.47193904   -84391.61299992
  entropy T*S    EENTRO =        -0.00000000
  eigenvalues    EBANDS =    -11331.77038215
  atomic energy  EATOM  =     85731.96378919
  Solvation  Ediel_sol  =         0.00000000
  ---------------------------------------------------
  free energy    TOTEN  =      -616.43268115 eV

  energy without entropy =     -616.43268115  energy(sigma->0) =     -616.43268115


--------------------------------------------------------------------------------------------------------




--------------------------------------- Iteration      1(  15)  ---------------------------------------


    POTLOK:  cpu time    0.4776: real time    0.4796
    SETDIJ:  cpu time    1.4757: real time    1.4856
     EDDAV:  cpu time  239.3282: real time  241.6862
       DOS:  cpu time    0.0027: real time    0.0028
    CHARGE:  cpu time    5.4896: real time    5.5892
    MIXING:  cpu time    0.0328: real time    0.0335
    --------------------------------------------
      LOOP:  cpu time  246.8065: real time  249.2765

 eigenvalue-minimisations  : 36040
 total energy-change (2. order) : 0.1461665E-03  (-0.4293345E-05)
 number of electron     768.0000015 magnetization      96.0000485
 augmentation part      245.5293475 magnetization      63.0108009

 Broyden mixing:
  rms(total) = 0.18929E-01    rms(broyden)= 0.18928E-01
  rms(prec ) = 0.19339E-01
  weight for this iteration     100.00

 eigenvalues of (default mixing * dielectric matrix)
  average eigenvalue GAMMA=   0.9197
  2.2416  2.2416  0.9524  0.9524  0.2227  0.6051  0.6051  0.4825  0.4825  0.4110

 Free energy of the ion-electron system (eV)
  ---------------------------------------------------
  alpha Z        PSCENC =      1915.67052055
  Ewald energy   TEWEN  =    -48532.20919391
  -Hartree energ DENC   =    -28982.34976936
  -exchange      EXHF   =         0.00000000
  -V(xc)+E(xc)   XCENC  =      3297.13184284
  PAW double counting   =     81685.72258203   -84401.05803591
  entropy T*S    EENTRO =        -0.00000000
  eigenvalues    EBANDS =    -11331.30427043
  atomic energy  EATOM  =     85731.96378919
  Solvation  Ediel_sol  =         0.00000000
  ---------------------------------------------------
  free energy    TOTEN  =      -616.43253498 eV

  energy without entropy =     -616.43253498  energy(sigma->0) =     -616.43253498


--------------------------------------------------------------------------------------------------------




--------------------------------------- Iteration      1(  16)  ---------------------------------------


    POTLOK:  cpu time    0.4869: real time    0.4914
    SETDIJ:  cpu time    1.4408: real time    1.4561
     EDDAV:  cpu time  269.3039: real time  271.3809
       DOS:  cpu time    0.0019: real time    0.0019
    CHARGE:  cpu time    5.7034: real time    5.7427
    MIXING:  cpu time    0.0378: real time    0.0470
    --------------------------------------------
      LOOP:  cpu time  276.9748: real time  279.1201

 eigenvalue-minimisations  : 42016
 total energy-change (2. order) : 0.1270230E-03  (-0.8575608E-05)
 number of electron     768.0000015 magnetization      96.0000143
 augmentation part      245.5340189 magnetization      63.0103617

 Broyden mixing:
  rms(total) = 0.92804E-02    rms(broyden)= 0.92793E-02
  rms(prec ) = 0.95321E-02
  weight for this iteration     100.00

 eigenvalues of (default mixing * dielectric matrix)
  average eigenvalue GAMMA=   0.9781
  2.5678  2.5678  1.0346  1.0346  0.2227  0.6872  0.6872  0.5210  0.5210  0.4925
  0.4228

 Free energy of the ion-electron system (eV)
  ---------------------------------------------------
  alpha Z        PSCENC =      1915.67052055
  Ewald energy   TEWEN  =    -48532.20919391
  -Hartree energ DENC   =    -28982.84249043
  -exchange      EXHF   =         0.00000000
  -V(xc)+E(xc)   XCENC  =      3297.19688929
  PAW double counting   =     81699.22805215   -84414.80629809
  entropy T*S    EENTRO =        -0.00000000
  eigenvalues    EBANDS =    -11330.63367672
  atomic energy  EATOM  =     85731.96378919
  Solvation  Ediel_sol  =         0.00000000
  ---------------------------------------------------
  free energy    TOTEN  =      -616.43240796 eV

  energy without entropy =     -616.43240796  energy(sigma->0) =     -616.43240796


--------------------------------------------------------------------------------------------------------




--------------------------------------- Iteration      1(  17)  ---------------------------------------


    POTLOK:  cpu time    0.5140: real time    0.5336
    SETDIJ:  cpu time    1.4043: real time    1.4524
     EDDAV:  cpu time  306.4120: real time  308.9804
       DOS:  cpu time    0.0023: real time    0.0023
    CHARGE:  cpu time    5.7284: real time    5.7322
    MIXING:  cpu time    0.0343: real time    0.0343
    --------------------------------------------
      LOOP:  cpu time  314.0952: real time  316.7352

 eigenvalue-minimisations  : 49312
 total energy-change (2. order) : 0.3205075E-04  (-0.1023089E-04)
 number of electron     768.0000015 magnetization      96.0000085
 augmentation part      245.5390840 magnetization      63.0106244

 Broyden mixing:
  rms(total) = 0.37006E-02    rms(broyden)= 0.36976E-02
  rms(prec ) = 0.38418E-02
  weight for this iteration     100.00

 eigenvalues of (default mixing * dielectric matrix)
  average eigenvalue GAMMA=   0.9450
  2.5959  2.5959  1.0495  1.0495  0.2227  0.7034  0.7034  0.5359  0.5359  0.4837
  0.4837  0.3808

 Free energy of the ion-electron system (eV)
  ---------------------------------------------------
  alpha Z        PSCENC =      1915.67052055
  Ewald energy   TEWEN  =    -48532.20919391
  -Hartree energ DENC   =    -28983.12926699
  -exchange      EXHF   =         0.00000000
  -V(xc)+E(xc)   XCENC  =      3297.23547781
  PAW double counting   =     81707.62821107   -84423.36840197
  entropy T*S    EENTRO =        -0.00000000
  eigenvalues    EBANDS =    -11330.22351166
  atomic energy  EATOM  =     85731.96378919
  Solvation  Ediel_sol  =         0.00000000
  ---------------------------------------------------
  free energy    TOTEN  =      -616.43237591 eV

  energy without entropy =     -616.43237591  energy(sigma->0) =     -616.43237591


--------------------------------------------------------------------------------------------------------




--------------------------------------- Iteration      1(  18)  ---------------------------------------


    POTLOK:  cpu time    0.4782: real time    0.4790
    SETDIJ:  cpu time    1.4158: real time    1.4679
     EDDAV:  cpu time  256.5908: real time  258.7604
       DOS:  cpu time    0.0019: real time    0.0020
    CHARGE:  cpu time    5.5777: real time    5.6700
    MIXING:  cpu time    0.0299: real time    0.0334
    --------------------------------------------
      LOOP:  cpu time  264.0945: real time  266.4128

 eigenvalue-minimisations  : 39840
 total energy-change (2. order) : 0.1009583E-05  (-0.1845509E-05)
 number of electron     768.0000015 magnetization      96.0000075
 augmentation part      245.5408253 magnetization      63.0105662

 Broyden mixing:
  rms(total) = 0.27820E-02    rms(broyden)= 0.27786E-02
  rms(prec ) = 0.28987E-02
  weight for this iteration     100.00

 eigenvalues of (default mixing * dielectric matrix)
  average eigenvalue GAMMA=   0.9059
  2.5906  2.5906  1.0456  1.0456  0.2227  0.6733  0.6733  0.5322  0.5322  0.4882
  0.4882  0.4712  0.4224

 Free energy of the ion-electron system (eV)
  ---------------------------------------------------
  alpha Z        PSCENC =      1915.67052055
  Ewald energy   TEWEN  =    -48532.20919391
  -Hartree energ DENC   =    -28983.17017666
  -exchange      EXHF   =         0.00000000
  -V(xc)+E(xc)   XCENC  =      3297.24150950
  PAW double counting   =     81709.10704640   -84424.87625446
  entropy T*S    EENTRO =        -0.00000000
  eigenvalues    EBANDS =    -11330.15961552
  atomic energy  EATOM  =     85731.96378919
  Solvation  Ediel_sol  =         0.00000000
  ---------------------------------------------------
  free energy    TOTEN  =      -616.43237490 eV

  energy without entropy =     -616.43237490  energy(sigma->0) =     -616.43237490


--------------------------------------------------------------------------------------------------------




--------------------------------------- Iteration      1(  19)  ---------------------------------------


    POTLOK:  cpu time    0.4806: real time    0.4887
    SETDIJ:  cpu time    1.4318: real time    1.4686
     EDDAV:  cpu time  179.7865: real time  181.9102
       DOS:  cpu time    0.0020: real time    0.0020
    --------------------------------------------
      LOOP:  cpu time  181.7008: real time  183.8695

 eigenvalue-minimisations  : 24424
 total energy-change (2. order) :-0.3497116E-06  (-0.9602790E-07)
 number of electron     768.0000015 magnetization      96.0000075
 augmentation part      245.5408253 magnetization      63.0105662

 Free energy of the ion-electron system (eV)
  ---------------------------------------------------
  alpha Z        PSCENC =      1915.67052055
  Ewald energy   TEWEN  =    -48532.20919391
  -Hartree energ DENC   =    -28983.17791539
  -exchange      EXHF   =         0.00000000
  -V(xc)+E(xc)   XCENC  =      3297.24234987
  PAW double counting   =     81709.32727622   -84425.10206238
  entropy T*S    EENTRO =        -0.00000000
  eigenvalues    EBANDS =    -11330.14713941
  atomic energy  EATOM  =     85731.96378919
  Solvation  Ediel_sol  =         0.00000000
  ---------------------------------------------------
  free energy    TOTEN  =      -616.43237525 eV

  energy without entropy =     -616.43237525  energy(sigma->0) =     -616.43237525


--------------------------------------------------------------------------------------------------------




 average (electrostatic) potential at core
  the test charge radii are     0.7079  0.7215  0.9698  0.9500
  (the norm of the test charge is              1.0000)
       1 -59.3958       2 -59.3956       3 -59.3929       4 -59.3924       5 -59.3925
       6 -59.3926       7 -59.3933       8 -59.3934       9 -59.3932      10 -59.3926
      11 -59.3927      12 -59.3927      13 -59.3909      14 -59.3906      15 -59.3927
      16 -59.3935      17 -59.3935      18 -59.3931      19 -59.3923      20 -59.3923
      21 -59.3924      22 -59.3930      23 -59.3931      24 -59.3929      25 -59.5964
      26 -59.5943      27 -59.5942      28 -59.5947      29 -59.5950      30 -59.5950
      31 -59.5946      32 -59.5948      33 -59.5945      34 -59.5948      35 -59.5949
      36 -59.5948      37 -59.5987      38 -59.5955      39 -59.5955      40 -59.5913
      41 -59.5943      42 -59.5944      43 -59.5952      44 -59.5953      45 -59.5950
      46 -59.5944      47 -59.5947      48 -59.5943      49 -70.1834      50 -70.1770
      51 -70.1770      52 -70.1762      53 -70.1766      54 -70.1766      55 -70.1774
      56 -70.1775      57 -70.1776      58 -70.1767      59 -70.1768      60 -70.1768
      61 -70.1724      62 -70.1768      63 -70.1769      64 -70.1775      65 -70.1773
      66 -70.1773      67 -70.1766      68 -70.1763      69 -70.1763      70 -70.1775
      71 -70.1770      72 -70.1771      73 -86.0061      74 -86.0062      75 -86.0045
      76 -86.0036      77 -86.0036      78 -86.0040      79 -86.0046      80 -86.0046
      81 -86.0041      82 -86.0037      83 -86.0038      84 -86.0038      85 -86.0019
      86 -86.0019      87 -86.0034      88 -86.0047      89 -86.0047      90 -86.0042
      91 -86.0037      92 -86.0037      93 -86.0040      94 -86.0044      95 -86.0044
      96 -86.0043      97 -79.0569      98 -79.0575      99 -79.0575     100 -79.0603
     101 -79.0587     102 -79.0586     103 -79.0572     104 -79.0583     105 -79.0583
     106 -79.0591     107 -79.0591     108 -79.0591     109 -79.0583     110 -79.0590
     111 -79.0591     112 -79.0584     113 -79.0584     114 -79.0584     115 -79.0595
     116 -79.0580     117 -79.0581     118 -79.0584     119 -79.0584     120 -79.0584
 
 
 
 E-fermi :   4.4030     XC(G=0): -10.1825     alpha+bet :-12.6708


 spin component 1

 k-point     1 :       0.0000    0.0000    0.0000
  band No.  band energies     occupation 
      1     -51.4826      1.00000
      2     -51.4823      1.00000
      3     -51.4822      1.00000
      4     -51.4817      1.00000
      5     -51.4817      1.00000
      6     -51.4817      1.00000
      7     -51.4670      1.00000
      8     -51.4667      1.00000
      9     -51.4666      1.00000
     10     -51.4666      1.00000
     11     -51.4666      1.00000
     12     -51.4665      1.00000
     13     -51.4661      1.00000
     14     -51.4661      1.00000
     15     -51.4661      1.00000
     16     -51.4660      1.00000
     17     -51.4660      1.00000
     18     -51.4659      1.00000
     19     -51.4512      1.00000
     20     -51.4511      1.00000
     21     -51.4510      1.00000
     22     -51.4505      1.00000
     23     -51.4505      1.00000
     24     -51.4505      1.00000
     25     -50.2021      1.00000
     26     -50.2018      1.00000
     27     -50.2017      1.00000
     28     -50.2012      1.00000
     29     -50.2010      1.00000
     30     -50.2007      1.00000
     31     -50.1992      1.00000
     32     -50.1991      1.00000
     33     -50.1990      1.00000
     34     -50.1989      1.00000
     35     -50.1988      1.00000
     36     -50.1988      1.00000
     37     -50.1985      1.00000
     38     -50.1984      1.00000
     39     -50.1982      1.00000
     40     -50.1981      1.00000
     41     -50.1980      1.00000
     42     -50.1978      1.00000
     43     -50.1963      1.00000
     44     -50.1961      1.00000
     45     -50.1958      1.00000
     46     -50.1957      1.00000
     47     -50.1954      1.00000
     48     -50.1951      1.00000
     49     -50.0071      1.00000
     50     -50.0071      1.00000
     51     -50.0070      1.00000
     52     -50.0066      1.00000
     53     -50.0065      1.00000
     54     -50.0065      1.00000
     55     -49.9910      1.00000
     56     -49.9908      1.00000
     57     -49.9908      1.00000
     58     -49.9908      1.00000
     59     -49.9907      1.00000
     60     -49.9906      1.00000
     61     -49.9905      1.00000
     62     -49.9903      1.00000
     63     -49.9903      1.00000
     64     -49.9903      1.00000
     65     -49.9902      1.00000
     66     -49.9901      1.00000
     67     -49.9743      1.00000
     68     -49.9743      1.00000
     69     -49.9742      1.00000
     70     -49.9738      1.00000
     71     -49.9737      1.00000
     72     -49.9737      1.00000
     73     -40.5259      1.00000
     74     -40.5253      1.00000
     75     -40.5235      1.00000
     76     -40.5228      1.00000
     77     -40.5227      1.00000
     78     -40.5226      1.00000
     79     -40.5163      1.00000
     80     -40.5161      1.00000
     81     -40.5161      1.00000
     82     -40.5160      1.00000
     83     -40.5149      1.00000
     84     -40.5147      1.00000
     85     -40.5147      1.00000
     86     -40.5147      1.00000
     87     -40.5145      1.00000
     88     -40.5144      1.00000
     89     -40.5144      1.00000
     90     -40.5144      1.00000
     91     -40.5067      1.00000
     92     -40.5065      1.00000
     93     -40.5064      1.00000
     94     -40.5063      1.00000
     95     -40.5062      1.00000
     96     -40.5060      1.00000
     97     -40.3103      1.00000
     98     -40.3100      1.00000
     99     -40.3083      1.00000
    100     -40.3081      1.00000
    101     -40.3080      1.00000
    102     -40.3078      1.00000
    103     -40.3077      1.00000
    104     -40.3077      1.00000
    105     -40.3076      1.00000
    106     -40.3074      1.00000
    107     -40.3071      1.00000
    108     -40.3071      1.00000
    109     -40.3071      1.00000
    110     -40.3070      1.00000
    111     -40.3070      1.00000
    112     -40.3070      1.00000
    113     -40.3069      1.00000
    114     -40.3069      1.00000
    115     -40.3068      1.00000
    116     -40.3067      1.00000
    117     -40.3063      1.00000
    118     -40.3056      1.00000
    119     -40.3053      1.00000
    120     -40.3047      1.00000
    121     -13.5428      1.00000
    122     -13.5425      1.00000
    123     -13.5129      1.00000
    124     -13.5120      1.00000
    125     -13.5111      1.00000
    126     -13.4891      1.00000
    127     -13.3766      1.00000
    128     -13.3745      1.00000
    129     -13.3743      1.00000
    130     -13.3739      1.00000
    131     -13.3737      1.00000
    132     -13.3731      1.00000
    133     -13.3730      1.00000
    134     -13.3718      1.00000
    135     -13.3412      1.00000
    136     -13.3400      1.00000
    137     -13.3375      1.00000
    138     -13.3363      1.00000
    139     -13.2388      1.00000
    140     -13.2385      1.00000
    141     -13.2022      1.00000
    142     -13.2018      1.00000
    143     -13.1975      1.00000
[...]
   0.148E+00 0.306E+02 -.266E+03   -.157E+00 -.320E+02 0.274E+03   0.782E-02 0.140E+01 -.824E+01   -.703E-04 0.238E-03 -.748E-03
   0.166E+00 0.305E+02 -.266E+03   -.175E+00 -.319E+02 0.274E+03   0.895E-02 0.140E+01 -.824E+01   0.145E-04 0.207E-03 -.777E-03
   0.159E+00 0.305E+02 -.266E+03   -.167E+00 -.319E+02 0.274E+03   0.828E-02 0.140E+01 -.824E+01   0.422E-04 0.211E-03 -.785E-03
   0.174E+00 0.305E+02 -.266E+03   -.184E+00 -.319E+02 0.274E+03   0.946E-02 0.140E+01 -.824E+01   -.460E-04 0.237E-03 -.822E-03
   0.167E+00 0.306E+02 -.266E+03   -.176E+00 -.320E+02 0.274E+03   0.897E-02 0.140E+01 -.824E+01   0.270E-04 0.239E-03 -.781E-03
   0.170E+00 0.305E+02 -.266E+03   -.180E+00 -.319E+02 0.274E+03   0.105E-01 0.140E+01 -.824E+01   0.214E-04 0.147E-03 -.761E-03
   0.163E+00 0.305E+02 -.266E+03   -.171E+00 -.319E+02 0.274E+03   0.733E-02 0.140E+01 -.824E+01   -.704E-04 0.155E-03 -.689E-03
   0.167E+00 0.305E+02 -.266E+03   -.175E+00 -.319E+02 0.274E+03   0.897E-02 0.140E+01 -.824E+01   -.253E-04 0.555E-04 -.773E-03
   0.164E+00 0.305E+02 -.266E+03   -.172E+00 -.319E+02 0.274E+03   0.850E-02 0.140E+01 -.824E+01   0.698E-04 0.248E-03 -.787E-03
   0.169E+00 0.305E+02 -.266E+03   -.179E+00 -.319E+02 0.274E+03   0.924E-02 0.140E+01 -.824E+01   -.289E-04 0.220E-03 -.754E-03
   -.346E-01 -.245E+02 -.149E+03   0.347E-01 0.251E+02 0.150E+03   0.198E-02 -.547E+00 -.114E+01   -.800E-04 -.238E-04 -.205E-03
   -.207E+00 -.245E+02 -.149E+03   0.213E+00 0.251E+02 0.150E+03   -.803E-02 -.547E+00 -.114E+01   0.838E-04 -.204E-04 -.276E-03
   -.121E+00 -.245E+02 -.149E+03   0.124E+00 0.251E+02 0.150E+03   -.298E-02 -.545E+00 -.114E+01   0.444E-05 -.391E-04 -.235E-03
   -.142E+00 -.246E+02 -.149E+03   0.146E+00 0.251E+02 0.150E+03   -.391E-02 -.547E+00 -.114E+01   -.143E-04 -.615E-05 -.152E-03
   -.995E-01 -.246E+02 -.149E+03   0.102E+00 0.251E+02 0.150E+03   -.218E-02 -.547E+00 -.114E+01   -.229E-04 -.461E-04 -.169E-03
   -.121E+00 -.245E+02 -.149E+03   0.124E+00 0.251E+02 0.150E+03   -.297E-02 -.546E+00 -.114E+01   0.485E-04 -.444E-04 -.188E-03
   -.111E+00 -.245E+02 -.149E+03   0.113E+00 0.251E+02 0.150E+03   -.135E-02 -.544E+00 -.115E+01   0.787E-05 0.334E-04 -.178E-03
   -.131E+00 -.245E+02 -.149E+03   0.135E+00 0.251E+02 0.150E+03   -.465E-02 -.544E+00 -.115E+01   -.455E-04 0.165E-04 -.168E-03
   -.121E+00 -.245E+02 -.149E+03   0.124E+00 0.251E+02 0.150E+03   -.303E-02 -.545E+00 -.114E+01   0.288E-04 0.325E-04 -.180E-03
   -.127E+00 -.245E+02 -.149E+03   0.130E+00 0.251E+02 0.150E+03   -.308E-02 -.547E+00 -.114E+01   -.677E-04 -.586E-04 -.138E-03
   -.114E+00 -.245E+02 -.149E+03   0.117E+00 0.251E+02 0.150E+03   -.295E-02 -.547E+00 -.114E+01   0.370E-04 -.368E-04 -.183E-03
   -.121E+00 -.245E+02 -.149E+03   0.124E+00 0.251E+02 0.150E+03   -.301E-02 -.546E+00 -.114E+01   0.385E-04 -.784E-04 -.146E-03
   -.275E+00 -.245E+02 0.149E+03   0.279E+00 0.250E+02 -.150E+03   -.343E-02 -.538E+00 0.115E+01   0.319E-04 -.688E-04 0.937E-04
   0.338E-01 -.245E+02 0.149E+03   -.325E-01 0.250E+02 -.150E+03   -.255E-02 -.538E+00 0.115E+01   -.112E-03 -.134E-04 0.111E-03
   -.121E+00 -.245E+02 0.149E+03   0.124E+00 0.250E+02 -.150E+03   -.305E-02 -.545E+00 0.114E+01   0.441E-04 -.576E-04 0.163E-03
   -.106E+00 -.246E+02 0.149E+03   0.109E+00 0.251E+02 -.150E+03   -.186E-02 -.548E+00 0.114E+01   -.384E-05 -.170E-04 0.224E-03
   -.135E+00 -.246E+02 0.149E+03   0.139E+00 0.251E+02 -.150E+03   -.422E-02 -.548E+00 0.114E+01   -.322E-05 -.510E-04 0.209E-03
   -.121E+00 -.245E+02 0.149E+03   0.124E+00 0.251E+02 -.150E+03   -.299E-02 -.546E+00 0.114E+01   -.712E-05 -.134E-05 0.203E-03
   -.126E+00 -.245E+02 0.149E+03   0.129E+00 0.250E+02 -.150E+03   -.418E-02 -.545E+00 0.114E+01   -.525E-04 -.568E-04 0.187E-03
   -.116E+00 -.245E+02 0.149E+03   0.118E+00 0.250E+02 -.150E+03   -.189E-02 -.545E+00 0.114E+01   0.241E-05 -.261E-04 0.171E-03
   -.121E+00 -.245E+02 0.149E+03   0.124E+00 0.251E+02 -.150E+03   -.297E-02 -.545E+00 0.114E+01   0.376E-04 -.544E-04 0.200E-03
   -.118E+00 -.245E+02 0.149E+03   0.120E+00 0.251E+02 -.150E+03   -.302E-02 -.547E+00 0.114E+01   -.978E-05 -.548E-04 0.193E-03
   -.124E+00 -.245E+02 0.149E+03   0.127E+00 0.251E+02 -.150E+03   -.302E-02 -.547E+00 0.114E+01   -.976E-05 -.502E-04 0.202E-03
   -.121E+00 -.245E+02 0.149E+03   0.124E+00 0.251E+02 -.150E+03   -.300E-02 -.546E+00 0.114E+01   0.217E-04 0.681E-06 0.179E-03
   -.784E-01 -.161E+02 0.824E+02   0.836E-01 0.172E+02 -.836E+02   -.525E-02 -.115E+01 0.122E+01   -.280E-04 0.418E-03 -.473E-03
   -.444E-01 -.159E+02 0.822E+02   0.444E-01 0.171E+02 -.834E+02   -.993E-03 -.115E+01 0.122E+01   0.143E-03 0.101E-03 -.388E-03
   -.111E+00 -.159E+02 0.822E+02   0.122E+00 0.171E+02 -.834E+02   -.986E-02 -.115E+01 0.122E+01   -.224E-03 0.135E-03 -.502E-03
   -.784E-01 -.161E+02 0.821E+02   0.837E-01 0.172E+02 -.833E+02   -.532E-02 -.116E+01 0.121E+01   0.134E-04 0.621E-03 0.262E-04
   -.107E+00 -.160E+02 0.821E+02   0.114E+00 0.171E+02 -.834E+02   -.650E-02 -.114E+01 0.122E+01   0.158E-03 0.325E-03 -.416E-03
   -.488E-01 -.160E+02 0.821E+02   0.528E-01 0.171E+02 -.834E+02   -.428E-02 -.114E+01 0.122E+01   -.273E-03 0.282E-03 -.350E-03
   -.779E-01 -.160E+02 0.821E+02   0.832E-01 0.171E+02 -.833E+02   -.525E-02 -.115E+01 0.121E+01   -.574E-04 0.573E-03 0.591E-04
   -.558E-01 -.159E+02 0.821E+02   0.600E-01 0.171E+02 -.834E+02   -.483E-02 -.114E+01 0.122E+01   0.261E-03 0.277E-03 -.460E-03
   -.100E+00 -.159E+02 0.821E+02   0.106E+00 0.171E+02 -.834E+02   -.604E-02 -.114E+01 0.122E+01   -.257E-03 0.132E-03 -.417E-03
   -.782E-01 -.160E+02 0.822E+02   0.833E-01 0.171E+02 -.835E+02   -.525E-02 -.114E+01 0.122E+01   0.189E-04 0.290E-03 -.377E-03
   -.945E-01 -.160E+02 0.822E+02   0.102E+00 0.171E+02 -.834E+02   -.765E-02 -.115E+01 0.122E+01   0.984E-04 0.220E-03 -.327E-03
   -.614E-01 -.160E+02 0.822E+02   0.639E-01 0.171E+02 -.834E+02   -.323E-02 -.115E+01 0.122E+01   -.152E-03 0.264E-03 -.430E-03
   -.769E-01 -.157E+02 -.820E+02   0.820E-01 0.169E+02 0.833E+02   -.515E-02 -.113E+01 -.122E+01   -.136E-04 -.825E-04 0.565E-03
   -.851E-01 -.159E+02 -.822E+02   0.938E-01 0.170E+02 0.834E+02   -.853E-02 -.114E+01 -.122E+01   0.121E-03 0.346E-03 0.392E-03
   -.703E-01 -.159E+02 -.822E+02   0.719E-01 0.170E+02 0.834E+02   -.224E-02 -.114E+01 -.122E+01   -.260E-03 0.350E-03 0.383E-03
   -.783E-01 -.160E+02 -.822E+02   0.835E-01 0.172E+02 0.834E+02   -.525E-02 -.115E+01 -.122E+01   -.185E-04 0.372E-04 0.561E-03
   -.742E-01 -.160E+02 -.822E+02   0.781E-01 0.171E+02 0.834E+02   -.448E-02 -.115E+01 -.122E+01   0.194E-03 0.885E-04 0.423E-03
   -.819E-01 -.160E+02 -.822E+02   0.884E-01 0.171E+02 0.834E+02   -.634E-02 -.115E+01 -.122E+01   -.293E-03 0.209E-03 0.380E-03
   -.769E-01 -.157E+02 -.823E+02   0.819E-01 0.169E+02 0.835E+02   -.516E-02 -.113E+01 -.123E+01   0.115E-04 0.555E-04 0.883E-03
   -.910E-01 -.159E+02 -.822E+02   0.942E-01 0.170E+02 0.834E+02   -.391E-02 -.114E+01 -.122E+01   0.983E-04 0.393E-03 0.398E-03
   -.644E-01 -.159E+02 -.822E+02   0.715E-01 0.170E+02 0.834E+02   -.689E-02 -.114E+01 -.122E+01   -.202E-03 0.307E-03 0.339E-03
   -.782E-01 -.160E+02 -.821E+02   0.835E-01 0.172E+02 0.834E+02   -.521E-02 -.115E+01 -.122E+01   -.117E-03 0.237E-04 0.470E-03
   -.723E-01 -.160E+02 -.822E+02   0.780E-01 0.171E+02 0.834E+02   -.595E-02 -.115E+01 -.122E+01   0.195E-03 0.152E-03 0.482E-03
   -.838E-01 -.160E+02 -.822E+02   0.885E-01 0.171E+02 0.834E+02   -.494E-02 -.115E+01 -.122E+01   -.178E-03 0.233E-03 0.441E-03
 -----------------------------------------------------------------------------------------------
   -.808E-01 -.185E+01 0.140E+00   0.359E-13 0.316E-12 0.284E-12   0.810E-01 0.184E+01 -.142E+00   -.888E-03 0.101E-01 0.171E-02
 
 
 POSITION                                       TOTAL-FORCE (eV/Angst)
 -----------------------------------------------------------------------------------
      0.43553      4.06770      3.99103        -0.004427      0.001279      0.001965
      4.34744      4.04855      3.99103         0.006590      0.001227      0.001979
      8.25935      4.02941      3.99103        -0.000256     -0.000179      0.000050
      0.46293      9.67687      3.99103         0.000307      0.000497     -0.000141
      4.37484      9.65772      3.99103         0.001854      0.000491     -0.000125
      8.28675      9.63857      3.99103        -0.000263      0.000114     -0.000011
      0.43553      4.06770      9.58884         0.000235     -0.000231     -0.000369
      4.34744      4.04855      9.58884         0.001904     -0.000234     -0.000353
      8.25935      4.02941      9.58884        -0.000248     -0.000086     -0.000168
      0.46293      9.67687      9.58884         0.000180      0.000090     -0.000056
      4.37484      9.65772      9.58884         0.001967      0.000084     -0.000042
      8.28675      9.63857      9.58884        -0.000251      0.000032     -0.000106
      0.42183      1.26312      1.60678         0.003220      0.000081      0.002150
      4.33373      1.24397      1.60678        -0.001076      0.000103      0.002138
      8.24564      1.22482      1.60678        -0.000250     -0.000125      0.000206
      0.44923      6.87229      1.60678         0.000076      0.000449      0.000037
      4.36114      6.85314      1.60678         0.002078      0.000442      0.000023
      8.27305      6.83399      1.60678        -0.000253      0.000068      0.000100
      0.42183      1.26312      7.20459        -0.000023     -0.000165     -0.000330
      4.33373      1.24397      7.20459         0.002163     -0.000173     -0.000346
      8.24564      1.22482      7.20459        -0.000248     -0.000066     -0.000063
      0.44923      6.87229      7.20459         0.000018      0.000092      0.000142
      4.36114      6.85314      7.20459         0.002121      0.000084      0.000125
      8.27305      6.83399      7.20459        -0.000245      0.000001      0.000022
      2.38378      2.45499      3.05038        -0.000306     -0.030872     -0.013681
      6.29564      2.42584      3.05038        -0.000363     -0.000519      0.000487
     10.20755      2.40669      3.05038        -0.000036     -0.000533      0.000475
      2.41113      8.05416      3.05038        -0.000147      0.000609     -0.000060
      6.32304      8.03501      3.05038        -0.000103      0.000365     -0.000107
     10.23495      8.01586      3.05038        -0.000289      0.000358     -0.000119
      2.38373      2.44499      8.64819        -0.000153     -0.000160     -0.000013
      6.29564      2.42584      8.64819        -0.000183     -0.000256     -0.000209
     10.20755      2.40669      8.64819        -0.000210     -0.000256     -0.000196
      2.41113      8.05416      8.64819        -0.000151      0.000386     -0.000087
      6.32304      8.03501      8.64819        -0.000170      0.000282     -0.000169
     10.23495      8.01586      8.64819        -0.000220      0.000270     -0.000159
      2.39743      5.24957      2.54743        -0.000118      0.005870     -0.001436
      6.30934      5.23042      2.54743         0.000151      0.000273      0.000371
     10.22125      5.21128      2.54743        -0.000547      0.000279      0.000379
      2.42483     10.85874      2.54743        -0.000122      0.005767      0.001210
      6.33674     10.83959      2.54743        -0.000400      0.000275      0.000292
     10.24865     10.82044      2.54743         0.000007      0.000275      0.000288
      2.39743      5.24957      8.14524        -0.000152      0.000105      0.000186
      6.30934      5.23042      8.14524        -0.000053      0.000206     -0.000026
     10.22125      5.21128      8.14524        -0.000337      0.000208     -0.000042
      2.42483     10.85874      8.14524        -0.000151      0.000102      0.000068
      6.33674     10.83959      8.14524        -0.000232      0.000205     -0.000025
     10.24865     10.82044      8.14524        -0.000157      0.000206     -0.000041
      2.39183      4.11329      4.18453         0.000039      0.007736     -0.000930
      6.30374      4.09414      4.18453        -0.000260      0.000715     -0.000452
     10.21565      4.07499      4.18453         0.000033      0.000674     -0.000463
      2.41924      9.72245      4.18453         0.000002     -0.001423      0.000192
      6.33115      9.70331      4.18453         0.000014     -0.000808     -0.000007
     10.24306      9.68416      4.18453        -0.000263     -0.000861     -0.000037
      2.39183      4.11329      9.78234         0.000012      0.000554      0.000266
      6.30374      4.09414      9.78234        -0.000460      0.000172      0.000586
     10.21565      4.07499      9.78234         0.000221      0.000176      0.000535
      2.41924      9.72245      9.78234         0.000009     -0.000682     -0.000317
      6.33115      9.70331      9.78234         0.000062     -0.000259      0.000034
     10.24306      9.68416      9.78234        -0.000308     -0.000260     -0.000027
      2.37813      1.30870      1.41328         0.000028      0.007234     -0.000323
      6.29004      1.28956      1.41328         0.000231      0.000582     -0.000486
     10.20195      1.27041      1.41328        -0.000449      0.000545     -0.000467
      2.40554      6.91787      1.41328         0.000001     -0.001105      0.000328
      6.31744      6.89872      1.41328        -0.000196     -0.000813     -0.000072
     10.22935      6.87958      1.41328        -0.000051     -0.000848     -0.000036
      2.37813      1.30870      7.01109         0.000009      0.000757      0.000488
      6.29004      1.28956      7.01109         0.000448      0.000136      0.000797
     10.20195      1.27041      7.01109        -0.000682      0.000153      0.000869
      2.40554      6.91787      7.01109         0.000008     -0.000917     -0.000424
      6.31744      6.89872      7.01109        -0.000144     -0.000298     -0.000059
     10.22935      6.87958      7.01109        -0.000101     -0.000275      0.000013
      0.43605      4.15009      1.34677         0.001934      0.000024      0.002163
      4.34796      4.13094      1.34677        -0.002272      0.000034      0.002160
      8.25987      4.11179      1.34677        -0.000156      0.000130     -0.000186
      0.46346      9.75926      1.34677        -0.000628     -0.000827     -0.000276
      4.37537      9.74011      1.34677         0.000275     -0.000841     -0.000281
      8.28728      9.72096      1.34677        -0.000158     -0.000187     -0.000102
      0.43605      4.15009      6.94458         0.000674      0.000431     -0.000615
      4.34796      4.13094      6.94458        -0.001004      0.000445     -0.000617
      8.25987      4.11179      6.94458        -0.000158      0.000265      0.000171
      0.46346      9.75926      6.94458        -0.000212     -0.000508      0.000135
      4.37537      9.74011      6.94458        -0.000124     -0.000506      0.000137
      8.28728      9.72096      6.94458        -0.000162     -0.000316      0.000072
      0.42235      1.34551      4.25104         0.001057      0.002780     -0.000001
      4.33426      1.32636      4.25104        -0.001372      0.002779      0.000006
      8.24617      1.30721      4.25104        -0.000157      0.000097     -0.000139
      0.44976      6.95467      4.25104         0.000427     -0.000997     -0.000127
      4.36166      6.93553      4.25104        -0.000775     -0.001002     -0.000122
      8.27357      6.91638      4.25104        -0.000161     -0.000151     -0.000038
      0.42235      1.34551      9.84885        -0.000730      0.000349     -0.000392
      4.33426      1.32636      9.84885         0.000402      0.000342     -0.000389
      8.24617      1.30721      9.84885        -0.000162      0.000197      0.000185
      0.44976      6.95467      9.84885        -0.000182     -0.000493      0.000195
      4.36166      6.93553      9.84885        -0.000160     -0.000492      0.000196
      8.27357      6.91638      9.84885        -0.000158     -0.000304      0.000161
      2.37239      0.12585      5.37429        -0.000072      0.001158     -0.001435
      6.28430      0.10670      5.37429        -0.000827      0.001063     -0.000303
     10.19621      0.08756      5.37429         0.000291      0.001047     -0.000321
      2.39979      5.73502      5.37429        -0.000060      0.003087      0.002242
      6.31170      5.71587      5.37429         0.000050     -0.000024      0.000091
     10.22361      5.69672      5.37429        -0.000598     -0.000043      0.000067
      2.37239      0.12585     10.97210        -0.000074      0.001570      0.002093
      6.28430      0.10670     10.97210        -0.000398      0.000044      0.000058
     10.19621      0.08756     10.97210        -0.000139      0.000027      0.000085
      2.39979      5.73502     10.97210        -0.000073      0.000562     -0.000549
      6.31170      5.71587     10.97210         0.000361      0.000734     -0.000341
     10.22361      5.69672     10.97210        -0.000891      0.000722     -0.000324
      2.38609      2.93043      0.22352        -0.000101     -0.004591     -0.000570
      6.29800      2.91129      0.22352         0.000312     -0.001092     -0.000308
     10.20991      2.89214      0.22352        -0.000867     -0.001109     -0.000299
      2.41350      8.53960      0.22352        -0.000075      0.000855     -0.000142
      6.32541      8.52045      0.22352        -0.000393      0.000538      0.000001
     10.23731      8.50131      0.22352        -0.000146      0.000520      0.000013
      2.38609      2.93043      5.82133        -0.000106     -0.004308      0.004648
      6.29800      2.91129      5.82133        -0.000588     -0.001206     -0.000472
     10.20991      2.89214      5.82133         0.000036     -0.001226     -0.000513
      2.41350      8.53960      5.82133        -0.000076      0.001088     -0.000321
      6.32541      8.52045      5.82133        -0.000088      0.000567      0.000060
     10.23731      8.50131      5.82133        -0.000449      0.000565      0.000028
 -----------------------------------------------------------------------------------
    total drift:                               -0.000742      0.002409      0.000072


--------------------------------------------------------------------------------------------------------



  FREE ENERGIE OF THE ION-ELECTRON SYSTEM (eV)
  ---------------------------------------------------
  free  energy   TOTEN  =      -616.43237525 eV

  energy  without entropy=     -616.43237525  energy(sigma->0) =     -616.43237525
 


--------------------------------------------------------------------------------------------------------


    POTLOK:  cpu time    1.9900: real time    1.9914


--------------------------------------------------------------------------------------------------------


     LOOP+:  cpu time 5602.5311: real time 5654.5998
    4ORBIT:  cpu time    0.0000: real time    0.0000

 total amount of memory used by VASP MPI-rank0   801761. kBytes
=======================================================================

   base      :      30000. kBytes
   nonl-proj :      92491. kBytes
   fftplans  :      50318. kBytes
   grid      :      44712. kBytes
   one-center:        622. kBytes
   wavefun   :     583618. kBytes
 
  
  
 General timing and accounting informations for this job:
 ========================================================
  
                  Total CPU time used (sec):     5704.089
                            User time (sec):     5640.506
                          System time (sec):       63.583
                         Elapsed time (sec):     5758.921
  
                   Maximum memory used (kb):      974524.
                   Average memory used (kb):           0.
  
                          Minor page faults:       671956
                          Major page faults:            9
                 Voluntary context switches:        58543
