<?xml version="1.0" encoding="ISO-8859-1"?>
<modeling>
 <generator>
  <i name="program" type="string">vasp </i>
  <i name="version" type="string">5.4.4.18Apr17-6-g9f103f2a35  </i>
  <i name="subversion" type="string">(build Oct 25 2017 14:42:18) complex            parallel </i>
  <i name="platform" type="string">LinuxIFC </i>
  <i name="date" type="string">2021 04 16 </i>
  <i name="time" type="string">14:03:57 </i>
 </generator>
 <incar>
  <i type="string" name="PREC">accurate</i>
  <i type="string" name="ALGO"> normal</i>
  <i type="logical" name="ADDGRID"> T  </i>
  <i type="int" name="ISPIN">     2</i>
  <i type="int" name="ICHARG">     1</i>
  <i type="int" name="NELM">   200</i>
  <i type="int" name="NELMIN">     8</i>
  <i name="EDIFF">      0.00000100</i>
  <i type="int" name="ISIF">     3</i>
  <i type="int" name="ISYM">     0</i>
  <i name="ENCUT">    650.00000000</i>
  <v name="MAGMOM">      0.60000000      0.60000000      0.60000000      0.60000000      0.60000000      0.60000000      0.60000000      0.60000000      0.60000000      0.60000000      0.60000000      0.60000000      0.60000000      0.60000000      0.60000000      0.60000000      0.60000000      0.60000000      0.60000000      0.60000000
      0.60000000      0.60000000      0.60000000      0.60000000      0.60000000      0.60000000      0.60000000      0.60000000      0.60000000      0.60000000      0.60000000      0.60000000      0.60000000      0.60000000      0.60000000      0.60000000      0.60000000      0.60000000      0.60000000      0.60000000
      0.60000000      0.60000000      0.60000000      0.60000000      0.60000000      0.60000000      0.60000000      0.60000000      0.60000000      0.60000000      0.60000000      0.60000000      0.60000000      0.60000000      0.60000000      0.60000000      0.60000000      0.60000000      0.60000000      0.60000000
      0.60000000      0.60000000      0.60000000      0.60000000      0.60000000      0.60000000      0.60000000      0.60000000      0.60000000      0.60000000      0.60000000      0.60000000      0.60000000      0.60000000      0.60000000      0.60000000      0.60000000      0.60000000      0.60000000      0.60000000
      0.60000000      0.60000000      0.60000000      0.60000000      0.60000000      0.60000000      0.60000000      0.60000000      0.60000000      0.60000000      0.60000000      0.60000000      0.60000000      0.60000000      0.60000000      0.60000000      5.00000000      5.00000000      5.00000000      5.00000000
      5.00000000      5.00000000      5.00000000      5.00000000      5.00000000      5.00000000      5.00000000      5.00000000      5.00000000      5.00000000      5.00000000      5.00000000      5.00000000      5.00000000      5.00000000      5.00000000      5.00000000      5.00000000      5.00000000      5.00000000
</v>
  <i type="logical" name="LREAL"> F  </i>
  <i type="int" name="ISMEAR">     0</i>
  <i name="SIGMA">      0.05000000</i>
  <i type="int" name="NWRITE">     1</i>
  <i type="int" name="LMAXMIX">     4</i>
  <i type="logical" name="LWAVE"> F  </i>
  <i type="logical" name="LASPH"> T  </i>
  <v type="int" name="KPOINT_BSE">    -1     0     0     0</v>
  <i type="int" name="NELM">   200</i>
  <i type="string" name="GGA"> pe</i>
  <i type="logical" name="LDAU"> T  </i>
  <v type="int" name="LDAUTYPE">     2</v>
  <v type="int" name="LDAUL">    -1    -1    -1     2</v>
  <v name="LDAUU">      0.00000000      0.00000000      0.00000000      4.00000000</v>
  <v name="LDAUJ">      0.00000000      0.00000000      0.00000000      0.00000000</v>
  <i type="logical" name="LASPH"> T  </i>
 </incar>
 <structure name="primitive_cell" >
  <crystal>
   <varray name="basis" >
    <v>      11.73572724      -0.05744286       0.00000000 </v>
    <v>       0.05480788      11.21833490       0.00000000 </v>
    <v>       0.00000000       0.00000000      11.19562010 </v>
   </varray>
   <i name="volume">   1473.99817718 </i>
   <varray name="rec_basis" >
    <v>       0.08520785      -0.00041629       0.00000000 </v>
    <v>       0.00043630       0.08913766       0.00000000 </v>
    <v>       0.00000000       0.00000000       0.08932064 </v>
   </varray>
  </crystal>
  <varray name="positions" >
   <v>       0.03541706       0.36277547       0.35648149 </v>
   <v>      -0.13124269       0.36769238       0.37376509 </v>
   <v>       0.20209064       0.36769238       0.37376509 </v>
   <v>       0.03542751       0.37011947       0.12029448 </v>
   <v>       0.20209458       0.21987199       0.27246215 </v>
   <v>      -0.13123875       0.21898060       0.27246215 </v>
   <v>      -0.13123875       0.46898060       0.22753785 </v>
   <v>       0.20209458       0.46898060       0.22753785 </v>
   <v>       0.03542751       0.12011947       0.37970552 </v>
   <v>       0.03542751      -0.37988053       0.37970552 </v>
   <v>      -0.13123946       0.26225309      -0.48003463 </v>
   <v>       0.20209387       0.26225309      -0.48003463 </v>
   <v>      -0.13123946      -0.48774691       0.48003463 </v>
   <v>       0.20209387      -0.48774691       0.48003463 </v>
   <v>       0.03542751       0.37011947      -0.37970552 </v>
   <v>       0.03541706       0.11277547       0.14351851 </v>
   <v>       0.03541706      -0.38722453       0.14351851 </v>
   <v>       0.36875039       0.36277547       0.35648149 </v>
   <v>      -0.29791628       0.36277547       0.35648149 </v>
   <v>      -0.13124269       0.11769238       0.12623491 </v>
   <v>       0.20209064       0.11769238       0.12623491 </v>
   <v>       0.03541706       0.11277547      -0.35648149 </v>
   <v>       0.03541706      -0.38722453      -0.35648149 </v>
   <v>      -0.13124269      -0.38230762       0.12623491 </v>
   <v>       0.20209064      -0.38230762       0.12623491 </v>
   <v>      -0.13123946       0.26225309       0.01996537 </v>
   <v>       0.20209387       0.26225309       0.01996537 </v>
   <v>      -0.13124269       0.11769238      -0.37376509 </v>
   <v>       0.20209064       0.11769238      -0.37376509 </v>
   <v>      -0.13123875      -0.28101940       0.27246215 </v>
   <v>       0.20209458      -0.28101940       0.27246215 </v>
   <v>      -0.13124269      -0.38230762      -0.37376509 </v>
   <v>       0.20209064      -0.38230762      -0.37376509 </v>
   <v>      -0.13123946       0.01225309       0.48003463 </v>
   <v>       0.20209387       0.01225309       0.48003463 </v>
   <v>      -0.29790582       0.37011947       0.12029448 </v>
   <v>       0.36876084       0.37011947       0.12029448 </v>
   <v>      -0.13123875       0.46898060      -0.27246215 </v>
   <v>       0.20209458       0.46898060      -0.27246215 </v>
   <v>      -0.29790582       0.12011947       0.37970552 </v>
   <v>       0.36876084       0.12011947       0.37970552 </v>
   <v>      -0.29790582      -0.37988053       0.37970552 </v>
   <v>       0.36876084      -0.37988053       0.37970552 </v>
   <v>      -0.29790582       0.37011947      -0.37970552 </v>
   <v>       0.36876084       0.37011947      -0.37970552 </v>
   <v>      -0.13123946      -0.48774691      -0.01996537 </v>
   <v>       0.20209387      -0.48774691      -0.01996537 </v>
   <v>      -0.13123875      -0.03101940       0.22753785 </v>
   <v>       0.20209458      -0.03101940       0.22753785 </v>
   <v>      -0.13123946      -0.23774691      -0.48003463 </v>
   <v>       0.20209387      -0.23774691      -0.48003463 </v>
   <v>      -0.13123875       0.21898060      -0.22753785 </v>
   <v>       0.20209458       0.21898060      -0.22753785 </v>
   <v>       0.36875039      -0.38722453       0.14351851 </v>
   <v>      -0.29791628       0.11277547       0.14351851 </v>
   <v>       0.36875039       0.11277547       0.14351851 </v>
   <v>      -0.29791628      -0.38722453       0.14351851 </v>
   <v>       0.03541706       0.36277547      -0.14351851 </v>
   <v>       0.03541706      -0.13722453       0.35648149 </v>
   <v>      -0.13124269       0.36769238      -0.12623491 </v>
   <v>       0.20209064       0.36769238      -0.12623491 </v>
   <v>       0.36875039      -0.38722453      -0.35648149 </v>
   <v>      -0.29791628       0.11277547      -0.35648149 </v>
   <v>       0.36875039       0.11277547      -0.35648149 </v>
   <v>      -0.29791628      -0.38722453      -0.35648149 </v>
   <v>      -0.46457602       0.36769238       0.37376509 </v>
   <v>      -0.13124269      -0.13230762       0.37376509 </v>
   <v>       0.20209064      -0.13230762       0.37376509 </v>
   <v>       0.03542751       0.12011947      -0.12029448 </v>
   <v>       0.03542751      -0.37988053      -0.12029448 </v>
   <v>      -0.13123946       0.01225309      -0.01996537 </v>
   <v>       0.20209387       0.01225309      -0.01996537 </v>
   <v>       0.03542751      -0.12988053       0.12029448 </v>
   <v>      -0.46457208       0.21898060       0.27246215 </v>
   <v>      -0.46457208       0.46898060       0.22753785 </v>
   <v>      -0.13123946      -0.23774691       0.01996537 </v>
   <v>       0.20209387      -0.23774691       0.01996537 </v>
   <v>      -0.46457280       0.26225309      -0.48003463 </v>
   <v>      -0.46457280      -0.48774691       0.48003463 </v>
   <v>       0.03542751      -0.12988053      -0.37970552 </v>
   <v>      -0.13123875      -0.03101940      -0.27246215 </v>
   <v>       0.20209458      -0.03101940      -0.27246215 </v>
   <v>      -0.13123875      -0.28101940      -0.22753785 </v>
   <v>       0.20209458      -0.28101940      -0.22753785 </v>
   <v>       0.36875039       0.36277547      -0.14351851 </v>
   <v>      -0.29791628       0.36277547      -0.14351851 </v>
   <v>       0.36875039      -0.13722453       0.35648149 </v>
   <v>      -0.29791628      -0.13722453       0.35648149 </v>
   <v>      -0.46457602       0.11769238       0.12623491 </v>
   <v>      -0.46457602      -0.38230762       0.12623491 </v>
   <v>      -0.46457280       0.26225309       0.01996537 </v>
   <v>      -0.46457602       0.11769238      -0.37376509 </v>
   <v>      -0.29790582       0.12011947      -0.12029448 </v>
   <v>       0.36876084       0.12011947      -0.12029448 </v>
   <v>      -0.46457208      -0.28101940       0.27246215 </v>
   <v>      -0.46457602      -0.38230762      -0.37376509 </v>
   <v>      -0.46457280       0.01225309       0.48003463 </v>
   <v>      -0.29790582      -0.37988053      -0.12029448 </v>
   <v>       0.36876084      -0.37988053      -0.12029448 </v>
   <v>      -0.29790582      -0.12988053       0.12029448 </v>
   <v>       0.36876084      -0.12988053       0.12029448 </v>
   <v>      -0.46457208       0.46898060      -0.27246215 </v>
   <v>      -0.29790582      -0.12988053      -0.37970552 </v>
   <v>       0.36876084      -0.12988053      -0.37970552 </v>
   <v>      -0.46457280      -0.48774691      -0.01996537 </v>
   <v>      -0.46457208      -0.03101940       0.22753785 </v>
   <v>      -0.46457280      -0.23774691      -0.48003463 </v>
   <v>      -0.46457208       0.21898060      -0.22753785 </v>
   <v>       0.03541706      -0.13722453      -0.14351851 </v>
   <v>      -0.46457602       0.36769238      -0.12623491 </v>
   <v>      -0.13124269      -0.13230762      -0.12623491 </v>
   <v>       0.20209064      -0.13230762      -0.12623491 </v>
   <v>      -0.46457602      -0.13230762       0.37376509 </v>
   <v>      -0.46457280       0.01225309      -0.01996537 </v>
   <v>      -0.46457280      -0.23774691       0.01996537 </v>
   <v>      -0.46457208      -0.03101940      -0.27246215 </v>
   <v>      -0.46457208      -0.28101940      -0.22753785 </v>
   <v>       0.36875039      -0.13722453      -0.14351851 </v>
   <v>      -0.29791628      -0.13722453      -0.14351851 </v>
   <v>      -0.46457602      -0.13230762      -0.12623491 </v>
  </varray>
 </structure>
 <varray name="primitive_index" >
  <v type="int" >        1 </v>
  <v type="int" >       51 </v>
  <v type="int" >       49 </v>
  <v type="int" >       73 </v>
  <v type="int" >       25 </v>
  <v type="int" >       27 </v>
  <v type="int" >       39 </v>
  <v type="int" >       37 </v>
  <v type="int" >       85 </v>
  <v type="int" >       88 </v>
  <v type="int" >      117 </v>
  <v type="int" >      115 </v>
  <v type="int" >      102 </v>
  <v type="int" >      100 </v>
  <v type="int" >       79 </v>
  <v type="int" >       13 </v>
  <v type="int" >       16 </v>
  <v type="int" >        2 </v>
  <v type="int" >        3 </v>
  <v type="int" >       63 </v>
  <v type="int" >       61 </v>
  <v type="int" >       19 </v>
  <v type="int" >       22 </v>
  <v type="int" >       66 </v>
  <v type="int" >       64 </v>
  <v type="int" >      111 </v>
  <v type="int" >      109 </v>
  <v type="int" >       69 </v>
  <v type="int" >       67 </v>
  <v type="int" >       30 </v>
  <v type="int" >       28 </v>
  <v type="int" >       72 </v>
  <v type="int" >       70 </v>
  <v type="int" >       99 </v>
  <v type="int" >       97 </v>
  <v type="int" >       75 </v>
  <v type="int" >       74 </v>
  <v type="int" >       45 </v>
  <v type="int" >       43 </v>
  <v type="int" >       87 </v>
  <v type="int" >       86 </v>
  <v type="int" >       90 </v>
  <v type="int" >       89 </v>
  <v type="int" >       81 </v>
  <v type="int" >       80 </v>
  <v type="int" >      108 </v>
  <v type="int" >      106 </v>
  <v type="int" >       42 </v>
  <v type="int" >       40 </v>
  <v type="int" >      120 </v>
  <v type="int" >      118 </v>
  <v type="int" >       33 </v>
  <v type="int" >       31 </v>
  <v type="int" >       17 </v>
  <v type="int" >       15 </v>
  <v type="int" >       14 </v>
  <v type="int" >       18 </v>
  <v type="int" >        7 </v>
  <v type="int" >        4 </v>
  <v type="int" >       57 </v>
  <v type="int" >       55 </v>
  <v type="int" >       23 </v>
  <v type="int" >       21 </v>
  <v type="int" >       20 </v>
  <v type="int" >       24 </v>
  <v type="int" >       50 </v>
  <v type="int" >       54 </v>
  <v type="int" >       52 </v>
  <v type="int" >       91 </v>
  <v type="int" >       94 </v>
  <v type="int" >      105 </v>
  <v type="int" >      103 </v>
  <v type="int" >       76 </v>
  <v type="int" >       26 </v>
  <v type="int" >       38 </v>
  <v type="int" >      114 </v>
  <v type="int" >      112 </v>
  <v type="int" >      116 </v>
  <v type="int" >      101 </v>
  <v type="int" >       82 </v>
  <v type="int" >       48 </v>
  <v type="int" >       46 </v>
  <v type="int" >       36 </v>
  <v type="int" >       34 </v>
  <v type="int" >        8 </v>
  <v type="int" >        9 </v>
  <v type="int" >        5 </v>
  <v type="int" >        6 </v>
  <v type="int" >       62 </v>
  <v type="int" >       65 </v>
  <v type="int" >      110 </v>
  <v type="int" >       68 </v>
  <v type="int" >       93 </v>
  <v type="int" >       92 </v>
  <v type="int" >       29 </v>
  <v type="int" >       71 </v>
  <v type="int" >       98 </v>
  <v type="int" >       96 </v>
  <v type="int" >       95 </v>
  <v type="int" >       78 </v>
  <v type="int" >       77 </v>
  <v type="int" >       44 </v>
  <v type="int" >       84 </v>
  <v type="int" >       83 </v>
  <v type="int" >      107 </v>
  <v type="int" >       41 </v>
  <v type="int" >      119 </v>
  <v type="int" >       32 </v>
  <v type="int" >       10 </v>
  <v type="int" >       56 </v>
  <v type="int" >       60 </v>
  <v type="int" >       58 </v>
  <v type="int" >       53 </v>
  <v type="int" >      104 </v>
  <v type="int" >      113 </v>
  <v type="int" >       47 </v>
  <v type="int" >       35 </v>
  <v type="int" >       11 </v>
  <v type="int" >       12 </v>
  <v type="int" >       59 </v>
 </varray>
 <kpoints>
  <generation param="Gamma">
   <v type="int" name="divisions">       3        3        3 </v>
   <v name="usershift">      0.00000000       0.00000000       0.00000000 </v>
   <v name="genvec1">      0.33333333       0.00000000       0.00000000 </v>
   <v name="genvec2">     -0.00000000       0.33333333       0.00000000 </v>
   <v name="genvec3">      0.00000000       0.00000000       0.33333333 </v>
   <v name="shift">      0.00000000       0.00000000       0.00000000 </v>
  </generation>
  <varray name="kpointlist" >
   <v>       0.00000000       0.00000000       0.00000000 </v>
   <v>       0.33333333       0.00000000       0.00000000 </v>
   <v>       0.00000000       0.33333333       0.00000000 </v>
   <v>       0.33333333       0.33333333       0.00000000 </v>
   <v>      -0.33333333       0.33333333       0.00000000 </v>
   <v>       0.00000000       0.00000000       0.33333333 </v>
   <v>       0.33333333       0.00000000       0.33333333 </v>
   <v>      -0.33333333       0.00000000       0.33333333 </v>
   <v>       0.00000000       0.33333333       0.33333333 </v>
   <v>       0.33333333       0.33333333       0.33333333 </v>
   <v>      -0.33333333       0.33333333       0.33333333 </v>
   <v>      -0.00000000      -0.33333333       0.33333333 </v>
   <v>       0.33333333      -0.33333333       0.33333333 </v>
   <v>      -0.33333333      -0.33333333       0.33333333 </v>
  </varray>
  <varray name="weights" >
   <v>       0.03703704 </v>
   <v>       0.07407407 </v>
   <v>       0.07407407 </v>
   <v>       0.07407407 </v>
   <v>       0.07407407 </v>
   <v>       0.07407407 </v>
   <v>       0.07407407 </v>
   <v>       0.07407407 </v>
   <v>       0.07407407 </v>
   <v>       0.07407407 </v>
   <v>       0.07407407 </v>
   <v>       0.07407407 </v>
   <v>       0.07407407 </v>
   <v>       0.07407407 </v>
  </varray>
 </kpoints>
 <parameters>
  <separator name="general" >
   <i type="string" name="SYSTEM">unknown system</i>
   <i type="logical" name="LCOMPAT"> F  </i>
  </separator>
  <separator name="electronic" >
   <i type="string" name="PREC">accura</i>
   <i name="ENMAX">    650.00000000</i>
   <i name="ENAUG">    628.94500000</i>
   <i name="EDIFF">      0.00000100</i>
   <i type="int" name="IALGO">    38</i>
   <i type="int" name="IWAVPR">    10</i>
   <i type="int" name="NBANDS">   552</i>
   <i name="NELECT">    768.00000000</i>
   <i type="int" name="TURBO">     0</i>
   <i type="int" name="IRESTART">     0</i>
   <i type="int" name="NREBOOT">     0</i>
   <i type="int" name="NMIN">     0</i>
   <i name="EREF">      0.00000000</i>
   <separator name="electronic smearing" >
    <i type="int" name="ISMEAR">     0</i>
    <i name="SIGMA">      0.05000000</i>
    <i name="KSPACING">      0.50000000</i>
    <i type="logical" name="KGAMMA"> T  </i>
   </separator>
   <separator name="electronic projectors" >
    <i type="logical" name="LREAL"> F  </i>
    <v name="ROPT">      0.00000000      0.00000000      0.00000000      0.00000000</v>
    <i type="int" name="LMAXPAW">  -100</i>
    <i type="int" name="LMAXMIX">     4</i>
    <i type="logical" name="NLSPLINE"> F  </i>
   </separator>
   <separator name="electronic startup" >
    <i type="int" name="ISTART">     0</i>
    <i type="int" name="ICHARG">     1</i>
    <i type="int" name="INIWAV">     1</i>
   </separator>
   <separator name="electronic spin" >
    <i type="int" name="ISPIN">     2</i>
    <i type="logical" name="LNONCOLLINEAR"> F  </i>
    <v name="MAGMOM">      0.60000000      0.60000000      0.60000000      0.60000000      0.60000000      0.60000000      0.60000000      0.60000000      0.60000000      0.60000000      0.60000000      0.60000000      0.60000000      0.60000000      0.60000000      0.60000000      0.60000000      0.60000000      0.60000000      0.60000000
      0.60000000      0.60000000      0.60000000      0.60000000      0.60000000      0.60000000      0.60000000      0.60000000      0.60000000      0.60000000      0.60000000      0.60000000      0.60000000      0.60000000      0.60000000      0.60000000      0.60000000      0.60000000      0.60000000      0.60000000
      0.60000000      0.60000000      0.60000000      0.60000000      0.60000000      0.60000000      0.60000000      0.60000000      0.60000000      0.60000000      0.60000000      0.60000000      0.60000000      0.60000000      0.60000000      0.60000000      0.60000000      0.60000000      0.60000000      0.60000000
      0.60000000      0.60000000      0.60000000      0.60000000      0.60000000      0.60000000      0.60000000      0.60000000      0.60000000      0.60000000      0.60000000      0.60000000      0.60000000      0.60000000      0.60000000      0.60000000      0.60000000      0.60000000      0.60000000      0.60000000
      0.60000000      0.60000000      0.60000000      0.60000000      0.60000000      0.60000000      0.60000000      0.60000000      0.60000000      0.60000000      0.60000000      0.60000000      0.60000000      0.60000000      0.60000000      0.60000000      5.00000000      5.00000000      5.00000000      5.00000000
      5.00000000      5.00000000      5.00000000      5.00000000      5.00000000      5.00000000      5.00000000      5.00000000      5.00000000      5.00000000      5.00000000      5.00000000      5.00000000      5.00000000      5.00000000      5.00000000      5.00000000      5.00000000      5.00000000      5.00000000
</v>
    <i name="NUPDOWN">     -1.00000000</i>
    <i type="logical" name="LSORBIT"> F  </i>
    <v name="SAXIS">      0.00000000      0.00000000      1.00000000</v>
    <i type="logical" name="LSPIRAL"> F  </i>
    <v name="QSPIRAL">      0.00000000      0.00000000      0.00000000</v>
    <i type="logical" name="LZEROZ"> F  </i>
   </separator>
   <separator name="electronic exchange-correlation" >
    <i type="logical" name="LASPH"> T  </i>
    <i type="logical" name="LMETAGGA"> F  </i>
   </separator>
   <separator name="electronic convergence" >
    <i type="int" name="NELM">   200</i>
    <i type="int" name="NELMDL">     0</i>
    <i type="int" name="NELMIN">     8</i>
    <i name="ENINI">    650.00000000</i>
    <separator name="electronic convergence detail" >
     <i type="logical" name="LDIAG"> T  </i>
     <i type="logical" name="LSUBROT"> F  </i>
     <i name="WEIMIN">      0.00000000</i>
     <i name="EBREAK">      0.00000000</i>
     <i name="DEPER">      0.30000000</i>
     <i type="int" name="NRMM">     4</i>
     <i name="TIME">      0.40000000</i>
    </separator>
   </separator>
   <separator name="electronic mixer" >
    <i name="AMIX">      0.40000000</i>
    <i name="BMIX">      1.00000000</i>
    <i name="AMIN">      0.10000000</i>
    <i name="AMIX_MAG">      1.60000000</i>
    <i name="BMIX_MAG">      1.00000000</i>
    <separator name="electronic mixer details" >
     <i type="int" name="IMIX">     4</i>
     <i type="logical" name="MIXFIRST"> F  </i>
     <i type="int" name="MAXMIX">   -45</i>
     <i name="WC">    100.00000000</i>
     <i type="int" name="INIMIX">     1</i>
     <i type="int" name="MIXPRE">     1</i>
     <i type="int" name="MREMOVE">     5</i>
    </separator>
   </separator>
   <separator name="electronic dipolcorrection" >
    <i type="logical" name="LDIPOL"> F  </i>
    <i type="logical" name="LMONO"> F  </i>
    <i type="int" name="IDIPOL">     0</i>
    <i name="EPSILON">      1.00000000</i>
    <v name="DIPOL">   -100.00000000   -100.00000000   -100.00000000</v>
    <i name="EFIELD">      0.00000000</i>
   </separator>
  </separator>
  <separator name="grids" >
   <i type="int" name="NGX">    98</i>
   <i type="int" name="NGY">    96</i>
   <i type="int" name="NGZ">    96</i>
   <i type="int" name="NGXF">   196</i>
   <i type="int" name="NGYF">   192</i>
   <i type="int" name="NGZF">   192</i>
   <i type="logical" name="ADDGRID"> T  </i>
  </separator>
  <separator name="ionic" >
   <i type="int" name="NSW">     0</i>
   <i type="int" name="IBRION">    -1</i>
   <i type="int" name="MDALGO">     0</i>
   <i type="int" name="ISIF">     3</i>
   <i name="PSTRESS">      0.00000000</i>
   <i name="EDIFFG">      0.00001000</i>
   <i type="int" name="NFREE">     0</i>
   <i name="POTIM">      0.50000000</i>
   <i name="SMASS">     -3.00000000</i>
   <i name="SCALEE">      1.00000000</i>
  </separator>
  <separator name="ionic md" >
   <i name="TEBEG">      0.00010000</i>
   <i name="TEEND">      0.00010000</i>
   <i type="int" name="NBLOCK">     1</i>
   <i type="int" name="KBLOCK">     1</i>
   <i type="int" name="NPACO">   256</i>
   <i name="APACO">     16.00000000</i>
  </separator>
  <separator name="symmetry" >
   <i type="int" name="ISYM">     0</i>
   <i name="SYMPREC">      0.00001000</i>
  </separator>
  <separator name="dos" >
   <i type="int" name="LORBIT">     0</i>
   <v name="RWIGS">     -1.00000000     -1.00000000     -1.00000000     -1.00000000</v>
   <i type="int" name="NEDOS">   301</i>
   <i name="EMIN">     10.00000000</i>
   <i name="EMAX">    -10.00000000</i>
   <i name="EFERMI">      0.00000000</i>
  </separator>
  <separator name="writing" >
   <i type="int" name="NWRITE">     1</i>
   <i type="logical" name="LWAVE"> F  </i>
   <i type="logical" name="LDOWNSAMPLE"> F  </i>
   <i type="logical" name="LCHARG"> T  </i>
   <i type="logical" name="LPARD"> F  </i>
   <i type="logical" name="LVTOT"> F  </i>
   <i type="logical" name="LVHAR"> F  </i>
   <i type="logical" name="LELF"> F  </i>
   <i type="logical" name="LOPTICS"> F  </i>
   <v name="STM">      0.00000000      0.00000000      0.00000000      0.00000000      0.00000000      0.00000000      0.00000000</v>
  </separator>
  <separator name="performance" >
   <i type="int" name="NPAR">     4</i>
   <i type="int" name="NSIM">     4</i>
   <i type="int" name="NBLK">    -1</i>
   <i type="logical" name="LPLANE"> T  </i>
   <i type="logical" name="LSCALAPACK"> T  </i>
   <i type="logical" name="LSCAAWARE"> F  </i>
   <i type="logical" name="LSCALU"> F  </i>
   <i type="logical" name="LASYNC"> F  </i>
   <i type="logical" name="LORBITALREAL"> F  </i>
  </separator>
  <separator name="miscellaneous" >
   <i type="int" name="IDIOT">     3</i>
   <i type="int" name="ISPECIAL">     0</i>
   <i type="logical" name="LMUSIC"> F  </i>
   <v name="POMASS">      7.01000000     16.00000000     32.06600000     55.84700000</v>
   <v name="DARWINR">      0.00000000      0.00000000      0.00000000      0.00000000</v>
   <v name="DARWINV">      1.00000000      1.00000000      1.00000000      1.00000000</v>
   <i type="logical" name="LCORR"> T  </i>
  </separator>
  <i type="logical" name="GGA_COMPAT"> T  </i>
  <i type="logical" name="LBERRY"> F  </i>
  <i type="int" name="ICORELEVEL">     0</i>
  <i type="logical" name="LDAU"> T  </i>
  <v type="int" name="LDAUTYPE">     2</v>
  <v type="int" name="LDAUL">    -1</v>
  <v name="LDAUU">      0.00000000</v>
  <v name="LDAUJ">      0.00000000</v>
  <i type="int" name="LDAUPRINT">     0</i>
  <i type="int" name="I_CONSTRAINED_M">     0</i>
  <separator name="electronic exchange-correlation" >
   <i type="string" name="GGA">PE</i>
   <i type="int" name="VOSKOWN">     0</i>
   <i type="logical" name="LHFCALC"> F  </i>
   <i type="string" name="PRECFOCK"></i>
   <i type="logical" name="LSYMGRAD"> F  </i>
   <i type="logical" name="LHFONE"> F  </i>
   <i type="logical" name="LRHFCALC"> F  </i>
   <i type="logical" name="LTHOMAS"> F  </i>
   <i type="logical" name="LMODELHF"> F  </i>
   <i name="ENCUT4O">     -1.00000000</i>
   <i type="int" name="EXXOEP">     0</i>
   <i type="int" name="FOURORBIT">     0</i>
   <i name="AEXX">      0.00000000</i>
   <i name="HFALPHA">      0.00000000</i>
   <i name="MCALPHA">      0.00000000</i>
   <i name="ALDAX">      1.00000000</i>
   <i name="AGGAX">      1.00000000</i>
   <i name="ALDAC">      1.00000000</i>
   <i name="AGGAC">      1.00000000</i>
   <i type="int" name="NKREDX">     1</i>
   <i type="int" name="NKREDY">     1</i>
   <i type="int" name="NKREDZ">     1</i>
   <i type="logical" name="SHIFTRED"> F  </i>
   <i type="logical" name="ODDONLY"> F  </i>
   <i type="logical" name="EVENONLY"> F  </i>
   <i type="int" name="LMAXFOCK">     0</i>
   <i type="int" name="NMAXFOCKAE">     0</i>
   <i type="logical" name="LFOCKAEDFT"> F  </i>
   <i name="HFSCREEN">      0.00000000</i>
   <i name="HFSCREENC">      0.00000000</i>
   <i type="int" name="NBANDSGWLOW">     0</i>
  </separator>
  <separator name="vdW DFT" >
   <i type="logical" name="LUSE_VDW"> F  </i>
   <i name="Zab_VDW">     -0.84910000</i>
   <i name="PARAM1">      0.12340000</i>
   <i name="PARAM2">      1.00000000</i>
   <i name="PARAM3">      0.00000000</i>
  </separator>
  <separator name="model GW" >
   <i type="int" name="MODEL_GW">     0</i>
   <i name="MODEL_EPS0">      7.36999089</i>
   <i name="MODEL_ALPHA">      1.00000000</i>
  </separator>
  <separator name="linear response parameters" >
   <i type="logical" name="LEPSILON"> F  </i>
   <i type="logical" name="LRPA"> F  </i>
   <i type="logical" name="LNABLA"> F  </i>
   <i type="logical" name="LVEL"> F  </i>
   <i type="int" name="KINTER">     0</i>
   <i name="CSHIFT">      0.10000000</i>
   <i name="OMEGAMAX">     -1.00000000</i>
   <i name="DEG_THRESHOLD">      0.00200000</i>
   <i name="RTIME">     -0.10000000</i>
   <i name="WPLASMAI">      0.00000000</i>
   <v name="DFIELD">      0.00000000      0.00000000      0.00000000</v>
   <v name="WPLASMA">      0.00000000      0.00000000      0.00000000      0.00000000      0.00000000      0.00000000      0.00000000      0.00000000      0.00000000</v>
  </separator>
  <separator name="orbital magnetization" >
   <i type="logical" name="NUCIND"> F  </i>
   <v name="MAGPOS">      0.00000000      0.00000000      0.00000000</v>
   <i type="logical" name="LNICSALL"> T  </i>
   <i type="logical" name="ORBITALMAG"> F  </i>
   <i type="logical" name="LMAGBLOCH"> F  </i>
   <i type="logical" name="LCHIMAG"> F  </i>
   <i type="logical" name="LGAUGE"> T  </i>
   <i type="int" name="MAGATOM">     0</i>
   <v name="MAGDIPOL">      0.00000000      0.00000000      0.00000000</v>
   <v name="AVECCONST">      0.00000000      0.00000000      0.00000000</v>
  </separator>
  <separator name="response functions" >
   <i type="logical" name="LADDER"> F  </i>
   <i type="logical" name="LRPAFORCE"> F  </i>
   <i type="logical" name="LFXC"> F  </i>
   <i type="logical" name="LHARTREE"> T  </i>
   <i type="int" name="IBSE">     0</i>
   <v type="int" name="KPOINT">    -1     0     0     0</v>
   <i type="logical" name="LTCTE"> F  </i>
   <i type="logical" name="LTETE"> F  </i>
   <i type="logical" name="LTRIPLET"> F  </i>
   <i type="logical" name="LFXCEPS"> F  </i>
   <i type="logical" name="LFXHEG"> F  </i>
   <i type="int" name="NATURALO">     2</i>
   <i type="logical" name="L2ORDER"> F  </i>
   <i type="logical" name="LMP2LT"> F  </i>
   <i type="logical" name="LUSEW"> F  </i>
   <i name="ENCUTGW">     -2.00000000</i>
   <i name="ENCUTGWSOFT">     -2.00000000</i>
   <i name="ENCUTLF">     -1.00000000</i>
   <i type="int" name="LMAXMP2">    -1</i>
   <i name="SCISSOR">      0.00000000</i>
   <i type="int" name="NOMEGA">     0</i>
   <i type="int" name="NOMEGAR">     0</i>
   <i type="int" name="NBANDSGW">    -1</i>
   <i type="int" name="NBANDSO">    -1</i>
   <i type="int" name="NBANDSV">    -1</i>
   <i type="int" name="NELM">   200</i>
   <i type="int" name="NELMHF">     1</i>
   <i type="int" name="DIM">     3</i>
   <i type="int" name="ANTIRES">     0</i>
   <i name="OMEGAMAX">    -30.00000000</i>
   <i name="OMEGAMIN">    -30.00000000</i>
   <i name="OMEGATL">   -200.00000000</i>
   <i type="int" name="OMEGAGRID">   140</i>
   <i name="CSHIFT">     -0.10000000</i>
   <i type="logical" name="SELFENERGY"> F  </i>
   <i type="logical" name="LSPECTRAL"> F  </i>
   <i type="logical" name="LSPECTRALGW"> F  </i>
   <i type="logical" name="LSINGLES"> F  </i>
   <i type="logical" name="LFERMIGW"> F  </i>
   <i type="logical" name="ODDONLYGW"> F  </i>
   <i type="logical" name="EVENONLYGW"> F  </i>
   <i type="int" name="NKREDLFX">     1</i>
   <i type="int" name="NKREDLFY">     1</i>
   <i type="int" name="NKREDLFZ">     1</i>
   <i type="int" name="MAXMEM">  2800</i>
   <i type="int" name="TELESCOPE">     0</i>
   <i type="int" name="TAUPAR">     1</i>
   <i type="int" name="OMEGAPAR">    -1</i>
   <i name="LAMBDA">      1.00000000</i>
  </separator>
  <separator name="External order field" >
   <i name="OFIELD_KAPPA">      0.00000000</i>
   <v name="OFIELD_K">      0.00000000      0.00000000      0.00000000</v>
   <i name="OFIELD_Q6_NEAR">      0.00000000</i>
   <i name="OFIELD_Q6_FAR">      0.00000000</i>
   <i name="OFIELD_A">      0.00000000</i>
  </separator>
 </parameters>
 <atominfo>
  <atoms>     120 </atoms>
  <types>       4 </types>
  <array name="atoms" >
   <dimension dim="1">ion</dimension>
   <field type="string">element</field>
   <field type="int">atomtype</field>
   <set>
    <rc><c>Li</c><c>   1</c></rc>
    <rc><c>Li</c><c>   1</c></rc>
    <rc><c>Li</c><c>   1</c></rc>
    <rc><c>Li</c><c>   1</c></rc>
    <rc><c>Li</c><c>   1</c></rc>
    <rc><c>Li</c><c>   1</c></rc>
    <rc><c>Li</c><c>   1</c></rc>
    <rc><c>Li</c><c>   1</c></rc>
    <rc><c>Li</c><c>   1</c></rc>
    <rc><c>Li</c><c>   1</c></rc>
    <rc><c>Li</c><c>   1</c></rc>
    <rc><c>Li</c><c>   1</c></rc>
    <rc><c>Li</c><c>   1</c></rc>
    <rc><c>Li</c><c>   1</c></rc>
    <rc><c>Li</c><c>   1</c></rc>
    <rc><c>Li</c><c>   1</c></rc>
    <rc><c>Li</c><c>   1</c></rc>
    <rc><c>Li</c><c>   1</c></rc>
    <rc><c>Li</c><c>   1</c></rc>
    <rc><c>Li</c><c>   1</c></rc>
    <rc><c>Li</c><c>   1</c></rc>
    <rc><c>Li</c><c>   1</c></rc>
    <rc><c>Li</c><c>   1</c></rc>
    <rc><c>Li</c><c>   1</c></rc>
    <rc><c>Li</c><c>   1</c></rc>
    <rc><c>Li</c><c>   1</c></rc>
    <rc><c>Li</c><c>   1</c></rc>
    <rc><c>Li</c><c>   1</c></rc>
    <rc><c>Li</c><c>   1</c></rc>
    <rc><c>Li</c><c>   1</c></rc>
    <rc><c>Li</c><c>   1</c></rc>
    <rc><c>Li</c><c>   1</c></rc>
    <rc><c>Li</c><c>   1</c></rc>
    <rc><c>Li</c><c>   1</c></rc>
    <rc><c>Li</c><c>   1</c></rc>
    <rc><c>Li</c><c>   1</c></rc>
    <rc><c>Li</c><c>   1</c></rc>
    <rc><c>Li</c><c>   1</c></rc>
    <rc><c>Li</c><c>   1</c></rc>
    <rc><c>Li</c><c>   1</c></rc>
    <rc><c>Li</c><c>   1</c></rc>
    <rc><c>Li</c><c>   1</c></rc>
    <rc><c>Li</c><c>   1</c></rc>
    <rc><c>Li</c><c>   1</c></rc>
    <rc><c>Li</c><c>   1</c></rc>
    <rc><c>Li</c><c>   1</c></rc>
    <rc><c>Li</c><c>   1</c></rc>
    <rc><c>Li</c><c>   1</c></rc>
    <rc><c>O </c><c>   2</c></rc>
    <rc><c>O </c><c>   2</c></rc>
    <rc><c>O </c><c>   2</c></rc>
    <rc><c>O </c><c>   2</c></rc>
    <rc><c>O </c><c>   2</c></rc>
    <rc><c>O </c><c>   2</c></rc>
    <rc><c>O </c><c>   2</c></rc>
    <rc><c>O </c><c>   2</c></rc>
    <rc><c>O </c><c>   2</c></rc>
    <rc><c>O </c><c>   2</c></rc>
    <rc><c>O </c><c>   2</c></rc>
    <rc><c>O </c><c>   2</c></rc>
    <rc><c>O </c><c>   2</c></rc>
    <rc><c>O </c><c>   2</c></rc>
    <rc><c>O </c><c>   2</c></rc>
    <rc><c>O </c><c>   2</c></rc>
    <rc><c>O </c><c>   2</c></rc>
    <rc><c>O </c><c>   2</c></rc>
    <rc><c>O </c><c>   2</c></rc>
    <rc><c>O </c><c>   2</c></rc>
    <rc><c>O </c><c>   2</c></rc>
    <rc><c>O </c><c>   2</c></rc>
    <rc><c>O </c><c>   2</c></rc>
    <rc><c>O </c><c>   2</c></rc>
    <rc><c>S </c><c>   3</c></rc>
    <rc><c>S </c><c>   3</c></rc>
    <rc><c>S </c><c>   3</c></rc>
    <rc><c>S </c><c>   3</c></rc>
    <rc><c>S </c><c>   3</c></rc>
    <rc><c>S </c><c>   3</c></rc>
    <rc><c>S </c><c>   3</c></rc>
    <rc><c>S </c><c>   3</c></rc>
    <rc><c>S </c><c>   3</c></rc>
    <rc><c>S </c><c>   3</c></rc>
    <rc><c>S </c><c>   3</c></rc>
    <rc><c>S </c><c>   3</c></rc>
    <rc><c>S </c><c>   3</c></rc>
    <rc><c>S </c><c>   3</c></rc>
    <rc><c>S </c><c>   3</c></rc>
    <rc><c>S </c><c>   3</c></rc>
    <rc><c>S </c><c>   3</c></rc>
    <rc><c>S </c><c>   3</c></rc>
    <rc><c>S </c><c>   3</c></rc>
    <rc><c>S </c><c>   3</c></rc>
    <rc><c>S </c><c>   3</c></rc>
    <rc><c>S </c><c>   3</c></rc>
    <rc><c>S </c><c>   3</c></rc>
    <rc><c>S </c><c>   3</c></rc>
    <rc><c>Fe</c><c>   4</c></rc>
    <rc><c>Fe</c><c>   4</c></rc>
    <rc><c>Fe</c><c>   4</c></rc>
    <rc><c>Fe</c><c>   4</c></rc>
    <rc><c>Fe</c><c>   4</c></rc>
    <rc><c>Fe</c><c>   4</c></rc>
    <rc><c>Fe</c><c>   4</c></rc>
    <rc><c>Fe</c><c>   4</c></rc>
    <rc><c>Fe</c><c>   4</c></rc>
    <rc><c>Fe</c><c>   4</c></rc>
    <rc><c>Fe</c><c>   4</c></rc>
    <rc><c>Fe</c><c>   4</c></rc>
    <rc><c>Fe</c><c>   4</c></rc>
    <rc><c>Fe</c><c>   4</c></rc>
    <rc><c>Fe</c><c>   4</c></rc>
    <rc><c>Fe</c><c>   4</c></rc>
    <rc><c>Fe</c><c>   4</c></rc>
    <rc><c>Fe</c><c>   4</c></rc>
    <rc><c>Fe</c><c>   4</c></rc>
    <rc><c>Fe</c><c>   4</c></rc>
    <rc><c>Fe</c><c>   4</c></rc>
    <rc><c>Fe</c><c>   4</c></rc>
    <rc><c>Fe</c><c>   4</c></rc>
    <rc><c>Fe</c><c>   4</c></rc>
   </set>
  </array>
  <array name="atomtypes" >
   <dimension dim="1">type</dimension>
   <field type="int">atomspertype</field>
   <field type="string">element</field>
   <field>mass</field>
   <field>valence</field>
   <field type="string">pseudopotential</field>
   <set>
    <rc><c>  48</c><c>Li</c><c>      7.01000000</c><c>      3.00000000</c><c>  PAW_PBE Li_sv 10Sep2004               </c></rc>
    <rc><c>  24</c><c>O </c><c>     16.00000000</c><c>      6.00000000</c><c>  PAW_PBE O 08Apr2002                   </c></rc>
    <rc><c>  24</c><c>S </c><c>     32.06600000</c><c>      6.00000000</c><c>  PAW_PBE S 06Sep2000                   </c></rc>
    <rc><c>  24</c><c>Fe</c><c>     55.84700000</c><c>     14.00000000</c><c>  PAW_PBE Fe_pv 02Aug2007               </c></rc>
   </set>
  </array>
 </atominfo>
 <structure name="initialpos" >
  <crystal>
   <varray name="basis" >
    <v>      11.73572724      -0.05744286       0.00000000 </v>
    <v>       0.05480788      11.21833490       0.00000000 </v>
    <v>       0.00000000       0.00000000      11.19562010 </v>
   </varray>
   <i name="volume">   1473.99817718 </i>
   <varray name="rec_basis" >
    <v>       0.08520785      -0.00041629       0.00000000 </v>
    <v>       0.00043630       0.08913766       0.00000000 </v>
    <v>       0.00000000       0.00000000       0.08932064 </v>
   </varray>
  </crystal>
  <varray name="positions" >
   <v>       0.03541706       0.36277547       0.35648149 </v>
   <v>       0.36875039       0.36277547       0.35648149 </v>
   <v>       0.70208372       0.36277547       0.35648149 </v>
   <v>       0.03541706       0.86277547       0.35648149 </v>
   <v>       0.36875039       0.86277547       0.35648149 </v>
   <v>       0.70208372       0.86277547       0.35648149 </v>
   <v>       0.03541706       0.36277547       0.85648149 </v>
   <v>       0.36875039       0.36277547       0.85648149 </v>
   <v>       0.70208372       0.36277547       0.85648149 </v>
   <v>       0.03541706       0.86277547       0.85648149 </v>
   <v>       0.36875039       0.86277547       0.85648149 </v>
   <v>       0.70208372       0.86277547       0.85648149 </v>
   <v>       0.03541706       0.11277547       0.14351851 </v>
   <v>       0.36875039       0.11277547       0.14351851 </v>
   <v>       0.70208372       0.11277547       0.14351851 </v>
   <v>       0.03541706       0.61277547       0.14351851 </v>
   <v>       0.36875039       0.61277547       0.14351851 </v>
   <v>       0.70208372       0.61277547       0.14351851 </v>
   <v>       0.03541706       0.11277547       0.64351851 </v>
   <v>       0.36875039       0.11277547       0.64351851 </v>
   <v>       0.70208372       0.11277547       0.64351851 </v>
   <v>       0.03541706       0.61277547       0.64351851 </v>
   <v>       0.36875039       0.61277547       0.64351851 </v>
   <v>       0.70208372       0.61277547       0.64351851 </v>
   <v>       0.20209458       0.21987199       0.27246215 </v>
   <v>       0.53542792       0.21898060       0.27246215 </v>
   <v>       0.86876125       0.21898060       0.27246215 </v>
   <v>       0.20209458       0.71898060       0.27246215 </v>
   <v>       0.53542792       0.71898060       0.27246215 </v>
   <v>       0.86876125       0.71898060       0.27246215 </v>
   <v>       0.20209458       0.21898060       0.77246215 </v>
   <v>       0.53542792       0.21898060       0.77246215 </v>
   <v>       0.86876125       0.21898060       0.77246215 </v>
   <v>       0.20209458       0.71898060       0.77246215 </v>
   <v>       0.53542792       0.71898060       0.77246215 </v>
   <v>       0.86876125       0.71898060       0.77246215 </v>
   <v>       0.20209458       0.46898060       0.22753785 </v>
   <v>       0.53542792       0.46898060       0.22753785 </v>
   <v>       0.86876125       0.46898060       0.22753785 </v>
   <v>       0.20209458       0.96898060       0.22753785 </v>
   <v>       0.53542792       0.96898060       0.22753785 </v>
   <v>       0.86876125       0.96898060       0.22753785 </v>
   <v>       0.20209458       0.46898060       0.72753785 </v>
   <v>       0.53542792       0.46898060       0.72753785 </v>
   <v>       0.86876125       0.46898060       0.72753785 </v>
   <v>       0.20209458       0.96898060       0.72753785 </v>
   <v>       0.53542792       0.96898060       0.72753785 </v>
   <v>       0.86876125       0.96898060       0.72753785 </v>
   <v>       0.20209064       0.36769237       0.37376509 </v>
   <v>       0.53542398       0.36769237       0.37376509 </v>
   <v>       0.86875731       0.36769237       0.37376509 </v>
   <v>       0.20209064       0.86769237       0.37376509 </v>
   <v>       0.53542398       0.86769237       0.37376509 </v>
   <v>       0.86875731       0.86769237       0.37376509 </v>
   <v>       0.20209064       0.36769237       0.87376509 </v>
   <v>       0.53542398       0.36769237       0.87376509 </v>
   <v>       0.86875731       0.36769237       0.87376509 </v>
   <v>       0.20209064       0.86769237       0.87376509 </v>
   <v>       0.53542398       0.86769237       0.87376509 </v>
   <v>       0.86875731       0.86769237       0.87376509 </v>
   <v>       0.20209064       0.11769237       0.12623491 </v>
   <v>       0.53542398       0.11769237       0.12623491 </v>
   <v>       0.86875731       0.11769237       0.12623491 </v>
   <v>       0.20209064       0.61769237       0.12623491 </v>
   <v>       0.53542398       0.61769237       0.12623491 </v>
   <v>       0.86875731       0.61769237       0.12623491 </v>
   <v>       0.20209064       0.11769237       0.62623491 </v>
   <v>       0.53542398       0.11769237       0.62623491 </v>
   <v>       0.86875731       0.11769237       0.62623491 </v>
   <v>       0.20209064       0.61769237       0.62623491 </v>
   <v>       0.53542398       0.61769237       0.62623491 </v>
   <v>       0.86875731       0.61769237       0.62623491 </v>
   <v>       0.03542751       0.37011947       0.12029448 </v>
   <v>       0.36876084       0.37011947       0.12029448 </v>
   <v>       0.70209418       0.37011947       0.12029448 </v>
   <v>       0.03542751       0.87011947       0.12029448 </v>
   <v>       0.36876084       0.87011947       0.12029448 </v>
   <v>       0.70209418       0.87011947       0.12029448 </v>
   <v>       0.03542751       0.37011947       0.62029448 </v>
   <v>       0.36876084       0.37011947       0.62029448 </v>
   <v>       0.70209418       0.37011947       0.62029448 </v>
   <v>       0.03542751       0.87011947       0.62029448 </v>
   <v>       0.36876084       0.87011947       0.62029448 </v>
   <v>       0.70209418       0.87011947       0.62029448 </v>
   <v>       0.03542751       0.12011947       0.37970552 </v>
   <v>       0.36876084       0.12011947       0.37970552 </v>
   <v>       0.70209418       0.12011947       0.37970552 </v>
   <v>       0.03542751       0.62011947       0.37970552 </v>
   <v>       0.36876084       0.62011947       0.37970552 </v>
   <v>       0.70209418       0.62011947       0.37970552 </v>
   <v>       0.03542751       0.12011947       0.87970552 </v>
   <v>       0.36876084       0.12011947       0.87970552 </v>
   <v>       0.70209418       0.12011947       0.87970552 </v>
   <v>       0.03542751       0.62011947       0.87970552 </v>
   <v>       0.36876084       0.62011947       0.87970552 </v>
   <v>       0.70209418       0.62011947       0.87970552 </v>
   <v>       0.20209387       0.01225309       0.48003463 </v>
   <v>       0.53542720       0.01225309       0.48003463 </v>
   <v>       0.86876054       0.01225309       0.48003463 </v>
   <v>       0.20209387       0.51225309       0.48003463 </v>
   <v>       0.53542720       0.51225309       0.48003463 </v>
   <v>       0.86876054       0.51225309       0.48003463 </v>
   <v>       0.20209387       0.01225309       0.98003463 </v>
   <v>       0.53542720       0.01225309       0.98003463 </v>
   <v>       0.86876054       0.01225309       0.98003463 </v>
   <v>       0.20209387       0.51225309       0.98003463 </v>
   <v>       0.53542720       0.51225309       0.98003463 </v>
   <v>       0.86876054       0.51225309       0.98003463 </v>
   <v>       0.20209387       0.26225309       0.01996537 </v>
   <v>       0.53542720       0.26225309       0.01996537 </v>
   <v>       0.86876054       0.26225309       0.01996537 </v>
   <v>       0.20209387       0.76225309       0.01996537 </v>
   <v>       0.53542720       0.76225309       0.01996537 </v>
   <v>       0.86876054       0.76225309       0.01996537 </v>
   <v>       0.20209387       0.26225309       0.51996537 </v>
   <v>       0.53542720       0.26225309       0.51996537 </v>
   <v>       0.86876054       0.26225309       0.51996537 </v>
   <v>       0.20209387       0.76225309       0.51996537 </v>
   <v>       0.53542720       0.76225309       0.51996537 </v>
   <v>       0.86876054       0.76225309       0.51996537 </v>
  </varray>
 </structure>
 <calculation>
  <scstep>
   <time name="dav">  219.24  221.26</time>
   <time name="total">  221.14  223.24</time>
   <energy>
    <i name="alphaZ">   1915.67052055 </i>
    <i name="ewald"> -48532.20919391 </i>
    <i name="hartreedc"> -28983.33899416 </i>
    <i name="XCdc">   3297.26498075 </i>
    <i name="pawpsdc">  81710.32686745 </i>
    <i name="pawaedc"> -84426.12035439 </i>
    <i name="eentropy">     -0.01831042 </i>
    <i name="bandstr">   -670.16637684 </i>
    <i name="atom">  85731.96378919 </i>
    <i name="e_fr_energy">  10043.37292824 </i>
    <i name="e_wo_entrp">  10043.39123866 </i>
    <i name="e_0_energy">  10043.38208345 </i>
   </energy>
  </scstep>
  <scstep>
   <time name="dav">  211.78  213.47</time>
   <time name="total">  211.78  213.48</time>
   <energy>
    <i name="e_fr_energy">   1037.05286846 </i>
    <i name="e_wo_entrp">   1037.10513676 </i>
    <i name="e_0_energy">   1037.07900261 </i>
   </energy>
  </scstep>
  <scstep>
   <time name="dav">  231.24  233.54</time>
   <time name="total">  231.24  233.54</time>
   <energy>
    <i name="e_fr_energy">   -399.89579617 </i>
    <i name="e_wo_entrp">   -399.89579617 </i>
    <i name="e_0_energy">   -399.89579617 </i>
   </energy>
  </scstep>
  <scstep>
   <time name="dav">  263.95  266.40</time>
   <time name="total">  263.95  266.40</time>
   <energy>
    <i name="e_fr_energy">   -590.30621664 </i>
    <i name="e_wo_entrp">   -590.30621664 </i>
    <i name="e_0_energy">   -590.30621664 </i>
   </energy>
  </scstep>
  <scstep>
   <time name="dav">  334.06  337.41</time>
   <time name="total">  339.66  343.07</time>
   <energy>
    <i name="e_fr_energy">   -615.43201507 </i>
    <i name="e_wo_entrp">   -615.43201507 </i>
    <i name="e_0_energy">   -615.43201507 </i>
   </energy>
  </scstep>
  <scstep>
   <time name="dav">  271.20  273.82</time>
   <time name="total">  278.73  281.63</time>
   <energy>
    <i name="e_fr_energy">   -616.38657157 </i>
    <i name="e_wo_entrp">   -616.38657157 </i>
    <i name="e_0_energy">   -616.38657157 </i>
   </energy>
  </scstep>
  <scstep>
   <time name="dav">  306.21  308.78</time>
   <time name="total">  313.78  316.38</time>
   <energy>
    <i name="e_fr_energy">   -616.43547580 </i>
    <i name="e_wo_entrp">   -616.43547580 </i>
    <i name="e_0_energy">   -616.43547580 </i>
   </energy>
  </scstep>
  <scstep>
   <time name="dav">  296.77  299.45</time>
   <time name="total">  304.33  307.08</time>
   <energy>
    <i name="e_fr_energy">   -616.43565189 </i>
    <i name="e_wo_entrp">   -616.43565189 </i>
    <i name="e_0_energy">   -616.43565189 </i>
   </energy>
  </scstep>
  <scstep>
   <time name="dav">  304.62  307.38</time>
   <time name="total">  312.24  315.08</time>
   <energy>
    <i name="e_fr_energy">   -616.43501678 </i>
    <i name="e_wo_entrp">   -616.43501678 </i>
    <i name="e_0_energy">   -616.43501678 </i>
   </energy>
  </scstep>
  <scstep>
   <time name="dav">  302.75  305.52</time>
   <time name="total">  310.32  313.12</time>
   <energy>
    <i name="e_fr_energy">   -616.43503121 </i>
    <i name="e_wo_entrp">   -616.43503121 </i>
    <i name="e_0_energy">   -616.43503121 </i>
   </energy>
  </scstep>
  <scstep>
   <time name="dav">  277.88  280.41</time>
   <time name="total">  285.61  288.19</time>
   <energy>
    <i name="e_fr_energy">   -616.43423466 </i>
    <i name="e_wo_entrp">   -616.43423466 </i>
    <i name="e_0_energy">   -616.43423466 </i>
   </energy>
  </scstep>
  <scstep>
   <time name="dav">  294.23  296.95</time>
   <time name="total">  301.85  304.68</time>
   <energy>
    <i name="e_fr_energy">   -616.43346680 </i>
    <i name="e_wo_entrp">   -616.43346680 </i>
    <i name="e_0_energy">   -616.43346680 </i>
   </energy>
  </scstep>
  <scstep>
   <time name="dav">  301.44  304.33</time>
   <time name="total">  308.94  312.04</time>
   <energy>
    <i name="e_fr_energy">   -616.43282085 </i>
    <i name="e_wo_entrp">   -616.43282085 </i>
    <i name="e_0_energy">   -616.43282085 </i>
   </energy>
  </scstep>
  <scstep>
   <time name="dav">  255.63  258.10</time>
   <time name="total">  263.17  265.67</time>
   <energy>
    <i name="e_fr_energy">   -616.43268115 </i>
    <i name="e_wo_entrp">   -616.43268115 </i>
    <i name="e_0_energy">   -616.43268115 </i>
   </energy>
  </scstep>
  <scstep>
   <time name="dav">  239.33  241.69</time>
   <time name="total">  246.81  249.28</time>
   <energy>
    <i name="e_fr_energy">   -616.43253498 </i>
    <i name="e_wo_entrp">   -616.43253498 </i>
    <i name="e_0_energy">   -616.43253498 </i>
   </energy>
  </scstep>
  <scstep>
   <time name="dav">  269.30  271.38</time>
   <time name="total">  276.97  279.12</time>
   <energy>
    <i name="e_fr_energy">   -616.43240796 </i>
    <i name="e_wo_entrp">   -616.43240796 </i>
    <i name="e_0_energy">   -616.43240796 </i>
   </energy>
  </scstep>
  <scstep>
   <time name="dav">  306.41  308.98</time>
   <time name="total">  314.10  316.74</time>
   <energy>
    <i name="e_fr_energy">   -616.43237591 </i>
    <i name="e_wo_entrp">   -616.43237591 </i>
    <i name="e_0_energy">   -616.43237591 </i>
   </energy>
  </scstep>
  <scstep>
   <time name="dav">  256.59  258.76</time>
   <time name="total">  264.09  266.41</time>
   <energy>
    <i name="e_fr_energy">   -616.43237490 </i>
    <i name="e_wo_entrp">   -616.43237490 </i>
    <i name="e_0_energy">   -616.43237490 </i>
   </energy>
  </scstep>
  <scstep>
   <time name="dav">  179.79  181.91</time>
   <time name="total">  181.70  183.87</time>
   <energy>
    <i name="alphaZ">   1915.67052055 </i>
    <i name="ewald"> -48532.20919391 </i>
    <i name="hartreedc"> -28983.17791539 </i>
    <i name="XCdc">   3297.24234987 </i>
    <i name="pawpsdc">  81709.32727622 </i>
    <i name="pawaedc"> -84425.10206238 </i>
    <i name="eentropy">     -0.00000000 </i>
    <i name="bandstr"> -11330.14713941 </i>
    <i name="atom">  85731.96378919 </i>
    <i name="e_fr_energy">   -616.43237525 </i>
    <i name="e_wo_entrp">   -616.43237525 </i>
    <i name="e_0_energy">   -616.43237525 </i>
   </energy>
  </scstep>
  <structure>
   <crystal>
    <varray name="basis" >
     <v>      11.73572724      -0.05744286       0.00000000 </v>
     <v>       0.05480788      11.21833490       0.00000000 </v>
     <v>       0.00000000       0.00000000      11.19562010 </v>
    </varray>
    <i name="volume">   1473.99817718 </i>
    <varray name="rec_basis" >
     <v>       0.08520785      -0.00041629       0.00000000 </v>
     <v>       0.00043630       0.08913766       0.00000000 </v>
     <v>       0.00000000       0.00000000       0.08932064 </v>
    </varray>
   </crystal>
   <varray name="positions" >
    <v>       0.03541706       0.36277547       0.35648149 </v>
    <v>       0.36875039       0.36277547       0.35648149 </v>
    <v>       0.70208372       0.36277547       0.35648149 </v>
    <v>       0.03541706       0.86277547       0.35648149 </v>
    <v>       0.36875039       0.86277547       0.35648149 </v>
    <v>       0.70208372       0.86277547       0.35648149 </v>
    <v>       0.03541706       0.36277547       0.85648149 </v>
    <v>       0.36875039       0.36277547       0.85648149 </v>
    <v>       0.70208372       0.36277547       0.85648149 </v>
    <v>       0.03541706       0.86277547       0.85648149 </v>
    <v>       0.36875039       0.86277547       0.85648149 </v>
    <v>       0.70208372       0.86277547       0.85648149 </v>
    <v>       0.03541706       0.11277547       0.14351851 </v>
    <v>       0.36875039       0.11277547       0.14351851 </v>
    <v>       0.70208372       0.11277547       0.14351851 </v>
    <v>       0.03541706       0.61277547       0.14351851 </v>
    <v>       0.36875039       0.61277547       0.14351851 </v>
    <v>       0.70208372       0.61277547       0.14351851 </v>
    <v>       0.03541706       0.11277547       0.64351851 </v>
    <v>       0.36875039       0.11277547       0.64351851 </v>
    <v>       0.70208372       0.11277547       0.64351851 </v>
    <v>       0.03541706       0.61277547       0.64351851 </v>
    <v>       0.36875039       0.61277547       0.64351851 </v>
    <v>       0.70208372       0.61277547       0.64351851 </v>
    <v>       0.20209458       0.21987199       0.27246215 </v>
    <v>       0.53542792       0.21898060       0.27246215 </v>
    <v>       0.86876125       0.21898060       0.27246215 </v>
    <v>       0.20209458       0.71898060       0.27246215 </v>
    <v>       0.53542792       0.71898060       0.27246215 </v>
    <v>       0.86876125       0.71898060       0.27246215 </v>
    <v>       0.20209458       0.21898060       0.77246215 </v>
    <v>       0.53542792       0.21898060       0.77246215 </v>
    <v>       0.86876125       0.21898060       0.77246215 </v>
    <v>       0.20209458       0.71898060       0.77246215 </v>
    <v>       0.53542792       0.71898060       0.77246215 </v>
    <v>       0.86876125       0.71898060       0.77246215 </v>
    <v>       0.20209458       0.46898060       0.22753785 </v>
    <v>       0.53542792       0.46898060       0.22753785 </v>
    <v>       0.86876125       0.46898060       0.22753785 </v>
    <v>       0.20209458       0.96898060       0.22753785 </v>
    <v>       0.53542792       0.96898060       0.22753785 </v>
    <v>       0.86876125       0.96898060       0.22753785 </v>
    <v>       0.20209458       0.46898060       0.72753785 </v>
    <v>       0.53542792       0.46898060       0.72753785 </v>
    <v>       0.86876125       0.46898060       0.72753785 </v>
    <v>       0.20209458       0.96898060       0.72753785 </v>
    <v>       0.53542792       0.96898060       0.72753785 </v>
    <v>       0.86876125       0.96898060       0.72753785 </v>
    <v>       0.20209064       0.36769237       0.37376509 </v>
    <v>       0.53542398       0.36769237       0.37376509 </v>
    <v>       0.86875731       0.36769237       0.37376509 </v>
    <v>       0.20209064       0.86769237       0.37376509 </v>
    <v>       0.53542398       0.86769237       0.37376509 </v>
    <v>       0.86875731       0.86769237       0.37376509 </v>
    <v>       0.20209064       0.36769237       0.87376509 </v>
    <v>       0.53542398       0.36769237       0.87376509 </v>
    <v>       0.86875731       0.36769237       0.87376509 </v>
    <v>       0.20209064       0.86769237       0.87376509 </v>
    <v>       0.53542398       0.86769237       0.87376509 </v>
    <v>       0.86875731       0.86769237       0.87376509 </v>
    <v>       0.20209064       0.11769237       0.12623491 </v>
    <v>       0.53542398       0.11769237       0.12623491 </v>
    <v>       0.86875731       0.11769237       0.12623491 </v>
    <v>       0.20209064       0.61769237       0.12623491 </v>
    <v>       0.53542398       0.61769237       0.12623491 </v>
    <v>       0.86875731       0.61769237       0.12623491 </v>
    <v>       0.20209064       0.11769237       0.62623491 </v>
    <v>       0.53542398       0.11769237       0.62623491 </v>
    <v>       0.86875731       0.11769237       0.62623491 </v>
    <v>       0.20209064       0.61769237       0.62623491 </v>
    <v>       0.53542398       0.61769237       0.62623491 </v>
    <v>       0.86875731       0.61769237       0.62623491 </v>
    <v>       0.03542751       0.37011947       0.12029448 </v>
    <v>       0.36876084       0.37011947       0.12029448 </v>
    <v>       0.70209418       0.37011947       0.12029448 </v>
    <v>       0.03542751       0.87011947       0.12029448 </v>
    <v>       0.36876084       0.87011947       0.12029448 </v>
    <v>       0.70209418       0.87011947       0.12029448 </v>
    <v>       0.03542751       0.37011947       0.62029448 </v>
    <v>       0.36876084       0.37011947       0.62029448 </v>
    <v>       0.70209418       0.37011947       0.62029448 </v>
    <v>       0.03542751       0.87011947       0.62029448 </v>
    <v>       0.36876084       0.87011947       0.62029448 </v>
    <v>       0.70209418       0.87011947       0.62029448 </v>
    <v>       0.03542751       0.12011947       0.37970552 </v>
    <v>       0.36876084       0.12011947       0.37970552 </v>
    <v>       0.70209418       0.12011947       0.37970552 </v>
    <v>       0.03542751       0.62011947       0.37970552 </v>
    <v>       0.36876084       0.62011947       0.37970552 </v>
    <v>       0.70209418       0.62011947       0.37970552 </v>
    <v>       0.03542751       0.12011947       0.87970552 </v>
    <v>       0.36876084       0.12011947       0.87970552 </v>
    <v>       0.70209418       0.12011947       0.87970552 </v>
    <v>       0.03542751       0.62011947       0.87970552 </v>
    <v>       0.36876084       0.62011947       0.87970552 </v>
    <v>       0.70209418       0.62011947       0.87970552 </v>
    <v>       0.20209387       0.01225309       0.48003463 </v>
    <v>       0.53542720       0.01225309       0.48003463 </v>
    <v>       0.86876054       0.01225309       0.48003463 </v>
    <v>       0.20209387       0.51225309       0.48003463 </v>
    <v>       0.53542720       0.51225309       0.48003463 </v>
    <v>       0.86876054       0.51225309       0.48003463 </v>
    <v>       0.20209387       0.01225309       0.98003463 </v>
    <v>       0.53542720       0.01225309       0.98003463 </v>
    <v>       0.86876054       0.01225309       0.98003463 </v>
    <v>       0.20209387       0.51225309       0.98003463 </v>
    <v>       0.53542720       0.51225309       0.98003463 </v>
    <v>       0.86876054       0.51225309       0.98003463 </v>
    <v>       0.20209387       0.26225309       0.01996537 </v>
    <v>       0.53542720       0.26225309       0.01996537 </v>
    <v>       0.86876054       0.26225309       0.01996537 </v>
    <v>       0.20209387       0.76225309       0.01996537 </v>
    <v>       0.53542720       0.76225309       0.01996537 </v>
    <v>       0.86876054       0.76225309       0.01996537 </v>
    <v>       0.20209387       0.26225309       0.51996537 </v>
    <v>       0.53542720       0.26225309       0.51996537 </v>
    <v>       0.86876054       0.26225309       0.51996537 </v>
    <v>       0.20209387       0.76225309       0.51996537 </v>
    <v>       0.53542720       0.76225309       0.51996537 </v>
    <v>       0.86876054       0.76225309       0.51996537 </v>
   </varray>
  </structure>
  <varray name="forces" >
   <v>      -0.00442740       0.00127862       0.00196490 </v>
   <v>       0.00658966       0.00122720       0.00197925 </v>
   <v>      -0.00025638      -0.00017878       0.00004967 </v>
   <v>       0.00030697       0.00049691      -0.00014062 </v>
   <v>       0.00185363       0.00049056      -0.00012540 </v>
   <v>      -0.00026265       0.00011384      -0.00001138 </v>
   <v>       0.00023479      -0.00023057      -0.00036929 </v>
   <v>       0.00190423      -0.00023448      -0.00035283 </v>
   <v>      -0.00024760      -0.00008610      -0.00016831 </v>
   <v>       0.00017951       0.00008961      -0.00005601 </v>
   <v>       0.00196718       0.00008380      -0.00004176 </v>
   <v>      -0.00025060       0.00003181      -0.00010571 </v>
   <v>       0.00322029       0.00008063       0.00215015 </v>
   <v>      -0.00107567       0.00010330       0.00213800 </v>
   <v>      -0.00024995      -0.00012459       0.00020609 </v>
   <v>       0.00007558       0.00044880       0.00003685 </v>
   <v>       0.00207793       0.00044221       0.00002270 </v>
   <v>      -0.00025345       0.00006829       0.00010008 </v>
   <v>      -0.00002286      -0.00016535      -0.00032963 </v>
   <v>       0.00216270      -0.00017257      -0.00034592 </v>
   <v>      -0.00024805      -0.00006630      -0.00006313 </v>
   <v>       0.00001761       0.00009221       0.00014198 </v>
   <v>       0.00212104       0.00008398       0.00012482 </v>
   <v>      -0.00024464       0.00000121       0.00002191 </v>
   <v>      -0.00030573      -0.03087167      -0.01368135 </v>
   <v>      -0.00036290      -0.00051851       0.00048680 </v>
   <v>      -0.00003581      -0.00053291       0.00047464 </v>
   <v>      -0.00014725       0.00060857      -0.00006050 </v>
   <v>      -0.00010258       0.00036489      -0.00010737 </v>
   <v>      -0.00028855       0.00035805      -0.00011939 </v>
   <v>      -0.00015306      -0.00015952      -0.00001329 </v>
   <v>      -0.00018264      -0.00025635      -0.00020929 </v>
   <v>      -0.00020990      -0.00025568      -0.00019633 </v>
   <v>      -0.00015085       0.00038648      -0.00008728 </v>
   <v>      -0.00017041       0.00028192      -0.00016859 </v>
   <v>      -0.00021966       0.00027005      -0.00015908 </v>
   <v>      -0.00011789       0.00586974      -0.00143637 </v>
   <v>       0.00015125       0.00027326       0.00037053 </v>
   <v>      -0.00054674       0.00027911       0.00037869 </v>
   <v>      -0.00012216       0.00576660       0.00120987 </v>
   <v>      -0.00039978       0.00027481       0.00029185 </v>
   <v>       0.00000691       0.00027518       0.00028849 </v>
   <v>      -0.00015245       0.00010465       0.00018600 </v>
   <v>      -0.00005327       0.00020598      -0.00002639 </v>
   <v>      -0.00033705       0.00020781      -0.00004219 </v>
   <v>      -0.00015143       0.00010229       0.00006768 </v>
   <v>      -0.00023236       0.00020477      -0.00002494 </v>
   <v>      -0.00015699       0.00020556      -0.00004052 </v>
   <v>       0.00003891       0.00773632      -0.00093048 </v>
   <v>      -0.00026038       0.00071508      -0.00045152 </v>
   <v>       0.00003302       0.00067395      -0.00046307 </v>
   <v>       0.00000217      -0.00142283       0.00019199 </v>
   <v>       0.00001378      -0.00080826      -0.00000721 </v>
   <v>      -0.00026330      -0.00086085      -0.00003715 </v>
   <v>       0.00001151       0.00055394       0.00026627 </v>
   <v>      -0.00045955       0.00017193       0.00058626 </v>
   <v>       0.00022079       0.00017562       0.00053536 </v>
   <v>       0.00000946      -0.00068187      -0.00031691 </v>
   <v>       0.00006226      -0.00025872       0.00003432 </v>
   <v>      -0.00030814      -0.00025952      -0.00002749 </v>
   <v>       0.00002758       0.00723356      -0.00032320 </v>
   <v>       0.00023066       0.00058191      -0.00048568 </v>
   <v>      -0.00044860       0.00054473      -0.00046663 </v>
   <v>       0.00000071      -0.00110513       0.00032828 </v>
   <v>      -0.00019582      -0.00081264      -0.00007187 </v>
   <v>      -0.00005139      -0.00084782      -0.00003621 </v>
   <v>       0.00000921       0.00075725       0.00048752 </v>
   <v>       0.00044841       0.00013601       0.00079713 </v>
   <v>      -0.00068164       0.00015277       0.00086942 </v>
   <v>       0.00000796      -0.00091748      -0.00042365 </v>
   <v>      -0.00014428      -0.00029826      -0.00005861 </v>
   <v>      -0.00010083      -0.00027529       0.00001257 </v>
   <v>       0.00193409       0.00002357       0.00216295 </v>
   <v>      -0.00227244       0.00003401       0.00216030 </v>
   <v>      -0.00015594       0.00012968      -0.00018596 </v>
   <v>      -0.00062804      -0.00082739      -0.00027556 </v>
   <v>       0.00027506      -0.00084086      -0.00028114 </v>
   <v>      -0.00015831      -0.00018735      -0.00010223 </v>
   <v>       0.00067383       0.00043140      -0.00061531 </v>
   <v>      -0.00100387       0.00044507      -0.00061696 </v>
   <v>      -0.00015770       0.00026537       0.00017130 </v>
   <v>      -0.00021194      -0.00050801       0.00013513 </v>
   <v>      -0.00012413      -0.00050562       0.00013740 </v>
   <v>      -0.00016218      -0.00031580       0.00007180 </v>
   <v>       0.00105680       0.00277968      -0.00000125 </v>
   <v>      -0.00137186       0.00277885       0.00000576 </v>
   <v>      -0.00015707       0.00009660      -0.00013901 </v>
   <v>       0.00042661      -0.00099728      -0.00012673 </v>
   <v>      -0.00077510      -0.00100233      -0.00012235 </v>
   <v>      -0.00016088      -0.00015087      -0.00003849 </v>
   <v>      -0.00073024       0.00034910      -0.00039187 </v>
   <v>       0.00040154       0.00034208      -0.00038851 </v>
   <v>      -0.00016211       0.00019694       0.00018493 </v>
   <v>      -0.00018185      -0.00049329       0.00019486 </v>
   <v>      -0.00015985      -0.00049248       0.00019563 </v>
   <v>      -0.00015842      -0.00030357       0.00016090 </v>
   <v>      -0.00007247       0.00115847      -0.00143469 </v>
   <v>      -0.00082733       0.00106278      -0.00030310 </v>
   <v>       0.00029106       0.00104699      -0.00032107 </v>
   <v>      -0.00006020       0.00308720       0.00224188 </v>
   <v>       0.00004965      -0.00002358       0.00009074 </v>
   <v>      -0.00059753      -0.00004255       0.00006655 </v>
   <v>      -0.00007381       0.00156964       0.00209301 </v>
   <v>      -0.00039755       0.00004389       0.00005767 </v>
   <v>      -0.00013933       0.00002711       0.00008515 </v>
   <v>      -0.00007265       0.00056202      -0.00054947 </v>
   <v>       0.00036124       0.00073444      -0.00034144 </v>
   <v>      -0.00089142       0.00072170      -0.00032395 </v>
   <v>      -0.00010062      -0.00459107      -0.00057000 </v>
   <v>       0.00031231      -0.00109220      -0.00030799 </v>
   <v>      -0.00086725      -0.00110858      -0.00029875 </v>
   <v>      -0.00007466       0.00085462      -0.00014158 </v>
   <v>      -0.00039294       0.00053788       0.00000141 </v>
   <v>      -0.00014559       0.00051992       0.00001292 </v>
   <v>      -0.00010580      -0.00430828       0.00464773 </v>
   <v>      -0.00058814      -0.00120640      -0.00047230 </v>
   <v>       0.00003593      -0.00122568      -0.00051291 </v>
   <v>      -0.00007561       0.00108820      -0.00032136 </v>
   <v>      -0.00008778       0.00056709       0.00005996 </v>
   <v>      -0.00044852       0.00056515       0.00002846 </v>
  </varray>
  <varray name="stress" >
   <v>      -0.05276438       0.00476968       0.00004218 </v>
   <v>       0.00403747      -0.02730800       0.00554176 </v>
   <v>       0.00004213       0.00554139      -0.03749957 </v>
  </varray>
  <energy>
   <i name="e_fr_energy">   -616.43237525 </i>
   <i name="e_wo_entrp">   -616.43237525 </i>
   <i name="e_0_energy">     -0.00000000 </i>
  </energy>
  <time name="totalsc"> 5602.53 5654.60</time>
  <eigenvalues>
   <array>
    <dimension dim="1">band</dimension>
    <dimension dim="2">kpoint</dimension>
    <dimension dim="3">spin</dimension>
    <field>eigene</field>
    <field>occ</field>
    <set>
     <set comment="spin 1">
      <set comment="kpoint 1">
       <r>  -51.4826    1.0000 </r>
       <r>  -51.4823    1.0000 </r>
       <r>  -51.4822    1.0000 </r>
       <r>  -51.4817    1.0000 </r>
       <r>  -51.4817    1.0000 </r>
       <r>  -51.4817    1.0000 </r>
       <r>  -51.4670    1.0000 </r>
       <r>  -51.4667    1.0000 </r>
       <r>  -51.4666    1.0000 </r>
       <r>  -51.4666    1.0000 </r>
       <r>  -51.4666    1.0000 </r>
       <r>  -51.4665    1.0000 </r>
       <r>  -51.4661    1.0000 </r>
       <r>  -51.4661    1.0000 </r>
       <r>  -51.4661    1.0000 </r>
       <r>  -51.4660    1.0000 </r>
       <r>  -51.4660    1.0000 </r>
       <r>  -51.4659    1.0000 </r>
       <r>  -51.4512    1.0000 </r>
       <r>  -51.4511    1.0000 </r>
       <r>  -51.4510    1.0000 </r>
       <r>  -51.4505    1.0000 </r>
       <r>  -51.4505    1.0000 </r>
       <r>  -51.4505    1.0000 </r>
       <r>  -50.2021    1.0000 </r>
       <r>  -50.2018    1.0000 </r>
       <r>  -50.2017    1.0000 </r>
       <r>  -50.2012    1.0000 </r>
       <r>  -50.2010    1.0000 </r>
       <r>  -50.2007    1.0000 </r>
       <r>  -50.1992    1.0000 </r>
       <r>  -50.1991    1.0000 </r>
       <r>  -50.1990    1.0000 </r>
       <r>  -50.1989    1.0000 </r>
       <r>  -50.1988    1.0000 </r>
       <r>  -50.1988    1.0000 </r>
       <r>  -50.1985    1.0000 </r>
       <r>  -50.1984    1.0000 </r>
       <r>  -50.1982    1.0000 </r>
       <r>  -50.1981    1.0000 </r>
       <r>  -50.1980    1.0000 </r>
       <r>  -50.1978    1.0000 </r>
       <r>  -50.1963    1.0000 </r>
       <r>  -50.1961    1.0000 </r>
       <r>  -50.1958    1.0000 </r>
       <r>  -50.1957    1.0000 </r>
       <r>  -50.1954    1.0000 </r>
       <r>  -50.1951    1.0000 </r>
       <r>  -50.0071    1.0000 </r>
       <r>  -50.0071    1.0000 </r>
       <r>  -50.0070    1.0000 </r>
       <r>  -50.0066    1.0000 </r>
       <r>  -50.0065    1.0000 </r>
       <r>  -50.0065    1.0000 </r>
       <r>  -49.9910    1.0000 </r>
       <r>  -49.9908    1.0000 </r>
       <r>  -49.9908    1.0000 </r>
       <r>  -49.9908    1.0000 </r>
       <r>  -49.9907    1.0000 </r>
       <r>  -49.9906    1.0000 </r>
       <r>  -49.9905    1.0000 </r>
       <r>  -49.9903    1.0000 </r>
       <r>  -49.9903    1.0000 </r>
       <r>  -49.9903    1.0000 </r>
       <r>  -49.9902    1.0000 </r>
       <r>  -49.9901    1.0000 </r>
       <r>  -49.9743    1.0000 </r>
       <r>  -49.9743    1.0000 </r>
       <r>  -49.9742    1.0000 </r>
       <r>  -49.9738    1.0000 </r>
       <r>  -49.9737    1.0000 </r>
       <r>  -49.9737    1.0000 </r>
       <r>  -40.5259    1.0000 </r>
       <r>  -40.5253    1.0000 </r>
       <r>  -40.5235    1.0000 </r>
       <r>  -40.5228    1.0000 </r>
       <r>  -40.5227    1.0000 </r>
       <r>  -40.5226    1.0000 </r>
       <r>  -40.5163    1.0000 </r>
       <r>  -40.5161    1.0000 </r>
       <r>  -40.5161    1.0000 </r>
       <r>  -40.5160    1.0000 </r>
       <r>  -40.5149    1.0000 </r>
       <r>  -40.5147    1.0000 </r>
       <r>  -40.5147    1.0000 </r>
       <r>  -40.5147    1.0000 </r>
       <r>  -40.5145    1.0000 </r>
       <r>  -40.5144    1.0000 </r>
       <r>  -40.5144    1.0000 </r>
       <r>  -40.5144    1.0000 </r>
       <r>  -40.5067    1.0000 </r>
       <r>  -40.5065    1.0000 </r>
       <r>  -40.5064    1.0000 </r>
       <r>  -40.5063    1.0000 </r>
       <r>  -40.5062    1.0000 </r>
       <r>  -40.5060    1.0000 </r>
       <r>  -40.3103    1.0000 </r>
       <r>  -40.3100    1.0000 </r>
       <r>  -40.3083    1.0000 </r>
       <r>  -40.3081    1.0000 </r>
       <r>  -40.3080    1.0000 </r>
       <r>  -40.3078    1.0000 </r>
       <r>  -40.3077    1.0000 </r>
       <r>  -40.3077    1.0000 </r>
       <r>  -40.3076    1.0000 </r>
       <r>  -40.3074    1.0000 </r>
       <r>  -40.3071    1.0000 </r>
       <r>  -40.3071    1.0000 </r>
       <r>  -40.3071    1.0000 </r>
       <r>  -40.3070    1.0000 </r>
       <r>  -40.3070    1.0000 </r>
       <r>  -40.3070    1.0000 </r>
       <r>  -40.3069    1.0000 </r>
       <r>  -40.3069    1.0000 </r>
       <r>  -40.3068    1.0000 </r>
       <r>  -40.3067    1.0000 </r>
       <r>  -40.3063    1.0000 </r>
       <r>  -40.3056    1.0000 </r>
       <r>  -40.3053    1.0000 </r>
       <r>  -40.3047    1.0000 </r>
       <r>  -13.5428    1.0000 </r>
       <r>  -13.5425    1.0000 </r>
       <r>  -13.5129    1.0000 </r>
       <r>  -13.5120    1.0000 </r>
       <r>  -13.5111    1.0000 </r>
       <r>  -13.4891    1.0000 </r>
       <r>  -13.3766    1.0000 </r>
       <r>  -13.3745    1.0000 </r>
       <r>  -13.3743    1.0000 </r>
       <r>  -13.3739    1.0000 </r>
       <r>  -13.3737    1.0000 </r>
       <r>  -13.3731    1.0000 </r>
       <r>  -13.3730    1.0000 </r>
       <r>  -13.3718    1.0000 </r>
       <r>  -13.3412    1.0000 </r>
       <r>  -13.3400    1.0000 </r>
       <r>  -13.3375    1.0000 </r>
       <r>  -13.3363    1.0000 </r>
       <r>  -13.2388    1.0000 </r>
       <r>  -13.2385    1.0000 </r>
       <r>  -13.2022    1.0000 </r>
       <r>  -13.2018    1.0000 </r>
       <r>  -13.1975    1.0000 </r>
       <r>  -13.1651    1.0000 </r>
       <r>   -7.7340    1.0000 </r>
       <r>   -7.6691    1.0000 </r>
       <r>   -7.5823    1.0000 </r>
       <r>   -7.5816    1.0000 </r>
       <r>   -7.5405    1.0000 </r>
       <r>   -7.5397    1.0000 </r>
       <r>   -7.5299    1.0000 </r>
       <r>   -7.5299    1.0000 </r>
       <r>   -7.4080    1.0000 </r>
       <r>   -7.3738    1.0000 </r>
       <r>   -7.3738    1.0000 </r>
       <r>   -7.3516    1.0000 </r>
       <r>   -7.3514    1.0000 </r>
       <r>   -7.3509    1.0000 </r>
       <r>   -7.3506    1.0000 </r>
       <r>   -7.3428    1.0000 </r>
       <r>   -7.3425    1.0000 </r>
       <r>   -7.3421    1.0000 </r>
       <r>   -7.3418    1.0000 </r>
       <r>   -7.3142    1.0000 </r>
       <r>   -7.3142    1.0000 </r>
       <r>   -7.2335    1.0000 </r>
       <r>   -7.1156    1.0000 </r>
       <r>   -7.1155    1.0000 </r>
       <r>   -1.9249    1.0000 </r>
       <r>   -1.9145    1.0000 </r>
       <r>   -1.8863    1.0000 </r>
       <r>   -1.8447    1.0000 </r>
       <r>   -1.8445    1.0000 </r>
       <r>   -1.7995    1.0000 </r>
       <r>   -1.7993    1.0000 </r>
       <r>   -1.7914    1.0000 </r>
       <r>   -1.7913    1.0000 </r>
       <r>   -1.7913    1.0000 </r>
       <r>   -1.7778    1.0000 </r>
       <r>   -1.7776    1.0000 </r>
       <r>   -1.5321    1.0000 </r>
       <r>   -1.5318    1.0000 </r>
       <r>   -1.5147    1.0000 </r>
       <r>   -1.5144    1.0000 </r>
       <r>   -1.4877    1.0000 </r>
       <r>   -1.4874    1.0000 </r>
       <r>   -1.4873    1.0000 </r>
       <r>   -1.4873    1.0000 </r>
       <r>   -1.4734    1.0000 </r>
       <r>   -1.4730    1.0000 </r>
       <r>   -1.4729    1.0000 </r>
       <r>   -1.4728    1.0000 </r>
       <r>   -1.4339    1.0000 </r>
       <r>   -1.4338    1.0000 </r>
       <r>   -1.3244    1.0000 </r>
       <r>   -1.3243    1.0000 </r>
       <r>   -1.2049    1.0000 </r>
       <r>   -1.1835    1.0000 </r>
       <r>   -1.1564    1.0000 </r>
       <r>   -1.1560    1.0000 </r>
       <r>   -1.1559    1.0000 </r>
       <r>   -1.1557    1.0000 </r>
       <r>   -1.0795    1.0000 </r>
       <r>   -1.0794    1.0000 </r>
       <r>   -1.0580    1.0000 </r>
       <r>   -1.0580    1.0000 </r>
       <r>   -1.0578    1.0000 </r>
       <r>   -1.0578    1.0000 </r>
       <r>   -0.9972    1.0000 </r>
       <r>   -0.9971    1.0000 </r>
       <r>   -0.9797    1.0000 </r>
       <r>   -0.9794    1.0000 </r>
       <r>   -0.9377    1.0000 </r>
       <r>   -0.9377    1.0000 </r>
       <r>   -0.9375    1.0000 </r>
       <r>   -0.9375    1.0000 </r>
       <r>   -0.9175    1.0000 </r>
       <r>   -0.9172    1.0000 </r>
       <r>   -0.9172    1.0000 </r>
       <r>   -0.9172    1.0000 </r>
       <r>   -0.9073    1.0000 </r>
       <r>   -0.9073    1.0000 </r>
       <r>   -0.8209    1.0000 </r>
       <r>   -0.8206    1.0000 </r>
       <r>   -0.8182    1.0000 </r>
       <r>   -0.8179    1.0000 </r>
       <r>   -0.6977    1.0000 </r>
       <r>   -0.6675    1.0000 </r>
       <r>   -0.6390    1.0000 </r>
       <r>   -0.6021    1.0000 </r>
       <r>   -0.5697    1.0000 </r>
       <r>   -0.5059    1.0000 </r>
       <r>   -0.5050    1.0000 </r>
       <r>   -0.5048    1.0000 </r>
       <r>   -0.5046    1.0000 </r>
       <r>   -0.5044    1.0000 </r>
       <r>   -0.4615    1.0000 </r>
       <r>   -0.4615    1.0000 </r>
       <r>   -0.4590    1.0000 </r>
       <r>   -0.4589    1.0000 </r>
       <r>   -0.3993    1.0000 </r>
       <r>   -0.3993    1.0000 </r>
       <r>   -0.3980    1.0000 </r>
       <r>   -0.3978    1.0000 </r>
       <r>   -0.3976    1.0000 </r>
       <r>   -0.3973    1.0000 </r>
       <r>   -0.2857    1.0000 </r>
       <r>   -0.2854    1.0000 </r>
       <r>   -0.2820    1.0000 </r>
       <r>   -0.2819    1.0000 </r>
       <r>   -0.2795    1.0000 </r>
       <r>   -0.2792    1.0000 </r>
       <r>   -0.1798    1.0000 </r>
       <r>   -0.1759    1.0000 </r>
       <r>   -0.1462    1.0000 </r>
       <r>   -0.1461    1.0000 </r>
       <r>   -0.1330    1.0000 </r>
       <r>   -0.1328    1.0000 </r>
       <r>   -0.0907    1.0000 </r>
       <r>   -0.0907    1.0000 </r>
       <r>   -0.0023    1.0000 </r>
       <r>    0.0235    1.0000 </r>
       <r>    0.0857    1.0000 </r>
       <r>    0.0861    1.0000 </r>
       <r>    0.0920    1.0000 </r>
       <r>    0.0921    1.0000 </r>
       <r>    0.1630    1.0000 </r>
       <r>    0.2044    1.0000 </r>
       <r>    0.2045    1.0000 </r>
       <r>    0.2140    1.0000 </r>
       <r>    0.2141    1.0000 </r>
       <r>    0.2266    1.0000 </r>
       <r>    0.2275    1.0000 </r>
       <r>    0.2413    1.0000 </r>
       <r>    0.2633    1.0000 </r>
       <r>    0.2636    1.0000 </r>
       <r>    0.2784    1.0000 </r>
       <r>    0.2785    1.0000 </r>
       <r>    0.2788    1.0000 </r>
       <r>    0.2789    1.0000 </r>
       <r>    0.3585    1.0000 </r>
       <r>    0.3737    1.0000 </r>
       <r>    0.3737    1.0000 </r>
       <r>    0.3740    1.0000 </r>
       <r>    0.3741    1.0000 </r>
       <r>    0.4231    1.0000 </r>
       <r>    0.4232    1.0000 </r>
       <r>    0.4864    1.0000 </r>
       <r>    0.5397    1.0000 </r>
       <r>    0.5646    1.0000 </r>
       <r>    0.5647    1.0000 </r>
       <r>    0.6030    1.0000 </r>
       <r>    0.6031    1.0000 </r>
       <r>    0.6394    1.0000 </r>
       <r>    0.6881    1.0000 </r>
       <r>    0.6881    1.0000 </r>
       <r>    0.7936    1.0000 </r>
       <r>    0.7936    1.0000 </r>
       <r>    0.7974    1.0000 </r>
       <r>    0.7975    1.0000 </r>
       <r>    0.8229    1.0000 </r>
       <r>    0.8231    1.0000 </r>
       <r>    0.8232    1.0000 </r>
       <r>    0.8232    1.0000 </r>
       <r>    0.8429    1.0000 </r>
       <r>    0.8756    1.0000 </r>
       <r>    0.8756    1.0000 </r>
       <r>    0.8787    1.0000 </r>
       <r>    0.8791    1.0000 </r>
       <r>    0.9234    1.0000 </r>
       <r>    0.9236    1.0000 </r>
       <r>    0.9237    1.0000 </r>
       <r>    0.9238    1.0000 </r>
       <r>    0.9569    1.0000 </r>
       <r>    1.1229    1.0000 </r>
       <r>    1.1232    1.0000 </r>
       <r>    1.1638    1.0000 </r>
       <r>    1.1641    1.0000 </r>
       <r>    1.2473    1.0000 </r>
[...]
       <r>   -39.9623     0.1321   120.0000 </r>
       <r>   -39.7241     0.0000   120.0000 </r>
       <r>   -39.4859     0.0000   120.0000 </r>
       <r>   -39.2477     0.0000   120.0000 </r>
       <r>   -39.0095     0.0000   120.0000 </r>
       <r>   -38.7713     0.0000   120.0000 </r>
       <r>   -38.5331     0.0000   120.0000 </r>
       <r>   -38.2949     0.0000   120.0000 </r>
       <r>   -38.0567     0.0000   120.0000 </r>
       <r>   -37.8185     0.0000   120.0000 </r>
       <r>   -37.5802     0.0000   120.0000 </r>
       <r>   -37.3420     0.0000   120.0000 </r>
       <r>   -37.1038     0.0000   120.0000 </r>
       <r>   -36.8656     0.0000   120.0000 </r>
       <r>   -36.6274     0.0000   120.0000 </r>
       <r>   -36.3892     0.0000   120.0000 </r>
       <r>   -36.1510     0.0000   120.0000 </r>
       <r>   -35.9128     0.0000   120.0000 </r>
       <r>   -35.6746     0.0000   120.0000 </r>
       <r>   -35.4364     0.0000   120.0000 </r>
       <r>   -35.1982     0.0000   120.0000 </r>
       <r>   -34.9600     0.0000   120.0000 </r>
       <r>   -34.7218     0.0000   120.0000 </r>
       <r>   -34.4836     0.0000   120.0000 </r>
       <r>   -34.2454     0.0000   120.0000 </r>
       <r>   -34.0072     0.0000   120.0000 </r>
       <r>   -33.7690     0.0000   120.0000 </r>
       <r>   -33.5308     0.0000   120.0000 </r>
       <r>   -33.2926     0.0000   120.0000 </r>
       <r>   -33.0544     0.0000   120.0000 </r>
       <r>   -32.8162     0.0000   120.0000 </r>
       <r>   -32.5780     0.0000   120.0000 </r>
       <r>   -32.3398     0.0000   120.0000 </r>
       <r>   -32.1016     0.0000   120.0000 </r>
       <r>   -31.8634     0.0000   120.0000 </r>
       <r>   -31.6252     0.0000   120.0000 </r>
       <r>   -31.3870     0.0000   120.0000 </r>
       <r>   -31.1488     0.0000   120.0000 </r>
       <r>   -30.9106     0.0000   120.0000 </r>
       <r>   -30.6724     0.0000   120.0000 </r>
       <r>   -30.4342     0.0000   120.0000 </r>
       <r>   -30.1960     0.0000   120.0000 </r>
       <r>   -29.9578     0.0000   120.0000 </r>
       <r>   -29.7196     0.0000   120.0000 </r>
       <r>   -29.4813     0.0000   120.0000 </r>
       <r>   -29.2431     0.0000   120.0000 </r>
       <r>   -29.0049     0.0000   120.0000 </r>
       <r>   -28.7667     0.0000   120.0000 </r>
       <r>   -28.5285     0.0000   120.0000 </r>
       <r>   -28.2903     0.0000   120.0000 </r>
       <r>   -28.0521     0.0000   120.0000 </r>
       <r>   -27.8139     0.0000   120.0000 </r>
       <r>   -27.5757     0.0000   120.0000 </r>
       <r>   -27.3375     0.0000   120.0000 </r>
       <r>   -27.0993     0.0000   120.0000 </r>
       <r>   -26.8611     0.0000   120.0000 </r>
       <r>   -26.6229     0.0000   120.0000 </r>
       <r>   -26.3847     0.0000   120.0000 </r>
       <r>   -26.1465     0.0000   120.0000 </r>
       <r>   -25.9083     0.0000   120.0000 </r>
       <r>   -25.6701     0.0000   120.0000 </r>
       <r>   -25.4319     0.0000   120.0000 </r>
       <r>   -25.1937     0.0000   120.0000 </r>
       <r>   -24.9555     0.0000   120.0000 </r>
       <r>   -24.7173     0.0000   120.0000 </r>
       <r>   -24.4791     0.0000   120.0000 </r>
       <r>   -24.2409     0.0000   120.0000 </r>
       <r>   -24.0027     0.0000   120.0000 </r>
       <r>   -23.7645     0.0000   120.0000 </r>
       <r>   -23.5263     0.0000   120.0000 </r>
       <r>   -23.2881     0.0000   120.0000 </r>
       <r>   -23.0499     0.0000   120.0000 </r>
       <r>   -22.8117     0.0000   120.0000 </r>
       <r>   -22.5735     0.0000   120.0000 </r>
       <r>   -22.3353     0.0000   120.0000 </r>
       <r>   -22.0971     0.0000   120.0000 </r>
       <r>   -21.8589     0.0000   120.0000 </r>
       <r>   -21.6207     0.0000   120.0000 </r>
       <r>   -21.3824     0.0000   120.0000 </r>
       <r>   -21.1442     0.0000   120.0000 </r>
       <r>   -20.9060     0.0000   120.0000 </r>
       <r>   -20.6678     0.0000   120.0000 </r>
       <r>   -20.4296     0.0000   120.0000 </r>
       <r>   -20.1914     0.0000   120.0000 </r>
       <r>   -19.9532     0.0000   120.0000 </r>
       <r>   -19.7150     0.0000   120.0000 </r>
       <r>   -19.4768     0.0000   120.0000 </r>
       <r>   -19.2386     0.0000   120.0000 </r>
       <r>   -19.0004     0.0000   120.0000 </r>
       <r>   -18.7622     0.0000   120.0000 </r>
       <r>   -18.5240     0.0000   120.0000 </r>
       <r>   -18.2858     0.0000   120.0000 </r>
       <r>   -18.0476     0.0000   120.0000 </r>
       <r>   -17.8094     0.0000   120.0000 </r>
       <r>   -17.5712     0.0000   120.0000 </r>
       <r>   -17.3330     0.0000   120.0000 </r>
       <r>   -17.0948     0.0000   120.0000 </r>
       <r>   -16.8566     0.0000   120.0000 </r>
       <r>   -16.6184     0.0000   120.0000 </r>
       <r>   -16.3802     0.0000   120.0000 </r>
       <r>   -16.1420     0.0000   120.0000 </r>
       <r>   -15.9038     0.0000   120.0000 </r>
       <r>   -15.6656     0.0000   120.0000 </r>
       <r>   -15.4274     0.0000   120.0000 </r>
       <r>   -15.1892     0.0000   120.0000 </r>
       <r>   -14.9510     0.0000   120.0000 </r>
       <r>   -14.7128     0.0000   120.0000 </r>
       <r>   -14.4746     0.0000   120.0000 </r>
       <r>   -14.2364     0.0000   120.0000 </r>
       <r>   -13.9982     0.0000   120.0000 </r>
       <r>   -13.7600     0.0000   120.0000 </r>
       <r>   -13.5218     0.0000   120.0000 </r>
       <r>   -13.2835     0.3127   120.0745 </r>
       <r>   -13.0453    66.9234   136.0158 </r>
       <r>   -12.8071    33.5183   144.0000 </r>
       <r>   -12.5689     0.0000   144.0000 </r>
       <r>   -12.3307     0.0000   144.0000 </r>
       <r>   -12.0925     0.0000   144.0000 </r>
       <r>   -11.8543     0.0000   144.0000 </r>
       <r>   -11.6161     0.0000   144.0000 </r>
       <r>   -11.3779     0.0000   144.0000 </r>
       <r>   -11.1397     0.0000   144.0000 </r>
       <r>   -10.9015     0.0000   144.0000 </r>
       <r>   -10.6633     0.0000   144.0000 </r>
       <r>   -10.4251     0.0000   144.0000 </r>
       <r>   -10.1869     0.0000   144.0000 </r>
       <r>    -9.9487     0.0000   144.0000 </r>
       <r>    -9.7105     0.0000   144.0000 </r>
       <r>    -9.4723     0.0000   144.0000 </r>
       <r>    -9.2341     0.0000   144.0000 </r>
       <r>    -8.9959     0.0000   144.0000 </r>
       <r>    -8.7577     0.0000   144.0000 </r>
       <r>    -8.5195     0.0000   144.0000 </r>
       <r>    -8.2813     0.0000   144.0000 </r>
       <r>    -8.0431     0.0000   144.0000 </r>
       <r>    -7.8049     0.0000   144.0000 </r>
       <r>    -7.5667     0.1247   144.0297 </r>
       <r>    -7.3285    28.7827   150.8858 </r>
       <r>    -7.0903    49.3620   162.6440 </r>
       <r>    -6.8521    21.8044   167.8379 </r>
       <r>    -6.6139     0.6806   168.0000 </r>
       <r>    -6.3757     0.0000   168.0000 </r>
       <r>    -6.1375     0.0000   168.0000 </r>
       <r>    -5.8993     0.0000   168.0000 </r>
       <r>    -5.6611     0.0000   168.0000 </r>
       <r>    -5.4229     0.0000   168.0000 </r>
       <r>    -5.1846     0.0000   168.0000 </r>
       <r>    -4.9464     0.0000   168.0000 </r>
       <r>    -4.7082     0.0000   168.0000 </r>
       <r>    -4.4700     0.0000   168.0000 </r>
       <r>    -4.2318     0.0000   168.0000 </r>
       <r>    -3.9936     0.0000   168.0000 </r>
       <r>    -3.7554     0.0000   168.0000 </r>
       <r>    -3.5172     0.0000   168.0000 </r>
       <r>    -3.2790     0.0000   168.0000 </r>
       <r>    -3.0408     0.0000   168.0000 </r>
       <r>    -2.8026     0.0000   168.0000 </r>
       <r>    -2.5644     0.0000   168.0000 </r>
       <r>    -2.3262     0.0000   168.0000 </r>
       <r>    -2.0880     0.0000   168.0000 </r>
       <r>    -1.8498     0.0000   168.0000 </r>
       <r>    -1.6116     0.0000   168.0000 </r>
       <r>    -1.3734     0.0000   168.0000 </r>
       <r>    -1.1352     0.0000   168.0000 </r>
       <r>    -0.8970     0.0000   168.0000 </r>
       <r>    -0.6588     1.7513   168.4172 </r>
       <r>    -0.4206    17.1501   172.5024 </r>
       <r>    -0.1824    38.7479   181.7322 </r>
       <r>     0.0558    35.2361   190.1256 </r>
       <r>     0.2940    22.6540   195.5218 </r>
       <r>     0.5322    48.6539   207.1113 </r>
       <r>     0.7704    48.4967   218.6634 </r>
       <r>     1.0086    68.4141   234.9598 </r>
       <r>     1.2468    26.3873   241.2454 </r>
       <r>     1.4850    22.8407   246.6861 </r>
       <r>     1.7232    38.0103   255.7402 </r>
       <r>     1.9614    46.0140   266.7009 </r>
       <r>     2.1996    29.5789   273.7467 </r>
       <r>     2.4378    35.8027   282.2750 </r>
       <r>     2.6760    25.3511   288.3137 </r>
       <r>     2.9143    45.6980   299.1991 </r>
       <r>     3.1525    41.7728   309.1495 </r>
       <r>     3.3907    14.6690   312.6437 </r>
       <r>     3.6289    30.2828   319.8571 </r>
       <r>     3.8671    57.1504   333.4705 </r>
       <r>     4.1053    10.6189   336.0000 </r>
       <r>     4.3435     0.0000   336.0000 </r>
       <r>     4.5817     0.0000   336.0000 </r>
       <r>     4.8199     0.0000   336.0000 </r>
       <r>     5.0581     0.0000   336.0000 </r>
       <r>     5.2963     0.0000   336.0000 </r>
       <r>     5.5345     0.0000   336.0000 </r>
       <r>     5.7727     0.0000   336.0000 </r>
       <r>     6.0109     0.0035   336.0008 </r>
       <r>     6.2491     1.8769   336.4479 </r>
       <r>     6.4873    13.4178   339.6441 </r>
       <r>     6.7255    26.9101   346.0541 </r>
       <r>     6.9637    25.0535   352.0220 </r>
       <r>     7.2019    57.2158   365.6509 </r>
       <r>     7.4401    76.0133   383.7575 </r>
       <r>     7.6783    29.4882   390.7817 </r>
       <r>     7.9165    41.1470   400.5830 </r>
       <r>     8.1547    77.6406   419.0773 </r>
       <r>     8.3929    50.7573   431.1678 </r>
       <r>     8.6311     3.9030   432.0975 </r>
       <r>     8.8693     1.1195   432.3642 </r>
       <r>     9.1075     4.4705   433.4291 </r>
       <r>     9.3457    10.5925   435.9522 </r>
       <r>     9.5839    20.8322   440.9145 </r>
       <r>     9.8221    28.7534   447.7636 </r>
       <r>    10.0603    30.1141   454.9369 </r>
       <r>    10.2985    30.1294   462.1138 </r>
       <r>    10.5367    25.8080   468.2614 </r>
       <r>    10.7749    25.9510   474.4430 </r>
       <r>    11.0132    24.4595   480.2693 </r>
       <r>    11.2514    10.2033   482.6998 </r>
       <r>    11.4896    25.7227   488.8270 </r>
       <r>    11.7278    30.1104   495.9994 </r>
       <r>    11.9660    56.7356   509.5140 </r>
       <r>    12.2042    44.5127   520.1170 </r>
       <r>    12.4424    26.8891   526.5221 </r>
       <r>    12.6806    23.6915   532.1655 </r>
       <r>    12.9188    27.6507   538.7520 </r>
       <r>    13.1570    33.0308   546.6200 </r>
       <r>    13.3952    18.5010   551.0270 </r>
       <r>    13.6334     4.0848   552.0000 </r>
       <r>    13.8716     0.0000   552.0000 </r>
       <r>    14.1098     0.0000   552.0000 </r>
       <r>    14.3480     0.0000   552.0000 </r>
       <r>    14.5862     0.0000   552.0000 </r>
       <r>    14.8244     0.0000   552.0000 </r>
       <r>    15.0626     0.0000   552.0000 </r>
       <r>    15.3008     0.0000   552.0000 </r>
       <r>    15.5390     0.0000   552.0000 </r>
       <r>    15.7772     0.0000   552.0000 </r>
       <r>    16.0154     0.0000   552.0000 </r>
       <r>    16.2536     0.0000   552.0000 </r>
       <r>    16.4918     0.0000   552.0000 </r>
       <r>    16.7300     0.0000   552.0000 </r>
      </set>
     </set>
    </array>
   </total>
  </dos>
 </calculation>
 <structure name="finalpos" >
  <crystal>
   <varray name="basis" >
    <v>      11.73572724      -0.05744286       0.00000000 </v>
    <v>       0.05480788      11.21833490       0.00000000 </v>
    <v>       0.00000000       0.00000000      11.19562010 </v>
   </varray>
   <i name="volume">   1473.99817718 </i>
   <varray name="rec_basis" >
    <v>       0.08520785      -0.00041629       0.00000000 </v>
    <v>       0.00043630       0.08913766       0.00000000 </v>
    <v>       0.00000000       0.00000000       0.08932064 </v>
   </varray>
  </crystal>
  <varray name="positions" >
   <v>       0.03541706       0.36277547       0.35648149 </v>
   <v>       0.36875039       0.36277547       0.35648149 </v>
   <v>       0.70208372       0.36277547       0.35648149 </v>
   <v>       0.03541706       0.86277547       0.35648149 </v>
   <v>       0.36875039       0.86277547       0.35648149 </v>
   <v>       0.70208372       0.86277547       0.35648149 </v>
   <v>       0.03541706       0.36277547       0.85648149 </v>
   <v>       0.36875039       0.36277547       0.85648149 </v>
   <v>       0.70208372       0.36277547       0.85648149 </v>
   <v>       0.03541706       0.86277547       0.85648149 </v>
   <v>       0.36875039       0.86277547       0.85648149 </v>
   <v>       0.70208372       0.86277547       0.85648149 </v>
   <v>       0.03541706       0.11277547       0.14351851 </v>
   <v>       0.36875039       0.11277547       0.14351851 </v>
   <v>       0.70208372       0.11277547       0.14351851 </v>
   <v>       0.03541706       0.61277547       0.14351851 </v>
   <v>       0.36875039       0.61277547       0.14351851 </v>
   <v>       0.70208372       0.61277547       0.14351851 </v>
   <v>       0.03541706       0.11277547       0.64351851 </v>
   <v>       0.36875039       0.11277547       0.64351851 </v>
   <v>       0.70208372       0.11277547       0.64351851 </v>
   <v>       0.03541706       0.61277547       0.64351851 </v>
   <v>       0.36875039       0.61277547       0.64351851 </v>
   <v>       0.70208372       0.61277547       0.64351851 </v>
   <v>       0.20209458       0.21987199       0.27246215 </v>
   <v>       0.53542792       0.21898060       0.27246215 </v>
   <v>       0.86876125       0.21898060       0.27246215 </v>
   <v>       0.20209458       0.71898060       0.27246215 </v>
   <v>       0.53542792       0.71898060       0.27246215 </v>
   <v>       0.86876125       0.71898060       0.27246215 </v>
   <v>       0.20209458       0.21898060       0.77246215 </v>
   <v>       0.53542792       0.21898060       0.77246215 </v>
   <v>       0.86876125       0.21898060       0.77246215 </v>
   <v>       0.20209458       0.71898060       0.77246215 </v>
   <v>       0.53542792       0.71898060       0.77246215 </v>
   <v>       0.86876125       0.71898060       0.77246215 </v>
   <v>       0.20209458       0.46898060       0.22753785 </v>
   <v>       0.53542792       0.46898060       0.22753785 </v>
   <v>       0.86876125       0.46898060       0.22753785 </v>
   <v>       0.20209458       0.96898060       0.22753785 </v>
   <v>       0.53542792       0.96898060       0.22753785 </v>
   <v>       0.86876125       0.96898060       0.22753785 </v>
   <v>       0.20209458       0.46898060       0.72753785 </v>
   <v>       0.53542792       0.46898060       0.72753785 </v>
   <v>       0.86876125       0.46898060       0.72753785 </v>
   <v>       0.20209458       0.96898060       0.72753785 </v>
   <v>       0.53542792       0.96898060       0.72753785 </v>
   <v>       0.86876125       0.96898060       0.72753785 </v>
   <v>       0.20209064       0.36769237       0.37376509 </v>
   <v>       0.53542398       0.36769237       0.37376509 </v>
   <v>       0.86875731       0.36769237       0.37376509 </v>
   <v>       0.20209064       0.86769237       0.37376509 </v>
   <v>       0.53542398       0.86769237       0.37376509 </v>
   <v>       0.86875731       0.86769237       0.37376509 </v>
   <v>       0.20209064       0.36769237       0.87376509 </v>
   <v>       0.53542398       0.36769237       0.87376509 </v>
   <v>       0.86875731       0.36769237       0.87376509 </v>
   <v>       0.20209064       0.86769237       0.87376509 </v>
   <v>       0.53542398       0.86769237       0.87376509 </v>
   <v>       0.86875731       0.86769237       0.87376509 </v>
   <v>       0.20209064       0.11769237       0.12623491 </v>
   <v>       0.53542398       0.11769237       0.12623491 </v>
   <v>       0.86875731       0.11769237       0.12623491 </v>
   <v>       0.20209064       0.61769237       0.12623491 </v>
   <v>       0.53542398       0.61769237       0.12623491 </v>
   <v>       0.86875731       0.61769237       0.12623491 </v>
   <v>       0.20209064       0.11769237       0.62623491 </v>
   <v>       0.53542398       0.11769237       0.62623491 </v>
   <v>       0.86875731       0.11769237       0.62623491 </v>
   <v>       0.20209064       0.61769237       0.62623491 </v>
   <v>       0.53542398       0.61769237       0.62623491 </v>
   <v>       0.86875731       0.61769237       0.62623491 </v>
   <v>       0.03542751       0.37011947       0.12029448 </v>
   <v>       0.36876084       0.37011947       0.12029448 </v>
   <v>       0.70209418       0.37011947       0.12029448 </v>
   <v>       0.03542751       0.87011947       0.12029448 </v>
   <v>       0.36876084       0.87011947       0.12029448 </v>
   <v>       0.70209418       0.87011947       0.12029448 </v>
   <v>       0.03542751       0.37011947       0.62029448 </v>
   <v>       0.36876084       0.37011947       0.62029448 </v>
   <v>       0.70209418       0.37011947       0.62029448 </v>
   <v>       0.03542751       0.87011947       0.62029448 </v>
   <v>       0.36876084       0.87011947       0.62029448 </v>
   <v>       0.70209418       0.87011947       0.62029448 </v>
   <v>       0.03542751       0.12011947       0.37970552 </v>
   <v>       0.36876084       0.12011947       0.37970552 </v>
   <v>       0.70209418       0.12011947       0.37970552 </v>
   <v>       0.03542751       0.62011947       0.37970552 </v>
   <v>       0.36876084       0.62011947       0.37970552 </v>
   <v>       0.70209418       0.62011947       0.37970552 </v>
   <v>       0.03542751       0.12011947       0.87970552 </v>
   <v>       0.36876084       0.12011947       0.87970552 </v>
   <v>       0.70209418       0.12011947       0.87970552 </v>
   <v>       0.03542751       0.62011947       0.87970552 </v>
   <v>       0.36876084       0.62011947       0.87970552 </v>
   <v>       0.70209418       0.62011947       0.87970552 </v>
   <v>       0.20209387       0.01225309       0.48003463 </v>
   <v>       0.53542720       0.01225309       0.48003463 </v>
   <v>       0.86876054       0.01225309       0.48003463 </v>
   <v>       0.20209387       0.51225309       0.48003463 </v>
   <v>       0.53542720       0.51225309       0.48003463 </v>
   <v>       0.86876054       0.51225309       0.48003463 </v>
   <v>       0.20209387       0.01225309       0.98003463 </v>
   <v>       0.53542720       0.01225309       0.98003463 </v>
   <v>       0.86876054       0.01225309       0.98003463 </v>
   <v>       0.20209387       0.51225309       0.98003463 </v>
   <v>       0.53542720       0.51225309       0.98003463 </v>
   <v>       0.86876054       0.51225309       0.98003463 </v>
   <v>       0.20209387       0.26225309       0.01996537 </v>
   <v>       0.53542720       0.26225309       0.01996537 </v>
   <v>       0.86876054       0.26225309       0.01996537 </v>
   <v>       0.20209387       0.76225309       0.01996537 </v>
   <v>       0.53542720       0.76225309       0.01996537 </v>
   <v>       0.86876054       0.76225309       0.01996537 </v>
   <v>       0.20209387       0.26225309       0.51996537 </v>
   <v>       0.53542720       0.26225309       0.51996537 </v>
   <v>       0.86876054       0.26225309       0.51996537 </v>
   <v>       0.20209387       0.76225309       0.51996537 </v>
   <v>       0.53542720       0.76225309       0.51996537 </v>
   <v>       0.86876054       0.76225309       0.51996537 </v>
  </varray>
 </structure>
</modeling>
