  88  88   0   0
  0.1431748E+02  0.1111223E-08  0.1111745E-08  0.1056954E-08  0.5000000E-15
  1.000000000000000E-004
  CAR 
 unknown system                          
     17.89350576    -54.33909750  301      5.19260635      1.00000000
    -54.339  0.0000E+00  0.0000E+00  0.0000E+00  0.0000E+00
    -54.098  0.0000E+00  0.0000E+00  0.0000E+00  0.0000E+00
    -53.858  0.0000E+00  0.0000E+00  0.0000E+00  0.0000E+00
    -53.617  0.0000E+00  0.0000E+00  0.0000E+00  0.0000E+00
    -53.376  0.0000E+00  0.0000E+00  0.0000E+00  0.0000E+00
    -53.135  0.0000E+00  0.0000E+00  0.0000E+00  0.0000E+00
    -52.894  0.0000E+00  0.0000E+00  0.0000E+00  0.0000E+00
    -52.654  0.0000E+00  0.0000E+00  0.0000E+00  0.0000E+00
    -52.413  0.0000E+00  0.0000E+00  0.0000E+00  0.0000E+00
    -52.172  0.0000E+00  0.0000E+00  0.0000E+00  0.0000E+00
    -51.931  0.0000E+00  0.0000E+00  0.0000E+00  0.0000E+00
    -51.691  0.0000E+00  0.0000E+00  0.0000E+00  0.0000E+00
    -51.450  0.0000E+00  0.0000E+00  0.0000E+00  0.0000E+00
    -51.209  0.4275E-03  0.0000E+00  0.1029E-03  0.0000E+00
    -50.968  0.1311E+03  0.0000E+00  0.3156E+02  0.0000E+00
    -50.727  0.1822E+01  0.0000E+00  0.3200E+02  0.0000E+00
    -50.487  0.0000E+00  0.0000E+00  0.3200E+02  0.0000E+00
    -50.246  0.0000E+00  0.0000E+00  0.3200E+02  0.0000E+00
    -50.005  0.0000E+00  0.0000E+00  0.3200E+02  0.0000E+00
    -49.764  0.2028E+01  0.0000E+00  0.3249E+02  0.0000E+00
    -49.524  0.2371E+03  0.0000E+00  0.8958E+02  0.0000E+00
    -49.283  0.2665E+02  0.0000E+00  0.9600E+02  0.0000E+00
    -49.042  0.0000E+00  0.0000E+00  0.9600E+02  0.0000E+00
    -48.801  0.0000E+00  0.0000E+00  0.9600E+02  0.0000E+00
    -48.560  0.0000E+00  0.0000E+00  0.9600E+02  0.0000E+00
    -48.320  0.0000E+00  0.0000E+00  0.9600E+02  0.0000E+00
    -48.079  0.0000E+00  0.0000E+00  0.9600E+02  0.0000E+00
    -47.838  0.0000E+00  0.0000E+00  0.9600E+02  0.0000E+00
    -47.597  0.0000E+00  0.0000E+00  0.9600E+02  0.0000E+00
    -47.357  0.0000E+00  0.0000E+00  0.9600E+02  0.0000E+00
    -47.116  0.0000E+00  0.0000E+00  0.9600E+02  0.0000E+00
    -46.875  0.0000E+00  0.0000E+00  0.9600E+02  0.0000E+00
    -46.634  0.0000E+00  0.0000E+00  0.9600E+02  0.0000E+00
    -46.394  0.0000E+00  0.3711E+00  0.9600E+02  0.8936E-01
    -46.153  0.0000E+00  0.1325E+03  0.9600E+02  0.3199E+02
    -45.912  0.0000E+00  0.6007E+02  0.9600E+02  0.4645E+02
    -45.671  0.0000E+00  0.2058E+03  0.9600E+02  0.9600E+02
    -45.430  0.0000E+00  0.0000E+00  0.9600E+02  0.9600E+02
    -45.190  0.0000E+00  0.0000E+00  0.9600E+02  0.9600E+02
    -44.949  0.0000E+00  0.0000E+00  0.9600E+02  0.9600E+02
    -44.708  0.0000E+00  0.0000E+00  0.9600E+02  0.9600E+02
    -44.467  0.0000E+00  0.0000E+00  0.9600E+02  0.9600E+02
    -44.227  0.0000E+00  0.0000E+00  0.9600E+02  0.9600E+02
    -43.986  0.0000E+00  0.0000E+00  0.9600E+02  0.9600E+02
    -43.745  0.0000E+00  0.0000E+00  0.9600E+02  0.9600E+02
    -43.504  0.0000E+00  0.0000E+00  0.9600E+02  0.9600E+02
    -43.263  0.0000E+00  0.0000E+00  0.9600E+02  0.9600E+02
    -43.023  0.0000E+00  0.0000E+00  0.9600E+02  0.9600E+02
    -42.782  0.0000E+00  0.0000E+00  0.9600E+02  0.9600E+02
    -42.541  0.0000E+00  0.0000E+00  0.9600E+02  0.9600E+02
    -42.300  0.0000E+00  0.0000E+00  0.9600E+02  0.9600E+02
    -42.060  0.0000E+00  0.0000E+00  0.9600E+02  0.9600E+02
    -41.819  0.0000E+00  0.0000E+00  0.9600E+02  0.9600E+02
    -41.578  0.0000E+00  0.0000E+00  0.9600E+02  0.9600E+02
    -41.337  0.0000E+00  0.0000E+00  0.9600E+02  0.9600E+02
    -41.096  0.0000E+00  0.0000E+00  0.9600E+02  0.9600E+02
    -40.856  0.0000E+00  0.0000E+00  0.9600E+02  0.9600E+02
    -40.615  0.0000E+00  0.0000E+00  0.9600E+02  0.9600E+02
    -40.374  0.0000E+00  0.0000E+00  0.9600E+02  0.9600E+02
    -40.133  0.1101E-11  0.6983E-12  0.9600E+02  0.9600E+02
    -39.893  0.1453E+02  0.1339E+02  0.9950E+02  0.9923E+02
    -39.652  0.5192E+02  0.5306E+02  0.1120E+03  0.1120E+03
    -39.411  0.0000E+00  0.0000E+00  0.1120E+03  0.1120E+03
    -39.170  0.0000E+00  0.0000E+00  0.1120E+03  0.1120E+03
    -38.929  0.0000E+00  0.0000E+00  0.1120E+03  0.1120E+03
    -38.689  0.0000E+00  0.0000E+00  0.1120E+03  0.1120E+03
    -38.448  0.0000E+00  0.0000E+00  0.1120E+03  0.1120E+03
    -38.207  0.0000E+00  0.0000E+00  0.1120E+03  0.1120E+03
    -37.966  0.0000E+00  0.0000E+00  0.1120E+03  0.1120E+03
    -37.726  0.0000E+00  0.0000E+00  0.1120E+03  0.1120E+03
    -37.485  0.0000E+00  0.0000E+00  0.1120E+03  0.1120E+03
    -37.244  0.0000E+00  0.0000E+00  0.1120E+03  0.1120E+03
    -37.003  0.0000E+00  0.0000E+00  0.1120E+03  0.1120E+03
    -36.762  0.0000E+00  0.0000E+00  0.1120E+03  0.1120E+03
    -36.522  0.0000E+00  0.0000E+00  0.1120E+03  0.1120E+03
    -36.281  0.0000E+00  0.0000E+00  0.1120E+03  0.1120E+03
    -36.040  0.0000E+00  0.0000E+00  0.1120E+03  0.1120E+03
    -35.799  0.0000E+00  0.0000E+00  0.1120E+03  0.1120E+03
    -35.559  0.0000E+00  0.0000E+00  0.1120E+03  0.1120E+03
    -35.318  0.0000E+00  0.0000E+00  0.1120E+03  0.1120E+03
    -35.077  0.0000E+00  0.0000E+00  0.1120E+03  0.1120E+03
    -34.836  0.0000E+00  0.0000E+00  0.1120E+03  0.1120E+03
    -34.596  0.0000E+00  0.0000E+00  0.1120E+03  0.1120E+03
    -34.355  0.0000E+00  0.0000E+00  0.1120E+03  0.1120E+03
    -34.114  0.0000E+00  0.0000E+00  0.1120E+03  0.1120E+03
    -33.873  0.0000E+00  0.0000E+00  0.1120E+03  0.1120E+03
    -33.632  0.0000E+00  0.0000E+00  0.1120E+03  0.1120E+03
    -33.392  0.0000E+00  0.0000E+00  0.1120E+03  0.1120E+03
    -33.151  0.0000E+00  0.0000E+00  0.1120E+03  0.1120E+03
    -32.910  0.0000E+00  0.0000E+00  0.1120E+03  0.1120E+03
    -32.669  0.0000E+00  0.0000E+00  0.1120E+03  0.1120E+03
    -32.429  0.0000E+00  0.0000E+00  0.1120E+03  0.1120E+03
    -32.188  0.0000E+00  0.0000E+00  0.1120E+03  0.1120E+03
    -31.947  0.0000E+00  0.0000E+00  0.1120E+03  0.1120E+03
    -31.706  0.0000E+00  0.0000E+00  0.1120E+03  0.1120E+03
    -31.465  0.0000E+00  0.0000E+00  0.1120E+03  0.1120E+03
    -31.225  0.0000E+00  0.0000E+00  0.1120E+03  0.1120E+03
    -30.984  0.0000E+00  0.0000E+00  0.1120E+03  0.1120E+03
    -30.743  0.0000E+00  0.0000E+00  0.1120E+03  0.1120E+03
    -30.502  0.0000E+00  0.0000E+00  0.1120E+03  0.1120E+03
    -30.262  0.0000E+00  0.0000E+00  0.1120E+03  0.1120E+03
    -30.021  0.0000E+00  0.0000E+00  0.1120E+03  0.1120E+03
    -29.780  0.0000E+00  0.0000E+00  0.1120E+03  0.1120E+03
    -29.539  0.0000E+00  0.0000E+00  0.1120E+03  0.1120E+03
    -29.298  0.0000E+00  0.0000E+00  0.1120E+03  0.1120E+03
    -29.058  0.0000E+00  0.0000E+00  0.1120E+03  0.1120E+03
    -28.817  0.0000E+00  0.0000E+00  0.1120E+03  0.1120E+03
    -28.576  0.0000E+00  0.0000E+00  0.1120E+03  0.1120E+03
    -28.335  0.0000E+00  0.0000E+00  0.1120E+03  0.1120E+03
    -28.095  0.0000E+00  0.0000E+00  0.1120E+03  0.1120E+03
    -27.854  0.0000E+00  0.0000E+00  0.1120E+03  0.1120E+03
    -27.613  0.0000E+00  0.0000E+00  0.1120E+03  0.1120E+03
    -27.372  0.0000E+00  0.0000E+00  0.1120E+03  0.1120E+03
    -27.131  0.0000E+00  0.0000E+00  0.1120E+03  0.1120E+03
    -26.891  0.0000E+00  0.0000E+00  0.1120E+03  0.1120E+03
    -26.650  0.0000E+00  0.0000E+00  0.1120E+03  0.1120E+03
    -26.409  0.0000E+00  0.0000E+00  0.1120E+03  0.1120E+03
    -26.168  0.0000E+00  0.0000E+00  0.1120E+03  0.1120E+03
    -25.928  0.0000E+00  0.0000E+00  0.1120E+03  0.1120E+03
    -25.687  0.0000E+00  0.0000E+00  0.1120E+03  0.1120E+03
    -25.446  0.0000E+00  0.0000E+00  0.1120E+03  0.1120E+03
    -25.205  0.0000E+00  0.0000E+00  0.1120E+03  0.1120E+03
    -24.965  0.0000E+00  0.0000E+00  0.1120E+03  0.1120E+03
    -24.724  0.0000E+00  0.0000E+00  0.1120E+03  0.1120E+03
    -24.483  0.0000E+00  0.0000E+00  0.1120E+03  0.1120E+03
    -24.242  0.0000E+00  0.0000E+00  0.1120E+03  0.1120E+03
    -24.001  0.0000E+00  0.0000E+00  0.1120E+03  0.1120E+03
    -23.761  0.0000E+00  0.0000E+00  0.1120E+03  0.1120E+03
    -23.520  0.0000E+00  0.0000E+00  0.1120E+03  0.1120E+03
    -23.279  0.0000E+00  0.0000E+00  0.1120E+03  0.1120E+03
    -23.038  0.0000E+00  0.0000E+00  0.1120E+03  0.1120E+03
    -22.798  0.0000E+00  0.0000E+00  0.1120E+03  0.1120E+03
    -22.557  0.0000E+00  0.0000E+00  0.1120E+03  0.1120E+03
    -22.316  0.0000E+00  0.0000E+00  0.1120E+03  0.1120E+03
    -22.075  0.0000E+00  0.0000E+00  0.1120E+03  0.1120E+03
    -21.834  0.0000E+00  0.0000E+00  0.1120E+03  0.1120E+03
    -21.594  0.0000E+00  0.0000E+00  0.1120E+03  0.1120E+03
    -21.353  0.0000E+00  0.0000E+00  0.1120E+03  0.1120E+03
    -21.112  0.0000E+00  0.0000E+00  0.1120E+03  0.1120E+03
    -20.871  0.0000E+00  0.0000E+00  0.1120E+03  0.1120E+03
    -20.631  0.0000E+00  0.0000E+00  0.1120E+03  0.1120E+03
    -20.390  0.0000E+00  0.0000E+00  0.1120E+03  0.1120E+03
    -20.149  0.0000E+00  0.0000E+00  0.1120E+03  0.1120E+03
    -19.908  0.0000E+00  0.0000E+00  0.1120E+03  0.1120E+03
    -19.667  0.0000E+00  0.0000E+00  0.1120E+03  0.1120E+03
    -19.427  0.0000E+00  0.0000E+00  0.1120E+03  0.1120E+03
    -19.186  0.0000E+00  0.0000E+00  0.1120E+03  0.1120E+03
    -18.945  0.0000E+00  0.0000E+00  0.1120E+03  0.1120E+03
    -18.704  0.0000E+00  0.0000E+00  0.1120E+03  0.1120E+03
    -18.464  0.0000E+00  0.0000E+00  0.1120E+03  0.1120E+03
    -18.223  0.0000E+00  0.0000E+00  0.1120E+03  0.1120E+03
    -17.982  0.0000E+00  0.0000E+00  0.1120E+03  0.1120E+03
    -17.741  0.0000E+00  0.0000E+00  0.1120E+03  0.1120E+03
    -17.500  0.0000E+00  0.0000E+00  0.1120E+03  0.1120E+03
    -17.260  0.0000E+00  0.0000E+00  0.1120E+03  0.1120E+03
    -17.019  0.0000E+00  0.0000E+00  0.1120E+03  0.1120E+03
    -16.778  0.0000E+00  0.0000E+00  0.1120E+03  0.1120E+03
    -16.537  0.0000E+00  0.0000E+00  0.1120E+03  0.1120E+03
    -16.297  0.0000E+00  0.0000E+00  0.1120E+03  0.1120E+03
    -16.056  0.0000E+00  0.0000E+00  0.1120E+03  0.1120E+03
    -15.815  0.0000E+00  0.0000E+00  0.1120E+03  0.1120E+03
    -15.574  0.0000E+00  0.0000E+00  0.1120E+03  0.1120E+03
    -15.333  0.0000E+00  0.0000E+00  0.1120E+03  0.1120E+03
    -15.093  0.0000E+00  0.0000E+00  0.1120E+03  0.1120E+03
    -14.852  0.0000E+00  0.0000E+00  0.1120E+03  0.1120E+03
    -14.611  0.0000E+00  0.0000E+00  0.1120E+03  0.1120E+03
    -14.370  0.0000E+00  0.0000E+00  0.1120E+03  0.1120E+03
    -14.130  0.0000E+00  0.0000E+00  0.1120E+03  0.1120E+03
    -13.889  0.0000E+00  0.0000E+00  0.1120E+03  0.1120E+03
    -13.648  0.0000E+00  0.0000E+00  0.1120E+03  0.1120E+03
    -13.407  0.2380E-06  0.0000E+00  0.1120E+03  0.1120E+03
    -13.167  0.1751E+02  0.0000E+00  0.1162E+03  0.1120E+03
    -12.926  0.4707E+02  0.4092E-02  0.1275E+03  0.1120E+03
    -12.685  0.1876E+01  0.4063E+02  0.1280E+03  0.1218E+03
    -12.444  0.0000E+00  0.2582E+02  0.1280E+03  0.1280E+03
    -12.203  0.0000E+00  0.5845E-05  0.1280E+03  0.1280E+03
    -11.963  0.0000E+00  0.0000E+00  0.1280E+03  0.1280E+03
    -11.722  0.0000E+00  0.0000E+00  0.1280E+03  0.1280E+03
    -11.481  0.0000E+00  0.0000E+00  0.1280E+03  0.1280E+03
    -11.240  0.0000E+00  0.0000E+00  0.1280E+03  0.1280E+03
    -11.000  0.0000E+00  0.0000E+00  0.1280E+03  0.1280E+03
    -10.759  0.0000E+00  0.0000E+00  0.1280E+03  0.1280E+03
    -10.518  0.0000E+00  0.0000E+00  0.1280E+03  0.1280E+03
    -10.277  0.0000E+00  0.0000E+00  0.1280E+03  0.1280E+03
    -10.036  0.0000E+00  0.0000E+00  0.1280E+03  0.1280E+03
     -9.796  0.0000E+00  0.0000E+00  0.1280E+03  0.1280E+03
     -9.555  0.0000E+00  0.0000E+00  0.1280E+03  0.1280E+03
     -9.314  0.0000E+00  0.0000E+00  0.1280E+03  0.1280E+03
     -9.073  0.0000E+00  0.0000E+00  0.1280E+03  0.1280E+03
     -8.833  0.0000E+00  0.0000E+00  0.1280E+03  0.1280E+03
     -8.592  0.0000E+00  0.0000E+00  0.1280E+03  0.1280E+03
     -8.351  0.0000E+00  0.0000E+00  0.1280E+03  0.1280E+03
     -8.110  0.0000E+00  0.0000E+00  0.1280E+03  0.1280E+03
     -7.869  0.1867E-10  0.0000E+00  0.1280E+03  0.1280E+03
     -7.629  0.4499E+00  0.3104E-11  0.1281E+03  0.1280E+03
     -7.388  0.1195E+02  0.3881E+00  0.1310E+03  0.1281E+03
     -7.147  0.3023E+02  0.1312E+02  0.1383E+03  0.1313E+03
     -6.906  0.3291E+02  0.2956E+02  0.1462E+03  0.1384E+03
     -6.666  0.2414E+02  0.2530E+02  0.1520E+03  0.1445E+03
     -6.425  0.6664E-04  0.3123E+02  0.1520E+03  0.1520E+03
     -6.184  0.0000E+00  0.9172E-01  0.1520E+03  0.1520E+03
     -5.943  0.0000E+00  0.0000E+00  0.1520E+03  0.1520E+03
     -5.702  0.0000E+00  0.0000E+00  0.1520E+03  0.1520E+03
     -5.462  0.0000E+00  0.0000E+00  0.1520E+03  0.1520E+03
     -5.221  0.0000E+00  0.0000E+00  0.1520E+03  0.1520E+03
     -4.980  0.0000E+00  0.0000E+00  0.1520E+03  0.1520E+03
     -4.739  0.0000E+00  0.0000E+00  0.1520E+03  0.1520E+03
     -4.499  0.0000E+00  0.0000E+00  0.1520E+03  0.1520E+03
     -4.258  0.0000E+00  0.0000E+00  0.1520E+03  0.1520E+03
     -4.017  0.0000E+00  0.0000E+00  0.1520E+03  0.1520E+03
     -3.776  0.0000E+00  0.0000E+00  0.1520E+03  0.1520E+03
     -3.535  0.0000E+00  0.0000E+00  0.1520E+03  0.1520E+03
     -3.295  0.0000E+00  0.0000E+00  0.1520E+03  0.1520E+03
     -3.054  0.0000E+00  0.0000E+00  0.1520E+03  0.1520E+03
     -2.813  0.0000E+00  0.0000E+00  0.1520E+03  0.1520E+03
     -2.572  0.0000E+00  0.0000E+00  0.1520E+03  0.1520E+03
     -2.332  0.0000E+00  0.0000E+00  0.1520E+03  0.1520E+03
     -2.091  0.7587E-05  0.0000E+00  0.1520E+03  0.1520E+03
     -1.850  0.1487E+02  0.0000E+00  0.1556E+03  0.1520E+03
     -1.609  0.1995E+02  0.0000E+00  0.1604E+03  0.1520E+03
     -1.369  0.1512E+02  0.0000E+00  0.1640E+03  0.1520E+03
     -1.128  0.1691E+02  0.0000E+00  0.1681E+03  0.1520E+03
     -0.887  0.4456E+02  0.0000E+00  0.1788E+03  0.1520E+03
     -0.646  0.5875E+02  0.2394E-06  0.1930E+03  0.1520E+03
     -0.405  0.3884E+02  0.3506E+01  0.2023E+03  0.1528E+03
     -0.165  0.6688E+02  0.2033E+02  0.2184E+03  0.1577E+03
      0.076  0.7419E+02  0.1227E+02  0.2363E+03  0.1607E+03
      0.317  0.7745E+02  0.1810E+02  0.2549E+03  0.1650E+03
      0.558  0.6954E+02  0.2928E+02  0.2717E+03  0.1721E+03
      0.798  0.5732E+02  0.3895E+02  0.2855E+03  0.1815E+03
      1.039  0.3661E+02  0.3733E+02  0.2943E+03  0.1905E+03
      1.280  0.3031E+02  0.3185E+02  0.3016E+03  0.1981E+03
      1.521  0.4500E+02  0.2061E+02  0.3124E+03  0.2031E+03
      1.762  0.4119E+02  0.2926E+02  0.3223E+03  0.2101E+03
      2.002  0.6843E+02  0.3613E+02  0.3388E+03  0.2188E+03
      2.243  0.5994E+02  0.2853E+02  0.3533E+03  0.2257E+03
      2.484  0.2651E+02  0.2686E+02  0.3596E+03  0.2322E+03
      2.725  0.4228E+02  0.2978E+02  0.3698E+03  0.2393E+03
      2.965  0.3172E+02  0.4391E+02  0.3775E+03  0.2499E+03
      3.206  0.8599E+01  0.4566E+02  0.3795E+03  0.2609E+03
      3.447  0.2665E+02  0.3358E+02  0.3859E+03  0.2690E+03
      3.688  0.2798E+02  0.1294E+02  0.3927E+03  0.2721E+03
      3.929  0.3047E+02  0.1663E+02  0.4000E+03  0.2761E+03
      4.169  0.3594E+02  0.5309E+02  0.4087E+03  0.2889E+03
      4.410  0.3630E+02  0.4385E+02  0.4174E+03  0.2995E+03
      4.651  0.3072E+02  0.1886E+02  0.4248E+03  0.3040E+03
      4.892  0.2598E+02  0.1234E-01  0.4311E+03  0.3040E+03
      5.132  0.3902E+01  0.0000E+00  0.4320E+03  0.3040E+03
      5.373  0.0000E+00  0.0000E+00  0.4320E+03  0.3040E+03
      5.614  0.0000E+00  0.0000E+00  0.4320E+03  0.3040E+03
      5.855  0.0000E+00  0.0000E+00  0.4320E+03  0.3040E+03
      6.096  0.0000E+00  0.5225E-10  0.4320E+03  0.3040E+03
      6.336  0.0000E+00  0.3316E+00  0.4320E+03  0.3041E+03
      6.577  0.0000E+00  0.4158E+01  0.4320E+03  0.3051E+03
      6.818  0.0000E+00  0.7545E+01  0.4320E+03  0.3069E+03
      7.059  0.5977E-16  0.1827E+02  0.4320E+03  0.3113E+03
      7.299  0.1629E-01  0.4339E+02  0.4320E+03  0.3217E+03
      7.540  0.1375E+00  0.5257E+02  0.4320E+03  0.3344E+03
      7.781  0.1829E+00  0.6388E+02  0.4321E+03  0.3498E+03
      8.022  0.7721E+00  0.6505E+02  0.4323E+03  0.3654E+03
      8.262  0.1925E+01  0.6953E+02  0.4327E+03  0.3822E+03
      8.503  0.2633E+01  0.6051E+02  0.4334E+03  0.3968E+03
      8.744  0.8722E+01  0.5829E+02  0.4355E+03  0.4108E+03
      8.985  0.1217E+02  0.4911E+02  0.4384E+03  0.4226E+03
      9.226  0.1309E+02  0.3108E+02  0.4415E+03  0.4301E+03
      9.466  0.1796E+02  0.9445E+01  0.4459E+03  0.4324E+03
      9.707  0.1646E+02  0.2804E+01  0.4498E+03  0.4330E+03
      9.948  0.1557E+02  0.8184E+01  0.4536E+03  0.4350E+03
     10.189  0.2251E+02  0.1827E+02  0.4590E+03  0.4394E+03
     10.429  0.1480E+02  0.1802E+02  0.4626E+03  0.4438E+03
     10.670  0.1549E+02  0.1707E+02  0.4663E+03  0.4479E+03
     10.911  0.1300E+02  0.2750E+02  0.4694E+03  0.4545E+03
     11.152  0.2044E+02  0.1908E+02  0.4743E+03  0.4591E+03
     11.393  0.2428E+02  0.2366E+02  0.4802E+03  0.4648E+03
     11.633  0.2772E+02  0.1551E+02  0.4869E+03  0.4685E+03
     11.874  0.2398E+02  0.1364E+02  0.4926E+03  0.4718E+03
     12.115  0.3409E+02  0.1559E+02  0.5008E+03  0.4756E+03
     12.356  0.2006E+02  0.3581E+02  0.5057E+03  0.4842E+03
     12.596  0.2294E+02  0.3301E+02  0.5112E+03  0.4921E+03
     12.837  0.2134E+02  0.3067E+02  0.5163E+03  0.4995E+03
     13.078  0.2072E+02  0.2045E+02  0.5213E+03  0.5044E+03
     13.319  0.2307E+02  0.2157E+02  0.5269E+03  0.5096E+03
     13.560  0.2509E+02  0.2724E+02  0.5329E+03  0.5162E+03
     13.800  0.1359E+02  0.2373E+02  0.5362E+03  0.5219E+03
     14.041  0.7472E+01  0.2647E+02  0.5380E+03  0.5283E+03
     14.282  0.3055E-02  0.1950E+02  0.5380E+03  0.5330E+03
     14.523  0.0000E+00  0.1709E+02  0.5380E+03  0.5371E+03
     14.763  0.0000E+00  0.3829E+01  0.5380E+03  0.5380E+03
     15.004  0.0000E+00  0.2255E-05  0.5380E+03  0.5380E+03
     15.245  0.0000E+00  0.0000E+00  0.5380E+03  0.5380E+03
     15.486  0.0000E+00  0.0000E+00  0.5380E+03  0.5380E+03
     15.727  0.0000E+00  0.0000E+00  0.5380E+03  0.5380E+03
     15.967  0.0000E+00  0.0000E+00  0.5380E+03  0.5380E+03
     16.208  0.0000E+00  0.0000E+00  0.5380E+03  0.5380E+03
     16.449  0.0000E+00  0.0000E+00  0.5380E+03  0.5380E+03
     16.690  0.0000E+00  0.0000E+00  0.5380E+03  0.5380E+03
     16.930  0.0000E+00  0.0000E+00  0.5380E+03  0.5380E+03
     17.171  0.0000E+00  0.0000E+00  0.5380E+03  0.5380E+03
     17.412  0.0000E+00  0.0000E+00  0.5380E+03  0.5380E+03
     17.653  0.0000E+00  0.0000E+00  0.5380E+03  0.5380E+03
     17.894  0.0000E+00  0.0000E+00  0.5380E+03  0.5380E+03
