<?xml version="1.0" encoding="ISO-8859-1"?>
<modeling>
 <generator>
  <i name="program" type="string">vasp </i>
  <i name="version" type="string">5.4.4.18Apr17-6-g9f103f2a35  </i>
  <i name="subversion" type="string">(build Oct 25 2017 14:42:18) complex            parallel </i>
  <i name="platform" type="string">LinuxIFC </i>
  <i name="date" type="string">2021 06 02 </i>
  <i name="time" type="string">17:57:56 </i>
 </generator>
 <incar>
  <i type="string" name="PREC">accurate</i>
  <i type="string" name="ALGO"> normal</i>
  <i type="logical" name="ADDGRID"> T  </i>
  <i type="int" name="ISPIN">     2</i>
  <i type="int" name="ICHARG">     1</i>
  <i type="int" name="NELM">   200</i>
  <i type="int" name="NELMIN">     8</i>
  <i name="EDIFF">      0.00000100</i>
  <i type="int" name="ISYM">     0</i>
  <i name="ENCUT">    650.00000000</i>
  <v name="MAGMOM">      0.60000000      0.60000000      0.60000000      0.60000000      0.60000000      0.60000000      0.60000000      0.60000000      0.60000000      0.60000000      0.60000000      0.60000000      0.60000000      0.60000000      0.60000000      0.60000000      0.60000000      0.60000000      0.60000000      0.60000000
      0.60000000      0.60000000      0.60000000      0.60000000      0.60000000      0.60000000      0.60000000      0.60000000      0.60000000      0.60000000      0.60000000      0.60000000      0.60000000      0.60000000      0.60000000      0.60000000      0.60000000      0.60000000      0.60000000      0.60000000
      0.60000000      0.60000000      0.60000000      0.60000000      0.60000000      0.60000000      0.60000000      0.60000000      0.60000000      0.60000000      0.60000000      0.60000000      0.60000000      0.60000000      0.60000000      0.60000000      5.00000000      5.00000000      5.00000000      5.00000000
      5.00000000      5.00000000      5.00000000      5.00000000      5.00000000      5.00000000      5.00000000      5.00000000      5.00000000      5.00000000      5.00000000      5.00000000      5.00000000      5.00000000      5.00000000      5.00000000      5.00000000      5.00000000      5.00000000      5.00000000
      5.00000000      5.00000000      5.00000000      5.00000000      5.00000000      5.00000000      5.00000000      5.00000000</v>
  <i type="logical" name="LREAL"> F  </i>
  <i type="int" name="ISMEAR">     0</i>
  <i name="SIGMA">      0.05000000</i>
  <i type="int" name="NWRITE">     1</i>
  <i type="int" name="LMAXMIX">     4</i>
  <i type="logical" name="LWAVE"> F  </i>
  <i type="logical" name="LASPH"> T  </i>
  <v type="int" name="KPOINT_BSE">    -1     0     0     0</v>
  <i type="int" name="NELM">   200</i>
  <i type="string" name="GGA"> pe</i>
  <i type="logical" name="LDAU"> T  </i>
  <v type="int" name="LDAUTYPE">     2</v>
  <v type="int" name="LDAUL">    -1    -1    -1     2</v>
  <v name="LDAUU">      0.00000000      0.00000000      0.00000000      4.00000000</v>
  <v name="LDAUJ">      0.00000000      0.00000000      0.00000000      0.00000000</v>
  <i type="logical" name="LASPH"> T  </i>
 </incar>
 <structure name="primitive_cell" >
  <crystal>
   <varray name="basis" >
    <v>      11.11223374       0.00000000      -0.00029034 </v>
    <v>       0.00000000      11.11745194       0.00000000 </v>
    <v>      -2.77510898       0.00000000      10.19872221 </v>
   </varray>
   <i name="volume">   1259.93837498 </i>
   <varray name="rec_basis" >
    <v>       0.08999155       0.00000000       0.02448702 </v>
    <v>       0.00000000       0.08994867       0.00000000 </v>
    <v>       0.00000256       0.00000000       0.09805220 </v>
   </varray>
  </crystal>
  <varray name="positions" >
   <v>       0.28894970       0.46933910       0.15583616 </v>
   <v>       0.17529533      -0.40661825       0.19749617 </v>
   <v>       0.42345029       0.34530995       0.19749407 </v>
   <v>       0.37560721      -0.40565694      -0.00000412 </v>
   <v>       0.12439279       0.34434306       0.00000412 </v>
   <v>      -0.46151602       0.46936404       0.15397331 </v>
   <v>       0.03848398       0.46936404       0.15397331 </v>
   <v>       0.28861657       0.21935690       0.15447525 </v>
   <v>       0.28861657      -0.28064310       0.15447525 </v>
   <v>       0.21868463       0.34523395       0.37102476 </v>
   <v>       0.46681660      -0.40655103       0.37102399 </v>
   <v>       0.23507288      -0.41767349       0.39367237 </v>
   <v>       0.46175575       0.35634799       0.39367694 </v>
   <v>       0.21138343       0.46935690      -0.15447525 </v>
   <v>       0.04646972       0.21934976       0.18586770 </v>
   <v>       0.04646972      -0.28065024       0.18586770 </v>
   <v>      -0.45353028       0.21934976       0.18586770 </v>
   <v>      -0.45353028      -0.28065024       0.18586770 </v>
   <v>       0.32470467       0.34338175      -0.19749617 </v>
   <v>       0.07654971      -0.40469005      -0.19749407 </v>
   <v>       0.21105030       0.21933910      -0.15583616 </v>
   <v>       0.21105030      -0.28066090      -0.15583616 </v>
   <v>      -0.07654971       0.34530995       0.19749407 </v>
   <v>      -0.32470467      -0.40661825       0.19749617 </v>
   <v>       0.17529533       0.09338175       0.19749617 </v>
   <v>       0.42345029      -0.15469005       0.19749407 </v>
   <v>       0.45353028       0.46934976      -0.18586770 </v>
   <v>      -0.04646972       0.46934976      -0.18586770 </v>
   <v>      -0.37560721       0.34434306       0.00000412 </v>
   <v>      -0.12439279      -0.40565694      -0.00000412 </v>
   <v>       0.37560721       0.09434306      -0.00000412 </v>
   <v>       0.12439279      -0.15565694       0.00000412 </v>
   <v>      -0.03318340      -0.40655103       0.37102399 </v>
   <v>      -0.28131537       0.34523395       0.37102476 </v>
   <v>       0.21868463      -0.15476605       0.37102476 </v>
   <v>       0.46681660       0.09344897       0.37102399 </v>
   <v>       0.46151602       0.21936404      -0.15397331 </v>
   <v>       0.46151602      -0.28063596      -0.15397331 </v>
   <v>      -0.03848398       0.21936404      -0.15397331 </v>
   <v>      -0.03848398      -0.28063596      -0.15397331 </v>
   <v>       0.26492712       0.33232651      -0.39367237 </v>
   <v>      -0.46175575      -0.39365201      -0.39367694 </v>
   <v>      -0.03824425       0.35634799       0.39367694 </v>
   <v>      -0.26492712      -0.41767349       0.39367237 </v>
   <v>       0.23507288       0.08232651       0.39367237 </v>
   <v>       0.46175575      -0.14365201       0.39367694 </v>
   <v>       0.28131537      -0.40476605      -0.37102476 </v>
   <v>      -0.46681660       0.34344897      -0.37102399 </v>
   <v>      -0.21105030       0.46933910       0.15583616 </v>
   <v>       0.28894970      -0.03066090       0.15583616 </v>
   <v>       0.32470467      -0.15661825      -0.19749617 </v>
   <v>       0.07654971       0.09530995      -0.19749407 </v>
   <v>      -0.42345029      -0.40469005      -0.19749407 </v>
   <v>      -0.17529533       0.34338175      -0.19749617 </v>
   <v>       0.03318340       0.34344897      -0.37102399 </v>
   <v>      -0.07654971      -0.15469005       0.19749407 </v>
   <v>      -0.32470467       0.09338175       0.19749617 </v>
   <v>       0.03824425      -0.39365201      -0.39367694 </v>
   <v>      -0.37560721      -0.15565694       0.00000412 </v>
   <v>      -0.12439279       0.09434306      -0.00000412 </v>
   <v>      -0.21138343       0.21935690       0.15447525 </v>
   <v>      -0.21138343      -0.28064310       0.15447525 </v>
   <v>      -0.46151602      -0.03063596       0.15397331 </v>
   <v>       0.03848398      -0.03063596       0.15397331 </v>
   <v>       0.26492712      -0.16767349      -0.39367237 </v>
   <v>      -0.46175575       0.10634799      -0.39367694 </v>
   <v>      -0.03318340       0.09344897       0.37102399 </v>
   <v>      -0.28131537      -0.15476605       0.37102476 </v>
   <v>      -0.23507288       0.33232651      -0.39367237 </v>
   <v>      -0.28861657       0.46935690      -0.15447525 </v>
   <v>       0.21138343      -0.03064310      -0.15447525 </v>
   <v>      -0.21868463      -0.40476605      -0.37102476 </v>
   <v>       0.28131537       0.09523395      -0.37102476 </v>
   <v>      -0.46681660      -0.15655103      -0.37102399 </v>
   <v>      -0.03824425      -0.14365201       0.39367694 </v>
   <v>      -0.26492712       0.08232651       0.39367237 </v>
   <v>      -0.42345029       0.09530995      -0.19749407 </v>
   <v>      -0.17529533      -0.15661825      -0.19749617 </v>
   <v>       0.03318340      -0.15655103      -0.37102399 </v>
   <v>      -0.28894970       0.21933910      -0.15583616 </v>
   <v>      -0.28894970      -0.28066090      -0.15583616 </v>
   <v>       0.03914416       0.10634799      -0.39367694 </v>
   <v>       0.45353028      -0.03065024      -0.18586770 </v>
   <v>      -0.04646972      -0.03065024      -0.18586770 </v>
   <v>      -0.23507288      -0.16767349      -0.39367237 </v>
   <v>      -0.21868463       0.09523395      -0.37102476 </v>
   <v>      -0.21105030      -0.03066090       0.15583616 </v>
   <v>      -0.28861657      -0.03064310      -0.15447525 </v>
  </varray>
 </structure>
 <varray name="primitive_index" >
  <v type="int" >        1 </v>
  <v type="int" >       27 </v>
  <v type="int" >       29 </v>
  <v type="int" >       55 </v>
  <v type="int" >       49 </v>
  <v type="int" >       74 </v>
  <v type="int" >       73 </v>
  <v type="int" >       77 </v>
  <v type="int" >       79 </v>
  <v type="int" >       33 </v>
  <v type="int" >       39 </v>
  <v type="int" >       67 </v>
  <v type="int" >       69 </v>
  <v type="int" >       81 </v>
  <v type="int" >        5 </v>
  <v type="int" >        7 </v>
  <v type="int" >        6 </v>
  <v type="int" >        8 </v>
  <v type="int" >       21 </v>
  <v type="int" >       19 </v>
  <v type="int" >       13 </v>
  <v type="int" >       15 </v>
  <v type="int" >       30 </v>
  <v type="int" >       28 </v>
  <v type="int" >       25 </v>
  <v type="int" >       31 </v>
  <v type="int" >        9 </v>
  <v type="int" >       10 </v>
  <v type="int" >       50 </v>
  <v type="int" >       56 </v>
  <v type="int" >       53 </v>
  <v type="int" >       51 </v>
  <v type="int" >       40 </v>
  <v type="int" >       34 </v>
  <v type="int" >       35 </v>
  <v type="int" >       37 </v>
  <v type="int" >       85 </v>
  <v type="int" >       87 </v>
  <v type="int" >       86 </v>
  <v type="int" >       88 </v>
  <v type="int" >       61 </v>
  <v type="int" >       60 </v>
  <v type="int" >       70 </v>
  <v type="int" >       68 </v>
  <v type="int" >       65 </v>
  <v type="int" >       71 </v>
  <v type="int" >       47 </v>
  <v type="int" >       42 </v>
  <v type="int" >        2 </v>
  <v type="int" >        3 </v>
  <v type="int" >       23 </v>
  <v type="int" >       17 </v>
  <v type="int" >       20 </v>
  <v type="int" >       22 </v>
  <v type="int" >       41 </v>
  <v type="int" >       32 </v>
  <v type="int" >       26 </v>
  <v type="int" >       59 </v>
  <v type="int" >       52 </v>
  <v type="int" >       54 </v>
  <v type="int" >       78 </v>
  <v type="int" >       80 </v>
  <v type="int" >       76 </v>
  <v type="int" >       75 </v>
  <v type="int" >       63 </v>
  <v type="int" >       58 </v>
  <v type="int" >       38 </v>
  <v type="int" >       36 </v>
  <v type="int" >       62 </v>
  <v type="int" >       82 </v>
  <v type="int" >       83 </v>
  <v type="int" >       48 </v>
  <v type="int" >       45 </v>
  <v type="int" >       44 </v>
  <v type="int" >       72 </v>
  <v type="int" >       66 </v>
  <v type="int" >       18 </v>
  <v type="int" >       24 </v>
  <v type="int" >       43 </v>
  <v type="int" >       14 </v>
  <v type="int" >       16 </v>
  <v type="int" >       57 </v>
  <v type="int" >       11 </v>
  <v type="int" >       12 </v>
  <v type="int" >       64 </v>
  <v type="int" >       46 </v>
  <v type="int" >        4 </v>
  <v type="int" >       84 </v>
 </varray>
 <kpoints>
  <generation param="Gamma">
   <v type="int" name="divisions">       3        3        3 </v>
   <v name="usershift">      0.00000000       0.00000000       0.00000000 </v>
   <v name="genvec1">      0.33333333       0.00000000       0.00000000 </v>
   <v name="genvec2">      0.00000000       0.33333333       0.00000000 </v>
   <v name="genvec3">      0.00000000       0.00000000       0.33333333 </v>
   <v name="shift">      0.00000000       0.00000000       0.00000000 </v>
  </generation>
  <varray name="kpointlist" >
   <v>       0.00000000       0.00000000       0.00000000 </v>
   <v>       0.33333333       0.00000000       0.00000000 </v>
   <v>       0.00000000       0.33333333       0.00000000 </v>
   <v>       0.33333333       0.33333333       0.00000000 </v>
   <v>      -0.33333333       0.33333333      -0.00000000 </v>
   <v>       0.00000000       0.00000000       0.33333333 </v>
   <v>       0.33333333       0.00000000       0.33333333 </v>
   <v>      -0.33333333       0.00000000       0.33333333 </v>
   <v>       0.00000000       0.33333333       0.33333333 </v>
   <v>       0.33333333       0.33333333       0.33333333 </v>
   <v>      -0.33333333       0.33333333       0.33333333 </v>
   <v>       0.00000000      -0.33333333       0.33333333 </v>
   <v>       0.33333333      -0.33333333       0.33333333 </v>
   <v>      -0.33333333      -0.33333333       0.33333333 </v>
  </varray>
  <varray name="weights" >
   <v>       0.03703704 </v>
   <v>       0.07407407 </v>
   <v>       0.07407407 </v>
   <v>       0.07407407 </v>
   <v>       0.07407407 </v>
   <v>       0.07407407 </v>
   <v>       0.07407407 </v>
   <v>       0.07407407 </v>
   <v>       0.07407407 </v>
   <v>       0.07407407 </v>
   <v>       0.07407407 </v>
   <v>       0.07407407 </v>
   <v>       0.07407407 </v>
   <v>       0.07407407 </v>
  </varray>
 </kpoints>
 <parameters>
  <separator name="general" >
   <i type="string" name="SYSTEM">unknown system</i>
   <i type="logical" name="LCOMPAT"> F  </i>
  </separator>
  <separator name="electronic" >
   <i type="string" name="PREC">accura</i>
   <i name="ENMAX">    650.00000000</i>
   <i name="ENAUG">    628.94500000</i>
   <i name="EDIFF">      0.00000100</i>
   <i type="int" name="IALGO">    38</i>
   <i type="int" name="IWAVPR">    10</i>
   <i type="int" name="NBANDS">   538</i>
   <i name="NELECT">    736.00000000</i>
   <i type="int" name="TURBO">     0</i>
   <i type="int" name="IRESTART">     0</i>
   <i type="int" name="NREBOOT">     0</i>
   <i type="int" name="NMIN">     0</i>
   <i name="EREF">      0.00000000</i>
   <separator name="electronic smearing" >
    <i type="int" name="ISMEAR">     0</i>
    <i name="SIGMA">      0.05000000</i>
    <i name="KSPACING">      0.50000000</i>
    <i type="logical" name="KGAMMA"> T  </i>
   </separator>
   <separator name="electronic projectors" >
    <i type="logical" name="LREAL"> F  </i>
    <v name="ROPT">      0.00000000      0.00000000      0.00000000      0.00000000</v>
    <i type="int" name="LMAXPAW">  -100</i>
    <i type="int" name="LMAXMIX">     4</i>
    <i type="logical" name="NLSPLINE"> F  </i>
   </separator>
   <separator name="electronic startup" >
    <i type="int" name="ISTART">     0</i>
    <i type="int" name="ICHARG">     1</i>
    <i type="int" name="INIWAV">     1</i>
   </separator>
   <separator name="electronic spin" >
    <i type="int" name="ISPIN">     2</i>
    <i type="logical" name="LNONCOLLINEAR"> F  </i>
    <v name="MAGMOM">      0.60000000      0.60000000      0.60000000      0.60000000      0.60000000      0.60000000      0.60000000      0.60000000      0.60000000      0.60000000      0.60000000      0.60000000      0.60000000      0.60000000      0.60000000      0.60000000      0.60000000      0.60000000      0.60000000      0.60000000
      0.60000000      0.60000000      0.60000000      0.60000000      0.60000000      0.60000000      0.60000000      0.60000000      0.60000000      0.60000000      0.60000000      0.60000000      0.60000000      0.60000000      0.60000000      0.60000000      0.60000000      0.60000000      0.60000000      0.60000000
      0.60000000      0.60000000      0.60000000      0.60000000      0.60000000      0.60000000      0.60000000      0.60000000      0.60000000      0.60000000      0.60000000      0.60000000      0.60000000      0.60000000      0.60000000      0.60000000      5.00000000      5.00000000      5.00000000      5.00000000
      5.00000000      5.00000000      5.00000000      5.00000000      5.00000000      5.00000000      5.00000000      5.00000000      5.00000000      5.00000000      5.00000000      5.00000000      5.00000000      5.00000000      5.00000000      5.00000000      5.00000000      5.00000000      5.00000000      5.00000000
      5.00000000      5.00000000      5.00000000      5.00000000      5.00000000      5.00000000      5.00000000      5.00000000</v>
    <i name="NUPDOWN">     -1.00000000</i>
    <i type="logical" name="LSORBIT"> F  </i>
    <v name="SAXIS">      0.00000000      0.00000000      1.00000000</v>
    <i type="logical" name="LSPIRAL"> F  </i>
    <v name="QSPIRAL">      0.00000000      0.00000000      0.00000000</v>
    <i type="logical" name="LZEROZ"> F  </i>
   </separator>
   <separator name="electronic exchange-correlation" >
    <i type="logical" name="LASPH"> T  </i>
    <i type="logical" name="LMETAGGA"> F  </i>
   </separator>
   <separator name="electronic convergence" >
    <i type="int" name="NELM">   200</i>
    <i type="int" name="NELMDL">     0</i>
    <i type="int" name="NELMIN">     8</i>
    <i name="ENINI">    650.00000000</i>
    <separator name="electronic convergence detail" >
     <i type="logical" name="LDIAG"> T  </i>
     <i type="logical" name="LSUBROT"> F  </i>
     <i name="WEIMIN">      0.00000000</i>
     <i name="EBREAK">      0.00000000</i>
     <i name="DEPER">      0.30000000</i>
     <i type="int" name="NRMM">     4</i>
     <i name="TIME">      0.40000000</i>
    </separator>
   </separator>
   <separator name="electronic mixer" >
    <i name="AMIX">      0.40000000</i>
    <i name="BMIX">      1.00000000</i>
    <i name="AMIN">      0.10000000</i>
    <i name="AMIX_MAG">      1.60000000</i>
    <i name="BMIX_MAG">      1.00000000</i>
    <separator name="electronic mixer details" >
     <i type="int" name="IMIX">     4</i>
     <i type="logical" name="MIXFIRST"> F  </i>
     <i type="int" name="MAXMIX">   -45</i>
     <i name="WC">    100.00000000</i>
     <i type="int" name="INIMIX">     1</i>
     <i type="int" name="MIXPRE">     1</i>
     <i type="int" name="MREMOVE">     5</i>
    </separator>
   </separator>
   <separator name="electronic dipolcorrection" >
    <i type="logical" name="LDIPOL"> F  </i>
    <i type="logical" name="LMONO"> F  </i>
    <i type="int" name="IDIPOL">     0</i>
    <i name="EPSILON">      1.00000000</i>
    <v name="DIPOL">   -100.00000000   -100.00000000   -100.00000000</v>
    <i name="EFIELD">      0.00000000</i>
   </separator>
  </separator>
  <separator name="grids" >
   <i type="int" name="NGX">    96</i>
   <i type="int" name="NGY">    96</i>
   <i type="int" name="NGZ">    90</i>
   <i type="int" name="NGXF">   192</i>
   <i type="int" name="NGYF">   192</i>
   <i type="int" name="NGZF">   180</i>
   <i type="logical" name="ADDGRID"> T  </i>
  </separator>
  <separator name="ionic" >
   <i type="int" name="NSW">     0</i>
   <i type="int" name="IBRION">    -1</i>
   <i type="int" name="MDALGO">     0</i>
   <i type="int" name="ISIF">     2</i>
   <i name="PSTRESS">      0.00000000</i>
   <i name="EDIFFG">      0.00001000</i>
   <i type="int" name="NFREE">     0</i>
   <i name="POTIM">      0.50000000</i>
   <i name="SMASS">     -3.00000000</i>
   <i name="SCALEE">      1.00000000</i>
  </separator>
  <separator name="ionic md" >
   <i name="TEBEG">      0.00010000</i>
   <i name="TEEND">      0.00010000</i>
   <i type="int" name="NBLOCK">     1</i>
   <i type="int" name="KBLOCK">     1</i>
   <i type="int" name="NPACO">   256</i>
   <i name="APACO">     16.00000000</i>
  </separator>
  <separator name="symmetry" >
   <i type="int" name="ISYM">     0</i>
   <i name="SYMPREC">      0.00001000</i>
  </separator>
  <separator name="dos" >
   <i type="int" name="LORBIT">     0</i>
   <v name="RWIGS">     -1.00000000     -1.00000000     -1.00000000     -1.00000000</v>
   <i type="int" name="NEDOS">   301</i>
   <i name="EMIN">     10.00000000</i>
   <i name="EMAX">    -10.00000000</i>
   <i name="EFERMI">      0.00000000</i>
  </separator>
  <separator name="writing" >
   <i type="int" name="NWRITE">     1</i>
   <i type="logical" name="LWAVE"> F  </i>
   <i type="logical" name="LDOWNSAMPLE"> F  </i>
   <i type="logical" name="LCHARG"> T  </i>
   <i type="logical" name="LPARD"> F  </i>
   <i type="logical" name="LVTOT"> F  </i>
   <i type="logical" name="LVHAR"> F  </i>
   <i type="logical" name="LELF"> F  </i>
   <i type="logical" name="LOPTICS"> F  </i>
   <v name="STM">      0.00000000      0.00000000      0.00000000      0.00000000      0.00000000      0.00000000      0.00000000</v>
  </separator>
  <separator name="performance" >
   <i type="int" name="NPAR">     2</i>
   <i type="int" name="NSIM">     4</i>
   <i type="int" name="NBLK">    -1</i>
   <i type="logical" name="LPLANE"> T  </i>
   <i type="logical" name="LSCALAPACK"> T  </i>
   <i type="logical" name="LSCAAWARE"> F  </i>
   <i type="logical" name="LSCALU"> F  </i>
   <i type="logical" name="LASYNC"> F  </i>
   <i type="logical" name="LORBITALREAL"> F  </i>
  </separator>
  <separator name="miscellaneous" >
   <i type="int" name="IDIOT">     3</i>
   <i type="int" name="ISPECIAL">     0</i>
   <i type="logical" name="LMUSIC"> F  </i>
   <v name="POMASS">      7.01000000     16.00000000     32.06600000     55.84700000</v>
   <v name="DARWINR">      0.00000000      0.00000000      0.00000000      0.00000000</v>
   <v name="DARWINV">      1.00000000      1.00000000      1.00000000      1.00000000</v>
   <i type="logical" name="LCORR"> T  </i>
  </separator>
  <i type="logical" name="GGA_COMPAT"> T  </i>
  <i type="logical" name="LBERRY"> F  </i>
  <i type="int" name="ICORELEVEL">     0</i>
  <i type="logical" name="LDAU"> T  </i>
  <v type="int" name="LDAUTYPE">     2</v>
  <v type="int" name="LDAUL">    -1</v>
  <v name="LDAUU">      0.00000000</v>
  <v name="LDAUJ">      0.00000000</v>
  <i type="int" name="LDAUPRINT">     0</i>
  <i type="int" name="I_CONSTRAINED_M">     0</i>
  <separator name="electronic exchange-correlation" >
   <i type="string" name="GGA">PE</i>
   <i type="int" name="VOSKOWN">     0</i>
   <i type="logical" name="LHFCALC"> F  </i>
   <i type="string" name="PRECFOCK"></i>
   <i type="logical" name="LSYMGRAD"> F  </i>
   <i type="logical" name="LHFONE"> F  </i>
   <i type="logical" name="LRHFCALC"> F  </i>
   <i type="logical" name="LTHOMAS"> F  </i>
   <i type="logical" name="LMODELHF"> F  </i>
   <i name="ENCUT4O">     -1.00000000</i>
   <i type="int" name="EXXOEP">     0</i>
   <i type="int" name="FOURORBIT">     0</i>
   <i name="AEXX">      0.00000000</i>
   <i name="HFALPHA">      0.00000000</i>
   <i name="MCALPHA">      0.00000000</i>
   <i name="ALDAX">      1.00000000</i>
   <i name="AGGAX">      1.00000000</i>
   <i name="ALDAC">      1.00000000</i>
   <i name="AGGAC">      1.00000000</i>
   <i type="int" name="NKREDX">     1</i>
   <i type="int" name="NKREDY">     1</i>
   <i type="int" name="NKREDZ">     1</i>
   <i type="logical" name="SHIFTRED"> F  </i>
   <i type="logical" name="ODDONLY"> F  </i>
   <i type="logical" name="EVENONLY"> F  </i>
   <i type="int" name="LMAXFOCK">     0</i>
   <i type="int" name="NMAXFOCKAE">     0</i>
   <i type="logical" name="LFOCKAEDFT"> F  </i>
   <i name="HFSCREEN">      0.00000000</i>
   <i name="HFSCREENC">      0.00000000</i>
   <i type="int" name="NBANDSGWLOW">     0</i>
  </separator>
  <separator name="vdW DFT" >
   <i type="logical" name="LUSE_VDW"> F  </i>
   <i name="Zab_VDW">     -0.84910000</i>
   <i name="PARAM1">      0.12340000</i>
   <i name="PARAM2">      1.00000000</i>
   <i name="PARAM3">      0.00000000</i>
  </separator>
  <separator name="model GW" >
   <i type="int" name="MODEL_GW">     0</i>
   <i name="MODEL_EPS0">      8.59048892</i>
   <i name="MODEL_ALPHA">      1.00000000</i>
  </separator>
  <separator name="linear response parameters" >
   <i type="logical" name="LEPSILON"> F  </i>
   <i type="logical" name="LRPA"> F  </i>
   <i type="logical" name="LNABLA"> F  </i>
   <i type="logical" name="LVEL"> F  </i>
   <i type="int" name="KINTER">     0</i>
   <i name="CSHIFT">      0.10000000</i>
   <i name="OMEGAMAX">     -1.00000000</i>
   <i name="DEG_THRESHOLD">      0.00200000</i>
   <i name="RTIME">     -0.10000000</i>
   <i name="WPLASMAI">      0.00000000</i>
   <v name="DFIELD">      0.00000000      0.00000000      0.00000000</v>
   <v name="WPLASMA">      0.00000000      0.00000000      0.00000000      0.00000000      0.00000000      0.00000000      0.00000000      0.00000000      0.00000000</v>
  </separator>
  <separator name="orbital magnetization" >
   <i type="logical" name="NUCIND"> F  </i>
   <v name="MAGPOS">      0.00000000      0.00000000      0.00000000</v>
   <i type="logical" name="LNICSALL"> T  </i>
   <i type="logical" name="ORBITALMAG"> F  </i>
   <i type="logical" name="LMAGBLOCH"> F  </i>
   <i type="logical" name="LCHIMAG"> F  </i>
   <i type="logical" name="LGAUGE"> T  </i>
   <i type="int" name="MAGATOM">     0</i>
   <v name="MAGDIPOL">      0.00000000      0.00000000      0.00000000</v>
   <v name="AVECCONST">      0.00000000      0.00000000      0.00000000</v>
  </separator>
  <separator name="response functions" >
   <i type="logical" name="LADDER"> F  </i>
   <i type="logical" name="LRPAFORCE"> F  </i>
   <i type="logical" name="LFXC"> F  </i>
   <i type="logical" name="LHARTREE"> T  </i>
   <i type="int" name="IBSE">     0</i>
   <v type="int" name="KPOINT">    -1     0     0     0</v>
   <i type="logical" name="LTCTE"> F  </i>
   <i type="logical" name="LTETE"> F  </i>
   <i type="logical" name="LTRIPLET"> F  </i>
   <i type="logical" name="LFXCEPS"> F  </i>
   <i type="logical" name="LFXHEG"> F  </i>
   <i type="int" name="NATURALO">     2</i>
   <i type="logical" name="L2ORDER"> F  </i>
   <i type="logical" name="LMP2LT"> F  </i>
   <i type="logical" name="LUSEW"> F  </i>
   <i name="ENCUTGW">     -2.00000000</i>
   <i name="ENCUTGWSOFT">     -2.00000000</i>
   <i name="ENCUTLF">     -1.00000000</i>
   <i type="int" name="LMAXMP2">    -1</i>
   <i name="SCISSOR">      0.00000000</i>
   <i type="int" name="NOMEGA">     0</i>
   <i type="int" name="NOMEGAR">     0</i>
   <i type="int" name="NBANDSGW">    -1</i>
   <i type="int" name="NBANDSO">    -1</i>
   <i type="int" name="NBANDSV">    -1</i>
   <i type="int" name="NELM">   200</i>
   <i type="int" name="NELMHF">     1</i>
   <i type="int" name="DIM">     3</i>
   <i type="int" name="ANTIRES">     0</i>
   <i name="OMEGAMAX">    -30.00000000</i>
   <i name="OMEGAMIN">    -30.00000000</i>
   <i name="OMEGATL">   -200.00000000</i>
   <i type="int" name="OMEGAGRID">   140</i>
   <i name="CSHIFT">     -0.10000000</i>
   <i type="logical" name="SELFENERGY"> F  </i>
   <i type="logical" name="LSPECTRAL"> F  </i>
   <i type="logical" name="LSPECTRALGW"> F  </i>
   <i type="logical" name="LSINGLES"> F  </i>
   <i type="logical" name="LFERMIGW"> F  </i>
   <i type="logical" name="ODDONLYGW"> F  </i>
   <i type="logical" name="EVENONLYGW"> F  </i>
   <i type="int" name="NKREDLFX">     1</i>
   <i type="int" name="NKREDLFY">     1</i>
   <i type="int" name="NKREDLFZ">     1</i>
   <i type="int" name="MAXMEM">  2800</i>
   <i type="int" name="TELESCOPE">     0</i>
   <i type="int" name="TAUPAR">     1</i>
   <i type="int" name="OMEGAPAR">    -1</i>
   <i name="LAMBDA">      1.00000000</i>
  </separator>
  <separator name="External order field" >
   <i name="OFIELD_KAPPA">      0.00000000</i>
   <v name="OFIELD_K">      0.00000000      0.00000000      0.00000000</v>
   <i name="OFIELD_Q6_NEAR">      0.00000000</i>
   <i name="OFIELD_Q6_FAR">      0.00000000</i>
   <i name="OFIELD_A">      0.00000000</i>
  </separator>
 </parameters>
 <atominfo>
  <atoms>      88 </atoms>
  <types>       4 </types>
  <array name="atoms" >
   <dimension dim="1">ion</dimension>
   <field type="string">element</field>
   <field type="int">atomtype</field>
   <set>
    <rc><c>Li</c><c>   1</c></rc>
    <rc><c>Li</c><c>   1</c></rc>
    <rc><c>Li</c><c>   1</c></rc>
    <rc><c>Li</c><c>   1</c></rc>
    <rc><c>Li</c><c>   1</c></rc>
    <rc><c>Li</c><c>   1</c></rc>
    <rc><c>Li</c><c>   1</c></rc>
    <rc><c>Li</c><c>   1</c></rc>
    <rc><c>Li</c><c>   1</c></rc>
    <rc><c>Li</c><c>   1</c></rc>
    <rc><c>Li</c><c>   1</c></rc>
    <rc><c>Li</c><c>   1</c></rc>
    <rc><c>Li</c><c>   1</c></rc>
    <rc><c>Li</c><c>   1</c></rc>
    <rc><c>Li</c><c>   1</c></rc>
    <rc><c>Li</c><c>   1</c></rc>
    <rc><c>O </c><c>   2</c></rc>
    <rc><c>O </c><c>   2</c></rc>
    <rc><c>O </c><c>   2</c></rc>
    <rc><c>O </c><c>   2</c></rc>
    <rc><c>O </c><c>   2</c></rc>
    <rc><c>O </c><c>   2</c></rc>
    <rc><c>O </c><c>   2</c></rc>
    <rc><c>O </c><c>   2</c></rc>
    <rc><c>O </c><c>   2</c></rc>
    <rc><c>O </c><c>   2</c></rc>
    <rc><c>O </c><c>   2</c></rc>
    <rc><c>O </c><c>   2</c></rc>
    <rc><c>O </c><c>   2</c></rc>
    <rc><c>O </c><c>   2</c></rc>
    <rc><c>O </c><c>   2</c></rc>
    <rc><c>O </c><c>   2</c></rc>
    <rc><c>S </c><c>   3</c></rc>
    <rc><c>S </c><c>   3</c></rc>
    <rc><c>S </c><c>   3</c></rc>
    <rc><c>S </c><c>   3</c></rc>
    <rc><c>S </c><c>   3</c></rc>
    <rc><c>S </c><c>   3</c></rc>
    <rc><c>S </c><c>   3</c></rc>
    <rc><c>S </c><c>   3</c></rc>
    <rc><c>S </c><c>   3</c></rc>
    <rc><c>S </c><c>   3</c></rc>
    <rc><c>S </c><c>   3</c></rc>
    <rc><c>S </c><c>   3</c></rc>
    <rc><c>S </c><c>   3</c></rc>
    <rc><c>S </c><c>   3</c></rc>
    <rc><c>S </c><c>   3</c></rc>
    <rc><c>S </c><c>   3</c></rc>
    <rc><c>S </c><c>   3</c></rc>
    <rc><c>S </c><c>   3</c></rc>
    <rc><c>S </c><c>   3</c></rc>
    <rc><c>S </c><c>   3</c></rc>
    <rc><c>S </c><c>   3</c></rc>
    <rc><c>S </c><c>   3</c></rc>
    <rc><c>S </c><c>   3</c></rc>
    <rc><c>S </c><c>   3</c></rc>
    <rc><c>Fe</c><c>   4</c></rc>
    <rc><c>Fe</c><c>   4</c></rc>
    <rc><c>Fe</c><c>   4</c></rc>
    <rc><c>Fe</c><c>   4</c></rc>
    <rc><c>Fe</c><c>   4</c></rc>
    <rc><c>Fe</c><c>   4</c></rc>
    <rc><c>Fe</c><c>   4</c></rc>
    <rc><c>Fe</c><c>   4</c></rc>
    <rc><c>Fe</c><c>   4</c></rc>
    <rc><c>Fe</c><c>   4</c></rc>
    <rc><c>Fe</c><c>   4</c></rc>
    <rc><c>Fe</c><c>   4</c></rc>
    <rc><c>Fe</c><c>   4</c></rc>
    <rc><c>Fe</c><c>   4</c></rc>
    <rc><c>Fe</c><c>   4</c></rc>
    <rc><c>Fe</c><c>   4</c></rc>
    <rc><c>Fe</c><c>   4</c></rc>
    <rc><c>Fe</c><c>   4</c></rc>
    <rc><c>Fe</c><c>   4</c></rc>
    <rc><c>Fe</c><c>   4</c></rc>
    <rc><c>Fe</c><c>   4</c></rc>
    <rc><c>Fe</c><c>   4</c></rc>
    <rc><c>Fe</c><c>   4</c></rc>
    <rc><c>Fe</c><c>   4</c></rc>
    <rc><c>Fe</c><c>   4</c></rc>
    <rc><c>Fe</c><c>   4</c></rc>
    <rc><c>Fe</c><c>   4</c></rc>
    <rc><c>Fe</c><c>   4</c></rc>
    <rc><c>Fe</c><c>   4</c></rc>
    <rc><c>Fe</c><c>   4</c></rc>
    <rc><c>Fe</c><c>   4</c></rc>
    <rc><c>Fe</c><c>   4</c></rc>
   </set>
  </array>
  <array name="atomtypes" >
   <dimension dim="1">type</dimension>
   <field type="int">atomspertype</field>
   <field type="string">element</field>
   <field>mass</field>
   <field>valence</field>
   <field type="string">pseudopotential</field>
   <set>
    <rc><c>  16</c><c>Li</c><c>      7.01000000</c><c>      3.00000000</c><c>  PAW_PBE Li_sv 10Sep2004               </c></rc>
    <rc><c>  16</c><c>O </c><c>     16.00000000</c><c>      6.00000000</c><c>  PAW_PBE O 08Apr2002                   </c></rc>
    <rc><c>  24</c><c>S </c><c>     32.06600000</c><c>      6.00000000</c><c>  PAW_PBE S 06Sep2000                   </c></rc>
    <rc><c>  32</c><c>Fe</c><c>     55.84700000</c><c>     14.00000000</c><c>  PAW_PBE Fe_pv 02Aug2007               </c></rc>
   </set>
  </array>
 </atominfo>
 <structure name="initialpos" >
  <crystal>
   <varray name="basis" >
    <v>      11.11223374       0.00000000      -0.00029034 </v>
    <v>       0.00000000      11.11745194       0.00000000 </v>
    <v>      -2.77510898       0.00000000      10.19872221 </v>
   </varray>
   <i name="volume">   1259.93837498 </i>
   <varray name="rec_basis" >
    <v>       0.08999155       0.00000000       0.02448702 </v>
    <v>       0.00000000       0.08994867       0.00000000 </v>
    <v>       0.00000256       0.00000000       0.09805220 </v>
   </varray>
  </crystal>
  <varray name="positions" >
   <v>       0.28894969       0.46933910       0.15583616 </v>
   <v>       0.78894969       0.46933910       0.15583616 </v>
   <v>       0.28894969       0.96933910       0.15583616 </v>
   <v>       0.78894969       0.96933910       0.15583616 </v>
   <v>       0.04646972       0.21934976       0.18586770 </v>
   <v>       0.54646972       0.21934976       0.18586770 </v>
   <v>       0.04646972       0.71934976       0.18586770 </v>
   <v>       0.54646972       0.71934976       0.18586770 </v>
   <v>       0.45353028       0.46934976       0.81413230 </v>
   <v>       0.95353028       0.46934976       0.81413230 </v>
   <v>       0.45353028       0.96934976       0.81413230 </v>
   <v>       0.95353028       0.96934976       0.81413230 </v>
   <v>       0.21105031       0.21933910       0.84416384 </v>
   <v>       0.71105031       0.21933910       0.84416384 </v>
   <v>       0.21105031       0.71933910       0.84416384 </v>
   <v>       0.71105031       0.71933910       0.84416384 </v>
   <v>       0.07654971       0.09530995       0.80250593 </v>
   <v>       0.57654971       0.09530995       0.80250593 </v>
   <v>       0.07654971       0.59530995       0.80250593 </v>
   <v>       0.57654971       0.59530995       0.80250593 </v>
   <v>       0.32470466       0.34338175       0.80250383 </v>
   <v>       0.82470466       0.34338175       0.80250383 </v>
   <v>       0.32470466       0.84338175       0.80250383 </v>
   <v>       0.82470466       0.84338175       0.80250383 </v>
   <v>       0.17529534       0.09338175       0.19749617 </v>
   <v>       0.67529534       0.09338175       0.19749617 </v>
   <v>       0.17529534       0.59338175       0.19749617 </v>
   <v>       0.67529534       0.59338175       0.19749617 </v>
   <v>       0.42345029       0.34530995       0.19749407 </v>
   <v>       0.92345029       0.34530995       0.19749407 </v>
   <v>       0.42345029       0.84530995       0.19749407 </v>
   <v>       0.92345029       0.84530995       0.19749407 </v>
   <v>       0.21868463       0.34523395       0.37102476 </v>
   <v>       0.71868463       0.34523395       0.37102476 </v>
   <v>       0.21868463       0.84523395       0.37102476 </v>
   <v>       0.71868463       0.84523395       0.37102476 </v>
   <v>       0.46681660       0.09344897       0.37102399 </v>
   <v>       0.96681660       0.09344897       0.37102399 </v>
   <v>       0.46681660       0.59344897       0.37102399 </v>
   <v>       0.96681660       0.59344897       0.37102399 </v>
   <v>       0.03318340       0.34344897       0.62897601 </v>
   <v>       0.53318340       0.34344897       0.62897601 </v>
   <v>       0.03318340       0.84344897       0.62897601 </v>
   <v>       0.53318340       0.84344897       0.62897601 </v>
   <v>       0.28131537       0.09523395       0.62897524 </v>
   <v>       0.78131537       0.09523395       0.62897524 </v>
   <v>       0.28131537       0.59523395       0.62897524 </v>
   <v>       0.78131537       0.59523395       0.62897524 </v>
   <v>       0.12439279       0.34434306       0.00000412 </v>
   <v>       0.62439279       0.34434306       0.00000412 </v>
   <v>       0.12439279       0.84434306       0.00000412 </v>
   <v>       0.62439279       0.84434306       0.00000412 </v>
   <v>       0.37560721       0.09434306       0.99999588 </v>
   <v>       0.87560721       0.09434306       0.99999588 </v>
   <v>       0.37560721       0.59434306       0.99999588 </v>
   <v>       0.87560721       0.59434306       0.99999588 </v>
   <v>       0.03914416       0.10634799       0.60632306 </v>
   <v>       0.53824426       0.10634799       0.60632306 </v>
   <v>       0.03824426       0.60634799       0.60632306 </v>
   <v>       0.53824426       0.60634799       0.60632306 </v>
   <v>       0.26492712       0.33232651       0.60632763 </v>
   <v>       0.76492712       0.33232651       0.60632763 </v>
   <v>       0.26492712       0.83232651       0.60632763 </v>
   <v>       0.76492712       0.83232651       0.60632763 </v>
   <v>       0.23507288       0.08232651       0.39367237 </v>
   <v>       0.73507288       0.08232651       0.39367237 </v>
   <v>       0.23507288       0.58232651       0.39367237 </v>
   <v>       0.73507288       0.58232651       0.39367237 </v>
   <v>       0.46175574       0.35634799       0.39367694 </v>
   <v>       0.96175574       0.35634799       0.39367694 </v>
   <v>       0.46175574       0.85634799       0.39367694 </v>
   <v>       0.96175574       0.85634799       0.39367694 </v>
   <v>       0.03848398       0.46936404       0.15397331 </v>
   <v>       0.53848398       0.46936404       0.15397331 </v>
   <v>       0.03848398       0.96936404       0.15397331 </v>
   <v>       0.53848398       0.96936404       0.15397331 </v>
   <v>       0.28861657       0.21935690       0.15447525 </v>
   <v>       0.78861657       0.21935690       0.15447525 </v>
   <v>       0.28861657       0.71935690       0.15447525 </v>
   <v>       0.78861657       0.71935690       0.15447525 </v>
   <v>       0.21138343       0.46935690       0.84552475 </v>
   <v>       0.71138343       0.46935690       0.84552475 </v>
   <v>       0.21138343       0.96935690       0.84552475 </v>
   <v>       0.71138343       0.96935690       0.84552475 </v>
   <v>       0.46151602       0.21936404       0.84602669 </v>
   <v>       0.96151602       0.21936404       0.84602669 </v>
   <v>       0.46151602       0.71936404       0.84602669 </v>
   <v>       0.96151602       0.71936404       0.84602669 </v>
  </varray>
 </structure>
 <calculation>
  <scstep>
   <time name="dav">  314.64  318.18</time>
   <time name="total">  317.97  321.57</time>
   <energy>
    <i name="alphaZ">   2314.49656628 </i>
    <i name="ewald"> -57722.84860188 </i>
    <i name="hartreedc"> -30349.08085603 </i>
    <i name="XCdc">   3229.30213350 </i>
    <i name="pawpsdc">  92679.89207989 </i>
    <i name="pawaedc"> -95535.38516353 </i>
    <i name="eentropy">     -0.01893709 </i>
    <i name="bandstr">    349.85817414 </i>
    <i name="atom">  95443.47970955 </i>
    <i name="e_fr_energy">  10409.69510483 </i>
    <i name="e_wo_entrp">  10409.71404191 </i>
    <i name="e_0_energy">  10409.70457337 </i>
   </energy>
  </scstep>
  <scstep>
   <time name="dav">  308.57  311.87</time>
   <time name="total">  308.58  311.88</time>
   <energy>
    <i name="e_fr_energy">   1177.49083208 </i>
    <i name="e_wo_entrp">   1177.55537768 </i>
    <i name="e_0_energy">   1177.52310488 </i>
   </energy>
  </scstep>
  <scstep>
   <time name="dav">  327.77  331.19</time>
   <time name="total">  327.78  331.19</time>
   <energy>
    <i name="e_fr_energy">   -308.22991593 </i>
    <i name="e_wo_entrp">   -308.22991593 </i>
    <i name="e_0_energy">   -308.22991593 </i>
   </energy>
  </scstep>
  <scstep>
   <time name="dav">  348.11  351.64</time>
   <time name="total">  348.11  351.64</time>
   <energy>
    <i name="e_fr_energy">   -476.30539191 </i>
    <i name="e_wo_entrp">   -476.30539191 </i>
    <i name="e_0_energy">   -476.30539191 </i>
   </energy>
  </scstep>
  <scstep>
   <time name="dav">  460.27  464.82</time>
   <time name="total">  469.45  474.13</time>
   <energy>
    <i name="e_fr_energy">   -488.73131134 </i>
    <i name="e_wo_entrp">   -488.73131134 </i>
    <i name="e_0_energy">   -488.73131134 </i>
   </energy>
  </scstep>
  <scstep>
   <time name="dav">  405.51  409.33</time>
   <time name="total">  418.15  422.13</time>
   <energy>
    <i name="e_fr_energy">   -489.20000338 </i>
    <i name="e_wo_entrp">   -489.20000338 </i>
    <i name="e_0_energy">   -489.20000338 </i>
   </energy>
  </scstep>
  <scstep>
   <time name="dav">  427.43  432.43</time>
   <time name="total">  440.02  445.22</time>
   <energy>
    <i name="e_fr_energy">   -489.21732107 </i>
    <i name="e_wo_entrp">   -489.21732107 </i>
    <i name="e_0_energy">   -489.21732107 </i>
   </energy>
  </scstep>
  <scstep>
   <time name="dav">  409.49  413.58</time>
   <time name="total">  422.01  426.35</time>
   <energy>
    <i name="e_fr_energy">   -489.21688990 </i>
    <i name="e_wo_entrp">   -489.21688990 </i>
    <i name="e_0_energy">   -489.21688990 </i>
   </energy>
  </scstep>
  <scstep>
   <time name="dav">  448.02  452.40</time>
   <time name="total">  460.63  465.18</time>
   <energy>
    <i name="e_fr_energy">   -489.21619310 </i>
    <i name="e_wo_entrp">   -489.21619310 </i>
    <i name="e_0_energy">   -489.21619310 </i>
   </energy>
  </scstep>
  <scstep>
   <time name="dav">  454.51  459.41</time>
   <time name="total">  467.06  472.19</time>
   <energy>
    <i name="e_fr_energy">   -489.21526635 </i>
    <i name="e_wo_entrp">   -489.21526635 </i>
    <i name="e_0_energy">   -489.21526635 </i>
   </energy>
  </scstep>
  <scstep>
   <time name="dav">  369.16  372.46</time>
   <time name="total">  381.62  385.15</time>
   <energy>
    <i name="e_fr_energy">   -489.21535476 </i>
    <i name="e_wo_entrp">   -489.21535476 </i>
    <i name="e_0_energy">   -489.21535476 </i>
   </energy>
  </scstep>
  <scstep>
   <time name="dav">  392.22  396.33</time>
   <time name="total">  404.81  409.13</time>
   <energy>
    <i name="e_fr_energy">   -489.21533891 </i>
    <i name="e_wo_entrp">   -489.21533891 </i>
    <i name="e_0_energy">   -489.21533891 </i>
   </energy>
  </scstep>
  <scstep>
   <time name="dav">  359.39  362.68</time>
   <time name="total">  372.07  375.48</time>
   <energy>
    <i name="e_fr_energy">   -489.21532134 </i>
    <i name="e_wo_entrp">   -489.21532134 </i>
    <i name="e_0_energy">   -489.21532134 </i>
   </energy>
  </scstep>
  <scstep>
   <time name="dav">  326.47  329.91</time>
   <time name="total">  339.15  342.76</time>
   <energy>
    <i name="e_fr_energy">   -489.21532767 </i>
    <i name="e_wo_entrp">   -489.21532767 </i>
    <i name="e_0_energy">   -489.21532767 </i>
   </energy>
  </scstep>
  <scstep>
   <time name="dav">  315.22  318.49</time>
   <time name="total">  327.70  331.17</time>
   <energy>
    <i name="e_fr_energy">   -489.21532600 </i>
    <i name="e_wo_entrp">   -489.21532600 </i>
    <i name="e_0_energy">   -489.21532600 </i>
   </energy>
  </scstep>
  <scstep>
   <time name="dav">  220.95  223.22</time>
   <time name="total">  224.28  226.58</time>
   <energy>
    <i name="alphaZ">   2314.49656628 </i>
    <i name="ewald"> -57722.84860188 </i>
    <i name="hartreedc"> -30349.06813906 </i>
    <i name="XCdc">   3229.30040180 </i>
    <i name="pawpsdc">  92679.96479803 </i>
    <i name="pawaedc"> -95535.45340057 </i>
    <i name="eentropy">     -0.00000000 </i>
    <i name="bandstr"> -10549.08666079 </i>
    <i name="atom">  95443.47970955 </i>
    <i name="e_fr_energy">   -489.21532664 </i>
    <i name="e_wo_entrp">   -489.21532664 </i>
    <i name="e_0_energy">   -489.21532664 </i>
   </energy>
  </scstep>
  <structure>
   <crystal>
    <varray name="basis" >
     <v>      11.11223374       0.00000000      -0.00029034 </v>
     <v>       0.00000000      11.11745194       0.00000000 </v>
     <v>      -2.77510898       0.00000000      10.19872221 </v>
    </varray>
    <i name="volume">   1259.93837498 </i>
    <varray name="rec_basis" >
     <v>       0.08999155       0.00000000       0.02448702 </v>
     <v>       0.00000000       0.08994867       0.00000000 </v>
     <v>       0.00000256       0.00000000       0.09805220 </v>
    </varray>
   </crystal>
   <varray name="positions" >
    <v>       0.28894969       0.46933910       0.15583616 </v>
    <v>       0.78894969       0.46933910       0.15583616 </v>
    <v>       0.28894969       0.96933910       0.15583616 </v>
    <v>       0.78894969       0.96933910       0.15583616 </v>
    <v>       0.04646972       0.21934976       0.18586770 </v>
    <v>       0.54646972       0.21934976       0.18586770 </v>
    <v>       0.04646972       0.71934976       0.18586770 </v>
    <v>       0.54646972       0.71934976       0.18586770 </v>
    <v>       0.45353028       0.46934976       0.81413230 </v>
    <v>       0.95353028       0.46934976       0.81413230 </v>
    <v>       0.45353028       0.96934976       0.81413230 </v>
    <v>       0.95353028       0.96934976       0.81413230 </v>
    <v>       0.21105031       0.21933910       0.84416384 </v>
    <v>       0.71105031       0.21933910       0.84416384 </v>
    <v>       0.21105031       0.71933910       0.84416384 </v>
    <v>       0.71105031       0.71933910       0.84416384 </v>
    <v>       0.07654971       0.09530995       0.80250593 </v>
    <v>       0.57654971       0.09530995       0.80250593 </v>
    <v>       0.07654971       0.59530995       0.80250593 </v>
    <v>       0.57654971       0.59530995       0.80250593 </v>
    <v>       0.32470466       0.34338175       0.80250383 </v>
    <v>       0.82470466       0.34338175       0.80250383 </v>
    <v>       0.32470466       0.84338175       0.80250383 </v>
    <v>       0.82470466       0.84338175       0.80250383 </v>
    <v>       0.17529534       0.09338175       0.19749617 </v>
    <v>       0.67529534       0.09338175       0.19749617 </v>
    <v>       0.17529534       0.59338175       0.19749617 </v>
    <v>       0.67529534       0.59338175       0.19749617 </v>
    <v>       0.42345029       0.34530995       0.19749407 </v>
    <v>       0.92345029       0.34530995       0.19749407 </v>
    <v>       0.42345029       0.84530995       0.19749407 </v>
    <v>       0.92345029       0.84530995       0.19749407 </v>
    <v>       0.21868463       0.34523395       0.37102476 </v>
    <v>       0.71868463       0.34523395       0.37102476 </v>
    <v>       0.21868463       0.84523395       0.37102476 </v>
    <v>       0.71868463       0.84523395       0.37102476 </v>
    <v>       0.46681660       0.09344897       0.37102399 </v>
    <v>       0.96681660       0.09344897       0.37102399 </v>
    <v>       0.46681660       0.59344897       0.37102399 </v>
    <v>       0.96681660       0.59344897       0.37102399 </v>
    <v>       0.03318340       0.34344897       0.62897601 </v>
    <v>       0.53318340       0.34344897       0.62897601 </v>
    <v>       0.03318340       0.84344897       0.62897601 </v>
    <v>       0.53318340       0.84344897       0.62897601 </v>
    <v>       0.28131537       0.09523395       0.62897524 </v>
    <v>       0.78131537       0.09523395       0.62897524 </v>
    <v>       0.28131537       0.59523395       0.62897524 </v>
    <v>       0.78131537       0.59523395       0.62897524 </v>
    <v>       0.12439279       0.34434306       0.00000412 </v>
    <v>       0.62439279       0.34434306       0.00000412 </v>
    <v>       0.12439279       0.84434306       0.00000412 </v>
    <v>       0.62439279       0.84434306       0.00000412 </v>
    <v>       0.37560721       0.09434306       0.99999588 </v>
    <v>       0.87560721       0.09434306       0.99999588 </v>
    <v>       0.37560721       0.59434306       0.99999588 </v>
    <v>       0.87560721       0.59434306       0.99999588 </v>
    <v>       0.03914416       0.10634799       0.60632306 </v>
    <v>       0.53824426       0.10634799       0.60632306 </v>
    <v>       0.03824426       0.60634799       0.60632306 </v>
    <v>       0.53824426       0.60634799       0.60632306 </v>
    <v>       0.26492712       0.33232651       0.60632763 </v>
    <v>       0.76492712       0.33232651       0.60632763 </v>
    <v>       0.26492712       0.83232651       0.60632763 </v>
    <v>       0.76492712       0.83232651       0.60632763 </v>
    <v>       0.23507288       0.08232651       0.39367237 </v>
    <v>       0.73507288       0.08232651       0.39367237 </v>
    <v>       0.23507288       0.58232651       0.39367237 </v>
    <v>       0.73507288       0.58232651       0.39367237 </v>
    <v>       0.46175574       0.35634799       0.39367694 </v>
    <v>       0.96175574       0.35634799       0.39367694 </v>
    <v>       0.46175574       0.85634799       0.39367694 </v>
    <v>       0.96175574       0.85634799       0.39367694 </v>
    <v>       0.03848398       0.46936404       0.15397331 </v>
    <v>       0.53848398       0.46936404       0.15397331 </v>
    <v>       0.03848398       0.96936404       0.15397331 </v>
    <v>       0.53848398       0.96936404       0.15397331 </v>
    <v>       0.28861657       0.21935690       0.15447525 </v>
    <v>       0.78861657       0.21935690       0.15447525 </v>
    <v>       0.28861657       0.71935690       0.15447525 </v>
    <v>       0.78861657       0.71935690       0.15447525 </v>
    <v>       0.21138343       0.46935690       0.84552475 </v>
    <v>       0.71138343       0.46935690       0.84552475 </v>
    <v>       0.21138343       0.96935690       0.84552475 </v>
    <v>       0.71138343       0.96935690       0.84552475 </v>
    <v>       0.46151602       0.21936404       0.84602669 </v>
    <v>       0.96151602       0.21936404       0.84602669 </v>
    <v>       0.46151602       0.71936404       0.84602669 </v>
    <v>       0.96151602       0.71936404       0.84602669 </v>
   </varray>
  </structure>
  <varray name="forces" >
   <v>       0.00011258       0.00003101      -0.00020729 </v>
   <v>       0.00002928       0.00003414       0.00006596 </v>
   <v>       0.00001195      -0.00001851       0.00003985 </v>
   <v>       0.00014302      -0.00005855      -0.00020679 </v>
   <v>      -0.00053284      -0.00041986       0.00002346 </v>
   <v>       0.00020413       0.00019173       0.00013714 </v>
   <v>      -0.00031022      -0.00002408      -0.00010304 </v>
   <v>       0.00015285       0.00005609       0.00010027 </v>
   <v>       0.00026671       0.00017880      -0.00003356 </v>
   <v>      -0.00013188      -0.00010138       0.00017592 </v>
   <v>       0.00106607      -0.00096638       0.00130810 </v>
   <v>       0.00048824       0.00236053      -0.00338357 </v>
   <v>      -0.00053140       0.00164731       0.00343890 </v>
   <v>       0.00069323      -0.00045968      -0.00080187 </v>
   <v>      -0.00031715      -0.00014473      -0.00007015 </v>
   <v>       0.00009257       0.00012831       0.00006332 </v>
   <v>       0.00769931      -0.00025095      -0.00361741 </v>
   <v>      -0.00464411       0.00058637      -0.00033873 </v>
   <v>       0.00020661      -0.00003843       0.00011261 </v>
   <v>      -0.00000486       0.00005305      -0.00009161 </v>
   <v>       0.00008768      -0.00177330      -0.00100844 </v>
   <v>      -0.00061238       0.00151236       0.00049577 </v>
   <v>      -0.00048460       0.00165711      -0.00081164 </v>
   <v>      -0.00004097      -0.00119067       0.00044560 </v>
   <v>       0.00100486       0.00019046       0.00091624 </v>
   <v>       0.00013078      -0.00005172      -0.00034217 </v>
   <v>       0.00025261       0.00008161       0.00038811 </v>
   <v>       0.00003555      -0.00002529      -0.00014148 </v>
   <v>      -0.00046726      -0.00021879       0.00004960 </v>
   <v>       0.00010183       0.00033028       0.00004367 </v>
   <v>      -0.00041249       0.00008964      -0.00000125 </v>
   <v>       0.00000999      -0.00030537       0.00007926 </v>
   <v>       0.00005829      -0.00098849       0.00097528 </v>
   <v>      -0.00017924       0.00049782      -0.00051781 </v>
   <v>       0.00008299       0.00069119       0.00089691 </v>
   <v>      -0.00018418      -0.00076846      -0.00053626 </v>
   <v>      -0.00225703       0.00021469       0.00028523 </v>
   <v>       0.00280586      -0.00004249       0.00239675 </v>
   <v>      -0.00020185       0.00012194       0.00014146 </v>
   <v>       0.00031594       0.00011650       0.00011718 </v>
   <v>       0.00198884      -0.00023487       0.00017506 </v>
   <v>      -0.00159656       0.00014512      -0.00018431 </v>
   <v>       0.00191377      -0.00063560      -0.00023702 </v>
   <v>      -0.00128372       0.00011070      -0.00023093 </v>
   <v>       0.00555067      -0.00118671       0.00129252 </v>
   <v>      -0.00666325       0.00001381      -0.00058200 </v>
   <v>       0.00033234      -0.00010575      -0.00013258 </v>
   <v>       0.00014181      -0.00017484      -0.00009717 </v>
   <v>       0.00037457       0.00007731       0.00043140 </v>
   <v>      -0.00033185      -0.00011289      -0.00010709 </v>
   <v>       0.00038705      -0.00007863       0.00007789 </v>
   <v>      -0.00031911      -0.00003004       0.00003858 </v>
   <v>       0.00017193      -0.00001083      -0.00086192 </v>
   <v>      -0.00012133      -0.00003084       0.00044321 </v>
   <v>      -0.00002701       0.00000002      -0.00018995 </v>
   <v>       0.00003907      -0.00003143       0.00001443 </v>
   <v>      -0.02330539       0.00138213       0.00031738 </v>
   <v>       0.00897589       0.00006910       0.00028182 </v>
   <v>       0.00037360       0.00006642       0.00020458 </v>
   <v>      -0.00036595       0.00004295       0.00013089 </v>
   <v>       0.00155109       0.00414624      -0.00016239 </v>
   <v>       0.00116011      -0.00301316       0.00037714 </v>
   <v>       0.00074736      -0.00300808      -0.00012697 </v>
   <v>       0.00069927       0.00216547       0.00024142 </v>
   <v>       0.00172333      -0.00067230      -0.00735525 </v>
   <v>       0.00179450       0.00044928       0.00586970 </v>
   <v>      -0.00022166       0.00009709       0.00002813 </v>
   <v>      -0.00019273      -0.00007916      -0.00022528 </v>
   <v>       0.00072920       0.00009010      -0.00004219 </v>
   <v>      -0.00053362      -0.00048378       0.00001814 </v>
   <v>       0.00071502      -0.00013992      -0.00001407 </v>
   <v>      -0.00051811       0.00066805       0.00006072 </v>
   <v>      -0.00043192      -0.00004677      -0.00025331 </v>
   <v>       0.00029610       0.00004432       0.00026983 </v>
   <v>      -0.00100951       0.00063465       0.00041947 </v>
   <v>       0.00046822      -0.00029329       0.00012340 </v>
   <v>      -0.00002010       0.00011659      -0.00010408 </v>
   <v>       0.00020322       0.00009807      -0.00035516 </v>
   <v>       0.00023725      -0.00007979      -0.00024360 </v>
   <v>      -0.00001613       0.00004360       0.00010268 </v>
   <v>      -0.00085526       0.00044934      -0.00014938 </v>
   <v>       0.00044250      -0.00036848       0.00003594 </v>
   <v>      -0.00159931      -0.00217876       0.00477315 </v>
   <v>       0.00136236       0.00073144      -0.00138486 </v>
   <v>       0.00176555       0.00114140       0.00192426 </v>
   <v>       0.00025661      -0.00256917      -0.00504571 </v>
   <v>       0.00057748      -0.00036931       0.00003514 </v>
   <v>      -0.00030665       0.00022738      -0.00008517 </v>
  </varray>
  <varray name="stress" >
   <v>       2.14379461       0.00030218      -0.09032759 </v>
   <v>       0.00032415       1.84665003      -0.00113787 </v>
   <v>      -0.09064070      -0.00112249       0.46184514 </v>
  </varray>
  <energy>
   <i name="e_fr_energy">   -489.21532664 </i>
   <i name="e_wo_entrp">   -489.21532664 </i>
   <i name="e_0_energy">     -0.00000000 </i>
  </energy>
  <time name="totalsc"> 6565.06 6631.77</time>
  <eigenvalues>
   <array>
    <dimension dim="1">band</dimension>
    <dimension dim="2">kpoint</dimension>
    <dimension dim="3">spin</dimension>
    <field>eigene</field>
    <field>occ</field>
    <set>
     <set comment="spin 1">
      <set comment="kpoint 1">
       <r>  -51.0558    1.0000 </r>
       <r>  -51.0552    1.0000 </r>
       <r>  -51.0550    1.0000 </r>
       <r>  -51.0546    1.0000 </r>
       <r>  -51.0539    1.0000 </r>
       <r>  -51.0537    1.0000 </r>
       <r>  -51.0536    1.0000 </r>
       <r>  -51.0534    1.0000 </r>
       <r>  -51.0529    1.0000 </r>
       <r>  -51.0527    1.0000 </r>
       <r>  -51.0525    1.0000 </r>
       <r>  -51.0523    1.0000 </r>
       <r>  -51.0520    1.0000 </r>
       <r>  -51.0510    1.0000 </r>
       <r>  -51.0510    1.0000 </r>
       <r>  -51.0500    1.0000 </r>
       <r>  -51.0448    1.0000 </r>
       <r>  -51.0444    1.0000 </r>
       <r>  -51.0443    1.0000 </r>
       <r>  -51.0442    1.0000 </r>
       <r>  -51.0437    1.0000 </r>
       <r>  -51.0436    1.0000 </r>
       <r>  -51.0436    1.0000 </r>
       <r>  -51.0433    1.0000 </r>
       <r>  -51.0402    1.0000 </r>
       <r>  -51.0396    1.0000 </r>
       <r>  -51.0394    1.0000 </r>
       <r>  -51.0393    1.0000 </r>
       <r>  -51.0393    1.0000 </r>
       <r>  -51.0392    1.0000 </r>
       <r>  -51.0391    1.0000 </r>
       <r>  -51.0382    1.0000 </r>
       <r>  -49.7032    1.0000 </r>
       <r>  -49.7018    1.0000 </r>
       <r>  -49.7017    1.0000 </r>
       <r>  -49.7015    1.0000 </r>
       <r>  -49.7014    1.0000 </r>
       <r>  -49.7013    1.0000 </r>
       <r>  -49.7013    1.0000 </r>
       <r>  -49.7006    1.0000 </r>
       <r>  -49.6951    1.0000 </r>
       <r>  -49.6942    1.0000 </r>
       <r>  -49.6941    1.0000 </r>
       <r>  -49.6940    1.0000 </r>
       <r>  -49.6939    1.0000 </r>
       <r>  -49.6938    1.0000 </r>
       <r>  -49.6936    1.0000 </r>
       <r>  -49.6919    1.0000 </r>
       <r>  -49.5996    1.0000 </r>
       <r>  -49.5988    1.0000 </r>
       <r>  -49.5984    1.0000 </r>
       <r>  -49.5979    1.0000 </r>
       <r>  -49.5974    1.0000 </r>
       <r>  -49.5971    1.0000 </r>
       <r>  -49.5970    1.0000 </r>
       <r>  -49.5969    1.0000 </r>
       <r>  -49.5966    1.0000 </r>
       <r>  -49.5963    1.0000 </r>
       <r>  -49.5961    1.0000 </r>
       <r>  -49.5960    1.0000 </r>
       <r>  -49.5959    1.0000 </r>
       <r>  -49.5955    1.0000 </r>
       <r>  -49.5954    1.0000 </r>
       <r>  -49.5948    1.0000 </r>
       <r>  -49.5679    1.0000 </r>
       <r>  -49.5671    1.0000 </r>
       <r>  -49.5667    1.0000 </r>
       <r>  -49.5662    1.0000 </r>
       <r>  -49.5660    1.0000 </r>
       <r>  -49.5656    1.0000 </r>
       <r>  -49.5654    1.0000 </r>
       <r>  -49.5651    1.0000 </r>
       <r>  -49.5647    1.0000 </r>
       <r>  -49.5643    1.0000 </r>
       <r>  -49.5643    1.0000 </r>
       <r>  -49.5640    1.0000 </r>
       <r>  -49.5637    1.0000 </r>
       <r>  -49.5634    1.0000 </r>
       <r>  -49.5630    1.0000 </r>
       <r>  -49.5629    1.0000 </r>
       <r>  -49.5551    1.0000 </r>
       <r>  -49.5544    1.0000 </r>
       <r>  -49.5543    1.0000 </r>
       <r>  -49.5541    1.0000 </r>
       <r>  -49.5540    1.0000 </r>
       <r>  -49.5539    1.0000 </r>
       <r>  -49.5538    1.0000 </r>
       <r>  -49.5533    1.0000 </r>
       <r>  -49.5404    1.0000 </r>
       <r>  -49.5396    1.0000 </r>
       <r>  -49.5395    1.0000 </r>
       <r>  -49.5394    1.0000 </r>
       <r>  -49.5394    1.0000 </r>
       <r>  -49.5392    1.0000 </r>
       <r>  -49.5390    1.0000 </r>
       <r>  -49.5382    1.0000 </r>
       <r>  -39.8667    1.0000 </r>
       <r>  -39.8664    1.0000 </r>
       <r>  -39.8659    1.0000 </r>
       <r>  -39.8655    1.0000 </r>
       <r>  -39.8655    1.0000 </r>
       <r>  -39.8653    1.0000 </r>
       <r>  -39.8652    1.0000 </r>
       <r>  -39.8651    1.0000 </r>
       <r>  -39.8650    1.0000 </r>
       <r>  -39.8648    1.0000 </r>
       <r>  -39.8648    1.0000 </r>
       <r>  -39.8647    1.0000 </r>
       <r>  -39.8646    1.0000 </r>
       <r>  -39.8644    1.0000 </r>
       <r>  -39.8642    1.0000 </r>
       <r>  -39.8636    1.0000 </r>
       <r>  -13.2248    1.0000 </r>
       <r>  -13.2246    1.0000 </r>
       <r>  -13.2103    1.0000 </r>
       <r>  -13.1835    1.0000 </r>
       <r>  -13.1010    1.0000 </r>
       <r>  -13.0990    1.0000 </r>
       <r>  -13.0988    1.0000 </r>
       <r>  -13.0929    1.0000 </r>
       <r>  -13.0860    1.0000 </r>
       <r>  -13.0800    1.0000 </r>
       <r>  -13.0799    1.0000 </r>
       <r>  -13.0776    1.0000 </r>
       <r>  -12.9880    1.0000 </r>
       <r>  -12.9773    1.0000 </r>
       <r>  -12.9418    1.0000 </r>
       <r>  -12.9417    1.0000 </r>
       <r>   -7.6454    1.0000 </r>
       <r>   -7.4068    1.0000 </r>
       <r>   -7.3264    1.0000 </r>
       <r>   -7.3261    1.0000 </r>
       <r>   -7.3093    1.0000 </r>
       <r>   -7.3092    1.0000 </r>
       <r>   -7.3086    1.0000 </r>
       <r>   -7.3074    1.0000 </r>
       <r>   -7.1695    1.0000 </r>
       <r>   -7.1576    1.0000 </r>
       <r>   -7.1239    1.0000 </r>
       <r>   -7.1238    1.0000 </r>
       <r>   -7.0366    1.0000 </r>
       <r>   -7.0222    1.0000 </r>
       <r>   -7.0024    1.0000 </r>
       <r>   -7.0020    1.0000 </r>
       <r>   -6.9411    1.0000 </r>
       <r>   -6.9408    1.0000 </r>
       <r>   -6.8876    1.0000 </r>
       <r>   -6.8872    1.0000 </r>
       <r>   -6.8654    1.0000 </r>
       <r>   -6.8619    1.0000 </r>
       <r>   -6.8345    1.0000 </r>
       <r>   -6.8038    1.0000 </r>
       <r>   -1.9355    1.0000 </r>
       <r>   -1.9353    1.0000 </r>
       <r>   -1.9104    1.0000 </r>
       <r>   -1.8935    1.0000 </r>
       <r>   -1.6665    1.0000 </r>
       <r>   -1.6662    1.0000 </r>
       <r>   -1.6588    1.0000 </r>
       <r>   -1.6569    1.0000 </r>
       <r>   -1.5998    1.0000 </r>
       <r>   -1.5977    1.0000 </r>
       <r>   -1.5863    1.0000 </r>
       <r>   -1.5860    1.0000 </r>
       <r>   -1.2982    1.0000 </r>
       <r>   -1.1747    1.0000 </r>
       <r>   -1.1746    1.0000 </r>
       <r>   -1.1132    1.0000 </r>
       <r>   -1.1130    1.0000 </r>
       <r>   -1.1071    1.0000 </r>
       <r>   -1.0492    1.0000 </r>
       <r>   -0.9807    1.0000 </r>
       <r>   -0.9646    1.0000 </r>
       <r>   -0.9597    1.0000 </r>
       <r>   -0.9579    1.0000 </r>
       <r>   -0.9575    1.0000 </r>
       <r>   -0.9469    1.0000 </r>
       <r>   -0.9451    1.0000 </r>
       <r>   -0.9229    1.0000 </r>
       <r>   -0.8712    1.0000 </r>
       <r>   -0.8711    1.0000 </r>
       <r>   -0.8033    1.0000 </r>
       <r>   -0.8026    1.0000 </r>
       <r>   -0.8023    1.0000 </r>
       <r>   -0.7752    1.0000 </r>
       <r>   -0.7740    1.0000 </r>
       <r>   -0.7736    1.0000 </r>
       <r>   -0.7610    1.0000 </r>
       <r>   -0.7166    1.0000 </r>
       <r>   -0.7164    1.0000 </r>
       <r>   -0.7066    1.0000 </r>
       <r>   -0.7050    1.0000 </r>
       <r>   -0.6991    1.0000 </r>
       <r>   -0.6990    1.0000 </r>
       <r>   -0.6090    1.0000 </r>
       <r>   -0.6088    1.0000 </r>
       <r>   -0.5615    1.0000 </r>
       <r>   -0.5614    1.0000 </r>
       <r>   -0.5494    1.0000 </r>
       <r>   -0.5479    1.0000 </r>
       <r>   -0.4084    1.0000 </r>
       <r>   -0.4081    1.0000 </r>
       <r>   -0.3575    1.0000 </r>
       <r>   -0.3479    1.0000 </r>
       <r>   -0.3294    1.0000 </r>
       <r>   -0.3290    1.0000 </r>
       <r>   -0.2985    1.0000 </r>
       <r>   -0.2983    1.0000 </r>
       <r>   -0.2816    1.0000 </r>
       <r>   -0.2693    1.0000 </r>
       <r>   -0.2626    1.0000 </r>
       <r>   -0.2562    1.0000 </r>
       <r>   -0.2551    1.0000 </r>
       <r>   -0.2091    1.0000 </r>
       <r>   -0.2089    1.0000 </r>
       <r>   -0.1885    1.0000 </r>
       <r>   -0.1867    1.0000 </r>
       <r>   -0.1866    1.0000 </r>
       <r>   -0.1760    1.0000 </r>
       <r>   -0.1579    1.0000 </r>
       <r>   -0.1256    1.0000 </r>
       <r>   -0.1255    1.0000 </r>
       <r>   -0.1093    1.0000 </r>
       <r>   -0.0709    1.0000 </r>
       <r>   -0.0702    1.0000 </r>
       <r>   -0.0603    1.0000 </r>
       <r>   -0.0433    1.0000 </r>
       <r>   -0.0175    1.0000 </r>
       <r>   -0.0173    1.0000 </r>
       <r>   -0.0116    1.0000 </r>
       <r>    0.0017    1.0000 </r>
       <r>    0.0018    1.0000 </r>
       <r>    0.0462    1.0000 </r>
       <r>    0.0494    1.0000 </r>
       <r>    0.0495    1.0000 </r>
       <r>    0.0914    1.0000 </r>
       <r>    0.0934    1.0000 </r>
       <r>    0.1185    1.0000 </r>
       <r>    0.1188    1.0000 </r>
       <r>    0.1578    1.0000 </r>
       <r>    0.1627    1.0000 </r>
       <r>    0.1769    1.0000 </r>
       <r>    0.1794    1.0000 </r>
       <r>    0.1818    1.0000 </r>
       <r>    0.1824    1.0000 </r>
       <r>    0.1857    1.0000 </r>
       <r>    0.1893    1.0000 </r>
       <r>    0.1934    1.0000 </r>
       <r>    0.1942    1.0000 </r>
       <r>    0.2009    1.0000 </r>
       <r>    0.2011    1.0000 </r>
       <r>    0.2388    1.0000 </r>
       <r>    0.2511    1.0000 </r>
       <r>    0.2569    1.0000 </r>
       <r>    0.2573    1.0000 </r>
       <r>    0.2766    1.0000 </r>
       <r>    0.3374    1.0000 </r>
       <r>    0.3472    1.0000 </r>
       <r>    0.3590    1.0000 </r>
       <r>    0.3591    1.0000 </r>
       <r>    0.3603    1.0000 </r>
       <r>    0.3604    1.0000 </r>
       <r>    0.3881    1.0000 </r>
       <r>    0.4018    1.0000 </r>
       <r>    0.4525    1.0000 </r>
       <r>    0.4526    1.0000 </r>
       <r>    0.5788    1.0000 </r>
       <r>    0.5790    1.0000 </r>
       <r>    0.5844    1.0000 </r>
       <r>    0.6019    1.0000 </r>
       <r>    0.6021    1.0000 </r>
       <r>    0.6066    1.0000 </r>
       <r>    0.6080    1.0000 </r>
       <r>    0.6399    1.0000 </r>
       <r>    0.6511    1.0000 </r>
       <r>    0.6514    1.0000 </r>
       <r>    0.6620    1.0000 </r>
       <r>    0.6622    1.0000 </r>
       <r>    0.6654    1.0000 </r>
       <r>    0.6730    1.0000 </r>
       <r>    0.6748    1.0000 </r>
       <r>    0.6749    1.0000 </r>
       <r>    0.6965    1.0000 </r>
       <r>    0.7227    1.0000 </r>
       <r>    0.7833    1.0000 </r>
       <r>    0.8197    1.0000 </r>
       <r>    0.8294    1.0000 </r>
       <r>    0.8318    1.0000 </r>
       <r>    0.8322    1.0000 </r>
       <r>    0.8610    1.0000 </r>
       <r>    0.8612    1.0000 </r>
       <r>    0.9093    1.0000 </r>
       <r>    0.9403    1.0000 </r>
       <r>    0.9482    1.0000 </r>
       <r>    0.9484    1.0000 </r>
       <r>    0.9831    1.0000 </r>
       <r>    1.0258    1.0000 </r>
       <r>    1.0703    1.0000 </r>
       <r>    1.2694    1.0000 </r>
       <r>    1.2979    1.0000 </r>
       <r>    1.2983    1.0000 </r>
       <r>    1.3116    1.0000 </r>
       <r>    1.3327    1.0000 </r>
       <r>    1.3330    1.0000 </r>
       <r>    1.3376    1.0000 </r>
       <r>    1.3846    1.0000 </r>
       <r>    1.4049    1.0000 </r>
       <r>    1.4282    1.0000 </r>
       <r>    1.4667    1.0000 </r>
       <r>    1.4677    1.0000 </r>
       <r>    1.4680    1.0000 </r>
       <r>    1.4813    1.0000 </r>
       <r>    1.5108    1.0000 </r>
       <r>    1.5112    1.0000 </r>
       <r>    1.5408    1.0000 </r>
       <r>    1.5617    1.0000 </r>
       <r>    1.5769    1.0000 </r>
       <r>    1.6462    1.0000 </r>
       <r>    1.6556    1.0000 </r>
       <r>    1.7562    1.0000 </r>
       <r>    1.7568    1.0000 </r>
       <r>    1.7631    1.0000 </r>
       <r>    1.7781    1.0000 </r>
       <r>    1.8028    1.0000 </r>
       <r>    1.8030    1.0000 </r>
       <r>    1.8109    1.0000 </r>
       <r>    1.8232    1.0000 </r>
       <r>    1.8366    1.0000 </r>
       <r>    1.8369    1.0000 </r>
       <r>    1.8457    1.0000 </r>
       <r>    1.8470    1.0000 </r>
       <r>    1.8784    1.0000 </r>
       <r>    1.8901    1.0000 </r>
       <r>    1.9467    1.0000 </r>
       <r>    1.9930    1.0000 </r>
       <r>    1.9935    1.0000 </r>
       <r>    2.0064    1.0000 </r>
       <r>    2.0066    1.0000 </r>
       <r>    2.0102    1.0000 </r>
       <r>    2.0187    1.0000 </r>
       <r>    2.0202    1.0000 </r>
       <r>    2.0208    1.0000 </r>
       <r>    2.0396    1.0000 </r>
       <r>    2.0464    1.0000 </r>
       <r>    2.0468    1.0000 </r>
       <r>    2.0572    1.0000 </r>
       <r>    2.0689    1.0000 </r>
       <r>    2.0690    1.0000 </r>
       <r>    2.0915    1.0000 </r>
       <r>    2.1131    1.0000 </r>
       <r>    2.1908    1.0000 </r>
       <r>    2.1908    1.0000 </r>
       <r>    2.2470    1.0000 </r>
       <r>    2.2472    1.0000 </r>
       <r>    2.2707    1.0000 </r>
       <r>    2.2731    1.0000 </r>
       <r>    2.2842    1.0000 </r>
       <r>    2.4278    1.0000 </r>
       <r>    2.4663    1.0000 </r>
       <r>    2.4668    1.0000 </r>
       <r>    2.4776    1.0000 </r>
       <r>    2.5037    1.0000 </r>
       <r>    2.5276    1.0000 </r>
       <r>    2.5542    1.0000 </r>
       <r>    2.5925    1.0000 </r>
       <r>    2.6268    1.0000 </r>
       <r>    2.6269    1.0000 </r>
       <r>    2.6565    1.0000 </r>
       <r>    2.7386    1.0000 </r>
       <r>    2.7387    1.0000 </r>
       <r>    2.7609    1.0000 </r>
       <r>    2.7616    1.0000 </r>
       <r>    2.8339    1.0000 </r>
       <r>    2.8731    1.0000 </r>
       <r>    2.9265    1.0000 </r>
       <r>    2.9341    1.0000 </r>
       <r>    2.9348    1.0000 </r>
       <r>    2.9691    1.0000 </r>
       <r>    3.0272    1.0000 </r>
       <r>    3.0281    1.0000 </r>
       <r>    3.0612    1.0000 </r>
       <r>    3.0972    1.0000 </r>
       <r>    3.3080    1.0000 </r>
       <r>    3.3105    1.0000 </r>
       <r>    3.3483    1.0000 </r>
       <r>    3.3753    1.0000 </r>
       <r>    3.4215    1.0000 </r>
       <r>    3.4217    1.0000 </r>
       <r>    3.4409    1.0000 </r>
       <r>    3.4585    1.0000 </r>
       <r>    3.4587    1.0000 </r>
       <r>    3.5318    1.0000 </r>
       <r>    3.7484    1.0000 </r>
       <r>    3.8085    1.0000 </r>
       <r>    3.8090    1.0000 </r>
       <r>    3.8151    1.0000 </r>
       <r>    3.8154    1.0000 </r>
       <r>    3.8824    1.0000 </r>
       <r>    3.8828    1.0000 </r>
       <r>    3.9325    1.0000 </r>
       <r>    3.9352    1.0000 </r>
       <r>    3.9405    1.0000 </r>
       <r>    3.9406    1.0000 </r>
       <r>    4.0392    1.0000 </r>
       <r>    4.0396    1.0000 </r>
       <r>    4.0704    1.0000 </r>
       <r>    4.1387    1.0000 </r>
       <r>    4.1495    1.0000 </r>
       <r>    4.1514    1.0000 </r>
       <r>    4.3148    1.0000 </r>
       <r>    4.3183    1.0000 </r>
       <r>    4.3381    1.0000 </r>
       <r>    4.3585    1.0000 </r>
       <r>    4.3586    1.0000 </r>
       <r>    4.4283    1.0000 </r>
       <r>    4.4445    1.0000 </r>
       <r>    4.4462    1.0000 </r>
       <r>    4.4542    1.0000 </r>
       <r>    4.4565    1.0000 </r>
       <r>    4.4565    1.0000 </r>
       <r>    4.6361    1.0000 </r>
       <r>    4.6364    1.0000 </r>
       <r>    4.7320    1.0000 </r>
       <r>    4.7324    1.0000 </r>
       <r>    4.7639    1.0000 </r>
       <r>    4.7641    1.0000 </r>
       <r>    4.7693    1.0000 </r>
       <r>    4.7695    1.0000 </r>
       <r>    4.8100    1.0000 </r>
       <r>    4.8529    1.0000 </r>
       <r>    4.8533    1.0000 </r>
       <r>    4.8572    1.0000 </r>
       <r>    7.3435    0.0000 </r>
       <r>    8.1284    0.0000 </r>
       <r>    8.4450    0.0000 </r>
       <r>    8.6425    0.0000 </r>
       <r>    8.6429    0.0000 </r>
       <r>    8.8582    0.0000 </r>
       <r>    9.0845    0.0000 </r>
       <r>    9.0846    0.0000 </r>
       <r>    9.2612    0.0000 </r>
       <r>    9.2734    0.0000 </r>
       <r>    9.2888    0.0000 </r>
       <r>    9.2894    0.0000 </r>
       <r>    9.7268    0.0000 </r>
       <r>    9.7719    0.0000 </r>
       <r>    9.7723    0.0000 </r>
       <r>    9.7900    0.0000 </r>
       <r>    9.8546    0.0000 </r>
       <r>    9.8548    0.0000 </r>
       <r>    9.8590    0.0000 </r>
       <r>    9.8789    0.0000 </r>
       <r>    9.8893    0.0000 </r>
       <r>   10.0605    0.0000 </r>
       <r>   10.0826    0.0000 </r>
       <r>   10.1362    0.0000 </r>
       <r>   10.1364    0.0000 </r>
       <r>   10.3061    0.0000 </r>
       <r>   10.3063    0.0000 </r>
       <r>   10.4163    0.0000 </r>
       <r>   10.5264    0.0000 </r>
       <r>   10.5709    0.0000 </r>
       <r>   10.5717    0.0000 </r>
       <r>   10.5719    0.0000 </r>
       <r>   10.5783    0.0000 </r>
       <r>   10.5785    0.0000 </r>
       <r>   10.6758    0.0000 </r>
       <r>   10.9757    0.0000 </r>
       <r>   11.0187    0.0000 </r>
       <r>   11.0194    0.0000 </r>
       <r>   11.0405    0.0000 </r>
       <r>   11.0408    0.0000 </r>
       <r>   11.0774    0.0000 </r>
       <r>   11.1285    0.0000 </r>
       <r>   11.1781    0.0000 </r>
       <r>   11.1887    0.0000 </r>
       <r>   11.2287    0.0000 </r>
       <r>   11.2495    0.0000 </r>
       <r>   11.2499    0.0000 </r>
       <r>   11.2904    0.0000 </r>
       <r>   11.3068    0.0000 </r>
       <r>   11.4173    0.0000 </r>
       <r>   11.4176    0.0000 </r>
       <r>   11.4588    0.0000 </r>
       <r>   11.5212    0.0000 </r>
       <r>   11.5217    0.0000 </r>
       <r>   11.5306    0.0000 </r>
       <r>   11.5775    0.0000 </r>
       <r>   11.6799    0.0000 </r>
       <r>   11.6802    0.0000 </r>
       <r>   11.7972    0.0000 </r>
       <r>   11.7975    0.0000 </r>
       <r>   11.8156    0.0000 </r>
       <r>   11.8157    0.0000 </r>
       <r>   11.8822    0.0000 </r>
       <r>   11.9411    0.0000 </r>
       <r>   11.9759    0.0000 </r>
       <r>   11.9763    0.0000 </r>
       <r>   11.9819    0.0000 </r>
       <r>   12.0280    0.0000 </r>
       <r>   12.0282    0.0000 </r>
       <r>   12.0580    0.0000 </r>
       <r>   12.1618    0.0000 </r>
       <r>   12.2424    0.0000 </r>
       <r>   12.2573    0.0000 </r>
       <r>   12.2575    0.0000 </r>
       <r>   12.3158    0.0000 </r>
       <r>   12.3162    0.0000 </r>
       <r>   12.3216    0.0000 </r>
       <r>   12.3475    0.0000 </r>
       <r>   12.4615    0.0000 </r>
       <r>   12.4801    0.0000 </r>
       <r>   12.5170    0.0000 </r>
       <r>   12.5170    0.0000 </r>
       <r>   12.6142    0.0000 </r>
       <r>   12.6144    0.0000 </r>
       <r>   12.6606    0.0000 </r>
       <r>   12.6632    0.0000 </r>
       <r>   12.6633    0.0000 </r>
       <r>   12.6899    0.0000 </r>
       <r>   12.7471    0.0000 </r>
       <r>   12.8315    0.0000 </r>
       <r>   12.8719    0.0000 </r>
       <r>   12.8729    0.0000 </r>
       <r>   12.8729    0.0000 </r>
       <r>   13.1203    0.0000 </r>
       <r>   13.1205    0.0000 </r>
       <r>   13.2009    0.0000 </r>
       <r>   13.3808    0.0000 </r>
       <r>   13.4098    0.0000 </r>
       <r>   13.4112    0.0000 </r>
       <r>   13.4334    0.0000 </r>
       <r>   13.4383    0.0000 </r>
       <r>   13.4506    0.0000 </r>
       <r>   13.4881    0.0000 </r>
       <r>   13.5095    0.0000 </r>
       <r>   13.5450    0.0000 </r>
       <r>   13.5497    0.0000 </r>
      </set>
      <set comment="kpoint 2">
       <r>  -51.0558    1.0000 </r>
       <r>  -51.0552    1.0000 </r>
       <r>  -51.0549    1.0000 </r>
       <r>  -51.0545    1.0000 </r>
       <r>  -51.0541    1.0000 </r>
       <r>  -51.0539    1.0000 </r>
       <r>  -51.0538    1.0000 </r>
       <r>  -51.0536    1.0000 </r>
       <r>  -51.0531    1.0000 </r>
       <r>  -51.0524    1.0000 </r>
       <r>  -51.0522    1.0000 </r>
       <r>  -51.0521    1.0000 </r>
       <r>  -51.0516    1.0000 </r>
       <r>  -51.0511    1.0000 </r>
       <r>  -51.0511    1.0000 </r>
       <r>  -51.0502    1.0000 </r>
       <r>  -51.0447    1.0000 </r>
       <r>  -51.0444    1.0000 </r>
       <r>  -51.0442    1.0000 </r>
       <r>  -51.0442    1.0000 </r>
       <r>  -51.0438    1.0000 </r>
       <r>  -51.0437    1.0000 </r>
       <r>  -51.0436    1.0000 </r>
       <r>  -51.0433    1.0000 </r>
       <r>  -51.0402    1.0000 </r>
       <r>  -51.0396    1.0000 </r>
       <r>  -51.0394    1.0000 </r>
       <r>  -51.0394    1.0000 </r>
       <r>  -51.0393    1.0000 </r>
       <r>  -51.0392    1.0000 </r>
       <r>  -51.0391    1.0000 </r>
       <r>  -51.0382    1.0000 </r>
       <r>  -49.7032    1.0000 </r>
       <r>  -49.7018    1.0000 </r>
       <r>  -49.7017    1.0000 </r>
       <r>  -49.7015    1.0000 </r>
       <r>  -49.7014    1.0000 </r>
       <r>  -49.7013    1.0000 </r>
       <r>  -49.7013    1.0000 </r>
       <r>  -49.7006    1.0000 </r>
       <r>  -49.6951    1.0000 </r>
       <r>  -49.6942    1.0000 </r>
       <r>  -49.6941    1.0000 </r>
       <r>  -49.6940    1.0000 </r>
       <r>  -49.6939    1.0000 </r>
       <r>  -49.6938    1.0000 </r>
       <r>  -49.6936    1.0000 </r>
       <r>  -49.6919    1.0000 </r>
       <r>  -49.5996    1.0000 </r>
       <r>  -49.5988    1.0000 </r>
       <r>  -49.5984    1.0000 </r>
       <r>  -49.5979    1.0000 </r>
       <r>  -49.5974    1.0000 </r>
       <r>  -49.5971    1.0000 </r>
       <r>  -49.5970    1.0000 </r>
       <r>  -49.5968    1.0000 </r>
       <r>  -49.5965    1.0000 </r>
       <r>  -49.5963    1.0000 </r>
       <r>  -49.5961    1.0000 </r>
       <r>  -49.5960    1.0000 </r>
       <r>  -49.5959    1.0000 </r>
       <r>  -49.5955    1.0000 </r>
       <r>  -49.5954    1.0000 </r>
       <r>  -49.5948    1.0000 </r>
       <r>  -49.5678    1.0000 </r>
       <r>  -49.5671    1.0000 </r>
       <r>  -49.5667    1.0000 </r>
       <r>  -49.5664    1.0000 </r>
       <r>  -49.5658    1.0000 </r>
       <r>  -49.5656    1.0000 </r>
       <r>  -49.5654    1.0000 </r>
       <r>  -49.5650    1.0000 </r>
       <r>  -49.5647    1.0000 </r>
       <r>  -49.5644    1.0000 </r>
       <r>  -49.5642    1.0000 </r>
       <r>  -49.5640    1.0000 </r>
       <r>  -49.5637    1.0000 </r>
       <r>  -49.5634    1.0000 </r>
       <r>  -49.5630    1.0000 </r>
       <r>  -49.5628    1.0000 </r>
       <r>  -49.5551    1.0000 </r>
       <r>  -49.5544    1.0000 </r>
       <r>  -49.5543    1.0000 </r>
       <r>  -49.5541    1.0000 </r>
       <r>  -49.5540    1.0000 </r>
       <r>  -49.5539    1.0000 </r>
       <r>  -49.5538    1.0000 </r>
       <r>  -49.5533    1.0000 </r>
       <r>  -49.5404    1.0000 </r>
       <r>  -49.5396    1.0000 </r>
       <r>  -49.5395    1.0000 </r>
       <r>  -49.5394    1.0000 </r>
       <r>  -49.5394    1.0000 </r>
       <r>  -49.5392    1.0000 </r>
       <r>  -49.5390    1.0000 </r>
       <r>  -49.5382    1.0000 </r>
       <r>  -39.8667    1.0000 </r>
       <r>  -39.8664    1.0000 </r>
       <r>  -39.8658    1.0000 </r>
       <r>  -39.8655    1.0000 </r>
       <r>  -39.8654    1.0000 </r>
       <r>  -39.8654    1.0000 </r>
       <r>  -39.8653    1.0000 </r>
       <r>  -39.8651    1.0000 </r>
       <r>  -39.8649    1.0000 </r>
       <r>  -39.8648    1.0000 </r>
       <r>  -39.8647    1.0000 </r>
       <r>  -39.8647    1.0000 </r>
       <r>  -39.8647    1.0000 </r>
       <r>  -39.8644    1.0000 </r>
       <r>  -39.8642    1.0000 </r>
       <r>  -39.8636    1.0000 </r>
       <r>  -13.2074    1.0000 </r>
       <r>  -13.2072    1.0000 </r>
       <r>  -13.1950    1.0000 </r>
       <r>  -13.1700    1.0000 </r>
       <r>  -13.1590    1.0000 </r>
[...]
       <r>   -49.2828     0.0000     0.0000 </r>
       <r>   -49.0420     0.0000     0.0000 </r>
       <r>   -48.8013     0.0000     0.0000 </r>
       <r>   -48.5605     0.0000     0.0000 </r>
       <r>   -48.3197     0.0000     0.0000 </r>
       <r>   -48.0789     0.0000     0.0000 </r>
       <r>   -47.8382     0.0000     0.0000 </r>
       <r>   -47.5974     0.0000     0.0000 </r>
       <r>   -47.3566     0.0000     0.0000 </r>
       <r>   -47.1158     0.0000     0.0000 </r>
       <r>   -46.8751     0.0000     0.0000 </r>
       <r>   -46.6343     0.0000     0.0000 </r>
       <r>   -46.3935     0.3711     0.0894 </r>
       <r>   -46.1527   132.4890    31.9894 </r>
       <r>   -45.9120    60.0656    46.4518 </r>
       <r>   -45.6712   205.7861    96.0000 </r>
       <r>   -45.4304     0.0000    96.0000 </r>
       <r>   -45.1896     0.0000    96.0000 </r>
       <r>   -44.9489     0.0000    96.0000 </r>
       <r>   -44.7081     0.0000    96.0000 </r>
       <r>   -44.4673     0.0000    96.0000 </r>
       <r>   -44.2265     0.0000    96.0000 </r>
       <r>   -43.9858     0.0000    96.0000 </r>
       <r>   -43.7450     0.0000    96.0000 </r>
       <r>   -43.5042     0.0000    96.0000 </r>
       <r>   -43.2634     0.0000    96.0000 </r>
       <r>   -43.0227     0.0000    96.0000 </r>
       <r>   -42.7819     0.0000    96.0000 </r>
       <r>   -42.5411     0.0000    96.0000 </r>
       <r>   -42.3003     0.0000    96.0000 </r>
       <r>   -42.0596     0.0000    96.0000 </r>
       <r>   -41.8188     0.0000    96.0000 </r>
       <r>   -41.5780     0.0000    96.0000 </r>
       <r>   -41.3372     0.0000    96.0000 </r>
       <r>   -41.0965     0.0000    96.0000 </r>
       <r>   -40.8557     0.0000    96.0000 </r>
       <r>   -40.6149     0.0000    96.0000 </r>
       <r>   -40.3741     0.0000    96.0000 </r>
       <r>   -40.1334     0.0000    96.0000 </r>
       <r>   -39.8926    13.3948    99.2251 </r>
       <r>   -39.6518    53.0571   112.0000 </r>
       <r>   -39.4110     0.0000   112.0000 </r>
       <r>   -39.1703     0.0000   112.0000 </r>
       <r>   -38.9295     0.0000   112.0000 </r>
       <r>   -38.6887     0.0000   112.0000 </r>
       <r>   -38.4479     0.0000   112.0000 </r>
       <r>   -38.2071     0.0000   112.0000 </r>
       <r>   -37.9664     0.0000   112.0000 </r>
       <r>   -37.7256     0.0000   112.0000 </r>
       <r>   -37.4848     0.0000   112.0000 </r>
       <r>   -37.2440     0.0000   112.0000 </r>
       <r>   -37.0033     0.0000   112.0000 </r>
       <r>   -36.7625     0.0000   112.0000 </r>
       <r>   -36.5217     0.0000   112.0000 </r>
       <r>   -36.2809     0.0000   112.0000 </r>
       <r>   -36.0402     0.0000   112.0000 </r>
       <r>   -35.7994     0.0000   112.0000 </r>
       <r>   -35.5586     0.0000   112.0000 </r>
       <r>   -35.3178     0.0000   112.0000 </r>
       <r>   -35.0771     0.0000   112.0000 </r>
       <r>   -34.8363     0.0000   112.0000 </r>
       <r>   -34.5955     0.0000   112.0000 </r>
       <r>   -34.3547     0.0000   112.0000 </r>
       <r>   -34.1140     0.0000   112.0000 </r>
       <r>   -33.8732     0.0000   112.0000 </r>
       <r>   -33.6324     0.0000   112.0000 </r>
       <r>   -33.3916     0.0000   112.0000 </r>
       <r>   -33.1509     0.0000   112.0000 </r>
       <r>   -32.9101     0.0000   112.0000 </r>
       <r>   -32.6693     0.0000   112.0000 </r>
       <r>   -32.4285     0.0000   112.0000 </r>
       <r>   -32.1878     0.0000   112.0000 </r>
       <r>   -31.9470     0.0000   112.0000 </r>
       <r>   -31.7062     0.0000   112.0000 </r>
       <r>   -31.4654     0.0000   112.0000 </r>
       <r>   -31.2247     0.0000   112.0000 </r>
       <r>   -30.9839     0.0000   112.0000 </r>
       <r>   -30.7431     0.0000   112.0000 </r>
       <r>   -30.5023     0.0000   112.0000 </r>
       <r>   -30.2616     0.0000   112.0000 </r>
       <r>   -30.0208     0.0000   112.0000 </r>
       <r>   -29.7800     0.0000   112.0000 </r>
       <r>   -29.5392     0.0000   112.0000 </r>
       <r>   -29.2985     0.0000   112.0000 </r>
       <r>   -29.0577     0.0000   112.0000 </r>
       <r>   -28.8169     0.0000   112.0000 </r>
       <r>   -28.5761     0.0000   112.0000 </r>
       <r>   -28.3354     0.0000   112.0000 </r>
       <r>   -28.0946     0.0000   112.0000 </r>
       <r>   -27.8538     0.0000   112.0000 </r>
       <r>   -27.6130     0.0000   112.0000 </r>
       <r>   -27.3723     0.0000   112.0000 </r>
       <r>   -27.1315     0.0000   112.0000 </r>
       <r>   -26.8907     0.0000   112.0000 </r>
       <r>   -26.6499     0.0000   112.0000 </r>
       <r>   -26.4092     0.0000   112.0000 </r>
       <r>   -26.1684     0.0000   112.0000 </r>
       <r>   -25.9276     0.0000   112.0000 </r>
       <r>   -25.6868     0.0000   112.0000 </r>
       <r>   -25.4461     0.0000   112.0000 </r>
       <r>   -25.2053     0.0000   112.0000 </r>
       <r>   -24.9645     0.0000   112.0000 </r>
       <r>   -24.7237     0.0000   112.0000 </r>
       <r>   -24.4830     0.0000   112.0000 </r>
       <r>   -24.2422     0.0000   112.0000 </r>
       <r>   -24.0014     0.0000   112.0000 </r>
       <r>   -23.7606     0.0000   112.0000 </r>
       <r>   -23.5199     0.0000   112.0000 </r>
       <r>   -23.2791     0.0000   112.0000 </r>
       <r>   -23.0383     0.0000   112.0000 </r>
       <r>   -22.7975     0.0000   112.0000 </r>
       <r>   -22.5568     0.0000   112.0000 </r>
       <r>   -22.3160     0.0000   112.0000 </r>
       <r>   -22.0752     0.0000   112.0000 </r>
       <r>   -21.8344     0.0000   112.0000 </r>
       <r>   -21.5937     0.0000   112.0000 </r>
       <r>   -21.3529     0.0000   112.0000 </r>
       <r>   -21.1121     0.0000   112.0000 </r>
       <r>   -20.8713     0.0000   112.0000 </r>
       <r>   -20.6305     0.0000   112.0000 </r>
       <r>   -20.3898     0.0000   112.0000 </r>
       <r>   -20.1490     0.0000   112.0000 </r>
       <r>   -19.9082     0.0000   112.0000 </r>
       <r>   -19.6674     0.0000   112.0000 </r>
       <r>   -19.4267     0.0000   112.0000 </r>
       <r>   -19.1859     0.0000   112.0000 </r>
       <r>   -18.9451     0.0000   112.0000 </r>
       <r>   -18.7043     0.0000   112.0000 </r>
       <r>   -18.4636     0.0000   112.0000 </r>
       <r>   -18.2228     0.0000   112.0000 </r>
       <r>   -17.9820     0.0000   112.0000 </r>
       <r>   -17.7412     0.0000   112.0000 </r>
       <r>   -17.5005     0.0000   112.0000 </r>
       <r>   -17.2597     0.0000   112.0000 </r>
       <r>   -17.0189     0.0000   112.0000 </r>
       <r>   -16.7781     0.0000   112.0000 </r>
       <r>   -16.5374     0.0000   112.0000 </r>
       <r>   -16.2966     0.0000   112.0000 </r>
       <r>   -16.0558     0.0000   112.0000 </r>
       <r>   -15.8150     0.0000   112.0000 </r>
       <r>   -15.5743     0.0000   112.0000 </r>
       <r>   -15.3335     0.0000   112.0000 </r>
       <r>   -15.0927     0.0000   112.0000 </r>
       <r>   -14.8519     0.0000   112.0000 </r>
       <r>   -14.6112     0.0000   112.0000 </r>
       <r>   -14.3704     0.0000   112.0000 </r>
       <r>   -14.1296     0.0000   112.0000 </r>
       <r>   -13.8888     0.0000   112.0000 </r>
       <r>   -13.6481     0.0000   112.0000 </r>
       <r>   -13.4073     0.0000   112.0000 </r>
       <r>   -13.1665     0.0000   112.0000 </r>
       <r>   -12.9257     0.0041   112.0010 </r>
       <r>   -12.6850    40.6265   121.7828 </r>
       <r>   -12.4442    25.8214   128.0000 </r>
       <r>   -12.2034     0.0000   128.0000 </r>
       <r>   -11.9626     0.0000   128.0000 </r>
       <r>   -11.7219     0.0000   128.0000 </r>
       <r>   -11.4811     0.0000   128.0000 </r>
       <r>   -11.2403     0.0000   128.0000 </r>
       <r>   -10.9995     0.0000   128.0000 </r>
       <r>   -10.7588     0.0000   128.0000 </r>
       <r>   -10.5180     0.0000   128.0000 </r>
       <r>   -10.2772     0.0000   128.0000 </r>
       <r>   -10.0364     0.0000   128.0000 </r>
       <r>    -9.7957     0.0000   128.0000 </r>
       <r>    -9.5549     0.0000   128.0000 </r>
       <r>    -9.3141     0.0000   128.0000 </r>
       <r>    -9.0733     0.0000   128.0000 </r>
       <r>    -8.8326     0.0000   128.0000 </r>
       <r>    -8.5918     0.0000   128.0000 </r>
       <r>    -8.3510     0.0000   128.0000 </r>
       <r>    -8.1102     0.0000   128.0000 </r>
       <r>    -7.8695     0.0000   128.0000 </r>
       <r>    -7.6287     0.0000   128.0000 </r>
       <r>    -7.3879     0.3881   128.0934 </r>
       <r>    -7.1471    13.1176   131.2519 </r>
       <r>    -6.9064    29.5585   138.3688 </r>
       <r>    -6.6656    25.2960   144.4595 </r>
       <r>    -6.4248    31.2260   151.9779 </r>
       <r>    -6.1840     0.0917   152.0000 </r>
       <r>    -5.9433     0.0000   152.0000 </r>
       <r>    -5.7025     0.0000   152.0000 </r>
       <r>    -5.4617     0.0000   152.0000 </r>
       <r>    -5.2209     0.0000   152.0000 </r>
       <r>    -4.9802     0.0000   152.0000 </r>
       <r>    -4.7394     0.0000   152.0000 </r>
       <r>    -4.4986     0.0000   152.0000 </r>
       <r>    -4.2578     0.0000   152.0000 </r>
       <r>    -4.0171     0.0000   152.0000 </r>
       <r>    -3.7763     0.0000   152.0000 </r>
       <r>    -3.5355     0.0000   152.0000 </r>
       <r>    -3.2947     0.0000   152.0000 </r>
       <r>    -3.0539     0.0000   152.0000 </r>
       <r>    -2.8132     0.0000   152.0000 </r>
       <r>    -2.5724     0.0000   152.0000 </r>
       <r>    -2.3316     0.0000   152.0000 </r>
       <r>    -2.0908     0.0000   152.0000 </r>
       <r>    -1.8501     0.0000   152.0000 </r>
       <r>    -1.6093     0.0000   152.0000 </r>
       <r>    -1.3685     0.0000   152.0000 </r>
       <r>    -1.1277     0.0000   152.0000 </r>
       <r>    -0.8870     0.0000   152.0000 </r>
       <r>    -0.6462     0.0000   152.0000 </r>
       <r>    -0.4054     3.5055   152.8440 </r>
       <r>    -0.1646    20.3282   157.7386 </r>
       <r>     0.0761    12.2704   160.6930 </r>
       <r>     0.3169    18.0952   165.0498 </r>
       <r>     0.5577    29.2786   172.0994 </r>
       <r>     0.7985    38.9542   181.4786 </r>
       <r>     1.0392    37.3287   190.4665 </r>
       <r>     1.2800    31.8511   198.1354 </r>
       <r>     1.5208    20.6125   203.0984 </r>
       <r>     1.7616    29.2562   210.1426 </r>
       <r>     2.0023    36.1254   218.8407 </r>
       <r>     2.2431    28.5328   225.7107 </r>
       <r>     2.4839    26.8619   232.1784 </r>
       <r>     2.7247    29.7763   239.3478 </r>
       <r>     2.9654    43.9141   249.9212 </r>
       <r>     3.2062    45.6579   260.9145 </r>
       <r>     3.4470    33.5790   268.9995 </r>
       <r>     3.6878    12.9351   272.1140 </r>
       <r>     3.9285    16.6297   276.1180 </r>
       <r>     4.1693    53.0853   288.8996 </r>
       <r>     4.4101    43.8463   299.4567 </r>
       <r>     4.6509    18.8571   303.9970 </r>
       <r>     4.8916     0.0123   304.0000 </r>
       <r>     5.1324     0.0000   304.0000 </r>
       <r>     5.3732     0.0000   304.0000 </r>
       <r>     5.6140     0.0000   304.0000 </r>
       <r>     5.8547     0.0000   304.0000 </r>
       <r>     6.0955     0.0000   304.0000 </r>
       <r>     6.3363     0.3316   304.0799 </r>
       <r>     6.5771     4.1578   305.0810 </r>
       <r>     6.8178     7.5449   306.8976 </r>
       <r>     7.0586    18.2742   311.2976 </r>
       <r>     7.2994    43.3903   321.7449 </r>
       <r>     7.5402    52.5668   334.4017 </r>
       <r>     7.7809    63.8843   349.7834 </r>
       <r>     8.0217    65.0521   365.4464 </r>
       <r>     8.2625    69.5347   382.1886 </r>
       <r>     8.5033    60.5086   396.7576 </r>
       <r>     8.7440    58.2856   410.7913 </r>
       <r>     8.9848    49.1131   422.6166 </r>
       <r>     9.2256    31.0769   430.0991 </r>
       <r>     9.4664     9.4447   432.3732 </r>
       <r>     9.7071     2.8038   433.0483 </r>
       <r>     9.9479     8.1840   435.0188 </r>
       <r>    10.1887    18.2680   439.4172 </r>
       <r>    10.4295    18.0198   443.7560 </r>
       <r>    10.6702    17.0737   447.8669 </r>
       <r>    10.9110    27.4957   454.4872 </r>
       <r>    11.1518    19.0769   459.0804 </r>
       <r>    11.3926    23.6620   464.7776 </r>
       <r>    11.6333    15.5099   468.5121 </r>
       <r>    11.8741    13.6403   471.7963 </r>
       <r>    12.1149    15.5913   475.5503 </r>
       <r>    12.3557    35.8144   484.1735 </r>
       <r>    12.5964    33.0052   492.1204 </r>
       <r>    12.8372    30.6707   499.5051 </r>
       <r>    13.0780    20.4461   504.4280 </r>
       <r>    13.3188    21.5750   509.6228 </r>
       <r>    13.5595    27.2385   516.1811 </r>
       <r>    13.8003    23.7283   521.8943 </r>
       <r>    14.0411    26.4681   528.2672 </r>
       <r>    14.2819    19.5049   532.9635 </r>
       <r>    14.5227    17.0889   537.0781 </r>
       <r>    14.7634     3.8289   538.0000 </r>
       <r>    15.0042     0.0000   538.0000 </r>
       <r>    15.2450     0.0000   538.0000 </r>
       <r>    15.4858     0.0000   538.0000 </r>
       <r>    15.7265     0.0000   538.0000 </r>
       <r>    15.9673     0.0000   538.0000 </r>
       <r>    16.2081     0.0000   538.0000 </r>
       <r>    16.4489     0.0000   538.0000 </r>
       <r>    16.6896     0.0000   538.0000 </r>
       <r>    16.9304     0.0000   538.0000 </r>
       <r>    17.1712     0.0000   538.0000 </r>
       <r>    17.4120     0.0000   538.0000 </r>
       <r>    17.6527     0.0000   538.0000 </r>
       <r>    17.8935     0.0000   538.0000 </r>
      </set>
     </set>
    </array>
   </total>
  </dos>
 </calculation>
 <structure name="finalpos" >
  <crystal>
   <varray name="basis" >
    <v>      11.11223374       0.00000000      -0.00029034 </v>
    <v>       0.00000000      11.11745194       0.00000000 </v>
    <v>      -2.77510898       0.00000000      10.19872221 </v>
   </varray>
   <i name="volume">   1259.93837498 </i>
   <varray name="rec_basis" >
    <v>       0.08999155       0.00000000       0.02448702 </v>
    <v>       0.00000000       0.08994867       0.00000000 </v>
    <v>       0.00000256       0.00000000       0.09805220 </v>
   </varray>
  </crystal>
  <varray name="positions" >
   <v>       0.28894969       0.46933910       0.15583616 </v>
   <v>       0.78894969       0.46933910       0.15583616 </v>
   <v>       0.28894969       0.96933910       0.15583616 </v>
   <v>       0.78894969       0.96933910       0.15583616 </v>
   <v>       0.04646972       0.21934976       0.18586770 </v>
   <v>       0.54646972       0.21934976       0.18586770 </v>
   <v>       0.04646972       0.71934976       0.18586770 </v>
   <v>       0.54646972       0.71934976       0.18586770 </v>
   <v>       0.45353028       0.46934976       0.81413230 </v>
   <v>       0.95353028       0.46934976       0.81413230 </v>
   <v>       0.45353028       0.96934976       0.81413230 </v>
   <v>       0.95353028       0.96934976       0.81413230 </v>
   <v>       0.21105031       0.21933910       0.84416384 </v>
   <v>       0.71105031       0.21933910       0.84416384 </v>
   <v>       0.21105031       0.71933910       0.84416384 </v>
   <v>       0.71105031       0.71933910       0.84416384 </v>
   <v>       0.07654971       0.09530995       0.80250593 </v>
   <v>       0.57654971       0.09530995       0.80250593 </v>
   <v>       0.07654971       0.59530995       0.80250593 </v>
   <v>       0.57654971       0.59530995       0.80250593 </v>
   <v>       0.32470466       0.34338175       0.80250383 </v>
   <v>       0.82470466       0.34338175       0.80250383 </v>
   <v>       0.32470466       0.84338175       0.80250383 </v>
   <v>       0.82470466       0.84338175       0.80250383 </v>
   <v>       0.17529534       0.09338175       0.19749617 </v>
   <v>       0.67529534       0.09338175       0.19749617 </v>
   <v>       0.17529534       0.59338175       0.19749617 </v>
   <v>       0.67529534       0.59338175       0.19749617 </v>
   <v>       0.42345029       0.34530995       0.19749407 </v>
   <v>       0.92345029       0.34530995       0.19749407 </v>
   <v>       0.42345029       0.84530995       0.19749407 </v>
   <v>       0.92345029       0.84530995       0.19749407 </v>
   <v>       0.21868463       0.34523395       0.37102476 </v>
   <v>       0.71868463       0.34523395       0.37102476 </v>
   <v>       0.21868463       0.84523395       0.37102476 </v>
   <v>       0.71868463       0.84523395       0.37102476 </v>
   <v>       0.46681660       0.09344897       0.37102399 </v>
   <v>       0.96681660       0.09344897       0.37102399 </v>
   <v>       0.46681660       0.59344897       0.37102399 </v>
   <v>       0.96681660       0.59344897       0.37102399 </v>
   <v>       0.03318340       0.34344897       0.62897601 </v>
   <v>       0.53318340       0.34344897       0.62897601 </v>
   <v>       0.03318340       0.84344897       0.62897601 </v>
   <v>       0.53318340       0.84344897       0.62897601 </v>
   <v>       0.28131537       0.09523395       0.62897524 </v>
   <v>       0.78131537       0.09523395       0.62897524 </v>
   <v>       0.28131537       0.59523395       0.62897524 </v>
   <v>       0.78131537       0.59523395       0.62897524 </v>
   <v>       0.12439279       0.34434306       0.00000412 </v>
   <v>       0.62439279       0.34434306       0.00000412 </v>
   <v>       0.12439279       0.84434306       0.00000412 </v>
   <v>       0.62439279       0.84434306       0.00000412 </v>
   <v>       0.37560721       0.09434306       0.99999588 </v>
   <v>       0.87560721       0.09434306       0.99999588 </v>
   <v>       0.37560721       0.59434306       0.99999588 </v>
   <v>       0.87560721       0.59434306       0.99999588 </v>
   <v>       0.03914416       0.10634799       0.60632306 </v>
   <v>       0.53824426       0.10634799       0.60632306 </v>
   <v>       0.03824426       0.60634799       0.60632306 </v>
   <v>       0.53824426       0.60634799       0.60632306 </v>
   <v>       0.26492712       0.33232651       0.60632763 </v>
   <v>       0.76492712       0.33232651       0.60632763 </v>
   <v>       0.26492712       0.83232651       0.60632763 </v>
   <v>       0.76492712       0.83232651       0.60632763 </v>
   <v>       0.23507288       0.08232651       0.39367237 </v>
   <v>       0.73507288       0.08232651       0.39367237 </v>
   <v>       0.23507288       0.58232651       0.39367237 </v>
   <v>       0.73507288       0.58232651       0.39367237 </v>
   <v>       0.46175574       0.35634799       0.39367694 </v>
   <v>       0.96175574       0.35634799       0.39367694 </v>
   <v>       0.46175574       0.85634799       0.39367694 </v>
   <v>       0.96175574       0.85634799       0.39367694 </v>
   <v>       0.03848398       0.46936404       0.15397331 </v>
   <v>       0.53848398       0.46936404       0.15397331 </v>
   <v>       0.03848398       0.96936404       0.15397331 </v>
   <v>       0.53848398       0.96936404       0.15397331 </v>
   <v>       0.28861657       0.21935690       0.15447525 </v>
   <v>       0.78861657       0.21935690       0.15447525 </v>
   <v>       0.28861657       0.71935690       0.15447525 </v>
   <v>       0.78861657       0.71935690       0.15447525 </v>
   <v>       0.21138343       0.46935690       0.84552475 </v>
   <v>       0.71138343       0.46935690       0.84552475 </v>
   <v>       0.21138343       0.96935690       0.84552475 </v>
   <v>       0.71138343       0.96935690       0.84552475 </v>
   <v>       0.46151602       0.21936404       0.84602669 </v>
   <v>       0.96151602       0.21936404       0.84602669 </v>
   <v>       0.46151602       0.71936404       0.84602669 </v>
   <v>       0.96151602       0.71936404       0.84602669 </v>
  </varray>
 </structure>
</modeling>
