 160 160   0   0
  0.1215613E+02  0.1537564E-08  0.1124787E-08  0.1124760E-08  0.5000000E-15
  1.000000000000000E-004
  CAR 
 unknown system                          
     17.04901209    -54.79129732  301      4.89602641      1.00000000
    -54.791  0.0000E+00  0.0000E+00  0.0000E+00  0.0000E+00
    -54.552  0.0000E+00  0.0000E+00  0.0000E+00  0.0000E+00
    -54.312  0.0000E+00  0.0000E+00  0.0000E+00  0.0000E+00
    -54.073  0.0000E+00  0.0000E+00  0.0000E+00  0.0000E+00
    -53.833  0.0000E+00  0.0000E+00  0.0000E+00  0.0000E+00
    -53.594  0.0000E+00  0.0000E+00  0.0000E+00  0.0000E+00
    -53.354  0.0000E+00  0.0000E+00  0.0000E+00  0.0000E+00
    -53.115  0.0000E+00  0.0000E+00  0.0000E+00  0.0000E+00
    -52.876  0.0000E+00  0.0000E+00  0.0000E+00  0.0000E+00
    -52.636  0.0000E+00  0.0000E+00  0.0000E+00  0.0000E+00
    -52.397  0.0000E+00  0.0000E+00  0.0000E+00  0.0000E+00
    -52.157  0.0000E+00  0.0000E+00  0.0000E+00  0.0000E+00
    -51.918  0.0000E+00  0.0000E+00  0.0000E+00  0.0000E+00
    -51.678  0.3266E-03  0.0000E+00  0.7821E-04  0.0000E+00
    -51.439  0.8107E+02  0.0000E+00  0.1941E+02  0.0000E+00
    -51.199  0.5256E+02  0.0000E+00  0.3200E+02  0.0000E+00
    -50.960  0.0000E+00  0.0000E+00  0.3200E+02  0.0000E+00
    -50.720  0.0000E+00  0.0000E+00  0.3200E+02  0.0000E+00
    -50.481  0.3930E-13  0.0000E+00  0.3200E+02  0.0000E+00
    -50.241  0.7202E+01  0.0000E+00  0.3372E+02  0.0000E+00
    -50.002  0.1665E+03  0.0000E+00  0.7361E+02  0.0000E+00
    -49.762  0.9351E+02  0.0000E+00  0.9600E+02  0.0000E+00
    -49.523  0.0000E+00  0.0000E+00  0.9600E+02  0.0000E+00
    -49.284  0.0000E+00  0.0000E+00  0.9600E+02  0.0000E+00
    -49.044  0.0000E+00  0.0000E+00  0.9600E+02  0.0000E+00
    -48.805  0.0000E+00  0.0000E+00  0.9600E+02  0.0000E+00
    -48.565  0.0000E+00  0.0000E+00  0.9600E+02  0.0000E+00
    -48.326  0.0000E+00  0.0000E+00  0.9600E+02  0.0000E+00
    -48.086  0.0000E+00  0.0000E+00  0.9600E+02  0.0000E+00
    -47.847  0.0000E+00  0.0000E+00  0.9600E+02  0.0000E+00
    -47.607  0.0000E+00  0.0000E+00  0.9600E+02  0.0000E+00
    -47.368  0.0000E+00  0.0000E+00  0.9600E+02  0.0000E+00
    -47.128  0.0000E+00  0.0000E+00  0.9600E+02  0.0000E+00
    -46.889  0.0000E+00  0.1738E+00  0.9600E+02  0.4163E-01
    -46.649  0.0000E+00  0.1051E+03  0.9600E+02  0.2520E+02
    -46.410  0.0000E+00  0.1042E+03  0.9600E+02  0.5014E+02
    -46.170  0.0000E+00  0.1911E+03  0.9600E+02  0.9592E+02
    -45.931  0.0000E+00  0.3479E+00  0.9600E+02  0.9600E+02
    -45.692  0.0000E+00  0.0000E+00  0.9600E+02  0.9600E+02
    -45.452  0.0000E+00  0.0000E+00  0.9600E+02  0.9600E+02
    -45.213  0.0000E+00  0.0000E+00  0.9600E+02  0.9600E+02
    -44.973  0.0000E+00  0.0000E+00  0.9600E+02  0.9600E+02
    -44.734  0.0000E+00  0.0000E+00  0.9600E+02  0.9600E+02
    -44.494  0.0000E+00  0.0000E+00  0.9600E+02  0.9600E+02
    -44.255  0.0000E+00  0.0000E+00  0.9600E+02  0.9600E+02
    -44.015  0.0000E+00  0.0000E+00  0.9600E+02  0.9600E+02
    -43.776  0.0000E+00  0.0000E+00  0.9600E+02  0.9600E+02
    -43.536  0.0000E+00  0.0000E+00  0.9600E+02  0.9600E+02
    -43.297  0.0000E+00  0.0000E+00  0.9600E+02  0.9600E+02
    -43.057  0.0000E+00  0.0000E+00  0.9600E+02  0.9600E+02
    -42.818  0.0000E+00  0.0000E+00  0.9600E+02  0.9600E+02
    -42.578  0.0000E+00  0.0000E+00  0.9600E+02  0.9600E+02
    -42.339  0.0000E+00  0.0000E+00  0.9600E+02  0.9600E+02
    -42.100  0.0000E+00  0.0000E+00  0.9600E+02  0.9600E+02
    -41.860  0.0000E+00  0.0000E+00  0.9600E+02  0.9600E+02
    -41.621  0.0000E+00  0.0000E+00  0.9600E+02  0.9600E+02
    -41.381  0.0000E+00  0.0000E+00  0.9600E+02  0.9600E+02
    -41.142  0.0000E+00  0.0000E+00  0.9600E+02  0.9600E+02
    -40.902  0.0000E+00  0.0000E+00  0.9600E+02  0.9600E+02
    -40.663  0.4894E-15  0.2318E-15  0.9600E+02  0.9600E+02
    -40.423  0.3497E+01  0.3072E+01  0.9684E+02  0.9674E+02
    -40.184  0.1784E+03  0.1808E+03  0.1396E+03  0.1400E+03
    -39.944  0.8539E+02  0.8335E+02  0.1600E+03  0.1600E+03
    -39.705  0.0000E+00  0.0000E+00  0.1600E+03  0.1600E+03
    -39.465  0.0000E+00  0.0000E+00  0.1600E+03  0.1600E+03
    -39.226  0.0000E+00  0.0000E+00  0.1600E+03  0.1600E+03
    -38.986  0.0000E+00  0.0000E+00  0.1600E+03  0.1600E+03
    -38.747  0.0000E+00  0.0000E+00  0.1600E+03  0.1600E+03
    -38.507  0.0000E+00  0.0000E+00  0.1600E+03  0.1600E+03
    -38.268  0.0000E+00  0.0000E+00  0.1600E+03  0.1600E+03
    -38.029  0.0000E+00  0.0000E+00  0.1600E+03  0.1600E+03
    -37.789  0.0000E+00  0.0000E+00  0.1600E+03  0.1600E+03
    -37.550  0.0000E+00  0.0000E+00  0.1600E+03  0.1600E+03
    -37.310  0.0000E+00  0.0000E+00  0.1600E+03  0.1600E+03
    -37.071  0.0000E+00  0.0000E+00  0.1600E+03  0.1600E+03
    -36.831  0.0000E+00  0.0000E+00  0.1600E+03  0.1600E+03
    -36.592  0.0000E+00  0.0000E+00  0.1600E+03  0.1600E+03
    -36.352  0.0000E+00  0.0000E+00  0.1600E+03  0.1600E+03
    -36.113  0.0000E+00  0.0000E+00  0.1600E+03  0.1600E+03
    -35.873  0.0000E+00  0.0000E+00  0.1600E+03  0.1600E+03
    -35.634  0.0000E+00  0.0000E+00  0.1600E+03  0.1600E+03
    -35.394  0.0000E+00  0.0000E+00  0.1600E+03  0.1600E+03
    -35.155  0.0000E+00  0.0000E+00  0.1600E+03  0.1600E+03
    -34.915  0.0000E+00  0.0000E+00  0.1600E+03  0.1600E+03
    -34.676  0.0000E+00  0.0000E+00  0.1600E+03  0.1600E+03
    -34.437  0.0000E+00  0.0000E+00  0.1600E+03  0.1600E+03
    -34.197  0.0000E+00  0.0000E+00  0.1600E+03  0.1600E+03
    -33.958  0.0000E+00  0.0000E+00  0.1600E+03  0.1600E+03
    -33.718  0.0000E+00  0.0000E+00  0.1600E+03  0.1600E+03
    -33.479  0.0000E+00  0.0000E+00  0.1600E+03  0.1600E+03
    -33.239  0.0000E+00  0.0000E+00  0.1600E+03  0.1600E+03
    -33.000  0.0000E+00  0.0000E+00  0.1600E+03  0.1600E+03
    -32.760  0.0000E+00  0.0000E+00  0.1600E+03  0.1600E+03
    -32.521  0.0000E+00  0.0000E+00  0.1600E+03  0.1600E+03
    -32.281  0.0000E+00  0.0000E+00  0.1600E+03  0.1600E+03
    -32.042  0.0000E+00  0.0000E+00  0.1600E+03  0.1600E+03
    -31.802  0.0000E+00  0.0000E+00  0.1600E+03  0.1600E+03
    -31.563  0.0000E+00  0.0000E+00  0.1600E+03  0.1600E+03
    -31.323  0.0000E+00  0.0000E+00  0.1600E+03  0.1600E+03
    -31.084  0.0000E+00  0.0000E+00  0.1600E+03  0.1600E+03
    -30.845  0.0000E+00  0.0000E+00  0.1600E+03  0.1600E+03
    -30.605  0.0000E+00  0.0000E+00  0.1600E+03  0.1600E+03
    -30.366  0.0000E+00  0.0000E+00  0.1600E+03  0.1600E+03
    -30.126  0.0000E+00  0.0000E+00  0.1600E+03  0.1600E+03
    -29.887  0.0000E+00  0.0000E+00  0.1600E+03  0.1600E+03
    -29.647  0.0000E+00  0.0000E+00  0.1600E+03  0.1600E+03
    -29.408  0.0000E+00  0.0000E+00  0.1600E+03  0.1600E+03
    -29.168  0.0000E+00  0.0000E+00  0.1600E+03  0.1600E+03
    -28.929  0.0000E+00  0.0000E+00  0.1600E+03  0.1600E+03
    -28.689  0.0000E+00  0.0000E+00  0.1600E+03  0.1600E+03
    -28.450  0.0000E+00  0.0000E+00  0.1600E+03  0.1600E+03
    -28.210  0.0000E+00  0.0000E+00  0.1600E+03  0.1600E+03
    -27.971  0.0000E+00  0.0000E+00  0.1600E+03  0.1600E+03
    -27.731  0.0000E+00  0.0000E+00  0.1600E+03  0.1600E+03
    -27.492  0.0000E+00  0.0000E+00  0.1600E+03  0.1600E+03
    -27.253  0.0000E+00  0.0000E+00  0.1600E+03  0.1600E+03
    -27.013  0.0000E+00  0.0000E+00  0.1600E+03  0.1600E+03
    -26.774  0.0000E+00  0.0000E+00  0.1600E+03  0.1600E+03
    -26.534  0.0000E+00  0.0000E+00  0.1600E+03  0.1600E+03
    -26.295  0.0000E+00  0.0000E+00  0.1600E+03  0.1600E+03
    -26.055  0.0000E+00  0.0000E+00  0.1600E+03  0.1600E+03
    -25.816  0.0000E+00  0.0000E+00  0.1600E+03  0.1600E+03
    -25.576  0.0000E+00  0.0000E+00  0.1600E+03  0.1600E+03
    -25.337  0.0000E+00  0.0000E+00  0.1600E+03  0.1600E+03
    -25.097  0.0000E+00  0.0000E+00  0.1600E+03  0.1600E+03
    -24.858  0.0000E+00  0.0000E+00  0.1600E+03  0.1600E+03
    -24.618  0.0000E+00  0.0000E+00  0.1600E+03  0.1600E+03
    -24.379  0.0000E+00  0.0000E+00  0.1600E+03  0.1600E+03
    -24.139  0.0000E+00  0.0000E+00  0.1600E+03  0.1600E+03
    -23.900  0.0000E+00  0.0000E+00  0.1600E+03  0.1600E+03
    -23.660  0.0000E+00  0.0000E+00  0.1600E+03  0.1600E+03
    -23.421  0.0000E+00  0.0000E+00  0.1600E+03  0.1600E+03
    -23.182  0.0000E+00  0.0000E+00  0.1600E+03  0.1600E+03
    -22.942  0.0000E+00  0.0000E+00  0.1600E+03  0.1600E+03
    -22.703  0.0000E+00  0.0000E+00  0.1600E+03  0.1600E+03
    -22.463  0.0000E+00  0.0000E+00  0.1600E+03  0.1600E+03
    -22.224  0.0000E+00  0.0000E+00  0.1600E+03  0.1600E+03
    -21.984  0.0000E+00  0.0000E+00  0.1600E+03  0.1600E+03
    -21.745  0.0000E+00  0.0000E+00  0.1600E+03  0.1600E+03
    -21.505  0.0000E+00  0.0000E+00  0.1600E+03  0.1600E+03
    -21.266  0.0000E+00  0.0000E+00  0.1600E+03  0.1600E+03
    -21.026  0.0000E+00  0.0000E+00  0.1600E+03  0.1600E+03
    -20.787  0.0000E+00  0.0000E+00  0.1600E+03  0.1600E+03
    -20.547  0.0000E+00  0.0000E+00  0.1600E+03  0.1600E+03
    -20.308  0.0000E+00  0.0000E+00  0.1600E+03  0.1600E+03
    -20.068  0.0000E+00  0.0000E+00  0.1600E+03  0.1600E+03
    -19.829  0.0000E+00  0.0000E+00  0.1600E+03  0.1600E+03
    -19.590  0.0000E+00  0.0000E+00  0.1600E+03  0.1600E+03
    -19.350  0.0000E+00  0.0000E+00  0.1600E+03  0.1600E+03
    -19.111  0.0000E+00  0.0000E+00  0.1600E+03  0.1600E+03
    -18.871  0.0000E+00  0.0000E+00  0.1600E+03  0.1600E+03
    -18.632  0.0000E+00  0.0000E+00  0.1600E+03  0.1600E+03
    -18.392  0.0000E+00  0.0000E+00  0.1600E+03  0.1600E+03
    -18.153  0.0000E+00  0.0000E+00  0.1600E+03  0.1600E+03
    -17.913  0.0000E+00  0.0000E+00  0.1600E+03  0.1600E+03
    -17.674  0.0000E+00  0.0000E+00  0.1600E+03  0.1600E+03
    -17.434  0.0000E+00  0.0000E+00  0.1600E+03  0.1600E+03
    -17.195  0.0000E+00  0.0000E+00  0.1600E+03  0.1600E+03
    -16.955  0.0000E+00  0.0000E+00  0.1600E+03  0.1600E+03
    -16.716  0.0000E+00  0.0000E+00  0.1600E+03  0.1600E+03
    -16.476  0.0000E+00  0.0000E+00  0.1600E+03  0.1600E+03
    -16.237  0.0000E+00  0.0000E+00  0.1600E+03  0.1600E+03
    -15.998  0.0000E+00  0.0000E+00  0.1600E+03  0.1600E+03
    -15.758  0.0000E+00  0.0000E+00  0.1600E+03  0.1600E+03
    -15.519  0.0000E+00  0.0000E+00  0.1600E+03  0.1600E+03
    -15.279  0.0000E+00  0.0000E+00  0.1600E+03  0.1600E+03
    -15.040  0.0000E+00  0.0000E+00  0.1600E+03  0.1600E+03
    -14.800  0.0000E+00  0.0000E+00  0.1600E+03  0.1600E+03
    -14.561  0.0000E+00  0.0000E+00  0.1600E+03  0.1600E+03
    -14.321  0.0000E+00  0.0000E+00  0.1600E+03  0.1600E+03
    -14.082  0.0000E+00  0.0000E+00  0.1600E+03  0.1600E+03
    -13.842  0.0000E+00  0.0000E+00  0.1600E+03  0.1600E+03
    -13.603  0.1875E-01  0.0000E+00  0.1600E+03  0.1600E+03
    -13.363  0.5286E+02  0.2074E-05  0.1727E+03  0.1600E+03
    -13.124  0.7216E+02  0.2877E+02  0.1899E+03  0.1669E+03
    -12.884  0.8592E+01  0.9999E+02  0.1920E+03  0.1908E+03
    -12.645  0.0000E+00  0.4875E+01  0.1920E+03  0.1920E+03
    -12.406  0.0000E+00  0.0000E+00  0.1920E+03  0.1920E+03
    -12.166  0.0000E+00  0.0000E+00  0.1920E+03  0.1920E+03
    -11.927  0.0000E+00  0.0000E+00  0.1920E+03  0.1920E+03
    -11.687  0.0000E+00  0.0000E+00  0.1920E+03  0.1920E+03
    -11.448  0.0000E+00  0.0000E+00  0.1920E+03  0.1920E+03
    -11.208  0.0000E+00  0.0000E+00  0.1920E+03  0.1920E+03
    -10.969  0.0000E+00  0.0000E+00  0.1920E+03  0.1920E+03
    -10.729  0.0000E+00  0.0000E+00  0.1920E+03  0.1920E+03
    -10.490  0.0000E+00  0.0000E+00  0.1920E+03  0.1920E+03
    -10.250  0.0000E+00  0.0000E+00  0.1920E+03  0.1920E+03
    -10.011  0.0000E+00  0.0000E+00  0.1920E+03  0.1920E+03
     -9.771  0.0000E+00  0.0000E+00  0.1920E+03  0.1920E+03
     -9.532  0.0000E+00  0.0000E+00  0.1920E+03  0.1920E+03
     -9.292  0.0000E+00  0.0000E+00  0.1920E+03  0.1920E+03
     -9.053  0.0000E+00  0.0000E+00  0.1920E+03  0.1920E+03
     -8.813  0.0000E+00  0.0000E+00  0.1920E+03  0.1920E+03
     -8.574  0.0000E+00  0.0000E+00  0.1920E+03  0.1920E+03
     -8.335  0.0000E+00  0.0000E+00  0.1920E+03  0.1920E+03
     -8.095  0.0000E+00  0.0000E+00  0.1920E+03  0.1920E+03
     -7.856  0.3802E-10  0.0000E+00  0.1920E+03  0.1920E+03
     -7.616  0.1511E+01  0.3719E-07  0.1924E+03  0.1920E+03
     -7.377  0.4663E+02  0.7537E+01  0.2035E+03  0.1938E+03
     -7.137  0.6532E+02  0.6067E+02  0.2192E+03  0.2083E+03
     -6.898  0.2015E+02  0.5446E+02  0.2240E+03  0.2214E+03
     -6.658  0.1057E-01  0.1095E+02  0.2240E+03  0.2240E+03
     -6.419  0.0000E+00  0.3936E-02  0.2240E+03  0.2240E+03
     -6.179  0.0000E+00  0.0000E+00  0.2240E+03  0.2240E+03
     -5.940  0.0000E+00  0.0000E+00  0.2240E+03  0.2240E+03
     -5.700  0.0000E+00  0.0000E+00  0.2240E+03  0.2240E+03
     -5.461  0.0000E+00  0.0000E+00  0.2240E+03  0.2240E+03
     -5.221  0.0000E+00  0.0000E+00  0.2240E+03  0.2240E+03
     -4.982  0.0000E+00  0.0000E+00  0.2240E+03  0.2240E+03
     -4.743  0.0000E+00  0.0000E+00  0.2240E+03  0.2240E+03
     -4.503  0.0000E+00  0.0000E+00  0.2240E+03  0.2240E+03
     -4.264  0.0000E+00  0.0000E+00  0.2240E+03  0.2240E+03
     -4.024  0.0000E+00  0.0000E+00  0.2240E+03  0.2240E+03
     -3.785  0.0000E+00  0.0000E+00  0.2240E+03  0.2240E+03
     -3.545  0.0000E+00  0.0000E+00  0.2240E+03  0.2240E+03
     -3.306  0.0000E+00  0.0000E+00  0.2240E+03  0.2240E+03
     -3.066  0.0000E+00  0.0000E+00  0.2240E+03  0.2240E+03
     -2.827  0.4636E-15  0.0000E+00  0.2240E+03  0.2240E+03
     -2.587  0.4027E+00  0.0000E+00  0.2241E+03  0.2240E+03
     -2.348  0.3087E+02  0.0000E+00  0.2315E+03  0.2240E+03
     -2.108  0.1160E+02  0.0000E+00  0.2343E+03  0.2240E+03
     -1.869  0.1281E+02  0.0000E+00  0.2373E+03  0.2240E+03
     -1.629  0.1135E+02  0.0000E+00  0.2401E+03  0.2240E+03
     -1.390  0.1565E+02  0.0000E+00  0.2438E+03  0.2240E+03
     -1.151  0.6277E+02  0.2226E-05  0.2588E+03  0.2240E+03
     -0.911  0.7653E+02  0.3390E+01  0.2772E+03  0.2248E+03
     -0.672  0.6748E+02  0.3286E+02  0.2933E+03  0.2327E+03
     -0.432  0.7779E+02  0.1888E+02  0.3119E+03  0.2372E+03
     -0.193  0.1061E+03  0.1909E+02  0.3373E+03  0.2418E+03
      0.047  0.7868E+02  0.1222E+02  0.3562E+03  0.2447E+03
      0.286  0.5345E+02  0.3170E+02  0.3690E+03  0.2523E+03
      0.526  0.4757E+02  0.8134E+02  0.3804E+03  0.2718E+03
      0.765  0.4625E+02  0.6836E+02  0.3914E+03  0.2881E+03
      1.005  0.4663E+02  0.6983E+02  0.4026E+03  0.3049E+03
      1.244  0.7668E+02  0.6344E+02  0.4210E+03  0.3201E+03
      1.484  0.8767E+02  0.2170E+02  0.4420E+03  0.3253E+03
      1.723  0.5831E+02  0.5069E+02  0.4559E+03  0.3374E+03
      1.963  0.4001E+02  0.5159E+02  0.4655E+03  0.3497E+03
      2.202  0.4715E+02  0.3058E+02  0.4768E+03  0.3571E+03
      2.441  0.4168E+02  0.3901E+02  0.4868E+03  0.3664E+03
      2.681  0.5333E+02  0.6459E+02  0.4996E+03  0.3819E+03
      2.920  0.5383E+02  0.7220E+02  0.5124E+03  0.3992E+03
      3.160  0.5658E+02  0.6005E+02  0.5260E+03  0.4135E+03
      3.399  0.5306E+02  0.1614E+02  0.5387E+03  0.4174E+03
      3.639  0.5332E+02  0.3612E+02  0.5515E+03  0.4261E+03
      3.878  0.3993E+02  0.5947E+02  0.5610E+03  0.4403E+03
      4.118  0.3548E+02  0.3211E+02  0.5695E+03  0.4480E+03
      4.357  0.1927E+02  0.4341E-01  0.5741E+03  0.4480E+03
      4.597  0.7436E+01  0.0000E+00  0.5759E+03  0.4480E+03
      4.836  0.3241E+00  0.0000E+00  0.5760E+03  0.4480E+03
      5.076  0.0000E+00  0.0000E+00  0.5760E+03  0.4480E+03
      5.315  0.0000E+00  0.0000E+00  0.5760E+03  0.4480E+03
      5.555  0.0000E+00  0.0000E+00  0.5760E+03  0.4480E+03
      5.794  0.0000E+00  0.0000E+00  0.5760E+03  0.4480E+03
      6.033  0.0000E+00  0.0000E+00  0.5760E+03  0.4480E+03
      6.273  0.0000E+00  0.1545E-15  0.5760E+03  0.4480E+03
      6.512  0.0000E+00  0.6584E-01  0.5760E+03  0.4480E+03
      6.752  0.0000E+00  0.2425E+02  0.5760E+03  0.4538E+03
      6.991  0.6677E-06  0.7765E+02  0.5760E+03  0.4724E+03
      7.231  0.2291E+00  0.6325E+02  0.5761E+03  0.4876E+03
      7.470  0.1863E+00  0.6380E+02  0.5761E+03  0.5028E+03
      7.710  0.1387E+01  0.6308E+02  0.5764E+03  0.5179E+03
      7.949  0.3017E+01  0.9497E+02  0.5772E+03  0.5407E+03
      8.189  0.6544E+01  0.7283E+02  0.5787E+03  0.5581E+03
      8.428  0.9480E+01  0.4920E+02  0.5810E+03  0.5699E+03
      8.668  0.1873E+02  0.2503E+02  0.5855E+03  0.5759E+03
      8.907  0.2338E+02  0.7258E+01  0.5911E+03  0.5776E+03
      9.147  0.3138E+02  0.8599E+01  0.5986E+03  0.5797E+03
      9.386  0.2851E+02  0.1781E+02  0.6054E+03  0.5840E+03
      9.626  0.2980E+02  0.2682E+02  0.6126E+03  0.5904E+03
      9.865  0.2620E+02  0.3193E+02  0.6188E+03  0.5980E+03
     10.104  0.1755E+02  0.3781E+02  0.6230E+03  0.6071E+03
     10.344  0.2594E+02  0.3350E+02  0.6292E+03  0.6151E+03
     10.583  0.3631E+02  0.2857E+02  0.6379E+03  0.6220E+03
     10.823  0.4023E+02  0.3308E+02  0.6476E+03  0.6299E+03
     11.062  0.3300E+02  0.2822E+02  0.6555E+03  0.6366E+03
     11.302  0.4925E+02  0.2602E+02  0.6673E+03  0.6429E+03
     11.541  0.4116E+02  0.2919E+02  0.6771E+03  0.6499E+03
     11.781  0.4151E+02  0.5095E+02  0.6871E+03  0.6621E+03
     12.020  0.3405E+02  0.5026E+02  0.6952E+03  0.6741E+03
     12.260  0.3279E+02  0.5605E+02  0.7031E+03  0.6875E+03
     12.499  0.3250E+02  0.3156E+02  0.7108E+03  0.6951E+03
     12.739  0.3679E+02  0.3266E+02  0.7197E+03  0.7029E+03
     12.978  0.3445E+02  0.3216E+02  0.7279E+03  0.7106E+03
     13.218  0.1562E+02  0.3810E+02  0.7317E+03  0.7197E+03
     13.457  0.1097E+01  0.3345E+02  0.7319E+03  0.7277E+03
     13.696  0.3637E+00  0.1705E+02  0.7320E+03  0.7318E+03
     13.936  0.0000E+00  0.7872E+00  0.7320E+03  0.7320E+03
     14.175  0.0000E+00  0.3402E-05  0.7320E+03  0.7320E+03
     14.415  0.0000E+00  0.0000E+00  0.7320E+03  0.7320E+03
     14.654  0.0000E+00  0.0000E+00  0.7320E+03  0.7320E+03
     14.894  0.0000E+00  0.0000E+00  0.7320E+03  0.7320E+03
     15.133  0.0000E+00  0.0000E+00  0.7320E+03  0.7320E+03
     15.373  0.0000E+00  0.0000E+00  0.7320E+03  0.7320E+03
     15.612  0.0000E+00  0.0000E+00  0.7320E+03  0.7320E+03
     15.852  0.0000E+00  0.0000E+00  0.7320E+03  0.7320E+03
     16.091  0.0000E+00  0.0000E+00  0.7320E+03  0.7320E+03
     16.331  0.0000E+00  0.0000E+00  0.7320E+03  0.7320E+03
     16.570  0.0000E+00  0.0000E+00  0.7320E+03  0.7320E+03
     16.810  0.0000E+00  0.0000E+00  0.7320E+03  0.7320E+03
     17.049  0.0000E+00  0.0000E+00  0.7320E+03  0.7320E+03
