<?xml version="1.0" encoding="ISO-8859-1"?>
<modeling>
 <generator>
  <i name="program" type="string">vasp </i>
  <i name="version" type="string">5.4.4.18Apr17-6-g9f103f2a35  </i>
  <i name="subversion" type="string">(build Oct 25 2017 14:42:18) complex            parallel </i>
  <i name="platform" type="string">LinuxIFC </i>
  <i name="date" type="string">2021 06 17 </i>
  <i name="time" type="string">07:50:49 </i>
 </generator>
 <incar>
  <i type="string" name="PREC">accurate</i>
  <i type="string" name="ALGO"> normal</i>
  <i type="logical" name="ADDGRID"> T  </i>
  <i type="int" name="ISPIN">     2</i>
  <i type="int" name="ICHARG">     1</i>
  <i type="int" name="NELM">   200</i>
  <i type="int" name="NELMIN">     8</i>
  <i name="EDIFF">      0.00000001</i>
  <i type="int" name="ISYM">     2</i>
  <i name="ENCUT">    650.00000000</i>
  <v name="MAGMOM">      0.60000000      0.60000000      0.60000000      0.60000000      0.60000000      0.60000000      0.60000000      0.60000000      0.60000000      0.60000000      0.60000000      0.60000000      0.60000000      0.60000000      0.60000000      0.60000000      0.60000000      0.60000000      0.60000000      0.60000000
      0.60000000      0.60000000      0.60000000      0.60000000      0.60000000      0.60000000      0.60000000      0.60000000      0.60000000      0.60000000      0.60000000      0.60000000      0.60000000      0.60000000      0.60000000      0.60000000      0.60000000      0.60000000      0.60000000      0.60000000
      0.60000000      0.60000000      0.60000000      0.60000000      0.60000000      0.60000000      0.60000000      0.60000000      0.60000000      0.60000000      0.60000000      0.60000000      0.60000000      0.60000000      0.60000000      0.60000000      0.60000000      0.60000000      0.60000000      0.60000000
      0.60000000      0.60000000      0.60000000      0.60000000      5.00000000      5.00000000      5.00000000      5.00000000      5.00000000      5.00000000      5.00000000      5.00000000      5.00000000      5.00000000      5.00000000      5.00000000      5.00000000      5.00000000      5.00000000      5.00000000
      5.00000000      5.00000000      5.00000000      5.00000000      5.00000000      5.00000000      5.00000000      5.00000000      5.00000000      5.00000000      5.00000000      5.00000000      5.00000000      5.00000000      5.00000000      5.00000000      0.60000000      0.60000000      0.60000000      0.60000000
      0.60000000      0.60000000      0.60000000      0.60000000      0.60000000      0.60000000      0.60000000      0.60000000      0.60000000      0.60000000      0.60000000      0.60000000      0.60000000      0.60000000      0.60000000      0.60000000      0.60000000      0.60000000      0.60000000      0.60000000
      0.60000000      0.60000000      0.60000000      0.60000000      0.60000000      0.60000000      0.60000000      0.60000000      0.60000000      0.60000000      0.60000000      0.60000000      0.60000000      0.60000000      0.60000000      0.60000000      0.60000000      0.60000000      0.60000000      0.60000000
      0.60000000      0.60000000      0.60000000      0.60000000      0.60000000      0.60000000      0.60000000      0.60000000      0.60000000      0.60000000      0.60000000      0.60000000      0.60000000      0.60000000      0.60000000      0.60000000      0.60000000      0.60000000      0.60000000      0.60000000
</v>
  <i type="logical" name="LREAL"> F  </i>
  <i type="int" name="ISMEAR">     0</i>
  <i name="SIGMA">      0.05000000</i>
  <i type="int" name="NWRITE">     1</i>
  <i type="int" name="LMAXMIX">     4</i>
  <i type="logical" name="LWAVE"> F  </i>
  <i type="logical" name="LASPH"> T  </i>
  <v type="int" name="KPOINT_BSE">    -1     0     0     0</v>
  <i type="int" name="NELM">   200</i>
  <i type="string" name="GGA"> pe</i>
  <i type="logical" name="LDAU"> T  </i>
  <v type="int" name="LDAUTYPE">     2</v>
  <v type="int" name="LDAUL">    -1     2    -1    -1</v>
  <v name="LDAUU">      0.00000000      4.00000000      0.00000000      0.00000000</v>
  <v name="LDAUJ">      0.00000000      0.00000000      0.00000000      0.00000000</v>
  <i type="logical" name="LASPH"> T  </i>
 </incar>
 <structure name="primitive_cell" >
  <crystal>
   <varray name="basis" >
    <v>      15.37563712       0.00000000       0.00000000 </v>
    <v>       0.00000000      11.24757084       0.08259006 </v>
    <v>       0.00000000       0.08472870      11.24727794 </v>
   </varray>
   <i name="volume">   1944.98054282 </i>
   <varray name="rec_basis" >
    <v>       0.06503796       0.00000000       0.00000000 </v>
    <v>       0.00000000       0.08891300      -0.00066981 </v>
    <v>       0.00000000      -0.00065290       0.08891532 </v>
   </varray>
  </crystal>
  <varray name="positions" >
   <v>       0.12525680       0.27553588       0.47453981 </v>
   <v>       0.25000000       0.25000000      -0.50000000 </v>
   <v>       0.00000000       0.25000000      -0.50000000 </v>
   <v>       0.12546906       0.49959881       0.49958956 </v>
   <v>       0.12546906       0.25040119       0.25041044 </v>
   <v>      -0.02087095       0.37500000       0.37500000 </v>
   <v>       0.27600236       0.37500000       0.37500000 </v>
   <v>       0.25003486       0.37500000      -0.37500000 </v>
   <v>       0.24996514       0.12500000       0.37500000 </v>
   <v>       0.00005928       0.12500000       0.37500000 </v>
   <v>      -0.00005928       0.37500000      -0.37500000 </v>
   <v>       0.22399764       0.12500000      -0.37500000 </v>
   <v>       0.02087095       0.12500000      -0.37500000 </v>
   <v>       0.12546906       0.25040119      -0.24958956 </v>
   <v>       0.12546906      -0.00040119       0.49958956 </v>
   <v>       0.12525680       0.47446412       0.27546019 </v>
   <v>       0.37474320       0.22446412      -0.47453981 </v>
   <v>      -0.12525680       0.22446412      -0.47453981 </v>
   <v>       0.25000000      -0.50000000       0.25000000 </v>
   <v>       0.00000000      -0.50000000       0.25000000 </v>
   <v>       0.12525680       0.47446412      -0.22453981 </v>
   <v>       0.12525680      -0.02553588       0.27546019 </v>
   <v>       0.25000000      -0.50000000      -0.25000000 </v>
   <v>       0.25000000       0.00000000       0.25000000 </v>
   <v>       0.00000000      -0.50000000      -0.25000000 </v>
   <v>       0.00000000       0.00000000       0.25000000 </v>
   <v>       0.24996514      -0.37500000       0.37500000 </v>
   <v>       0.25003486       0.37500000       0.12500000 </v>
   <v>       0.00005928      -0.37500000       0.37500000 </v>
   <v>      -0.00005928       0.37500000       0.12500000 </v>
   <v>       0.22399764      -0.37500000      -0.37500000 </v>
   <v>       0.22399764       0.12500000       0.12500000 </v>
   <v>       0.02087095      -0.37500000      -0.37500000 </v>
   <v>       0.02087095       0.12500000       0.12500000 </v>
   <v>       0.37453094      -0.49959881      -0.49958956 </v>
   <v>       0.37453094       0.24959881       0.24958956 </v>
   <v>      -0.12546906      -0.49959881      -0.49958956 </v>
   <v>      -0.12546906       0.24959881       0.24958956 </v>
   <v>       0.12525680      -0.02553588      -0.22453981 </v>
   <v>       0.25000000       0.00000000      -0.25000000 </v>
   <v>       0.00000000       0.00000000      -0.25000000 </v>
   <v>       0.37453094       0.24959881      -0.25041044 </v>
   <v>       0.37453094       0.00040119      -0.49958956 </v>
   <v>      -0.12546906       0.24959881      -0.25041044 </v>
   <v>      -0.12546906       0.00040119      -0.49958956 </v>
   <v>       0.24996514       0.12500000      -0.12500000 </v>
   <v>       0.25003486      -0.12500000      -0.37500000 </v>
   <v>       0.00005928       0.12500000      -0.12500000 </v>
   <v>      -0.00005928      -0.12500000      -0.37500000 </v>
   <v>      -0.02087095       0.37500000      -0.12500000 </v>
   <v>      -0.02087095      -0.12500000       0.37500000 </v>
   <v>       0.27600236       0.37500000      -0.12500000 </v>
   <v>       0.27600236      -0.12500000       0.37500000 </v>
   <v>       0.37474320      -0.47446412       0.22453981 </v>
   <v>       0.37474320       0.02553588      -0.27546019 </v>
   <v>      -0.12525680      -0.47446412       0.22453981 </v>
   <v>      -0.12525680       0.02553588      -0.27546019 </v>
   <v>       0.37474320       0.02553588       0.22453981 </v>
   <v>       0.37474320      -0.47446412      -0.27546019 </v>
   <v>      -0.12525680       0.02553588       0.22453981 </v>
   <v>      -0.12525680      -0.47446412      -0.27546019 </v>
   <v>      -0.22399764       0.37500000       0.37500000 </v>
   <v>       0.12525680       0.27553588      -0.02546019 </v>
   <v>       0.12525680      -0.22446412       0.47453981 </v>
   <v>       0.47965396       0.37552492       0.37500000 </v>
   <v>       0.25000000      -0.25000000      -0.50000000 </v>
   <v>       0.25000000       0.25000000       0.00000000 </v>
   <v>       0.00000000      -0.25000000      -0.50000000 </v>
   <v>       0.00000000       0.25000000       0.00000000 </v>
   <v>       0.22399764      -0.37500000       0.12500000 </v>
   <v>       0.02087095      -0.37500000       0.12500000 </v>
   <v>      -0.50000000       0.25000000      -0.50000000 </v>
   <v>      -0.25000000       0.25000000      -0.50000000 </v>
   <v>       0.12546906      -0.24959881       0.25041044 </v>
   <v>       0.12546906       0.49959881      -0.00041044 </v>
   <v>       0.49994072       0.37500000      -0.37500000 </v>
   <v>      -0.49994072       0.12500000       0.37500000 </v>
   <v>      -0.24996514       0.37500000      -0.37500000 </v>
   <v>      -0.25003486       0.12500000       0.37500000 </v>
   <v>       0.12546906      -0.24959881      -0.24958956 </v>
   <v>       0.12546906      -0.00040119      -0.00041044 </v>
   <v>       0.24996514      -0.37500000      -0.12500000 </v>
   <v>       0.25003486      -0.12500000       0.12500000 </v>
   <v>       0.00005928      -0.37500000      -0.12500000 </v>
   <v>      -0.00005928      -0.12500000       0.12500000 </v>
   <v>       0.37474320      -0.27553588      -0.47453981 </v>
   <v>       0.37474320       0.22446412       0.02546019 </v>
   <v>      -0.12525680      -0.27553588      -0.47453981 </v>
   <v>      -0.12525680       0.22446412       0.02546019 </v>
   <v>      -0.47912905       0.12500000      -0.37500000 </v>
   <v>      -0.27600236       0.12500000      -0.37500000 </v>
   <v>      -0.02087095      -0.12500000      -0.12500000 </v>
   <v>       0.27600236      -0.12500000      -0.12500000 </v>
   <v>      -0.50000000      -0.50000000       0.25000000 </v>
   <v>      -0.25000000      -0.50000000       0.25000000 </v>
   <v>       0.37453094      -0.25040119       0.24958956 </v>
   <v>       0.37453094      -0.49959881       0.00041044 </v>
   <v>      -0.12546906      -0.25040119       0.24958956 </v>
   <v>      -0.12546906      -0.49959881       0.00041044 </v>
   <v>      -0.50000000      -0.50000000      -0.25000000 </v>
   <v>      -0.50000000       0.00000000       0.25000000 </v>
   <v>      -0.25000000      -0.50000000      -0.25000000 </v>
   <v>      -0.25000000       0.00000000       0.25000000 </v>
   <v>       0.49994072       0.37500000       0.12500000 </v>
   <v>      -0.49994072      -0.37500000       0.37500000 </v>
   <v>      -0.24996514       0.37500000       0.12500000 </v>
   <v>      -0.25003486      -0.37500000       0.37500000 </v>
   <v>      -0.22399764       0.37500000      -0.12500000 </v>
   <v>      -0.22399764      -0.12500000       0.37500000 </v>
   <v>       0.47912905       0.37500000      -0.12500000 </v>
   <v>       0.47912905      -0.12500000       0.37500000 </v>
   <v>      -0.50000000       0.00000000      -0.25000000 </v>
   <v>      -0.25000000       0.00000000      -0.25000000 </v>
   <v>       0.37453094      -0.25040119      -0.25041044 </v>
   <v>       0.37453094       0.00040119       0.00041044 </v>
   <v>      -0.12546906      -0.25040119      -0.25041044 </v>
   <v>      -0.12546906       0.00040119       0.00041044 </v>
   <v>      -0.47912905      -0.37500000      -0.37500000 </v>
   <v>      -0.47912905       0.12500000       0.12500000 </v>
   <v>       0.49994072      -0.12500000      -0.37500000 </v>
   <v>      -0.49994072       0.12500000      -0.12500000 </v>
   <v>      -0.24996514      -0.12500000      -0.37500000 </v>
   <v>      -0.25003486       0.12500000      -0.12500000 </v>
   <v>      -0.27600236      -0.37500000      -0.37500000 </v>
   <v>      -0.27600236       0.12500000       0.12500000 </v>
   <v>      -0.37474320       0.27553588       0.47453981 </v>
   <v>       0.25000000      -0.25000000       0.00000000 </v>
   <v>       0.00000000      -0.25000000       0.00000000 </v>
   <v>      -0.50000000      -0.25000000      -0.50000000 </v>
   <v>      -0.50000000       0.25000000       0.00000000 </v>
   <v>      -0.25000000      -0.25000000      -0.50000000 </v>
   <v>      -0.25000000       0.25000000       0.00000000 </v>
   <v>       0.12525680      -0.22446412      -0.02546019 </v>
   <v>       0.37474320      -0.27553588       0.02546019 </v>
   <v>      -0.12525680      -0.27553588       0.02546019 </v>
   <v>      -0.37453094       0.49959881       0.49958956 </v>
   <v>      -0.37453094       0.25040119       0.25041044 </v>
   <v>      -0.47912905      -0.37500000       0.12500000 </v>
   <v>      -0.27600236      -0.37500000       0.12500000 </v>
   <v>      -0.37453094       0.25040119      -0.24958956 </v>
   <v>      -0.37453094      -0.00040119       0.49958956 </v>
   <v>      -0.22399764      -0.12500000      -0.12500000 </v>
   <v>      -0.37474320       0.47446412       0.27546019 </v>
   <v>       0.49994072      -0.12500000       0.12500000 </v>
   <v>      -0.49994072      -0.37500000      -0.12500000 </v>
   <v>      -0.25003486      -0.37500000      -0.12500000 </v>
   <v>      -0.24996514      -0.12500000       0.12500000 </v>
   <v>       0.47912905      -0.12500000      -0.12500000 </v>
   <v>      -0.37474320       0.47446412      -0.22453981 </v>
   <v>      -0.37474320      -0.02553588       0.27546019 </v>
   <v>      -0.37474320      -0.02553588      -0.22453981 </v>
   <v>      -0.50000000      -0.25000000       0.00000000 </v>
   <v>      -0.25000000      -0.25000000       0.00000000 </v>
   <v>      -0.37474320       0.27553588      -0.02546019 </v>
   <v>      -0.37474320      -0.22446412       0.47453981 </v>
   <v>      -0.37453094      -0.24959881       0.25041044 </v>
   <v>      -0.37453094       0.49959881      -0.00041044 </v>
   <v>      -0.37453094      -0.24959881      -0.24958956 </v>
   <v>      -0.37453094      -0.00040119      -0.00041044 </v>
   <v>      -0.37474320      -0.22446412      -0.02546019 </v>
  </varray>
 </structure>
 <varray name="primitive_index" >
  <v type="int" >        1 </v>
  <v type="int" >      149 </v>
  <v type="int" >      133 </v>
  <v type="int" >       97 </v>
  <v type="int" >      105 </v>
  <v type="int" >       66 </v>
  <v type="int" >       33 </v>
  <v type="int" >       85 </v>
  <v type="int" >       89 </v>
  <v type="int" >       57 </v>
  <v type="int" >       54 </v>
  <v type="int" >       45 </v>
  <v type="int" >       77 </v>
  <v type="int" >      109 </v>
  <v type="int" >       99 </v>
  <v type="int" >        9 </v>
  <v type="int" >       21 </v>
  <v type="int" >       22 </v>
  <v type="int" >      155 </v>
  <v type="int" >      139 </v>
  <v type="int" >       13 </v>
  <v type="int" >       11 </v>
  <v type="int" >      159 </v>
  <v type="int" >      153 </v>
  <v type="int" >      143 </v>
  <v type="int" >      137 </v>
  <v type="int" >       91 </v>
  <v type="int" >       81 </v>
  <v type="int" >       59 </v>
  <v type="int" >       50 </v>
  <v type="int" >       47 </v>
  <v type="int" >       41 </v>
  <v type="int" >       79 </v>
  <v type="int" >       73 </v>
  <v type="int" >      119 </v>
  <v type="int" >      121 </v>
  <v type="int" >      120 </v>
  <v type="int" >      122 </v>
  <v type="int" >       15 </v>
  <v type="int" >      157 </v>
  <v type="int" >      141 </v>
  <v type="int" >      125 </v>
  <v type="int" >      117 </v>
  <v type="int" >      126 </v>
  <v type="int" >      118 </v>
  <v type="int" >       93 </v>
  <v type="int" >       87 </v>
  <v type="int" >       61 </v>
  <v type="int" >       56 </v>
  <v type="int" >       70 </v>
  <v type="int" >       68 </v>
  <v type="int" >       37 </v>
  <v type="int" >       35 </v>
  <v type="int" >       27 </v>
  <v type="int" >       29 </v>
  <v type="int" >       28 </v>
  <v type="int" >       30 </v>
  <v type="int" >       25 </v>
  <v type="int" >       31 </v>
  <v type="int" >       26 </v>
  <v type="int" >       32 </v>
  <v type="int" >       34 </v>
  <v type="int" >        5 </v>
  <v type="int" >        3 </v>
  <v type="int" >       65 </v>
  <v type="int" >      151 </v>
  <v type="int" >      145 </v>
  <v type="int" >      135 </v>
  <v type="int" >      129 </v>
  <v type="int" >       43 </v>
  <v type="int" >       75 </v>
  <v type="int" >      134 </v>
  <v type="int" >      150 </v>
  <v type="int" >      107 </v>
  <v type="int" >      101 </v>
  <v type="int" >       53 </v>
  <v type="int" >       58 </v>
  <v type="int" >       86 </v>
  <v type="int" >       90 </v>
  <v type="int" >      111 </v>
  <v type="int" >      103 </v>
  <v type="int" >       95 </v>
  <v type="int" >       83 </v>
  <v type="int" >       63 </v>
  <v type="int" >       52 </v>
  <v type="int" >       23 </v>
  <v type="int" >       17 </v>
  <v type="int" >       24 </v>
  <v type="int" >       18 </v>
  <v type="int" >       78 </v>
  <v type="int" >       46 </v>
  <v type="int" >       72 </v>
  <v type="int" >       39 </v>
  <v type="int" >      140 </v>
  <v type="int" >      156 </v>
  <v type="int" >      123 </v>
  <v type="int" >      115 </v>
  <v type="int" >      124 </v>
  <v type="int" >      116 </v>
  <v type="int" >      144 </v>
  <v type="int" >      138 </v>
  <v type="int" >      160 </v>
  <v type="int" >      154 </v>
  <v type="int" >       49 </v>
  <v type="int" >       60 </v>
  <v type="int" >       82 </v>
  <v type="int" >       92 </v>
  <v type="int" >       38 </v>
  <v type="int" >       36 </v>
  <v type="int" >       69 </v>
  <v type="int" >       67 </v>
  <v type="int" >      142 </v>
  <v type="int" >      158 </v>
  <v type="int" >      127 </v>
  <v type="int" >      113 </v>
  <v type="int" >      128 </v>
  <v type="int" >      114 </v>
  <v type="int" >       80 </v>
  <v type="int" >       74 </v>
  <v type="int" >       55 </v>
  <v type="int" >       62 </v>
  <v type="int" >       88 </v>
  <v type="int" >       94 </v>
  <v type="int" >       48 </v>
  <v type="int" >       42 </v>
  <v type="int" >        2 </v>
  <v type="int" >      147 </v>
  <v type="int" >      131 </v>
  <v type="int" >      136 </v>
  <v type="int" >      130 </v>
  <v type="int" >      152 </v>
  <v type="int" >      146 </v>
  <v type="int" >        7 </v>
  <v type="int" >       19 </v>
  <v type="int" >       20 </v>
  <v type="int" >       98 </v>
  <v type="int" >      106 </v>
  <v type="int" >       76 </v>
  <v type="int" >       44 </v>
  <v type="int" >      110 </v>
  <v type="int" >      100 </v>
  <v type="int" >       40 </v>
  <v type="int" >       10 </v>
  <v type="int" >       51 </v>
  <v type="int" >       64 </v>
  <v type="int" >       96 </v>
  <v type="int" >       84 </v>
  <v type="int" >       71 </v>
  <v type="int" >       14 </v>
  <v type="int" >       12 </v>
  <v type="int" >       16 </v>
  <v type="int" >      132 </v>
  <v type="int" >      148 </v>
  <v type="int" >        6 </v>
  <v type="int" >        4 </v>
  <v type="int" >      108 </v>
  <v type="int" >      102 </v>
  <v type="int" >      112 </v>
  <v type="int" >      104 </v>
  <v type="int" >        8 </v>
 </varray>
 <kpoints>
  <generation param="Gamma">
   <v type="int" name="divisions">       2        3        3 </v>
   <v name="usershift">      0.00000000       0.00000000       0.00000000 </v>
   <v name="genvec1">      0.50000000       0.00000000       0.00000000 </v>
   <v name="genvec2">      0.00000000       0.33333333      -0.00000000 </v>
   <v name="genvec3">      0.00000000      -0.00000000       0.33333333 </v>
   <v name="shift">      0.00000000       0.00000000       0.00000000 </v>
  </generation>
  <varray name="kpointlist" >
   <v>       0.00000000       0.00000000       0.00000000 </v>
   <v>       0.50000000       0.00000000       0.00000000 </v>
   <v>       0.00000000       0.33333333      -0.00000000 </v>
   <v>       0.50000000       0.33333333      -0.00000000 </v>
   <v>       0.00000000      -0.00000000       0.33333333 </v>
   <v>       0.50000000      -0.00000000       0.33333333 </v>
   <v>       0.00000000       0.33333333       0.33333333 </v>
   <v>       0.50000000       0.33333333       0.33333333 </v>
   <v>       0.00000000      -0.33333333       0.33333333 </v>
   <v>       0.50000000      -0.33333333       0.33333333 </v>
  </varray>
  <varray name="weights" >
   <v>       0.05555556 </v>
   <v>       0.05555556 </v>
   <v>       0.11111111 </v>
   <v>       0.11111111 </v>
   <v>       0.11111111 </v>
   <v>       0.11111111 </v>
   <v>       0.11111111 </v>
   <v>       0.11111111 </v>
   <v>       0.11111111 </v>
   <v>       0.11111111 </v>
  </varray>
 </kpoints>
 <parameters>
  <separator name="general" >
   <i type="string" name="SYSTEM">unknown system</i>
   <i type="logical" name="LCOMPAT"> F  </i>
  </separator>
  <separator name="electronic" >
   <i type="string" name="PREC">accura</i>
   <i name="ENMAX">    650.00000000</i>
   <i name="ENAUG">    628.94500000</i>
   <i name="EDIFF">      0.00000001</i>
   <i type="int" name="IALGO">    38</i>
   <i type="int" name="IWAVPR">    10</i>
   <i type="int" name="NBANDS">   732</i>
   <i name="NELECT">   1024.00000000</i>
   <i type="int" name="TURBO">     0</i>
   <i type="int" name="IRESTART">     0</i>
   <i type="int" name="NREBOOT">     0</i>
   <i type="int" name="NMIN">     0</i>
   <i name="EREF">      0.00000000</i>
   <separator name="electronic smearing" >
    <i type="int" name="ISMEAR">     0</i>
    <i name="SIGMA">      0.05000000</i>
    <i name="KSPACING">      0.50000000</i>
    <i type="logical" name="KGAMMA"> T  </i>
   </separator>
   <separator name="electronic projectors" >
    <i type="logical" name="LREAL"> F  </i>
    <v name="ROPT">      0.00000000      0.00000000      0.00000000      0.00000000</v>
    <i type="int" name="LMAXPAW">  -100</i>
    <i type="int" name="LMAXMIX">     4</i>
    <i type="logical" name="NLSPLINE"> F  </i>
   </separator>
   <separator name="electronic startup" >
    <i type="int" name="ISTART">     0</i>
    <i type="int" name="ICHARG">     1</i>
    <i type="int" name="INIWAV">     1</i>
   </separator>
   <separator name="electronic spin" >
    <i type="int" name="ISPIN">     2</i>
    <i type="logical" name="LNONCOLLINEAR"> F  </i>
    <v name="MAGMOM">      0.60000000      0.60000000      0.60000000      0.60000000      0.60000000      0.60000000      0.60000000      0.60000000      0.60000000      0.60000000      0.60000000      0.60000000      0.60000000      0.60000000      0.60000000      0.60000000      0.60000000      0.60000000      0.60000000      0.60000000
      0.60000000      0.60000000      0.60000000      0.60000000      0.60000000      0.60000000      0.60000000      0.60000000      0.60000000      0.60000000      0.60000000      0.60000000      0.60000000      0.60000000      0.60000000      0.60000000      0.60000000      0.60000000      0.60000000      0.60000000
      0.60000000      0.60000000      0.60000000      0.60000000      0.60000000      0.60000000      0.60000000      0.60000000      0.60000000      0.60000000      0.60000000      0.60000000      0.60000000      0.60000000      0.60000000      0.60000000      0.60000000      0.60000000      0.60000000      0.60000000
      0.60000000      0.60000000      0.60000000      0.60000000      5.00000000      5.00000000      5.00000000      5.00000000      5.00000000      5.00000000      5.00000000      5.00000000      5.00000000      5.00000000      5.00000000      5.00000000      5.00000000      5.00000000      5.00000000      5.00000000
      5.00000000      5.00000000      5.00000000      5.00000000      5.00000000      5.00000000      5.00000000      5.00000000      5.00000000      5.00000000      5.00000000      5.00000000      5.00000000      5.00000000      5.00000000      5.00000000      0.60000000      0.60000000      0.60000000      0.60000000
      0.60000000      0.60000000      0.60000000      0.60000000      0.60000000      0.60000000      0.60000000      0.60000000      0.60000000      0.60000000      0.60000000      0.60000000      0.60000000      0.60000000      0.60000000      0.60000000      0.60000000      0.60000000      0.60000000      0.60000000
      0.60000000      0.60000000      0.60000000      0.60000000      0.60000000      0.60000000      0.60000000      0.60000000      0.60000000      0.60000000      0.60000000      0.60000000      0.60000000      0.60000000      0.60000000      0.60000000      0.60000000      0.60000000      0.60000000      0.60000000
      0.60000000      0.60000000      0.60000000      0.60000000      0.60000000      0.60000000      0.60000000      0.60000000      0.60000000      0.60000000      0.60000000      0.60000000      0.60000000      0.60000000      0.60000000      0.60000000      0.60000000      0.60000000      0.60000000      0.60000000
</v>
    <i name="NUPDOWN">     -1.00000000</i>
    <i type="logical" name="LSORBIT"> F  </i>
    <v name="SAXIS">      0.00000000      0.00000000      1.00000000</v>
    <i type="logical" name="LSPIRAL"> F  </i>
    <v name="QSPIRAL">      0.00000000      0.00000000      0.00000000</v>
    <i type="logical" name="LZEROZ"> F  </i>
   </separator>
   <separator name="electronic exchange-correlation" >
    <i type="logical" name="LASPH"> T  </i>
    <i type="logical" name="LMETAGGA"> F  </i>
   </separator>
   <separator name="electronic convergence" >
    <i type="int" name="NELM">   200</i>
    <i type="int" name="NELMDL">     0</i>
    <i type="int" name="NELMIN">     8</i>
    <i name="ENINI">    650.00000000</i>
    <separator name="electronic convergence detail" >
     <i type="logical" name="LDIAG"> T  </i>
     <i type="logical" name="LSUBROT"> F  </i>
     <i name="WEIMIN">      0.00000000</i>
     <i name="EBREAK">      0.00000000</i>
     <i name="DEPER">      0.30000000</i>
     <i type="int" name="NRMM">     4</i>
     <i name="TIME">      0.40000000</i>
    </separator>
   </separator>
   <separator name="electronic mixer" >
    <i name="AMIX">      0.40000000</i>
    <i name="BMIX">      1.00000000</i>
    <i name="AMIN">      0.10000000</i>
    <i name="AMIX_MAG">      1.60000000</i>
    <i name="BMIX_MAG">      1.00000000</i>
    <separator name="electronic mixer details" >
     <i type="int" name="IMIX">     4</i>
     <i type="logical" name="MIXFIRST"> F  </i>
     <i type="int" name="MAXMIX">   -45</i>
     <i name="WC">    100.00000000</i>
     <i type="int" name="INIMIX">     1</i>
     <i type="int" name="MIXPRE">     1</i>
     <i type="int" name="MREMOVE">     5</i>
    </separator>
   </separator>
   <separator name="electronic dipolcorrection" >
    <i type="logical" name="LDIPOL"> F  </i>
    <i type="logical" name="LMONO"> F  </i>
    <i type="int" name="IDIPOL">     0</i>
    <i name="EPSILON">      1.00000000</i>
    <v name="DIPOL">   -100.00000000   -100.00000000   -100.00000000</v>
    <i name="EFIELD">      0.00000000</i>
   </separator>
  </separator>
  <separator name="grids" >
   <i type="int" name="NGX">   128</i>
   <i type="int" name="NGY">    96</i>
   <i type="int" name="NGZ">    96</i>
   <i type="int" name="NGXF">   256</i>
   <i type="int" name="NGYF">   192</i>
   <i type="int" name="NGZF">   192</i>
   <i type="logical" name="ADDGRID"> T  </i>
  </separator>
  <separator name="ionic" >
   <i type="int" name="NSW">     0</i>
   <i type="int" name="IBRION">    -1</i>
   <i type="int" name="MDALGO">     0</i>
   <i type="int" name="ISIF">     2</i>
   <i name="PSTRESS">      0.00000000</i>
   <i name="EDIFFG">      0.00000010</i>
   <i type="int" name="NFREE">     0</i>
   <i name="POTIM">      0.50000000</i>
   <i name="SMASS">     -3.00000000</i>
   <i name="SCALEE">      1.00000000</i>
  </separator>
  <separator name="ionic md" >
   <i name="TEBEG">      0.00010000</i>
   <i name="TEEND">      0.00010000</i>
   <i type="int" name="NBLOCK">     1</i>
   <i type="int" name="KBLOCK">     1</i>
   <i type="int" name="NPACO">   256</i>
   <i name="APACO">     16.00000000</i>
  </separator>
  <separator name="symmetry" >
   <i type="int" name="ISYM">     2</i>
   <i name="SYMPREC">      0.00001000</i>
  </separator>
  <separator name="dos" >
   <i type="int" name="LORBIT">     0</i>
   <v name="RWIGS">     -1.00000000     -1.00000000     -1.00000000     -1.00000000</v>
   <i type="int" name="NEDOS">   301</i>
   <i name="EMIN">     10.00000000</i>
   <i name="EMAX">    -10.00000000</i>
   <i name="EFERMI">      0.00000000</i>
  </separator>
  <separator name="writing" >
   <i type="int" name="NWRITE">     1</i>
   <i type="logical" name="LWAVE"> F  </i>
   <i type="logical" name="LDOWNSAMPLE"> F  </i>
   <i type="logical" name="LCHARG"> T  </i>
   <i type="logical" name="LPARD"> F  </i>
   <i type="logical" name="LVTOT"> F  </i>
   <i type="logical" name="LVHAR"> F  </i>
   <i type="logical" name="LELF"> F  </i>
   <i type="logical" name="LOPTICS"> F  </i>
   <v name="STM">      0.00000000      0.00000000      0.00000000      0.00000000      0.00000000      0.00000000      0.00000000</v>
  </separator>
  <separator name="performance" >
   <i type="int" name="NPAR">     4</i>
   <i type="int" name="NSIM">     4</i>
   <i type="int" name="NBLK">    -1</i>
   <i type="logical" name="LPLANE"> T  </i>
   <i type="logical" name="LSCALAPACK"> T  </i>
   <i type="logical" name="LSCAAWARE"> F  </i>
   <i type="logical" name="LSCALU"> F  </i>
   <i type="logical" name="LASYNC"> F  </i>
   <i type="logical" name="LORBITALREAL"> F  </i>
  </separator>
  <separator name="miscellaneous" >
   <i type="int" name="IDIOT">     3</i>
   <i type="int" name="ISPECIAL">     0</i>
   <i type="logical" name="LMUSIC"> F  </i>
   <v name="POMASS">      7.01000000     55.84700000     32.06600000     16.00000000</v>
   <v name="DARWINR">      0.00000000      0.00000000      0.00000000      0.00000000</v>
   <v name="DARWINV">      1.00000000      1.00000000      1.00000000      1.00000000</v>
   <i type="logical" name="LCORR"> T  </i>
  </separator>
  <i type="logical" name="GGA_COMPAT"> T  </i>
  <i type="logical" name="LBERRY"> F  </i>
  <i type="int" name="ICORELEVEL">     0</i>
  <i type="logical" name="LDAU"> T  </i>
  <v type="int" name="LDAUTYPE">     2</v>
  <v type="int" name="LDAUL">    -1</v>
  <v name="LDAUU">      0.00000000</v>
  <v name="LDAUJ">      0.00000000</v>
  <i type="int" name="LDAUPRINT">     0</i>
  <i type="int" name="I_CONSTRAINED_M">     0</i>
  <separator name="electronic exchange-correlation" >
   <i type="string" name="GGA">PE</i>
   <i type="int" name="VOSKOWN">     0</i>
   <i type="logical" name="LHFCALC"> F  </i>
   <i type="string" name="PRECFOCK"></i>
   <i type="logical" name="LSYMGRAD"> F  </i>
   <i type="logical" name="LHFONE"> F  </i>
   <i type="logical" name="LRHFCALC"> F  </i>
   <i type="logical" name="LTHOMAS"> F  </i>
   <i type="logical" name="LMODELHF"> F  </i>
   <i name="ENCUT4O">     -1.00000000</i>
   <i type="int" name="EXXOEP">     0</i>
   <i type="int" name="FOURORBIT">     0</i>
   <i name="AEXX">      0.00000000</i>
   <i name="HFALPHA">      0.00000000</i>
   <i name="MCALPHA">      0.00000000</i>
   <i name="ALDAX">      1.00000000</i>
   <i name="AGGAX">      1.00000000</i>
   <i name="ALDAC">      1.00000000</i>
   <i name="AGGAC">      1.00000000</i>
   <i type="int" name="NKREDX">     1</i>
   <i type="int" name="NKREDY">     1</i>
   <i type="int" name="NKREDZ">     1</i>
   <i type="logical" name="SHIFTRED"> F  </i>
   <i type="logical" name="ODDONLY"> F  </i>
   <i type="logical" name="EVENONLY"> F  </i>
   <i type="int" name="LMAXFOCK">     0</i>
   <i type="int" name="NMAXFOCKAE">     0</i>
   <i type="logical" name="LFOCKAEDFT"> F  </i>
   <i name="HFSCREEN">      0.00000000</i>
   <i name="HFSCREENC">      0.00000000</i>
   <i type="int" name="NBANDSGWLOW">     0</i>
  </separator>
  <separator name="vdW DFT" >
   <i type="logical" name="LUSE_VDW"> F  </i>
   <i name="Zab_VDW">     -0.84910000</i>
   <i name="PARAM1">      0.12340000</i>
   <i name="PARAM2">      1.00000000</i>
   <i name="PARAM3">      0.00000000</i>
  </separator>
  <separator name="model GW" >
   <i type="int" name="MODEL_GW">     0</i>
   <i name="MODEL_EPS0">      7.29367704</i>
   <i name="MODEL_ALPHA">      1.00000000</i>
  </separator>
  <separator name="linear response parameters" >
   <i type="logical" name="LEPSILON"> F  </i>
   <i type="logical" name="LRPA"> F  </i>
   <i type="logical" name="LNABLA"> F  </i>
   <i type="logical" name="LVEL"> F  </i>
   <i type="int" name="KINTER">     0</i>
   <i name="CSHIFT">      0.10000000</i>
   <i name="OMEGAMAX">     -1.00000000</i>
   <i name="DEG_THRESHOLD">      0.00200000</i>
   <i name="RTIME">     -0.10000000</i>
   <i name="WPLASMAI">      0.00000000</i>
   <v name="DFIELD">      0.00000000      0.00000000      0.00000000</v>
   <v name="WPLASMA">      0.00000000      0.00000000      0.00000000      0.00000000      0.00000000      0.00000000      0.00000000      0.00000000      0.00000000</v>
  </separator>
  <separator name="orbital magnetization" >
   <i type="logical" name="NUCIND"> F  </i>
   <v name="MAGPOS">      0.00000000      0.00000000      0.00000000</v>
   <i type="logical" name="LNICSALL"> T  </i>
   <i type="logical" name="ORBITALMAG"> F  </i>
   <i type="logical" name="LMAGBLOCH"> F  </i>
   <i type="logical" name="LCHIMAG"> F  </i>
   <i type="logical" name="LGAUGE"> T  </i>
   <i type="int" name="MAGATOM">     0</i>
   <v name="MAGDIPOL">      0.00000000      0.00000000      0.00000000</v>
   <v name="AVECCONST">      0.00000000      0.00000000      0.00000000</v>
  </separator>
  <separator name="response functions" >
   <i type="logical" name="LADDER"> F  </i>
   <i type="logical" name="LRPAFORCE"> F  </i>
   <i type="logical" name="LFXC"> F  </i>
   <i type="logical" name="LHARTREE"> T  </i>
   <i type="int" name="IBSE">     0</i>
   <v type="int" name="KPOINT">    -1     0     0     0</v>
   <i type="logical" name="LTCTE"> F  </i>
   <i type="logical" name="LTETE"> F  </i>
   <i type="logical" name="LTRIPLET"> F  </i>
   <i type="logical" name="LFXCEPS"> F  </i>
   <i type="logical" name="LFXHEG"> F  </i>
   <i type="int" name="NATURALO">     2</i>
   <i type="logical" name="L2ORDER"> F  </i>
   <i type="logical" name="LMP2LT"> F  </i>
   <i type="logical" name="LUSEW"> F  </i>
   <i name="ENCUTGW">     -2.00000000</i>
   <i name="ENCUTGWSOFT">     -2.00000000</i>
   <i name="ENCUTLF">     -1.00000000</i>
   <i type="int" name="LMAXMP2">    -1</i>
   <i name="SCISSOR">      0.00000000</i>
   <i type="int" name="NOMEGA">     0</i>
   <i type="int" name="NOMEGAR">     0</i>
   <i type="int" name="NBANDSGW">    -1</i>
   <i type="int" name="NBANDSO">    -1</i>
   <i type="int" name="NBANDSV">    -1</i>
   <i type="int" name="NELM">   200</i>
   <i type="int" name="NELMHF">     1</i>
   <i type="int" name="DIM">     3</i>
   <i type="int" name="ANTIRES">     0</i>
   <i name="OMEGAMAX">    -30.00000000</i>
   <i name="OMEGAMIN">    -30.00000000</i>
   <i name="OMEGATL">   -200.00000000</i>
   <i type="int" name="OMEGAGRID">   140</i>
   <i name="CSHIFT">     -0.10000000</i>
   <i type="logical" name="SELFENERGY"> F  </i>
   <i type="logical" name="LSPECTRAL"> F  </i>
   <i type="logical" name="LSPECTRALGW"> F  </i>
   <i type="logical" name="LSINGLES"> F  </i>
   <i type="logical" name="LFERMIGW"> F  </i>
   <i type="logical" name="ODDONLYGW"> F  </i>
   <i type="logical" name="EVENONLYGW"> F  </i>
   <i type="int" name="NKREDLFX">     1</i>
   <i type="int" name="NKREDLFY">     1</i>
   <i type="int" name="NKREDLFZ">     1</i>
   <i type="int" name="MAXMEM">  2800</i>
   <i type="int" name="TELESCOPE">     0</i>
   <i type="int" name="TAUPAR">     1</i>
   <i type="int" name="OMEGAPAR">    -1</i>
   <i name="LAMBDA">      1.00000000</i>
  </separator>
  <separator name="External order field" >
   <i name="OFIELD_KAPPA">      0.00000000</i>
   <v name="OFIELD_K">      0.00000000      0.00000000      0.00000000</v>
   <i name="OFIELD_Q6_NEAR">      0.00000000</i>
   <i name="OFIELD_Q6_FAR">      0.00000000</i>
   <i name="OFIELD_A">      0.00000000</i>
  </separator>
 </parameters>
 <atominfo>
  <atoms>     160 </atoms>
  <types>       4 </types>
  <array name="atoms" >
   <dimension dim="1">ion</dimension>
   <field type="string">element</field>
   <field type="int">atomtype</field>
   <set>
    <rc><c>Li</c><c>   1</c></rc>
    <rc><c>Li</c><c>   1</c></rc>
    <rc><c>Li</c><c>   1</c></rc>
    <rc><c>Li</c><c>   1</c></rc>
    <rc><c>Li</c><c>   1</c></rc>
    <rc><c>Li</c><c>   1</c></rc>
    <rc><c>Li</c><c>   1</c></rc>
    <rc><c>Li</c><c>   1</c></rc>
    <rc><c>Li</c><c>   1</c></rc>
    <rc><c>Li</c><c>   1</c></rc>
    <rc><c>Li</c><c>   1</c></rc>
    <rc><c>Li</c><c>   1</c></rc>
    <rc><c>Li</c><c>   1</c></rc>
    <rc><c>Li</c><c>   1</c></rc>
    <rc><c>Li</c><c>   1</c></rc>
    <rc><c>Li</c><c>   1</c></rc>
    <rc><c>Li</c><c>   1</c></rc>
    <rc><c>Li</c><c>   1</c></rc>
    <rc><c>Li</c><c>   1</c></rc>
    <rc><c>Li</c><c>   1</c></rc>
    <rc><c>Li</c><c>   1</c></rc>
    <rc><c>Li</c><c>   1</c></rc>
    <rc><c>Li</c><c>   1</c></rc>
    <rc><c>Li</c><c>   1</c></rc>
    <rc><c>Li</c><c>   1</c></rc>
    <rc><c>Li</c><c>   1</c></rc>
    <rc><c>Li</c><c>   1</c></rc>
    <rc><c>Li</c><c>   1</c></rc>
    <rc><c>Li</c><c>   1</c></rc>
    <rc><c>Li</c><c>   1</c></rc>
    <rc><c>Li</c><c>   1</c></rc>
    <rc><c>Li</c><c>   1</c></rc>
    <rc><c>Li</c><c>   1</c></rc>
    <rc><c>Li</c><c>   1</c></rc>
    <rc><c>Li</c><c>   1</c></rc>
    <rc><c>Li</c><c>   1</c></rc>
    <rc><c>Li</c><c>   1</c></rc>
    <rc><c>Li</c><c>   1</c></rc>
    <rc><c>Li</c><c>   1</c></rc>
    <rc><c>Li</c><c>   1</c></rc>
    <rc><c>Li</c><c>   1</c></rc>
    <rc><c>Li</c><c>   1</c></rc>
    <rc><c>Li</c><c>   1</c></rc>
    <rc><c>Li</c><c>   1</c></rc>
    <rc><c>Li</c><c>   1</c></rc>
    <rc><c>Li</c><c>   1</c></rc>
    <rc><c>Li</c><c>   1</c></rc>
    <rc><c>Li</c><c>   1</c></rc>
    <rc><c>Li</c><c>   1</c></rc>
    <rc><c>Li</c><c>   1</c></rc>
    <rc><c>Li</c><c>   1</c></rc>
    <rc><c>Li</c><c>   1</c></rc>
    <rc><c>Li</c><c>   1</c></rc>
    <rc><c>Li</c><c>   1</c></rc>
    <rc><c>Li</c><c>   1</c></rc>
    <rc><c>Li</c><c>   1</c></rc>
    <rc><c>Li</c><c>   1</c></rc>
    <rc><c>Li</c><c>   1</c></rc>
    <rc><c>Li</c><c>   1</c></rc>
    <rc><c>Li</c><c>   1</c></rc>
    <rc><c>Li</c><c>   1</c></rc>
    <rc><c>Li</c><c>   1</c></rc>
    <rc><c>Li</c><c>   1</c></rc>
    <rc><c>Li</c><c>   1</c></rc>
    <rc><c>Fe</c><c>   2</c></rc>
    <rc><c>Fe</c><c>   2</c></rc>
    <rc><c>Fe</c><c>   2</c></rc>
    <rc><c>Fe</c><c>   2</c></rc>
    <rc><c>Fe</c><c>   2</c></rc>
    <rc><c>Fe</c><c>   2</c></rc>
    <rc><c>Fe</c><c>   2</c></rc>
    <rc><c>Fe</c><c>   2</c></rc>
    <rc><c>Fe</c><c>   2</c></rc>
    <rc><c>Fe</c><c>   2</c></rc>
    <rc><c>Fe</c><c>   2</c></rc>
    <rc><c>Fe</c><c>   2</c></rc>
    <rc><c>Fe</c><c>   2</c></rc>
    <rc><c>Fe</c><c>   2</c></rc>
    <rc><c>Fe</c><c>   2</c></rc>
    <rc><c>Fe</c><c>   2</c></rc>
    <rc><c>Fe</c><c>   2</c></rc>
    <rc><c>Fe</c><c>   2</c></rc>
    <rc><c>Fe</c><c>   2</c></rc>
    <rc><c>Fe</c><c>   2</c></rc>
    <rc><c>Fe</c><c>   2</c></rc>
    <rc><c>Fe</c><c>   2</c></rc>
    <rc><c>Fe</c><c>   2</c></rc>
    <rc><c>Fe</c><c>   2</c></rc>
    <rc><c>Fe</c><c>   2</c></rc>
    <rc><c>Fe</c><c>   2</c></rc>
    <rc><c>Fe</c><c>   2</c></rc>
    <rc><c>Fe</c><c>   2</c></rc>
    <rc><c>Fe</c><c>   2</c></rc>
    <rc><c>Fe</c><c>   2</c></rc>
    <rc><c>Fe</c><c>   2</c></rc>
    <rc><c>Fe</c><c>   2</c></rc>
    <rc><c>S </c><c>   3</c></rc>
    <rc><c>S </c><c>   3</c></rc>
    <rc><c>S </c><c>   3</c></rc>
    <rc><c>S </c><c>   3</c></rc>
    <rc><c>S </c><c>   3</c></rc>
    <rc><c>S </c><c>   3</c></rc>
    <rc><c>S </c><c>   3</c></rc>
    <rc><c>S </c><c>   3</c></rc>
    <rc><c>S </c><c>   3</c></rc>
    <rc><c>S </c><c>   3</c></rc>
    <rc><c>S </c><c>   3</c></rc>
    <rc><c>S </c><c>   3</c></rc>
    <rc><c>S </c><c>   3</c></rc>
    <rc><c>S </c><c>   3</c></rc>
    <rc><c>S </c><c>   3</c></rc>
    <rc><c>S </c><c>   3</c></rc>
    <rc><c>S </c><c>   3</c></rc>
    <rc><c>S </c><c>   3</c></rc>
    <rc><c>S </c><c>   3</c></rc>
    <rc><c>S </c><c>   3</c></rc>
    <rc><c>S </c><c>   3</c></rc>
    <rc><c>S </c><c>   3</c></rc>
    <rc><c>S </c><c>   3</c></rc>
    <rc><c>S </c><c>   3</c></rc>
    <rc><c>S </c><c>   3</c></rc>
    <rc><c>S </c><c>   3</c></rc>
    <rc><c>S </c><c>   3</c></rc>
    <rc><c>S </c><c>   3</c></rc>
    <rc><c>S </c><c>   3</c></rc>
    <rc><c>S </c><c>   3</c></rc>
    <rc><c>S </c><c>   3</c></rc>
    <rc><c>S </c><c>   3</c></rc>
    <rc><c>O </c><c>   4</c></rc>
    <rc><c>O </c><c>   4</c></rc>
    <rc><c>O </c><c>   4</c></rc>
    <rc><c>O </c><c>   4</c></rc>
    <rc><c>O </c><c>   4</c></rc>
    <rc><c>O </c><c>   4</c></rc>
    <rc><c>O </c><c>   4</c></rc>
    <rc><c>O </c><c>   4</c></rc>
    <rc><c>O </c><c>   4</c></rc>
    <rc><c>O </c><c>   4</c></rc>
    <rc><c>O </c><c>   4</c></rc>
    <rc><c>O </c><c>   4</c></rc>
    <rc><c>O </c><c>   4</c></rc>
    <rc><c>O </c><c>   4</c></rc>
    <rc><c>O </c><c>   4</c></rc>
    <rc><c>O </c><c>   4</c></rc>
    <rc><c>O </c><c>   4</c></rc>
    <rc><c>O </c><c>   4</c></rc>
    <rc><c>O </c><c>   4</c></rc>
    <rc><c>O </c><c>   4</c></rc>
    <rc><c>O </c><c>   4</c></rc>
    <rc><c>O </c><c>   4</c></rc>
    <rc><c>O </c><c>   4</c></rc>
    <rc><c>O </c><c>   4</c></rc>
    <rc><c>O </c><c>   4</c></rc>
    <rc><c>O </c><c>   4</c></rc>
    <rc><c>O </c><c>   4</c></rc>
    <rc><c>O </c><c>   4</c></rc>
    <rc><c>O </c><c>   4</c></rc>
    <rc><c>O </c><c>   4</c></rc>
    <rc><c>O </c><c>   4</c></rc>
    <rc><c>O </c><c>   4</c></rc>
   </set>
  </array>
  <array name="atomtypes" >
   <dimension dim="1">type</dimension>
   <field type="int">atomspertype</field>
   <field type="string">element</field>
   <field>mass</field>
   <field>valence</field>
   <field type="string">pseudopotential</field>
   <set>
    <rc><c>  64</c><c>Li</c><c>      7.01000000</c><c>      3.00000000</c><c>  PAW_PBE Li_sv 10Sep2004               </c></rc>
    <rc><c>  32</c><c>Fe</c><c>     55.84700000</c><c>     14.00000000</c><c>  PAW_PBE Fe_pv 02Aug2007               </c></rc>
    <rc><c>  32</c><c>S </c><c>     32.06600000</c><c>      6.00000000</c><c>  PAW_PBE S 06Sep2000                   </c></rc>
    <rc><c>  32</c><c>O </c><c>     16.00000000</c><c>      6.00000000</c><c>  PAW_PBE O 08Apr2002                   </c></rc>
   </set>
  </array>
 </atominfo>
 <structure name="initialpos" >
  <crystal>
   <varray name="basis" >
    <v>      15.37563712       0.00000000       0.00000000 </v>
    <v>       0.00000000      11.24757084       0.08259006 </v>
    <v>       0.00000000       0.08472870      11.24727794 </v>
   </varray>
   <i name="volume">   1944.98054282 </i>
   <varray name="rec_basis" >
    <v>       0.06503796       0.00000000       0.00000000 </v>
    <v>       0.00000000       0.08891300      -0.00066981 </v>
    <v>       0.00000000      -0.00065290       0.08891532 </v>
   </varray>
  </crystal>
  <varray name="positions" >
   <v>       0.12525680       0.27553588       0.47453981 </v>
   <v>       0.62525680       0.27553588       0.47453981 </v>
   <v>       0.12525680       0.77553588       0.47453981 </v>
   <v>       0.62525680       0.77553588       0.47453981 </v>
   <v>       0.12525680       0.27553588       0.97453981 </v>
   <v>       0.62525680       0.27553588       0.97453981 </v>
   <v>       0.12525680       0.77553588       0.97453981 </v>
   <v>       0.62525680       0.77553588       0.97453981 </v>
   <v>       0.12525680       0.47446412       0.27546019 </v>
   <v>       0.62525680       0.47446412       0.27546019 </v>
   <v>       0.12525680       0.97446412       0.27546019 </v>
   <v>       0.62525680       0.97446412       0.27546019 </v>
   <v>       0.12525680       0.47446412       0.77546019 </v>
   <v>       0.62525680       0.47446412       0.77546019 </v>
   <v>       0.12525680       0.97446412       0.77546019 </v>
   <v>       0.62525680       0.97446412       0.77546019 </v>
   <v>       0.37474320       0.22446412       0.02546019 </v>
   <v>       0.87474320       0.22446412       0.02546019 </v>
   <v>       0.37474320       0.72446412       0.02546019 </v>
   <v>       0.87474320       0.72446412       0.02546019 </v>
   <v>       0.37474320       0.22446412       0.52546019 </v>
   <v>       0.87474320       0.22446412       0.52546019 </v>
   <v>       0.37474320       0.72446412       0.52546019 </v>
   <v>       0.87474320       0.72446412       0.52546019 </v>
   <v>       0.37474320       0.02553588       0.22453981 </v>
   <v>       0.87474320       0.02553588       0.22453981 </v>
   <v>       0.37474320       0.52553588       0.22453981 </v>
   <v>       0.87474320       0.52553588       0.22453981 </v>
   <v>       0.37474320       0.02553588       0.72453981 </v>
   <v>       0.87474320       0.02553588       0.72453981 </v>
   <v>       0.37474320       0.52553588       0.72453981 </v>
   <v>       0.87474320       0.52553588       0.72453981 </v>
   <v>       0.27600236       0.37500000       0.37500000 </v>
   <v>       0.77600236       0.37500000       0.37500000 </v>
   <v>       0.27600236       0.87500000       0.37500000 </v>
   <v>       0.77600236       0.87500000       0.37500000 </v>
   <v>       0.27600236       0.37500000       0.87500000 </v>
   <v>       0.77600236       0.37500000       0.87500000 </v>
   <v>       0.27600236       0.87500000       0.87500000 </v>
   <v>       0.77600236       0.87500000       0.87500000 </v>
   <v>       0.22399764       0.12500000       0.12500000 </v>
   <v>       0.72399764       0.12500000       0.12500000 </v>
   <v>       0.22399764       0.62500000       0.12500000 </v>
   <v>       0.72399764       0.62500000       0.12500000 </v>
   <v>       0.22399764       0.12500000       0.62500000 </v>
   <v>       0.72399764       0.12500000       0.62500000 </v>
   <v>       0.22399764       0.62500000       0.62500000 </v>
   <v>       0.72399764       0.62500000       0.62500000 </v>
   <v>       0.49994073       0.37500000       0.12500000 </v>
   <v>       0.99994073       0.37500000       0.12500000 </v>
   <v>       0.49994073       0.87500000       0.12500000 </v>
   <v>       0.99994073       0.87500000       0.12500000 </v>
   <v>       0.49994073       0.37500000       0.62500000 </v>
   <v>       0.99994073       0.37500000       0.62500000 </v>
   <v>       0.49994073       0.87500000       0.62500000 </v>
   <v>       0.99994073       0.87500000       0.62500000 </v>
   <v>       0.00005927       0.12500000       0.37500000 </v>
   <v>       0.50005927       0.12500000       0.37500000 </v>
   <v>       0.00005927       0.62500000       0.37500000 </v>
   <v>       0.50005927       0.62500000       0.37500000 </v>
   <v>       0.00005927       0.12500000       0.87500000 </v>
   <v>       0.50005927       0.12500000       0.87500000 </v>
   <v>       0.00005927       0.62500000       0.87500000 </v>
   <v>       0.50005927       0.62500000       0.87500000 </v>
   <v>       0.47965396       0.37552492       0.37500000 </v>
   <v>       0.97912905       0.37500000       0.37500000 </v>
   <v>       0.47912905       0.87500000       0.37500000 </v>
   <v>       0.97912905       0.87500000       0.37500000 </v>
   <v>       0.47912905       0.37500000       0.87500000 </v>
   <v>       0.97912905       0.37500000       0.87500000 </v>
   <v>       0.47912905       0.87500000       0.87500000 </v>
   <v>       0.97912905       0.87500000       0.87500000 </v>
   <v>       0.02087095       0.12500000       0.12500000 </v>
   <v>       0.52087095       0.12500000       0.12500000 </v>
   <v>       0.02087095       0.62500000       0.12500000 </v>
   <v>       0.52087095       0.62500000       0.12500000 </v>
   <v>       0.02087095       0.12500000       0.62500000 </v>
   <v>       0.52087095       0.12500000       0.62500000 </v>
   <v>       0.02087095       0.62500000       0.62500000 </v>
   <v>       0.52087095       0.62500000       0.62500000 </v>
   <v>       0.25003487       0.37500000       0.12500000 </v>
   <v>       0.75003487       0.37500000       0.12500000 </v>
   <v>       0.25003487       0.87500000       0.12500000 </v>
   <v>       0.75003487       0.87500000       0.12500000 </v>
   <v>       0.25003487       0.37500000       0.62500000 </v>
   <v>       0.75003487       0.37500000       0.62500000 </v>
   <v>       0.25003487       0.87500000       0.62500000 </v>
   <v>       0.75003487       0.87500000       0.62500000 </v>
   <v>       0.24996513       0.12500000       0.37500000 </v>
   <v>       0.74996513       0.12500000       0.37500000 </v>
   <v>       0.24996513       0.62500000       0.37500000 </v>
   <v>       0.74996513       0.62500000       0.37500000 </v>
   <v>       0.24996513       0.12500000       0.87500000 </v>
   <v>       0.74996513       0.12500000       0.87500000 </v>
   <v>       0.24996513       0.62500000       0.87500000 </v>
   <v>       0.74996513       0.62500000       0.87500000 </v>
   <v>       0.12546906       0.49959881       0.49958956 </v>
   <v>       0.62546906       0.49959881       0.49958956 </v>
   <v>       0.12546906       0.99959881       0.49958956 </v>
   <v>       0.62546906       0.99959881       0.49958956 </v>
   <v>       0.12546906       0.49959881       0.99958956 </v>
   <v>       0.62546906       0.49959881       0.99958956 </v>
   <v>       0.12546906       0.99959881       0.99958956 </v>
   <v>       0.62546906       0.99959881       0.99958956 </v>
   <v>       0.12546906       0.25040119       0.25041044 </v>
   <v>       0.62546906       0.25040119       0.25041044 </v>
   <v>       0.12546906       0.75040119       0.25041044 </v>
   <v>       0.62546906       0.75040119       0.25041044 </v>
   <v>       0.12546906       0.25040119       0.75041044 </v>
   <v>       0.62546906       0.25040119       0.75041044 </v>
   <v>       0.12546906       0.75040119       0.75041044 </v>
   <v>       0.62546906       0.75040119       0.75041044 </v>
   <v>       0.37453094       0.00040119       0.00041044 </v>
   <v>       0.87453094       0.00040119       0.00041044 </v>
   <v>       0.37453094       0.50040119       0.00041044 </v>
   <v>       0.87453094       0.50040119       0.00041044 </v>
   <v>       0.37453094       0.00040119       0.50041044 </v>
   <v>       0.87453094       0.00040119       0.50041044 </v>
   <v>       0.37453094       0.50040119       0.50041044 </v>
   <v>       0.87453094       0.50040119       0.50041044 </v>
   <v>       0.37453094       0.24959881       0.24958956 </v>
   <v>       0.87453094       0.24959881       0.24958956 </v>
   <v>       0.37453094       0.74959881       0.24958956 </v>
   <v>       0.87453094       0.74959881       0.24958956 </v>
   <v>       0.37453094       0.24959881       0.74958956 </v>
   <v>       0.87453094       0.24959881       0.74958956 </v>
   <v>       0.37453094       0.74959881       0.74958956 </v>
   <v>       0.87453094       0.74959881       0.74958956 </v>
   <v>       0.00000000       0.25000000       0.00000000 </v>
   <v>       0.50000000       0.25000000       0.00000000 </v>
   <v>       0.00000000       0.75000000       0.00000000 </v>
   <v>       0.50000000       0.75000000       0.00000000 </v>
   <v>       0.00000000       0.25000000       0.50000000 </v>
   <v>       0.50000000       0.25000000       0.50000000 </v>
   <v>       0.00000000       0.75000000       0.50000000 </v>
   <v>       0.50000000       0.75000000       0.50000000 </v>
   <v>       0.00000000       0.00000000       0.25000000 </v>
   <v>       0.50000000       0.00000000       0.25000000 </v>
   <v>       0.00000000       0.50000000       0.25000000 </v>
   <v>       0.50000000       0.50000000       0.25000000 </v>
   <v>       0.00000000       0.00000000       0.75000000 </v>
   <v>       0.50000000       0.00000000       0.75000000 </v>
   <v>       0.00000000       0.50000000       0.75000000 </v>
   <v>       0.50000000       0.50000000       0.75000000 </v>
   <v>       0.25000000       0.25000000       0.00000000 </v>
   <v>       0.75000000       0.25000000       0.00000000 </v>
   <v>       0.25000000       0.75000000       0.00000000 </v>
   <v>       0.75000000       0.75000000       0.00000000 </v>
   <v>       0.25000000       0.25000000       0.50000000 </v>
   <v>       0.75000000       0.25000000       0.50000000 </v>
   <v>       0.25000000       0.75000000       0.50000000 </v>
   <v>       0.75000000       0.75000000       0.50000000 </v>
   <v>       0.25000000       0.00000000       0.25000000 </v>
   <v>       0.75000000       0.00000000       0.25000000 </v>
   <v>       0.25000000       0.50000000       0.25000000 </v>
   <v>       0.75000000       0.50000000       0.25000000 </v>
   <v>       0.25000000       0.00000000       0.75000000 </v>
   <v>       0.75000000       0.00000000       0.75000000 </v>
   <v>       0.25000000       0.50000000       0.75000000 </v>
   <v>       0.75000000       0.50000000       0.75000000 </v>
  </varray>
 </structure>
 <calculation>
  <scstep>
   <time name="dav">  359.49  367.32</time>
   <time name="total">  361.86  369.73</time>
   <energy>
    <i name="alphaZ">   2580.95227926 </i>
    <i name="ewald"> -67508.45369223 </i>
    <i name="hartreedc"> -35944.16115525 </i>
    <i name="XCdc">   4397.38347791 </i>
    <i name="pawpsdc"> 108731.45464712 </i>
    <i name="pawaedc">-112348.03830957 </i>
    <i name="eentropy">     -0.03739028 </i>
    <i name="bandstr">   -746.52391281 </i>
    <i name="atom"> 114309.28505226 </i>
    <i name="e_fr_energy">  13471.86099641 </i>
    <i name="e_wo_entrp">  13471.89838669 </i>
    <i name="e_0_energy">  13471.87969155 </i>
   </energy>
  </scstep>
  <scstep>
   <time name="dav">  351.34  358.19</time>
   <time name="total">  351.35  358.19</time>
   <energy>
    <i name="e_fr_energy">   1411.94728944 </i>
    <i name="e_wo_entrp">   1412.01273801 </i>
    <i name="e_0_energy">   1411.98001373 </i>
   </energy>
  </scstep>
  <scstep>
   <time name="dav">  382.02  388.94</time>
   <time name="total">  382.02  388.94</time>
   <energy>
    <i name="e_fr_energy">   -525.52241504 </i>
    <i name="e_wo_entrp">   -525.52241504 </i>
    <i name="e_0_energy">   -525.52241504 </i>
   </energy>
  </scstep>
  <scstep>
   <time name="dav">  437.04  446.35</time>
   <time name="total">  437.04  446.35</time>
   <energy>
    <i name="e_fr_energy">   -788.66541378 </i>
    <i name="e_wo_entrp">   -788.66541378 </i>
    <i name="e_0_energy">   -788.66541378 </i>
   </energy>
  </scstep>
  <scstep>
   <time name="dav">  547.32  558.15</time>
   <time name="total">  556.01  566.99</time>
   <energy>
    <i name="e_fr_energy">   -820.54413559 </i>
    <i name="e_wo_entrp">   -820.54413559 </i>
    <i name="e_0_energy">   -820.54413559 </i>
   </energy>
  </scstep>
  <scstep>
   <time name="dav">  454.98  464.69</time>
   <time name="total">  465.97  475.82</time>
   <energy>
    <i name="e_fr_energy">   -821.99409145 </i>
    <i name="e_wo_entrp">   -821.99409145 </i>
    <i name="e_0_energy">   -821.99409145 </i>
   </energy>
  </scstep>
  <scstep>
   <time name="dav">  503.97  513.95</time>
   <time name="total">  514.86  525.09</time>
   <energy>
    <i name="e_fr_energy">   -822.06693247 </i>
    <i name="e_wo_entrp">   -822.06693247 </i>
    <i name="e_0_energy">   -822.06693247 </i>
   </energy>
  </scstep>
  <scstep>
   <time name="dav">  487.85  497.68</time>
   <time name="total">  498.70  508.74</time>
   <energy>
    <i name="e_fr_energy">   -822.06706107 </i>
    <i name="e_wo_entrp">   -822.06706107 </i>
    <i name="e_0_energy">   -822.06706107 </i>
   </energy>
  </scstep>
  <scstep>
   <time name="dav">  517.64  528.42</time>
   <time name="total">  528.42  539.45</time>
   <energy>
    <i name="e_fr_energy">   -822.06590608 </i>
    <i name="e_wo_entrp">   -822.06590608 </i>
    <i name="e_0_energy">   -822.06590608 </i>
   </energy>
  </scstep>
  <scstep>
   <time name="dav">  539.38  550.49</time>
   <time name="total">  550.09  561.48</time>
   <energy>
    <i name="e_fr_energy">   -822.06247309 </i>
    <i name="e_wo_entrp">   -822.06247309 </i>
    <i name="e_0_energy">   -822.06247309 </i>
   </energy>
  </scstep>
  <scstep>
   <time name="dav">  522.12  532.74</time>
   <time name="total">  533.07  543.78</time>
   <energy>
    <i name="e_fr_energy">   -822.06163143 </i>
    <i name="e_wo_entrp">   -822.06163143 </i>
    <i name="e_0_energy">   -822.06163143 </i>
   </energy>
  </scstep>
  <scstep>
   <time name="dav">  471.15  480.55</time>
   <time name="total">  481.88  491.59</time>
   <energy>
    <i name="e_fr_energy">   -822.06167605 </i>
    <i name="e_wo_entrp">   -822.06167605 </i>
    <i name="e_0_energy">   -822.06167605 </i>
   </energy>
  </scstep>
  <scstep>
   <time name="dav">  448.65  457.56</time>
   <time name="total">  459.43  468.52</time>
   <energy>
    <i name="e_fr_energy">   -822.06168465 </i>
    <i name="e_wo_entrp">   -822.06168465 </i>
    <i name="e_0_energy">   -822.06168465 </i>
   </energy>
  </scstep>
  <scstep>
   <time name="dav">  425.40  434.59</time>
   <time name="total">  436.31  445.69</time>
   <energy>
    <i name="e_fr_energy">   -822.06167533 </i>
    <i name="e_wo_entrp">   -822.06167533 </i>
    <i name="e_0_energy">   -822.06167533 </i>
   </energy>
  </scstep>
  <scstep>
   <time name="dav">  418.21  426.27</time>
   <time name="total">  429.09  437.42</time>
   <energy>
    <i name="e_fr_energy">   -822.06168199 </i>
    <i name="e_wo_entrp">   -822.06168199 </i>
    <i name="e_0_energy">   -822.06168199 </i>
   </energy>
  </scstep>
  <scstep>
   <time name="dav">  461.77  472.88</time>
   <time name="total">  472.49  483.87</time>
   <energy>
    <i name="e_fr_energy">   -822.06168487 </i>
    <i name="e_wo_entrp">   -822.06168487 </i>
    <i name="e_0_energy">   -822.06168487 </i>
   </energy>
  </scstep>
  <scstep>
   <time name="dav">  406.40  415.43</time>
   <time name="total">  417.44  426.51</time>
   <energy>
    <i name="e_fr_energy">   -822.06168725 </i>
    <i name="e_wo_entrp">   -822.06168725 </i>
    <i name="e_0_energy">   -822.06168725 </i>
   </energy>
  </scstep>
  <scstep>
   <time name="dav">  481.01  492.84</time>
   <time name="total">  492.04  503.90</time>
   <energy>
    <i name="e_fr_energy">   -822.06168870 </i>
    <i name="e_wo_entrp">   -822.06168870 </i>
    <i name="e_0_energy">   -822.06168870 </i>
   </energy>
  </scstep>
  <scstep>
   <time name="dav">  374.71  381.66</time>
   <time name="total">  385.52  392.75</time>
   <energy>
    <i name="e_fr_energy">   -822.06168876 </i>
    <i name="e_wo_entrp">   -822.06168876 </i>
    <i name="e_0_energy">   -822.06168876 </i>
   </energy>
  </scstep>
  <scstep>
   <time name="dav">  392.16  400.78</time>
   <time name="total">  403.00  411.83</time>
   <energy>
    <i name="e_fr_energy">   -822.06168914 </i>
    <i name="e_wo_entrp">   -822.06168914 </i>
    <i name="e_0_energy">   -822.06168914 </i>
   </energy>
  </scstep>
  <scstep>
   <time name="dav">  272.86  278.72</time>
   <time name="total">  283.99  289.89</time>
   <energy>
    <i name="e_fr_energy">   -822.06168925 </i>
    <i name="e_wo_entrp">   -822.06168925 </i>
    <i name="e_0_energy">   -822.06168925 </i>
   </energy>
  </scstep>
  <scstep>
   <time name="dav">  372.72  380.91</time>
   <time name="total">  383.41  391.88</time>
   <energy>
    <i name="e_fr_energy">   -822.06168986 </i>
    <i name="e_wo_entrp">   -822.06168986 </i>
    <i name="e_0_energy">   -822.06168986 </i>
   </energy>
  </scstep>
  <scstep>
   <time name="dav">  393.40  401.84</time>
   <time name="total">  404.27  412.93</time>
   <energy>
    <i name="e_fr_energy">   -822.06169018 </i>
    <i name="e_wo_entrp">   -822.06169018 </i>
    <i name="e_0_energy">   -822.06169018 </i>
   </energy>
  </scstep>
  <scstep>
   <time name="dav">  272.16  278.82</time>
   <time name="total">  283.04  289.85</time>
   <energy>
    <i name="e_fr_energy">   -822.06169006 </i>
    <i name="e_wo_entrp">   -822.06169006 </i>
    <i name="e_0_energy">   -822.06169006 </i>
   </energy>
  </scstep>
  <scstep>
   <time name="dav">  235.85  240.46</time>
   <time name="total">  246.52  251.48</time>
   <energy>
    <i name="e_fr_energy">   -822.06168986 </i>
    <i name="e_wo_entrp">   -822.06168986 </i>
    <i name="e_0_energy">   -822.06168986 </i>
   </energy>
  </scstep>
  <scstep>
   <time name="dav">  317.30  324.57</time>
   <time name="total">  328.56  335.93</time>
   <energy>
    <i name="e_fr_energy">   -822.06168938 </i>
    <i name="e_wo_entrp">   -822.06168938 </i>
    <i name="e_0_energy">   -822.06168938 </i>
   </energy>
  </scstep>
  <scstep>
   <time name="dav">  334.96  342.38</time>
   <time name="total">  345.75  353.39</time>
   <energy>
    <i name="e_fr_energy">   -822.06168940 </i>
    <i name="e_wo_entrp">   -822.06168940 </i>
    <i name="e_0_energy">   -822.06168940 </i>
   </energy>
  </scstep>
  <scstep>
   <time name="dav">  243.13  248.11</time>
   <time name="total">  254.19  259.25</time>
   <energy>
    <i name="e_fr_energy">   -822.06168945 </i>
    <i name="e_wo_entrp">   -822.06168945 </i>
    <i name="e_0_energy">   -822.06168945 </i>
   </energy>
  </scstep>
  <scstep>
   <time name="dav">  232.25  237.41</time>
   <time name="total">  243.00  248.45</time>
   <energy>
    <i name="e_fr_energy">   -822.06168951 </i>
    <i name="e_wo_entrp">   -822.06168951 </i>
    <i name="e_0_energy">   -822.06168951 </i>
   </energy>
  </scstep>
  <scstep>
   <time name="dav">  233.03  237.58</time>
   <time name="total">  243.63  248.56</time>
   <energy>
    <i name="e_fr_energy">   -822.06168952 </i>
    <i name="e_wo_entrp">   -822.06168952 </i>
    <i name="e_0_energy">   -822.06168952 </i>
   </energy>
  </scstep>
  <scstep>
   <time name="dav">  231.68  236.97</time>
   <time name="total">  234.00  239.37</time>
   <energy>
    <i name="alphaZ">   2580.95227926 </i>
    <i name="ewald"> -67508.45369223 </i>
    <i name="hartreedc"> -35944.16801346 </i>
    <i name="XCdc">   4397.38280982 </i>
    <i name="pawpsdc"> 108730.93544200 </i>
    <i name="pawaedc">-112347.51354173 </i>
    <i name="eentropy">     -0.00000000 </i>
    <i name="bandstr"> -15040.48202542 </i>
    <i name="atom"> 114309.28505226 </i>
    <i name="e_fr_energy">   -822.06168952 </i>
    <i name="e_wo_entrp">   -822.06168952 </i>
    <i name="e_0_energy">   -822.06168952 </i>
   </energy>
  </scstep>
  <structure>
   <crystal>
    <varray name="basis" >
     <v>      15.37563712       0.00000000       0.00000000 </v>
     <v>       0.00000000      11.24757084       0.08259006 </v>
     <v>       0.00000000       0.08472870      11.24727794 </v>
    </varray>
    <i name="volume">   1944.98054282 </i>
    <varray name="rec_basis" >
     <v>       0.06503796       0.00000000       0.00000000 </v>
     <v>       0.00000000       0.08891300      -0.00066981 </v>
     <v>       0.00000000      -0.00065290       0.08891532 </v>
    </varray>
   </crystal>
   <varray name="positions" >
    <v>       0.12525680       0.27553588       0.47453981 </v>
    <v>       0.62525680       0.27553588       0.47453981 </v>
    <v>       0.12525680       0.77553588       0.47453981 </v>
    <v>       0.62525680       0.77553588       0.47453981 </v>
    <v>       0.12525680       0.27553588       0.97453981 </v>
    <v>       0.62525680       0.27553588       0.97453981 </v>
    <v>       0.12525680       0.77553588       0.97453981 </v>
    <v>       0.62525680       0.77553588       0.97453981 </v>
    <v>       0.12525680       0.47446412       0.27546019 </v>
    <v>       0.62525680       0.47446412       0.27546019 </v>
    <v>       0.12525680       0.97446412       0.27546019 </v>
    <v>       0.62525680       0.97446412       0.27546019 </v>
    <v>       0.12525680       0.47446412       0.77546019 </v>
    <v>       0.62525680       0.47446412       0.77546019 </v>
    <v>       0.12525680       0.97446412       0.77546019 </v>
    <v>       0.62525680       0.97446412       0.77546019 </v>
    <v>       0.37474320       0.22446412       0.02546019 </v>
    <v>       0.87474320       0.22446412       0.02546019 </v>
    <v>       0.37474320       0.72446412       0.02546019 </v>
    <v>       0.87474320       0.72446412       0.02546019 </v>
    <v>       0.37474320       0.22446412       0.52546019 </v>
    <v>       0.87474320       0.22446412       0.52546019 </v>
    <v>       0.37474320       0.72446412       0.52546019 </v>
    <v>       0.87474320       0.72446412       0.52546019 </v>
    <v>       0.37474320       0.02553588       0.22453981 </v>
    <v>       0.87474320       0.02553588       0.22453981 </v>
    <v>       0.37474320       0.52553588       0.22453981 </v>
    <v>       0.87474320       0.52553588       0.22453981 </v>
    <v>       0.37474320       0.02553588       0.72453981 </v>
    <v>       0.87474320       0.02553588       0.72453981 </v>
    <v>       0.37474320       0.52553588       0.72453981 </v>
    <v>       0.87474320       0.52553588       0.72453981 </v>
    <v>       0.27600236       0.37500000       0.37500000 </v>
    <v>       0.77600236       0.37500000       0.37500000 </v>
    <v>       0.27600236       0.87500000       0.37500000 </v>
    <v>       0.77600236       0.87500000       0.37500000 </v>
    <v>       0.27600236       0.37500000       0.87500000 </v>
    <v>       0.77600236       0.37500000       0.87500000 </v>
    <v>       0.27600236       0.87500000       0.87500000 </v>
    <v>       0.77600236       0.87500000       0.87500000 </v>
    <v>       0.22399764       0.12500000       0.12500000 </v>
    <v>       0.72399764       0.12500000       0.12500000 </v>
    <v>       0.22399764       0.62500000       0.12500000 </v>
    <v>       0.72399764       0.62500000       0.12500000 </v>
    <v>       0.22399764       0.12500000       0.62500000 </v>
    <v>       0.72399764       0.12500000       0.62500000 </v>
    <v>       0.22399764       0.62500000       0.62500000 </v>
    <v>       0.72399764       0.62500000       0.62500000 </v>
    <v>       0.49994073       0.37500000       0.12500000 </v>
    <v>       0.99994073       0.37500000       0.12500000 </v>
    <v>       0.49994073       0.87500000       0.12500000 </v>
    <v>       0.99994073       0.87500000       0.12500000 </v>
    <v>       0.49994073       0.37500000       0.62500000 </v>
    <v>       0.99994073       0.37500000       0.62500000 </v>
    <v>       0.49994073       0.87500000       0.62500000 </v>
    <v>       0.99994073       0.87500000       0.62500000 </v>
    <v>       0.00005927       0.12500000       0.37500000 </v>
    <v>       0.50005927       0.12500000       0.37500000 </v>
    <v>       0.00005927       0.62500000       0.37500000 </v>
    <v>       0.50005927       0.62500000       0.37500000 </v>
    <v>       0.00005927       0.12500000       0.87500000 </v>
    <v>       0.50005927       0.12500000       0.87500000 </v>
    <v>       0.00005927       0.62500000       0.87500000 </v>
    <v>       0.50005927       0.62500000       0.87500000 </v>
    <v>       0.47965396       0.37552492       0.37500000 </v>
    <v>       0.97912905       0.37500000       0.37500000 </v>
    <v>       0.47912905       0.87500000       0.37500000 </v>
    <v>       0.97912905       0.87500000       0.37500000 </v>
    <v>       0.47912905       0.37500000       0.87500000 </v>
    <v>       0.97912905       0.37500000       0.87500000 </v>
    <v>       0.47912905       0.87500000       0.87500000 </v>
    <v>       0.97912905       0.87500000       0.87500000 </v>
    <v>       0.02087095       0.12500000       0.12500000 </v>
    <v>       0.52087095       0.12500000       0.12500000 </v>
    <v>       0.02087095       0.62500000       0.12500000 </v>
    <v>       0.52087095       0.62500000       0.12500000 </v>
    <v>       0.02087095       0.12500000       0.62500000 </v>
    <v>       0.52087095       0.12500000       0.62500000 </v>
    <v>       0.02087095       0.62500000       0.62500000 </v>
    <v>       0.52087095       0.62500000       0.62500000 </v>
    <v>       0.25003487       0.37500000       0.12500000 </v>
    <v>       0.75003487       0.37500000       0.12500000 </v>
    <v>       0.25003487       0.87500000       0.12500000 </v>
    <v>       0.75003487       0.87500000       0.12500000 </v>
    <v>       0.25003487       0.37500000       0.62500000 </v>
    <v>       0.75003487       0.37500000       0.62500000 </v>
    <v>       0.25003487       0.87500000       0.62500000 </v>
    <v>       0.75003487       0.87500000       0.62500000 </v>
    <v>       0.24996513       0.12500000       0.37500000 </v>
    <v>       0.74996513       0.12500000       0.37500000 </v>
    <v>       0.24996513       0.62500000       0.37500000 </v>
    <v>       0.74996513       0.62500000       0.37500000 </v>
    <v>       0.24996513       0.12500000       0.87500000 </v>
    <v>       0.74996513       0.12500000       0.87500000 </v>
    <v>       0.24996513       0.62500000       0.87500000 </v>
    <v>       0.74996513       0.62500000       0.87500000 </v>
    <v>       0.12546906       0.49959881       0.49958956 </v>
    <v>       0.62546906       0.49959881       0.49958956 </v>
    <v>       0.12546906       0.99959881       0.49958956 </v>
    <v>       0.62546906       0.99959881       0.49958956 </v>
    <v>       0.12546906       0.49959881       0.99958956 </v>
    <v>       0.62546906       0.49959881       0.99958956 </v>
    <v>       0.12546906       0.99959881       0.99958956 </v>
    <v>       0.62546906       0.99959881       0.99958956 </v>
    <v>       0.12546906       0.25040119       0.25041044 </v>
    <v>       0.62546906       0.25040119       0.25041044 </v>
    <v>       0.12546906       0.75040119       0.25041044 </v>
    <v>       0.62546906       0.75040119       0.25041044 </v>
    <v>       0.12546906       0.25040119       0.75041044 </v>
    <v>       0.62546906       0.25040119       0.75041044 </v>
    <v>       0.12546906       0.75040119       0.75041044 </v>
    <v>       0.62546906       0.75040119       0.75041044 </v>
    <v>       0.37453094       0.00040119       0.00041044 </v>
    <v>       0.87453094       0.00040119       0.00041044 </v>
    <v>       0.37453094       0.50040119       0.00041044 </v>
    <v>       0.87453094       0.50040119       0.00041044 </v>
    <v>       0.37453094       0.00040119       0.50041044 </v>
    <v>       0.87453094       0.00040119       0.50041044 </v>
    <v>       0.37453094       0.50040119       0.50041044 </v>
    <v>       0.87453094       0.50040119       0.50041044 </v>
    <v>       0.37453094       0.24959881       0.24958956 </v>
    <v>       0.87453094       0.24959881       0.24958956 </v>
    <v>       0.37453094       0.74959881       0.24958956 </v>
    <v>       0.87453094       0.74959881       0.24958956 </v>
    <v>       0.37453094       0.24959881       0.74958956 </v>
    <v>       0.87453094       0.24959881       0.74958956 </v>
    <v>       0.37453094       0.74959881       0.74958956 </v>
    <v>       0.87453094       0.74959881       0.74958956 </v>
    <v>       0.00000000       0.25000000       0.00000000 </v>
    <v>       0.50000000       0.25000000       0.00000000 </v>
    <v>       0.00000000       0.75000000       0.00000000 </v>
    <v>       0.50000000       0.75000000       0.00000000 </v>
    <v>       0.00000000       0.25000000       0.50000000 </v>
    <v>       0.50000000       0.25000000       0.50000000 </v>
    <v>       0.00000000       0.75000000       0.50000000 </v>
    <v>       0.50000000       0.75000000       0.50000000 </v>
    <v>       0.00000000       0.00000000       0.25000000 </v>
    <v>       0.50000000       0.00000000       0.25000000 </v>
    <v>       0.00000000       0.50000000       0.25000000 </v>
    <v>       0.50000000       0.50000000       0.25000000 </v>
    <v>       0.00000000       0.00000000       0.75000000 </v>
    <v>       0.50000000       0.00000000       0.75000000 </v>
    <v>       0.00000000       0.50000000       0.75000000 </v>
    <v>       0.50000000       0.50000000       0.75000000 </v>
    <v>       0.25000000       0.25000000       0.00000000 </v>
    <v>       0.75000000       0.25000000       0.00000000 </v>
    <v>       0.25000000       0.75000000       0.00000000 </v>
    <v>       0.75000000       0.75000000       0.00000000 </v>
    <v>       0.25000000       0.25000000       0.50000000 </v>
    <v>       0.75000000       0.25000000       0.50000000 </v>
    <v>       0.25000000       0.75000000       0.50000000 </v>
    <v>       0.75000000       0.75000000       0.50000000 </v>
    <v>       0.25000000       0.00000000       0.25000000 </v>
    <v>       0.75000000       0.00000000       0.25000000 </v>
    <v>       0.25000000       0.50000000       0.25000000 </v>
    <v>       0.75000000       0.50000000       0.25000000 </v>
    <v>       0.25000000       0.00000000       0.75000000 </v>
    <v>       0.75000000       0.00000000       0.75000000 </v>
    <v>       0.25000000       0.50000000       0.75000000 </v>
    <v>       0.75000000       0.50000000       0.75000000 </v>
   </varray>
  </structure>
  <varray name="forces" >
   <v>       0.00049758      -0.00019945      -0.00015565 </v>
   <v>       0.00191483      -0.00489824       0.00287628 </v>
   <v>       0.00024820       0.00000578      -0.00005243 </v>
   <v>      -0.00022233       0.00115461       0.00004784 </v>
   <v>       0.00045245      -0.00011387       0.00003861 </v>
   <v>      -0.00027556      -0.00030255      -0.00051604 </v>
   <v>       0.00009740      -0.00003339      -0.00004036 </v>
   <v>       0.00000110       0.00014187      -0.00016627 </v>
   <v>       0.00040465      -0.00009136      -0.00001811 </v>
   <v>       0.01098736       0.00359339      -0.00538906 </v>
   <v>       0.00036413       0.00020830       0.00007624 </v>
   <v>      -0.00045302       0.00003437       0.00032027 </v>
   <v>       0.00016018       0.00000306       0.00008159 </v>
   <v>      -0.00040059      -0.00032983       0.00085211 </v>
   <v>       0.00018827       0.00012852       0.00004337 </v>
   <v>      -0.00023471       0.00028918      -0.00006745 </v>
   <v>      -0.00077744       0.00009795       0.00230775 </v>
   <v>       0.00020154       0.00001105       0.00005881 </v>
   <v>      -0.00042419       0.00027641      -0.00021107 </v>
   <v>       0.00019316       0.00009363       0.00002705 </v>
   <v>       0.00490789       0.00467394      -0.00611362 </v>
   <v>       0.00030965      -0.00006877       0.00007902 </v>
   <v>      -0.00058428      -0.00067063       0.00026827 </v>
   <v>       0.00033844       0.00018788       0.00012793 </v>
   <v>      -0.00047361       0.00224091       0.00009333 </v>
   <v>       0.00026453      -0.00002799      -0.00009752 </v>
   <v>      -0.00275273      -0.00313610       0.00143746 </v>
   <v>       0.00041101      -0.00006519      -0.00017031 </v>
   <v>      -0.00000906       0.00002380      -0.00020364 </v>
   <v>       0.00009739      -0.00006450      -0.00006064 </v>
   <v>      -0.00027949       0.00002469      -0.00084897 </v>
   <v>       0.00040185      -0.00000960       0.00002946 </v>
   <v>       0.00328377      -0.00103779      -0.00071727 </v>
   <v>       0.00096177      -0.00050563      -0.00028440 </v>
   <v>      -0.00001782       0.00043058       0.00025791 </v>
   <v>       0.00019422       0.00029755       0.00013462 </v>
   <v>      -0.00001773      -0.00052779       0.00006230 </v>
   <v>       0.00019456      -0.00035741       0.00002178 </v>
   <v>       0.00020534       0.00017761       0.00001712 </v>
   <v>       0.00016954       0.00014873      -0.00000966 </v>
   <v>       0.00152014       0.00090152       0.00071853 </v>
   <v>       0.00045317      -0.00030353      -0.00053730 </v>
   <v>      -0.00017081      -0.00022123       0.00015945 </v>
   <v>       0.00030194       0.00017282      -0.00023075 </v>
   <v>       0.00014140       0.00018933      -0.00025083 </v>
   <v>      -0.00029808      -0.00013607       0.00007888 </v>
   <v>       0.00041640      -0.00002972      -0.00021216 </v>
   <v>       0.00112767       0.00136689       0.00113192 </v>
   <v>      -0.00267863      -0.00360335      -0.00122651 </v>
   <v>       0.00052017      -0.00014676       0.00008008 </v>
   <v>      -0.00041776       0.00058275      -0.00001250 </v>
   <v>       0.00040112       0.00009773      -0.00004210 </v>
   <v>      -0.00222090      -0.00243241       0.00054427 </v>
   <v>       0.00049427      -0.00014963       0.00008592 </v>
   <v>      -0.00041636       0.00045793      -0.00002073 </v>
   <v>       0.00039824       0.00009928      -0.00005100 </v>
   <v>       0.00037539       0.00004944      -0.00005795 </v>
   <v>      -0.00339716       0.00643631       0.00062981 </v>
   <v>       0.00034866       0.00005514      -0.00006042 </v>
   <v>      -0.00177768       0.00829720       0.00180499 </v>
   <v>       0.00025343       0.00000479       0.00002226 </v>
   <v>      -0.00052808       0.00004326      -0.00010053 </v>
   <v>       0.00025537      -0.00000413       0.00002404 </v>
   <v>      -0.00059631       0.00003427      -0.00022525 </v>
   <v>      -0.03390291      -0.06127405       0.03324108 </v>
   <v>       0.00091907      -0.00040373      -0.00024927 </v>
   <v>      -0.00068937       0.00136537       0.00000249 </v>
   <v>       0.00067050       0.00024408       0.00003913 </v>
   <v>      -0.00068973      -0.00093656       0.00002164 </v>
   <v>       0.00067053      -0.00016272       0.00004253 </v>
   <v>      -0.00091499       0.00096513      -0.00058344 </v>
   <v>       0.00055800       0.00012999       0.00004964 </v>
   <v>       0.00061427       0.00014362       0.00014479 </v>
   <v>      -0.00289445       0.00082935       0.00109118 </v>
   <v>       0.00054732      -0.00001712      -0.00006995 </v>
   <v>       0.00064126       0.00618108      -0.00603066 </v>
   <v>       0.00053928      -0.00002809      -0.00005887 </v>
   <v>      -0.00093556       0.00401404      -0.00385822 </v>
   <v>       0.00057272       0.00008647       0.00008747 </v>
   <v>      -0.00268346       0.00111535       0.00138110 </v>
   <v>       0.00260442      -0.00267658       0.00173192 </v>
   <v>       0.00070488      -0.00051298      -0.00048985 </v>
   <v>      -0.00020522       0.00096859       0.00021752 </v>
   <v>       0.00038226       0.00026944      -0.00047355 </v>
[...]
       <r>   -27.7314     0.0000   160.0000 </r>
       <r>   -27.4920     0.0000   160.0000 </r>
       <r>   -27.2525     0.0000   160.0000 </r>
       <r>   -27.0130     0.0000   160.0000 </r>
       <r>   -26.7736     0.0000   160.0000 </r>
       <r>   -26.5341     0.0000   160.0000 </r>
       <r>   -26.2946     0.0000   160.0000 </r>
       <r>   -26.0552     0.0000   160.0000 </r>
       <r>   -25.8157     0.0000   160.0000 </r>
       <r>   -25.5762     0.0000   160.0000 </r>
       <r>   -25.3368     0.0000   160.0000 </r>
       <r>   -25.0973     0.0000   160.0000 </r>
       <r>   -24.8578     0.0000   160.0000 </r>
       <r>   -24.6184     0.0000   160.0000 </r>
       <r>   -24.3789     0.0000   160.0000 </r>
       <r>   -24.1394     0.0000   160.0000 </r>
       <r>   -23.9000     0.0000   160.0000 </r>
       <r>   -23.6605     0.0000   160.0000 </r>
       <r>   -23.4210     0.0000   160.0000 </r>
       <r>   -23.1816     0.0000   160.0000 </r>
       <r>   -22.9421     0.0000   160.0000 </r>
       <r>   -22.7026     0.0000   160.0000 </r>
       <r>   -22.4632     0.0000   160.0000 </r>
       <r>   -22.2237     0.0000   160.0000 </r>
       <r>   -21.9842     0.0000   160.0000 </r>
       <r>   -21.7448     0.0000   160.0000 </r>
       <r>   -21.5053     0.0000   160.0000 </r>
       <r>   -21.2658     0.0000   160.0000 </r>
       <r>   -21.0264     0.0000   160.0000 </r>
       <r>   -20.7869     0.0000   160.0000 </r>
       <r>   -20.5474     0.0000   160.0000 </r>
       <r>   -20.3079     0.0000   160.0000 </r>
       <r>   -20.0685     0.0000   160.0000 </r>
       <r>   -19.8290     0.0000   160.0000 </r>
       <r>   -19.5895     0.0000   160.0000 </r>
       <r>   -19.3501     0.0000   160.0000 </r>
       <r>   -19.1106     0.0000   160.0000 </r>
       <r>   -18.8711     0.0000   160.0000 </r>
       <r>   -18.6317     0.0000   160.0000 </r>
       <r>   -18.3922     0.0000   160.0000 </r>
       <r>   -18.1527     0.0000   160.0000 </r>
       <r>   -17.9133     0.0000   160.0000 </r>
       <r>   -17.6738     0.0000   160.0000 </r>
       <r>   -17.4343     0.0000   160.0000 </r>
       <r>   -17.1949     0.0000   160.0000 </r>
       <r>   -16.9554     0.0000   160.0000 </r>
       <r>   -16.7159     0.0000   160.0000 </r>
       <r>   -16.4765     0.0000   160.0000 </r>
       <r>   -16.2370     0.0000   160.0000 </r>
       <r>   -15.9975     0.0000   160.0000 </r>
       <r>   -15.7581     0.0000   160.0000 </r>
       <r>   -15.5186     0.0000   160.0000 </r>
       <r>   -15.2791     0.0000   160.0000 </r>
       <r>   -15.0397     0.0000   160.0000 </r>
       <r>   -14.8002     0.0000   160.0000 </r>
       <r>   -14.5607     0.0000   160.0000 </r>
       <r>   -14.3213     0.0000   160.0000 </r>
       <r>   -14.0818     0.0000   160.0000 </r>
       <r>   -13.8423     0.0000   160.0000 </r>
       <r>   -13.6029     0.0000   160.0000 </r>
       <r>   -13.3634     0.0000   160.0000 </r>
       <r>   -13.1239    28.7687   166.8892 </r>
       <r>   -12.8845    99.9856   190.8325 </r>
       <r>   -12.6450     4.8754   192.0000 </r>
       <r>   -12.4055     0.0000   192.0000 </r>
       <r>   -12.1660     0.0000   192.0000 </r>
       <r>   -11.9266     0.0000   192.0000 </r>
       <r>   -11.6871     0.0000   192.0000 </r>
       <r>   -11.4476     0.0000   192.0000 </r>
       <r>   -11.2082     0.0000   192.0000 </r>
       <r>   -10.9687     0.0000   192.0000 </r>
       <r>   -10.7292     0.0000   192.0000 </r>
       <r>   -10.4898     0.0000   192.0000 </r>
       <r>   -10.2503     0.0000   192.0000 </r>
       <r>   -10.0108     0.0000   192.0000 </r>
       <r>    -9.7714     0.0000   192.0000 </r>
       <r>    -9.5319     0.0000   192.0000 </r>
       <r>    -9.2924     0.0000   192.0000 </r>
       <r>    -9.0530     0.0000   192.0000 </r>
       <r>    -8.8135     0.0000   192.0000 </r>
       <r>    -8.5740     0.0000   192.0000 </r>
       <r>    -8.3346     0.0000   192.0000 </r>
       <r>    -8.0951     0.0000   192.0000 </r>
       <r>    -7.8556     0.0000   192.0000 </r>
       <r>    -7.6162     0.0000   192.0000 </r>
       <r>    -7.3767     7.5366   193.8048 </r>
       <r>    -7.1372    60.6746   208.3344 </r>
       <r>    -6.8978    54.4647   221.3769 </r>
       <r>    -6.6583    10.9498   223.9991 </r>
       <r>    -6.4188     0.0039   224.0000 </r>
       <r>    -6.1794     0.0000   224.0000 </r>
       <r>    -5.9399     0.0000   224.0000 </r>
       <r>    -5.7004     0.0000   224.0000 </r>
       <r>    -5.4610     0.0000   224.0000 </r>
       <r>    -5.2215     0.0000   224.0000 </r>
       <r>    -4.9820     0.0000   224.0000 </r>
       <r>    -4.7425     0.0000   224.0000 </r>
       <r>    -4.5031     0.0000   224.0000 </r>
       <r>    -4.2636     0.0000   224.0000 </r>
       <r>    -4.0241     0.0000   224.0000 </r>
       <r>    -3.7847     0.0000   224.0000 </r>
       <r>    -3.5452     0.0000   224.0000 </r>
       <r>    -3.3057     0.0000   224.0000 </r>
       <r>    -3.0663     0.0000   224.0000 </r>
       <r>    -2.8268     0.0000   224.0000 </r>
       <r>    -2.5873     0.0000   224.0000 </r>
       <r>    -2.3479     0.0000   224.0000 </r>
       <r>    -2.1084     0.0000   224.0000 </r>
       <r>    -1.8689     0.0000   224.0000 </r>
       <r>    -1.6295     0.0000   224.0000 </r>
       <r>    -1.3900     0.0000   224.0000 </r>
       <r>    -1.1505     0.0000   224.0000 </r>
       <r>    -0.9111     3.3895   224.8117 </r>
       <r>    -0.6716    32.8637   232.6815 </r>
       <r>    -0.4321    18.8759   237.2017 </r>
       <r>    -0.1927    19.0922   241.7736 </r>
       <r>     0.0468    12.2229   244.7006 </r>
       <r>     0.2863    31.6955   252.2907 </r>
       <r>     0.5257    81.3424   271.7695 </r>
       <r>     0.7652    68.3608   288.1397 </r>
       <r>     1.0047    69.8318   304.8622 </r>
       <r>     1.2441    63.4448   320.0552 </r>
       <r>     1.4836    21.6956   325.2506 </r>
       <r>     1.7231    50.6886   337.3889 </r>
       <r>     1.9625    51.5875   349.7424 </r>
       <r>     2.2020    30.5819   357.0658 </r>
       <r>     2.4415    39.0133   366.4082 </r>
       <r>     2.6810    64.5895   381.8753 </r>
       <r>     2.9204    72.2034   399.1657 </r>
       <r>     3.1599    60.0459   413.5448 </r>
       <r>     3.3994    16.1443   417.4108 </r>
       <r>     3.6388    36.1230   426.0611 </r>
       <r>     3.8783    59.4667   440.3014 </r>
       <r>     4.1178    32.1052   447.9896 </r>
       <r>     4.3572     0.0434   448.0000 </r>
       <r>     4.5967     0.0000   448.0000 </r>
       <r>     4.8362     0.0000   448.0000 </r>
       <r>     5.0756     0.0000   448.0000 </r>
       <r>     5.3151     0.0000   448.0000 </r>
       <r>     5.5546     0.0000   448.0000 </r>
       <r>     5.7940     0.0000   448.0000 </r>
       <r>     6.0335     0.0000   448.0000 </r>
       <r>     6.2730     0.0000   448.0000 </r>
       <r>     6.5124     0.0658   448.0158 </r>
       <r>     6.7519    24.2500   453.8228 </r>
       <r>     6.9914    77.6511   472.4178 </r>
       <r>     7.2308    63.2485   487.5638 </r>
       <r>     7.4703    63.7999   502.8418 </r>
       <r>     7.7098    63.0771   517.9467 </r>
       <r>     7.9492    94.9651   540.6878 </r>
       <r>     8.1887    72.8301   558.1282 </r>
       <r>     8.4282    49.1986   569.9097 </r>
       <r>     8.6676    25.0336   575.9045 </r>
       <r>     8.9071     7.2578   577.6425 </r>
       <r>     9.1466     8.5993   579.7017 </r>
       <r>     9.3860    17.8067   583.9659 </r>
       <r>     9.6255    26.8167   590.3876 </r>
       <r>     9.8650    31.9349   598.0350 </r>
       <r>    10.1044    37.8136   607.0901 </r>
       <r>    10.3439    33.4997   615.1122 </r>
       <r>    10.5834    28.5665   621.9530 </r>
       <r>    10.8229    33.0825   629.8751 </r>
       <r>    11.0623    28.2210   636.6331 </r>
       <r>    11.3018    26.0248   642.8652 </r>
       <r>    11.5413    29.1856   649.8543 </r>
       <r>    11.7807    50.9542   662.0561 </r>
       <r>    12.0202    50.2607   674.0920 </r>
       <r>    12.2597    56.0495   687.5140 </r>
       <r>    12.4991    31.5613   695.0719 </r>
       <r>    12.7386    32.6636   702.8938 </r>
       <r>    12.9781    32.1632   710.5958 </r>
       <r>    13.2175    38.0969   719.7188 </r>
       <r>    13.4570    33.4475   727.7284 </r>
       <r>    13.6965    17.0507   731.8115 </r>
       <r>    13.9359     0.7872   732.0000 </r>
       <r>    14.1754     0.0000   732.0000 </r>
       <r>    14.4149     0.0000   732.0000 </r>
       <r>    14.6543     0.0000   732.0000 </r>
       <r>    14.8938     0.0000   732.0000 </r>
       <r>    15.1333     0.0000   732.0000 </r>
       <r>    15.3727     0.0000   732.0000 </r>
       <r>    15.6122     0.0000   732.0000 </r>
       <r>    15.8517     0.0000   732.0000 </r>
       <r>    16.0911     0.0000   732.0000 </r>
       <r>    16.3306     0.0000   732.0000 </r>
       <r>    16.5701     0.0000   732.0000 </r>
       <r>    16.8095     0.0000   732.0000 </r>
       <r>    17.0490     0.0000   732.0000 </r>
      </set>
     </set>
    </array>
   </total>
  </dos>
 </calculation>
 <structure name="finalpos" >
  <crystal>
   <varray name="basis" >
    <v>      15.37563712       0.00000000       0.00000000 </v>
    <v>       0.00000000      11.24757084       0.08259006 </v>
    <v>       0.00000000       0.08472870      11.24727794 </v>
   </varray>
   <i name="volume">   1944.98054282 </i>
   <varray name="rec_basis" >
    <v>       0.06503796       0.00000000       0.00000000 </v>
    <v>       0.00000000       0.08891300      -0.00066981 </v>
    <v>       0.00000000      -0.00065290       0.08891532 </v>
   </varray>
  </crystal>
  <varray name="positions" >
   <v>       0.12525680       0.27553588       0.47453981 </v>
   <v>       0.62525680       0.27553588       0.47453981 </v>
   <v>       0.12525680       0.77553588       0.47453981 </v>
   <v>       0.62525680       0.77553588       0.47453981 </v>
   <v>       0.12525680       0.27553588       0.97453981 </v>
   <v>       0.62525680       0.27553588       0.97453981 </v>
   <v>       0.12525680       0.77553588       0.97453981 </v>
   <v>       0.62525680       0.77553588       0.97453981 </v>
   <v>       0.12525680       0.47446412       0.27546019 </v>
   <v>       0.62525680       0.47446412       0.27546019 </v>
   <v>       0.12525680       0.97446412       0.27546019 </v>
   <v>       0.62525680       0.97446412       0.27546019 </v>
   <v>       0.12525680       0.47446412       0.77546019 </v>
   <v>       0.62525680       0.47446412       0.77546019 </v>
   <v>       0.12525680       0.97446412       0.77546019 </v>
   <v>       0.62525680       0.97446412       0.77546019 </v>
   <v>       0.37474320       0.22446412       0.02546019 </v>
   <v>       0.87474320       0.22446412       0.02546019 </v>
   <v>       0.37474320       0.72446412       0.02546019 </v>
   <v>       0.87474320       0.72446412       0.02546019 </v>
   <v>       0.37474320       0.22446412       0.52546019 </v>
   <v>       0.87474320       0.22446412       0.52546019 </v>
   <v>       0.37474320       0.72446412       0.52546019 </v>
   <v>       0.87474320       0.72446412       0.52546019 </v>
   <v>       0.37474320       0.02553588       0.22453981 </v>
   <v>       0.87474320       0.02553588       0.22453981 </v>
   <v>       0.37474320       0.52553588       0.22453981 </v>
   <v>       0.87474320       0.52553588       0.22453981 </v>
   <v>       0.37474320       0.02553588       0.72453981 </v>
   <v>       0.87474320       0.02553588       0.72453981 </v>
   <v>       0.37474320       0.52553588       0.72453981 </v>
   <v>       0.87474320       0.52553588       0.72453981 </v>
   <v>       0.27600236       0.37500000       0.37500000 </v>
   <v>       0.77600236       0.37500000       0.37500000 </v>
   <v>       0.27600236       0.87500000       0.37500000 </v>
   <v>       0.77600236       0.87500000       0.37500000 </v>
   <v>       0.27600236       0.37500000       0.87500000 </v>
   <v>       0.77600236       0.37500000       0.87500000 </v>
   <v>       0.27600236       0.87500000       0.87500000 </v>
   <v>       0.77600236       0.87500000       0.87500000 </v>
   <v>       0.22399764       0.12500000       0.12500000 </v>
   <v>       0.72399764       0.12500000       0.12500000 </v>
   <v>       0.22399764       0.62500000       0.12500000 </v>
   <v>       0.72399764       0.62500000       0.12500000 </v>
   <v>       0.22399764       0.12500000       0.62500000 </v>
   <v>       0.72399764       0.12500000       0.62500000 </v>
   <v>       0.22399764       0.62500000       0.62500000 </v>
   <v>       0.72399764       0.62500000       0.62500000 </v>
   <v>       0.49994073       0.37500000       0.12500000 </v>
   <v>       0.99994073       0.37500000       0.12500000 </v>
   <v>       0.49994073       0.87500000       0.12500000 </v>
   <v>       0.99994073       0.87500000       0.12500000 </v>
   <v>       0.49994073       0.37500000       0.62500000 </v>
   <v>       0.99994073       0.37500000       0.62500000 </v>
   <v>       0.49994073       0.87500000       0.62500000 </v>
   <v>       0.99994073       0.87500000       0.62500000 </v>
   <v>       0.00005927       0.12500000       0.37500000 </v>
   <v>       0.50005927       0.12500000       0.37500000 </v>
   <v>       0.00005927       0.62500000       0.37500000 </v>
   <v>       0.50005927       0.62500000       0.37500000 </v>
   <v>       0.00005927       0.12500000       0.87500000 </v>
   <v>       0.50005927       0.12500000       0.87500000 </v>
   <v>       0.00005927       0.62500000       0.87500000 </v>
   <v>       0.50005927       0.62500000       0.87500000 </v>
   <v>       0.47965396       0.37552492       0.37500000 </v>
   <v>       0.97912905       0.37500000       0.37500000 </v>
   <v>       0.47912905       0.87500000       0.37500000 </v>
   <v>       0.97912905       0.87500000       0.37500000 </v>
   <v>       0.47912905       0.37500000       0.87500000 </v>
   <v>       0.97912905       0.37500000       0.87500000 </v>
   <v>       0.47912905       0.87500000       0.87500000 </v>
   <v>       0.97912905       0.87500000       0.87500000 </v>
   <v>       0.02087095       0.12500000       0.12500000 </v>
   <v>       0.52087095       0.12500000       0.12500000 </v>
   <v>       0.02087095       0.62500000       0.12500000 </v>
   <v>       0.52087095       0.62500000       0.12500000 </v>
   <v>       0.02087095       0.12500000       0.62500000 </v>
   <v>       0.52087095       0.12500000       0.62500000 </v>
   <v>       0.02087095       0.62500000       0.62500000 </v>
   <v>       0.52087095       0.62500000       0.62500000 </v>
   <v>       0.25003487       0.37500000       0.12500000 </v>
   <v>       0.75003487       0.37500000       0.12500000 </v>
   <v>       0.25003487       0.87500000       0.12500000 </v>
   <v>       0.75003487       0.87500000       0.12500000 </v>
   <v>       0.25003487       0.37500000       0.62500000 </v>
   <v>       0.75003487       0.37500000       0.62500000 </v>
   <v>       0.25003487       0.87500000       0.62500000 </v>
   <v>       0.75003487       0.87500000       0.62500000 </v>
   <v>       0.24996513       0.12500000       0.37500000 </v>
   <v>       0.74996513       0.12500000       0.37500000 </v>
   <v>       0.24996513       0.62500000       0.37500000 </v>
   <v>       0.74996513       0.62500000       0.37500000 </v>
   <v>       0.24996513       0.12500000       0.87500000 </v>
   <v>       0.74996513       0.12500000       0.87500000 </v>
   <v>       0.24996513       0.62500000       0.87500000 </v>
   <v>       0.74996513       0.62500000       0.87500000 </v>
   <v>       0.12546906       0.49959881       0.49958956 </v>
   <v>       0.62546906       0.49959881       0.49958956 </v>
   <v>       0.12546906       0.99959881       0.49958956 </v>
   <v>       0.62546906       0.99959881       0.49958956 </v>
   <v>       0.12546906       0.49959881       0.99958956 </v>
   <v>       0.62546906       0.49959881       0.99958956 </v>
   <v>       0.12546906       0.99959881       0.99958956 </v>
   <v>       0.62546906       0.99959881       0.99958956 </v>
   <v>       0.12546906       0.25040119       0.25041044 </v>
   <v>       0.62546906       0.25040119       0.25041044 </v>
   <v>       0.12546906       0.75040119       0.25041044 </v>
   <v>       0.62546906       0.75040119       0.25041044 </v>
   <v>       0.12546906       0.25040119       0.75041044 </v>
   <v>       0.62546906       0.25040119       0.75041044 </v>
   <v>       0.12546906       0.75040119       0.75041044 </v>
   <v>       0.62546906       0.75040119       0.75041044 </v>
   <v>       0.37453094       0.00040119       0.00041044 </v>
   <v>       0.87453094       0.00040119       0.00041044 </v>
   <v>       0.37453094       0.50040119       0.00041044 </v>
   <v>       0.87453094       0.50040119       0.00041044 </v>
   <v>       0.37453094       0.00040119       0.50041044 </v>
   <v>       0.87453094       0.00040119       0.50041044 </v>
   <v>       0.37453094       0.50040119       0.50041044 </v>
   <v>       0.87453094       0.50040119       0.50041044 </v>
   <v>       0.37453094       0.24959881       0.24958956 </v>
   <v>       0.87453094       0.24959881       0.24958956 </v>
   <v>       0.37453094       0.74959881       0.24958956 </v>
   <v>       0.87453094       0.74959881       0.24958956 </v>
   <v>       0.37453094       0.24959881       0.74958956 </v>
   <v>       0.87453094       0.24959881       0.74958956 </v>
   <v>       0.37453094       0.74959881       0.74958956 </v>
   <v>       0.87453094       0.74959881       0.74958956 </v>
   <v>       0.00000000       0.25000000       0.00000000 </v>
   <v>       0.50000000       0.25000000       0.00000000 </v>
   <v>       0.00000000       0.75000000       0.00000000 </v>
   <v>       0.50000000       0.75000000       0.00000000 </v>
   <v>       0.00000000       0.25000000       0.50000000 </v>
   <v>       0.50000000       0.25000000       0.50000000 </v>
   <v>       0.00000000       0.75000000       0.50000000 </v>
   <v>       0.50000000       0.75000000       0.50000000 </v>
   <v>       0.00000000       0.00000000       0.25000000 </v>
   <v>       0.50000000       0.00000000       0.25000000 </v>
   <v>       0.00000000       0.50000000       0.25000000 </v>
   <v>       0.50000000       0.50000000       0.25000000 </v>
   <v>       0.00000000       0.00000000       0.75000000 </v>
   <v>       0.50000000       0.00000000       0.75000000 </v>
   <v>       0.00000000       0.50000000       0.75000000 </v>
   <v>       0.50000000       0.50000000       0.75000000 </v>
   <v>       0.25000000       0.25000000       0.00000000 </v>
   <v>       0.75000000       0.25000000       0.00000000 </v>
   <v>       0.25000000       0.75000000       0.00000000 </v>
   <v>       0.75000000       0.75000000       0.00000000 </v>
   <v>       0.25000000       0.25000000       0.50000000 </v>
   <v>       0.75000000       0.25000000       0.50000000 </v>
   <v>       0.25000000       0.75000000       0.50000000 </v>
   <v>       0.75000000       0.75000000       0.50000000 </v>
   <v>       0.25000000       0.00000000       0.25000000 </v>
   <v>       0.75000000       0.00000000       0.25000000 </v>
   <v>       0.25000000       0.50000000       0.25000000 </v>
   <v>       0.75000000       0.50000000       0.25000000 </v>
   <v>       0.25000000       0.00000000       0.75000000 </v>
   <v>       0.75000000       0.00000000       0.75000000 </v>
   <v>       0.25000000       0.50000000       0.75000000 </v>
   <v>       0.75000000       0.50000000       0.75000000 </v>
  </varray>
 </structure>
</modeling>
