 144 144   0   0
  0.1325381E+02  0.1546422E-08  0.1214491E-08  0.1054520E-08  0.5000000E-15
  1.000000000000000E-004
  CAR 
 unknown system                          
     17.00891604    -54.87550851  301      5.08808230      1.00000000
    -54.876  0.0000E+00  0.0000E+00  0.0000E+00  0.0000E+00
    -54.636  0.0000E+00  0.0000E+00  0.0000E+00  0.0000E+00
    -54.396  0.0000E+00  0.0000E+00  0.0000E+00  0.0000E+00
    -54.157  0.0000E+00  0.0000E+00  0.0000E+00  0.0000E+00
    -53.917  0.0000E+00  0.0000E+00  0.0000E+00  0.0000E+00
    -53.677  0.0000E+00  0.0000E+00  0.0000E+00  0.0000E+00
    -53.438  0.0000E+00  0.0000E+00  0.0000E+00  0.0000E+00
    -53.198  0.0000E+00  0.0000E+00  0.0000E+00  0.0000E+00
    -52.959  0.0000E+00  0.0000E+00  0.0000E+00  0.0000E+00
    -52.719  0.0000E+00  0.0000E+00  0.0000E+00  0.0000E+00
    -52.479  0.0000E+00  0.0000E+00  0.0000E+00  0.0000E+00
    -52.240  0.0000E+00  0.0000E+00  0.0000E+00  0.0000E+00
    -52.000  0.0000E+00  0.0000E+00  0.0000E+00  0.0000E+00
    -51.761  0.2077E-03  0.0000E+00  0.4977E-04  0.0000E+00
    -51.521  0.4964E+02  0.0000E+00  0.1189E+02  0.0000E+00
    -51.281  0.8446E+02  0.0000E+00  0.3213E+02  0.0000E+00
    -51.042  0.1614E+02  0.0000E+00  0.3600E+02  0.0000E+00
    -50.802  0.0000E+00  0.0000E+00  0.3600E+02  0.0000E+00
    -50.562  0.0000E+00  0.0000E+00  0.3600E+02  0.0000E+00
    -50.323  0.7591E-04  0.0000E+00  0.3600E+02  0.0000E+00
    -50.083  0.6474E+02  0.0000E+00  0.5151E+02  0.0000E+00
    -49.844  0.2075E+03  0.0000E+00  0.1012E+03  0.0000E+00
    -49.604  0.2826E+02  0.0000E+00  0.1080E+03  0.0000E+00
    -49.364  0.0000E+00  0.0000E+00  0.1080E+03  0.0000E+00
    -49.125  0.0000E+00  0.0000E+00  0.1080E+03  0.0000E+00
    -48.885  0.0000E+00  0.0000E+00  0.1080E+03  0.0000E+00
    -48.646  0.0000E+00  0.0000E+00  0.1080E+03  0.0000E+00
    -48.406  0.0000E+00  0.0000E+00  0.1080E+03  0.0000E+00
    -48.166  0.0000E+00  0.0000E+00  0.1080E+03  0.0000E+00
    -47.927  0.0000E+00  0.0000E+00  0.1080E+03  0.0000E+00
    -47.687  0.0000E+00  0.0000E+00  0.1080E+03  0.0000E+00
    -47.447  0.0000E+00  0.0000E+00  0.1080E+03  0.0000E+00
    -47.208  0.0000E+00  0.0000E+00  0.1080E+03  0.0000E+00
    -46.968  0.0000E+00  0.4530E-01  0.1080E+03  0.1085E-01
    -46.729  0.0000E+00  0.5072E+02  0.1080E+03  0.1216E+02
    -46.489  0.0000E+00  0.9465E+02  0.1080E+03  0.3484E+02
    -46.249  0.0000E+00  0.1426E+03  0.1080E+03  0.6901E+02
    -46.010  0.0000E+00  0.1627E+03  0.1080E+03  0.1080E+03
    -45.770  0.0000E+00  0.7133E-02  0.1080E+03  0.1080E+03
    -45.531  0.0000E+00  0.0000E+00  0.1080E+03  0.1080E+03
    -45.291  0.0000E+00  0.0000E+00  0.1080E+03  0.1080E+03
    -45.051  0.0000E+00  0.0000E+00  0.1080E+03  0.1080E+03
    -44.812  0.0000E+00  0.0000E+00  0.1080E+03  0.1080E+03
    -44.572  0.0000E+00  0.0000E+00  0.1080E+03  0.1080E+03
    -44.332  0.0000E+00  0.0000E+00  0.1080E+03  0.1080E+03
    -44.093  0.0000E+00  0.0000E+00  0.1080E+03  0.1080E+03
    -43.853  0.0000E+00  0.0000E+00  0.1080E+03  0.1080E+03
    -43.614  0.0000E+00  0.0000E+00  0.1080E+03  0.1080E+03
    -43.374  0.0000E+00  0.0000E+00  0.1080E+03  0.1080E+03
    -43.134  0.0000E+00  0.0000E+00  0.1080E+03  0.1080E+03
    -42.895  0.0000E+00  0.0000E+00  0.1080E+03  0.1080E+03
    -42.655  0.0000E+00  0.0000E+00  0.1080E+03  0.1080E+03
    -42.416  0.0000E+00  0.0000E+00  0.1080E+03  0.1080E+03
    -42.176  0.0000E+00  0.0000E+00  0.1080E+03  0.1080E+03
    -41.936  0.0000E+00  0.0000E+00  0.1080E+03  0.1080E+03
    -41.697  0.0000E+00  0.0000E+00  0.1080E+03  0.1080E+03
    -41.457  0.0000E+00  0.0000E+00  0.1080E+03  0.1080E+03
    -41.217  0.0000E+00  0.0000E+00  0.1080E+03  0.1080E+03
    -40.978  0.0000E+00  0.0000E+00  0.1080E+03  0.1080E+03
    -40.738  0.8774E-09  0.2850E-09  0.1080E+03  0.1080E+03
    -40.499  0.2755E+02  0.2427E+02  0.1146E+03  0.1138E+03
    -40.259  0.4637E+02  0.5003E+02  0.1257E+03  0.1258E+03
    -40.019  0.9965E+02  0.9965E+02  0.1496E+03  0.1497E+03
    -39.780  0.2675E+02  0.2637E+02  0.1560E+03  0.1560E+03
    -39.540  0.0000E+00  0.0000E+00  0.1560E+03  0.1560E+03
    -39.301  0.0000E+00  0.0000E+00  0.1560E+03  0.1560E+03
    -39.061  0.0000E+00  0.0000E+00  0.1560E+03  0.1560E+03
    -38.821  0.0000E+00  0.0000E+00  0.1560E+03  0.1560E+03
    -38.582  0.0000E+00  0.0000E+00  0.1560E+03  0.1560E+03
    -38.342  0.0000E+00  0.0000E+00  0.1560E+03  0.1560E+03
    -38.102  0.0000E+00  0.0000E+00  0.1560E+03  0.1560E+03
    -37.863  0.0000E+00  0.0000E+00  0.1560E+03  0.1560E+03
    -37.623  0.0000E+00  0.0000E+00  0.1560E+03  0.1560E+03
    -37.384  0.0000E+00  0.0000E+00  0.1560E+03  0.1560E+03
    -37.144  0.0000E+00  0.0000E+00  0.1560E+03  0.1560E+03
    -36.904  0.0000E+00  0.0000E+00  0.1560E+03  0.1560E+03
    -36.665  0.0000E+00  0.0000E+00  0.1560E+03  0.1560E+03
    -36.425  0.0000E+00  0.0000E+00  0.1560E+03  0.1560E+03
    -36.186  0.0000E+00  0.0000E+00  0.1560E+03  0.1560E+03
    -35.946  0.0000E+00  0.0000E+00  0.1560E+03  0.1560E+03
    -35.706  0.0000E+00  0.0000E+00  0.1560E+03  0.1560E+03
    -35.467  0.0000E+00  0.0000E+00  0.1560E+03  0.1560E+03
    -35.227  0.0000E+00  0.0000E+00  0.1560E+03  0.1560E+03
    -34.987  0.0000E+00  0.0000E+00  0.1560E+03  0.1560E+03
    -34.748  0.0000E+00  0.0000E+00  0.1560E+03  0.1560E+03
    -34.508  0.0000E+00  0.0000E+00  0.1560E+03  0.1560E+03
    -34.269  0.0000E+00  0.0000E+00  0.1560E+03  0.1560E+03
    -34.029  0.0000E+00  0.0000E+00  0.1560E+03  0.1560E+03
    -33.789  0.0000E+00  0.0000E+00  0.1560E+03  0.1560E+03
    -33.550  0.0000E+00  0.0000E+00  0.1560E+03  0.1560E+03
    -33.310  0.0000E+00  0.0000E+00  0.1560E+03  0.1560E+03
    -33.071  0.0000E+00  0.0000E+00  0.1560E+03  0.1560E+03
    -32.831  0.0000E+00  0.0000E+00  0.1560E+03  0.1560E+03
    -32.591  0.0000E+00  0.0000E+00  0.1560E+03  0.1560E+03
    -32.352  0.0000E+00  0.0000E+00  0.1560E+03  0.1560E+03
    -32.112  0.0000E+00  0.0000E+00  0.1560E+03  0.1560E+03
    -31.872  0.0000E+00  0.0000E+00  0.1560E+03  0.1560E+03
    -31.633  0.0000E+00  0.0000E+00  0.1560E+03  0.1560E+03
    -31.393  0.0000E+00  0.0000E+00  0.1560E+03  0.1560E+03
    -31.154  0.0000E+00  0.0000E+00  0.1560E+03  0.1560E+03
    -30.914  0.0000E+00  0.0000E+00  0.1560E+03  0.1560E+03
    -30.674  0.0000E+00  0.0000E+00  0.1560E+03  0.1560E+03
    -30.435  0.0000E+00  0.0000E+00  0.1560E+03  0.1560E+03
    -30.195  0.0000E+00  0.0000E+00  0.1560E+03  0.1560E+03
    -29.956  0.0000E+00  0.0000E+00  0.1560E+03  0.1560E+03
    -29.716  0.0000E+00  0.0000E+00  0.1560E+03  0.1560E+03
    -29.476  0.0000E+00  0.0000E+00  0.1560E+03  0.1560E+03
    -29.237  0.0000E+00  0.0000E+00  0.1560E+03  0.1560E+03
    -28.997  0.0000E+00  0.0000E+00  0.1560E+03  0.1560E+03
    -28.758  0.0000E+00  0.0000E+00  0.1560E+03  0.1560E+03
    -28.518  0.0000E+00  0.0000E+00  0.1560E+03  0.1560E+03
    -28.278  0.0000E+00  0.0000E+00  0.1560E+03  0.1560E+03
    -28.039  0.0000E+00  0.0000E+00  0.1560E+03  0.1560E+03
    -27.799  0.0000E+00  0.0000E+00  0.1560E+03  0.1560E+03
    -27.559  0.0000E+00  0.0000E+00  0.1560E+03  0.1560E+03
    -27.320  0.0000E+00  0.0000E+00  0.1560E+03  0.1560E+03
    -27.080  0.0000E+00  0.0000E+00  0.1560E+03  0.1560E+03
    -26.841  0.0000E+00  0.0000E+00  0.1560E+03  0.1560E+03
    -26.601  0.0000E+00  0.0000E+00  0.1560E+03  0.1560E+03
    -26.361  0.0000E+00  0.0000E+00  0.1560E+03  0.1560E+03
    -26.122  0.0000E+00  0.0000E+00  0.1560E+03  0.1560E+03
    -25.882  0.0000E+00  0.0000E+00  0.1560E+03  0.1560E+03
    -25.643  0.0000E+00  0.0000E+00  0.1560E+03  0.1560E+03
    -25.403  0.0000E+00  0.0000E+00  0.1560E+03  0.1560E+03
    -25.163  0.0000E+00  0.0000E+00  0.1560E+03  0.1560E+03
    -24.924  0.0000E+00  0.0000E+00  0.1560E+03  0.1560E+03
    -24.684  0.0000E+00  0.0000E+00  0.1560E+03  0.1560E+03
    -24.444  0.0000E+00  0.0000E+00  0.1560E+03  0.1560E+03
    -24.205  0.0000E+00  0.0000E+00  0.1560E+03  0.1560E+03
    -23.965  0.0000E+00  0.0000E+00  0.1560E+03  0.1560E+03
    -23.726  0.0000E+00  0.0000E+00  0.1560E+03  0.1560E+03
    -23.486  0.0000E+00  0.0000E+00  0.1560E+03  0.1560E+03
    -23.246  0.0000E+00  0.0000E+00  0.1560E+03  0.1560E+03
    -23.007  0.0000E+00  0.0000E+00  0.1560E+03  0.1560E+03
    -22.767  0.0000E+00  0.0000E+00  0.1560E+03  0.1560E+03
    -22.528  0.0000E+00  0.0000E+00  0.1560E+03  0.1560E+03
    -22.288  0.0000E+00  0.0000E+00  0.1560E+03  0.1560E+03
    -22.048  0.0000E+00  0.0000E+00  0.1560E+03  0.1560E+03
    -21.809  0.0000E+00  0.0000E+00  0.1560E+03  0.1560E+03
    -21.569  0.0000E+00  0.0000E+00  0.1560E+03  0.1560E+03
    -21.329  0.0000E+00  0.0000E+00  0.1560E+03  0.1560E+03
    -21.090  0.0000E+00  0.0000E+00  0.1560E+03  0.1560E+03
    -20.850  0.0000E+00  0.0000E+00  0.1560E+03  0.1560E+03
    -20.611  0.0000E+00  0.0000E+00  0.1560E+03  0.1560E+03
    -20.371  0.0000E+00  0.0000E+00  0.1560E+03  0.1560E+03
    -20.131  0.0000E+00  0.0000E+00  0.1560E+03  0.1560E+03
    -19.892  0.0000E+00  0.0000E+00  0.1560E+03  0.1560E+03
    -19.652  0.0000E+00  0.0000E+00  0.1560E+03  0.1560E+03
    -19.413  0.0000E+00  0.0000E+00  0.1560E+03  0.1560E+03
    -19.173  0.0000E+00  0.0000E+00  0.1560E+03  0.1560E+03
    -18.933  0.0000E+00  0.0000E+00  0.1560E+03  0.1560E+03
    -18.694  0.0000E+00  0.0000E+00  0.1560E+03  0.1560E+03
    -18.454  0.0000E+00  0.0000E+00  0.1560E+03  0.1560E+03
    -18.214  0.0000E+00  0.0000E+00  0.1560E+03  0.1560E+03
    -17.975  0.0000E+00  0.0000E+00  0.1560E+03  0.1560E+03
    -17.735  0.0000E+00  0.0000E+00  0.1560E+03  0.1560E+03
    -17.496  0.0000E+00  0.0000E+00  0.1560E+03  0.1560E+03
    -17.256  0.0000E+00  0.0000E+00  0.1560E+03  0.1560E+03
    -17.016  0.0000E+00  0.0000E+00  0.1560E+03  0.1560E+03
    -16.777  0.0000E+00  0.0000E+00  0.1560E+03  0.1560E+03
    -16.537  0.0000E+00  0.0000E+00  0.1560E+03  0.1560E+03
    -16.298  0.0000E+00  0.0000E+00  0.1560E+03  0.1560E+03
    -16.058  0.0000E+00  0.0000E+00  0.1560E+03  0.1560E+03
    -15.818  0.0000E+00  0.0000E+00  0.1560E+03  0.1560E+03
    -15.579  0.0000E+00  0.0000E+00  0.1560E+03  0.1560E+03
    -15.339  0.0000E+00  0.0000E+00  0.1560E+03  0.1560E+03
    -15.099  0.0000E+00  0.0000E+00  0.1560E+03  0.1560E+03
    -14.860  0.0000E+00  0.0000E+00  0.1560E+03  0.1560E+03
    -14.620  0.0000E+00  0.0000E+00  0.1560E+03  0.1560E+03
    -14.381  0.0000E+00  0.0000E+00  0.1560E+03  0.1560E+03
    -14.141  0.0000E+00  0.0000E+00  0.1560E+03  0.1560E+03
    -13.901  0.9997E-03  0.0000E+00  0.1560E+03  0.1560E+03
    -13.662  0.2191E+02  0.3676E-13  0.1612E+03  0.1560E+03
    -13.422  0.2796E+02  0.1634E+01  0.1679E+03  0.1564E+03
    -13.183  0.8646E+01  0.4435E+02  0.1700E+03  0.1670E+03
    -12.943  0.3151E+02  0.4740E+01  0.1776E+03  0.1682E+03
    -12.703  0.1014E+02  0.4182E+02  0.1800E+03  0.1782E+03
    -12.464  0.0000E+00  0.7622E+01  0.1800E+03  0.1800E+03
    -12.224  0.0000E+00  0.0000E+00  0.1800E+03  0.1800E+03
    -11.984  0.0000E+00  0.0000E+00  0.1800E+03  0.1800E+03
    -11.745  0.0000E+00  0.0000E+00  0.1800E+03  0.1800E+03
    -11.505  0.0000E+00  0.0000E+00  0.1800E+03  0.1800E+03
    -11.266  0.0000E+00  0.0000E+00  0.1800E+03  0.1800E+03
    -11.026  0.0000E+00  0.0000E+00  0.1800E+03  0.1800E+03
    -10.786  0.0000E+00  0.0000E+00  0.1800E+03  0.1800E+03
    -10.547  0.0000E+00  0.0000E+00  0.1800E+03  0.1800E+03
    -10.307  0.0000E+00  0.0000E+00  0.1800E+03  0.1800E+03
    -10.068  0.0000E+00  0.0000E+00  0.1800E+03  0.1800E+03
     -9.828  0.0000E+00  0.0000E+00  0.1800E+03  0.1800E+03
     -9.588  0.0000E+00  0.0000E+00  0.1800E+03  0.1800E+03
     -9.349  0.0000E+00  0.0000E+00  0.1800E+03  0.1800E+03
     -9.109  0.0000E+00  0.0000E+00  0.1800E+03  0.1800E+03
     -8.869  0.0000E+00  0.0000E+00  0.1800E+03  0.1800E+03
     -8.630  0.0000E+00  0.0000E+00  0.1800E+03  0.1800E+03
     -8.390  0.0000E+00  0.0000E+00  0.1800E+03  0.1800E+03
     -8.151  0.0000E+00  0.0000E+00  0.1800E+03  0.1800E+03
     -7.911  0.1988E-02  0.0000E+00  0.1800E+03  0.1800E+03
     -7.671  0.9298E+01  0.1520E-01  0.1822E+03  0.1800E+03
     -7.432  0.2300E+02  0.1187E+02  0.1877E+03  0.1828E+03
     -7.192  0.5548E+02  0.2838E+02  0.2010E+03  0.1896E+03
     -6.953  0.5836E+02  0.5974E+02  0.2150E+03  0.2040E+03
     -6.713  0.4113E+01  0.4680E+02  0.2160E+03  0.2152E+03
     -6.473  0.0000E+00  0.3432E+01  0.2160E+03  0.2160E+03
     -6.234  0.0000E+00  0.0000E+00  0.2160E+03  0.2160E+03
     -5.994  0.0000E+00  0.0000E+00  0.2160E+03  0.2160E+03
     -5.754  0.0000E+00  0.0000E+00  0.2160E+03  0.2160E+03
     -5.515  0.0000E+00  0.0000E+00  0.2160E+03  0.2160E+03
     -5.275  0.0000E+00  0.0000E+00  0.2160E+03  0.2160E+03
     -5.036  0.0000E+00  0.0000E+00  0.2160E+03  0.2160E+03
     -4.796  0.0000E+00  0.0000E+00  0.2160E+03  0.2160E+03
     -4.556  0.0000E+00  0.0000E+00  0.2160E+03  0.2160E+03
     -4.317  0.0000E+00  0.0000E+00  0.2160E+03  0.2160E+03
     -4.077  0.0000E+00  0.0000E+00  0.2160E+03  0.2160E+03
     -3.838  0.0000E+00  0.0000E+00  0.2160E+03  0.2160E+03
     -3.598  0.0000E+00  0.0000E+00  0.2160E+03  0.2160E+03
     -3.358  0.0000E+00  0.0000E+00  0.2160E+03  0.2160E+03
     -3.119  0.0000E+00  0.0000E+00  0.2160E+03  0.2160E+03
     -2.879  0.1254E-13  0.0000E+00  0.2160E+03  0.2160E+03
     -2.639  0.7928E+00  0.0000E+00  0.2162E+03  0.2160E+03
     -2.400  0.1034E+02  0.0000E+00  0.2187E+03  0.2160E+03
     -2.160  0.2039E+02  0.0000E+00  0.2236E+03  0.2160E+03
     -1.921  0.1944E+01  0.0000E+00  0.2240E+03  0.2160E+03
     -1.681  0.3447E+02  0.0000E+00  0.2323E+03  0.2160E+03
     -1.441  0.1941E+02  0.3346E-15  0.2369E+03  0.2160E+03
     -1.202  0.4426E+02  0.8194E-01  0.2475E+03  0.2160E+03
     -0.962  0.4950E+02  0.4404E+01  0.2594E+03  0.2171E+03
     -0.723  0.7492E+02  0.1404E+02  0.2773E+03  0.2204E+03
     -0.483  0.1032E+03  0.1529E+02  0.3021E+03  0.2241E+03
     -0.243  0.8551E+02  0.1948E+02  0.3226E+03  0.2288E+03
     -0.004  0.1105E+03  0.4128E+02  0.3490E+03  0.2387E+03
      0.236  0.6998E+02  0.3396E+02  0.3658E+03  0.2468E+03
      0.475  0.3834E+02  0.4205E+02  0.3750E+03  0.2569E+03
      0.715  0.4569E+02  0.3378E+02  0.3859E+03  0.2650E+03
      0.955  0.4868E+02  0.5285E+02  0.3976E+03  0.2776E+03
      1.194  0.5546E+02  0.6050E+02  0.4109E+03  0.2921E+03
      1.434  0.6422E+02  0.4442E+02  0.4263E+03  0.3028E+03
      1.674  0.1008E+03  0.4012E+02  0.4504E+03  0.3124E+03
      1.913  0.5269E+02  0.3842E+02  0.4631E+03  0.3216E+03
      2.153  0.3872E+02  0.3741E+02  0.4723E+03  0.3306E+03
      2.392  0.4653E+02  0.3826E+02  0.4835E+03  0.3397E+03
      2.632  0.4781E+02  0.4931E+02  0.4949E+03  0.3515E+03
      2.872  0.4356E+02  0.6294E+02  0.5054E+03  0.3666E+03
      3.111  0.4014E+02  0.5875E+02  0.5150E+03  0.3807E+03
      3.351  0.4738E+02  0.4809E+02  0.5263E+03  0.3922E+03
      3.590  0.5254E+02  0.2986E+02  0.5389E+03  0.3994E+03
      3.830  0.4545E+02  0.6120E+02  0.5498E+03  0.4140E+03
      4.070  0.3196E+02  0.7356E+02  0.5575E+03  0.4317E+03
      4.309  0.4246E+02  0.1394E+01  0.5677E+03  0.4320E+03
      4.549  0.2366E+02  0.0000E+00  0.5733E+03  0.4320E+03
      4.789  0.1026E+02  0.0000E+00  0.5758E+03  0.4320E+03
      5.028  0.9159E+00  0.0000E+00  0.5760E+03  0.4320E+03
      5.268  0.0000E+00  0.0000E+00  0.5760E+03  0.4320E+03
      5.507  0.0000E+00  0.0000E+00  0.5760E+03  0.4320E+03
      5.747  0.0000E+00  0.0000E+00  0.5760E+03  0.4320E+03
      5.987  0.0000E+00  0.4511E-11  0.5760E+03  0.4320E+03
      6.226  0.0000E+00  0.1423E+00  0.5760E+03  0.4320E+03
      6.466  0.0000E+00  0.8113E+01  0.5760E+03  0.4340E+03
      6.705  0.0000E+00  0.3021E+02  0.5760E+03  0.4412E+03
      6.945  0.6609E-12  0.4335E+02  0.5760E+03  0.4516E+03
      7.185  0.1058E+00  0.7313E+02  0.5760E+03  0.4691E+03
      7.424  0.1322E+00  0.8086E+02  0.5761E+03  0.4885E+03
      7.664  0.8896E+00  0.6537E+02  0.5763E+03  0.5042E+03
      7.904  0.3496E+01  0.8791E+02  0.5771E+03  0.5252E+03
      8.143  0.4267E+01  0.7133E+02  0.5781E+03  0.5423E+03
      8.383  0.7024E+01  0.5446E+02  0.5798E+03  0.5554E+03
      8.622  0.1635E+02  0.3719E+02  0.5837E+03  0.5643E+03
      8.862  0.2529E+02  0.3921E+02  0.5898E+03  0.5737E+03
      9.102  0.1924E+02  0.1940E+02  0.5944E+03  0.5783E+03
      9.341  0.2535E+02  0.1387E+02  0.6005E+03  0.5816E+03
      9.581  0.3123E+02  0.2058E+02  0.6080E+03  0.5866E+03
      9.820  0.2662E+02  0.2998E+02  0.6143E+03  0.5938E+03
     10.060  0.2966E+02  0.2655E+02  0.6214E+03  0.6001E+03
     10.300  0.2277E+02  0.3470E+02  0.6269E+03  0.6084E+03
     10.539  0.2041E+02  0.3548E+02  0.6318E+03  0.6169E+03
     10.779  0.2851E+02  0.2794E+02  0.6386E+03  0.6236E+03
     11.019  0.3896E+02  0.2246E+02  0.6480E+03  0.6290E+03
     11.258  0.3939E+02  0.2158E+02  0.6574E+03  0.6342E+03
     11.498  0.3729E+02  0.3230E+02  0.6663E+03  0.6419E+03
     11.737  0.4482E+02  0.3874E+02  0.6771E+03  0.6512E+03
     11.977  0.3853E+02  0.4258E+02  0.6863E+03  0.6614E+03
     12.217  0.3854E+02  0.5195E+02  0.6955E+03  0.6739E+03
     12.456  0.3989E+02  0.4682E+02  0.7051E+03  0.6851E+03
     12.696  0.3654E+02  0.3597E+02  0.7138E+03  0.6937E+03
     12.935  0.3440E+02  0.4126E+02  0.7221E+03  0.7036E+03
     13.175  0.2284E+02  0.3976E+02  0.7276E+03  0.7131E+03
     13.415  0.1828E+01  0.3420E+02  0.7280E+03  0.7213E+03
     13.654  0.0000E+00  0.2406E+02  0.7280E+03  0.7271E+03
     13.894  0.0000E+00  0.3858E+01  0.7280E+03  0.7280E+03
     14.134  0.0000E+00  0.3737E-05  0.7280E+03  0.7280E+03
     14.373  0.0000E+00  0.0000E+00  0.7280E+03  0.7280E+03
     14.613  0.0000E+00  0.0000E+00  0.7280E+03  0.7280E+03
     14.852  0.0000E+00  0.0000E+00  0.7280E+03  0.7280E+03
     15.092  0.0000E+00  0.0000E+00  0.7280E+03  0.7280E+03
     15.332  0.0000E+00  0.0000E+00  0.7280E+03  0.7280E+03
     15.571  0.0000E+00  0.0000E+00  0.7280E+03  0.7280E+03
     15.811  0.0000E+00  0.0000E+00  0.7280E+03  0.7280E+03
     16.050  0.0000E+00  0.0000E+00  0.7280E+03  0.7280E+03
     16.290  0.0000E+00  0.0000E+00  0.7280E+03  0.7280E+03
     16.530  0.0000E+00  0.0000E+00  0.7280E+03  0.7280E+03
     16.769  0.0000E+00  0.0000E+00  0.7280E+03  0.7280E+03
     17.009  0.0000E+00  0.0000E+00  0.7280E+03  0.7280E+03
