# epsilon and Z* of atoms 1 3 5 7 9
   5.59514476   -0.00056755    0.00000000   -0.00057883    5.47941427    0.00000000    0.00000000    0.00000000    4.87703640 
   0.93386385    0.00158867   -0.00006908    0.00156554    1.25919780   -0.01293155   -0.00012637   -0.00672849    1.30484651 
   1.29091454   -0.00101166   -0.00056883   -0.00101430    1.08232311   -0.11327224   -0.00062842   -0.12718075    1.46922587 
  -1.99881684   -0.00377717    0.00050946   -0.00378139   -2.77023148    0.10954415   -0.00044661   -0.08524289   -2.41498984 
  -2.40740330    0.00139906   -0.00011470    0.00139704   -2.12406934   -0.02633661   -0.00010994   -0.01801461   -1.92956240 
   2.18144177    0.00180111    0.00095914    0.00183310    2.55277992    0.19603956    0.00038100    0.07953853    1.57047985 