120  
30   

1    
  0.0099998802117292  -0.0000489464101604   0.0000000000000000
  -0.0632278200    0.0002122200   -0.0002889700
   0.0035829600   -0.0001164800   -0.0002493500
   0.0012799200    0.0000116400    0.0000544600
   0.0003223400   -0.0000527500   -0.0001098500
   0.0019621400   -0.0000178900   -0.0001128800
  -0.0003140400   -0.0000691100   -0.0000749300
   0.0003442800   -0.0000512500   -0.0001166400
   0.0019426300   -0.0000700700    0.0000321300
  -0.0003218100   -0.0000235500   -0.0002287300
   0.0000480700   -0.0000598400   -0.0001114100
   0.0020371500   -0.0000607600   -0.0000908300
  -0.0002319200   -0.0000306500   -0.0000980800
  -0.0000493500   -0.0000489700    0.0001043400
   0.0020735900   -0.0001332000   -0.0000235800
  -0.0002024800    0.0000447800    0.0002148100
  -0.0000521200   -0.0000531400    0.0001129000
   0.0020709700    0.0000182900   -0.0000386700
  -0.0001965200   -0.0001134400    0.0002400400
  -0.0002215100   -0.0000487200    0.0001080700
   0.0021515500   -0.0001833800    0.0001853400
  -0.0001223900    0.0000931900    0.0000117400
  -0.0002186400   -0.0000506000    0.0001065900
   0.0021380800    0.0000792700    0.0002034100
  -0.0001232400   -0.0001670100   -0.0000116000
   0.0029483300   -0.0044981200   -0.0026706900
   0.0001456200    0.0000950900   -0.0000506400
   0.0028975500    0.0046158600    0.0025204600
  -0.0003867100    0.0002795100   -0.0000032800
   0.0001796400    0.0001028700   -0.0000496500
  -0.0004448500   -0.0000879000   -0.0001079200
  -0.0003265600    0.0002148400    0.0000799300
   0.0000964900    0.0000946000   -0.0000531200
  -0.0003871200   -0.0000268800   -0.0001802100
  -0.0002037500    0.0001500800    0.0000378900
  -0.0001100600    0.0000908200   -0.0000540300
  -0.0002638600    0.0000396200   -0.0001445300
   0.0029104500    0.0032234000   -0.0041506100
   0.0001439800    0.0000861300    0.0000504800
   0.0027857100   -0.0030255500    0.0042261000
  -0.0003140500    0.0000546300    0.0001373800
   0.0000319900    0.0000999700    0.0000502200
  -0.0003736200    0.0001328600   -0.0000234300
  -0.0004227200   -0.0000294700    0.0003283500
   0.0002413700    0.0000983200    0.0000582300
  -0.0004773600    0.0002285600   -0.0002344000
  -0.0002064400    0.0000069400    0.0001245800
  -0.0001060900    0.0001022000    0.0000590400
  -0.0002729000    0.0001943800   -0.0000219700
   0.0166885200   -0.0003246500   -0.0023545400
  -0.0008373800   -0.0000158500    0.0001433300
   0.0150628000    0.0000777700    0.0026987000
   0.0004406400   -0.0001241100    0.0001431700
  -0.0005904200   -0.0000176500    0.0001377600
   0.0002050300    0.0000005600    0.0000594300
   0.0004716300   -0.0000637700   -0.0000516400
  -0.0005727300   -0.0000221900    0.0001485200
   0.0002214200   -0.0000300900    0.0002451100
   0.0000593700   -0.0000722500    0.0000692500
  -0.0001519200   -0.0000267100    0.0001432400
  -0.0001796700   -0.0000234300    0.0000934500
   0.0001431900    0.0001619100    0.0003064400
  -0.0003171700   -0.0000220100   -0.0001437200
  -0.0000920500   -0.0002509400   -0.0004732000
   0.0001601300   -0.0002690500    0.0002934200
  -0.0003396900   -0.0000294700   -0.0001286700
  -0.0000786400    0.0001693500   -0.0004641700
   0.0001568000    0.0007912900   -0.0005446700
  -0.0004610900   -0.0000393300   -0.0001598700
  -0.0000878000   -0.0008668800    0.0003912500
   0.0001497600   -0.0008220200   -0.0006649400
  -0.0004707400   -0.0000421500   -0.0001520900
  -0.0000920700    0.0007595500    0.0005183300
   0.0033738700   -0.0000777300   -0.0000742500
  -0.0007682800   -0.0000408300    0.0007192800
  -0.0007446100   -0.0000885700   -0.0008884300
  -0.0000801200   -0.0000628100   -0.0000868600
  -0.0002515800   -0.0000635000   -0.0000078400
  -0.0002179500   -0.0000605500   -0.0001699300
   0.0025397600   -0.0000813700   -0.0000889800
  -0.0013038300   -0.0000383200   -0.0011009500
  -0.0012783500   -0.0000874300    0.0009177400
   0.0000004400   -0.0000735000   -0.0000935500
  -0.0002817100   -0.0000711900   -0.0001253500
  -0.0002687700   -0.0000664200   -0.0000608900
   0.0033273300   -0.0000629600    0.0000900300
  -0.0009737200    0.0008485600    0.0000588200
  -0.0009710500   -0.0009645600    0.0001212000
   0.0026500800   -0.0000728500    0.0000893800
  -0.0011420500   -0.0010045500    0.0000788900
  -0.0010942500    0.0008802100    0.0001044200
  -0.0000712500   -0.0000563300    0.0000880100
  -0.0002466200   -0.0000002600    0.0000259300
  -0.0002260900   -0.0001189600    0.0001573800
  -0.0000854800   -0.0000619600    0.0000863000
  -0.0002469600   -0.0001045700    0.0000165300
  -0.0002328900   -0.0000220500    0.0001623900
  -0.0006446400   -0.0004335800   -0.0003781000
   0.0003853900    0.0000609500    0.0000449800
  -0.0008725900    0.0005410500    0.0004396800
   0.0027105900    0.0069089700    0.0054273100
   0.0005609000    0.0000573600    0.0000454300
   0.0023841600   -0.0067890800   -0.0053277000
  -0.0001664900    0.0000185000   -0.0000335900
  -0.0000933400    0.0000605200    0.0000281100
  -0.0003973000    0.0000881300    0.0001178900
  -0.0004118400   -0.0002481300   -0.0000634700
   0.0001279300    0.0000597900    0.0000347500
  -0.0006421100    0.0003527100    0.0001434800
  -0.0005129500    0.0003461800   -0.0003397500
   0.0002400300    0.0000629800   -0.0000413700
  -0.0007461100   -0.0002356500    0.0002536300
  -0.0001602400    0.0001358700   -0.0000904700
  -0.0000994700    0.0000658900   -0.0000473900
  -0.0003965000   -0.0000186700    0.0000006800
   0.0027958100   -0.0049224600    0.0072603100
   0.0005596600    0.0000533900   -0.0000325500
   0.0025867800    0.0049702300   -0.0073186500
  -0.0004500000    0.0003364200   -0.0004414200
   0.0002705000    0.0000553900   -0.0000312000
  -0.0006788800   -0.0002235200    0.0003297700

1    
 -0.0099998802117292   0.0000489464101604   0.0000000000000000
   0.0637984700   -0.0004151800   -0.0002785300
   0.0004854900   -0.0000010600    0.0000729600
  -0.0018197100   -0.0000718600   -0.0002325500
  -0.0000819400   -0.0000505100   -0.0000984400
   0.0020820800   -0.0000968100   -0.0000625400
  -0.0002018200    0.0000084500   -0.0000989900
  -0.0001228800   -0.0000518100   -0.0000980300
   0.0021006600   -0.0000502100   -0.0002154000
  -0.0001689700   -0.0000404700    0.0000517600
   0.0001780900   -0.0000517300   -0.0000969000
   0.0020079100   -0.0000603400   -0.0000897400
  -0.0002672600   -0.0000327700   -0.0000711900
   0.0002808100   -0.0000528700    0.0000969900
   0.0019782500    0.0000131000    0.0002051000
  -0.0003097100   -0.0001047100   -0.0000419300
   0.0002782800   -0.0000541300    0.0000959800
   0.0019705500   -0.0001413400    0.0002227500
  -0.0002993500    0.0000508300   -0.0000622200
   0.0004447600   -0.0000511500    0.0000955900
   0.0018998900    0.0000703800   -0.0000026800
  -0.0003681300   -0.0001510000    0.0001625700
   0.0004473200   -0.0000559600    0.0000967700
   0.0019012300   -0.0001977200   -0.0000242800
  -0.0003708900    0.0001064900    0.0001881900
  -0.0032152200    0.0046402400    0.0025065300
  -0.0005128900    0.0001014000   -0.0000560300
  -0.0033561600   -0.0044662400   -0.0026698400
   0.0000784600   -0.0000876600   -0.0001206200
  -0.0005466000    0.0001056700   -0.0000563400
   0.0000205000    0.0002765600   -0.0000145300
   0.0000196900   -0.0000256200   -0.0002112400
  -0.0004560300    0.0001028600   -0.0000599100
  -0.0000396200    0.0002217600    0.0000935800
  -0.0001009700    0.0000385100   -0.0001736600
  -0.0002509300    0.0000993300   -0.0000609600
  -0.0001643800    0.0001561300    0.0000497300
  -0.0031839900   -0.0029780200    0.0042182400
  -0.0005056300    0.0000969500    0.0000606300
  -0.0032468100    0.0032529500   -0.0041434900
   0.0000108200    0.0001420200   -0.0000179700
  -0.0003981300    0.0001013300    0.0000544300
  -0.0000543000    0.0000571500    0.0001461400
   0.0001175400    0.0002323400   -0.0002063300
  -0.0006120300    0.0001019000    0.0000626800
   0.0000545400   -0.0000345300    0.0003240400
  -0.0000978900    0.0001986600   -0.0000005900
  -0.0002578000    0.0000992400    0.0000663900
  -0.0001606500    0.0000052700    0.0001185500
  -0.0152221500    0.0002299500    0.0026364300
   0.0008242000   -0.0000381100    0.0001044100
  -0.0169408100   -0.0001808400   -0.0023822100
  -0.0004338500   -0.0000144800    0.0000016800
   0.0005661200   -0.0000305500    0.0001041800
  -0.0006717800   -0.0001304200    0.0001230200
  -0.0004528400   -0.0000730600    0.0001936900
   0.0005441000   -0.0000434100    0.0001099100
  -0.0006912800   -0.0000433700   -0.0000928000
  -0.0000371800   -0.0000763100    0.0000506000
   0.0001026100   -0.0000429200    0.0001154800
  -0.0002716300   -0.0000428200    0.0000356500
  -0.0001327700   -0.0002386300   -0.0003790800
   0.0002869100   -0.0000380000   -0.0001046600
  -0.0003670500    0.0001238200    0.0002899700
  -0.0001428200    0.0001840200   -0.0003721200
   0.0003033900   -0.0000435400   -0.0001001700
  -0.0003815700   -0.0003036700    0.0002829500
  -0.0001343400   -0.0008855200    0.0004615300
   0.0004189800   -0.0000542000   -0.0001180300
  -0.0003621300    0.0007945400   -0.0005226700
  -0.0001226200    0.0007312500    0.0005685700
   0.0004410300   -0.0000544800   -0.0001167100
  -0.0003725200   -0.0008198500   -0.0006399400
  -0.0037123900   -0.0000395300   -0.0000329600
   0.0004212700   -0.0000863000   -0.0008640600
   0.0004328700   -0.0000248000    0.0007569100
  -0.0002617700   -0.0000502800   -0.0000476500
  -0.0001132700   -0.0000702400   -0.0001342900
  -0.0000912400   -0.0000498500    0.0000336300
  -0.0028723800   -0.0000460000   -0.0000682100
   0.0009598900   -0.0000826000    0.0009603300
   0.0009578500   -0.0000382800   -0.0010688600
  -0.0003276400   -0.0000525500   -0.0000458600
  -0.0000612800   -0.0000463800   -0.0000159400
  -0.0000547400   -0.0000462900   -0.0000747500
  -0.0036613300   -0.0000049500    0.0000406400
   0.0006069000   -0.0009686000    0.0000881900
   0.0006630900    0.0008567000    0.0000227300
  -0.0029850200   -0.0000363300    0.0000553400
   0.0007868600    0.0008905300    0.0000614700
   0.0007752100   -0.0009989900    0.0000352400
  -0.0002608900   -0.0000620800    0.0000596600
  -0.0001021800   -0.0001104800    0.0001153400
  -0.0000991800   -0.0000079800   -0.0000051500
  -0.0002405600   -0.0000424900    0.0000474600
  -0.0001133900   -0.0000110700    0.0001235700
  -0.0000828400   -0.0001007100   -0.0000173200
   0.0004880700    0.0005431000    0.0004363200
  -0.0008493800    0.0000627200    0.0000456200
   0.0002442800   -0.0004459300   -0.0003753300
  -0.0028393300   -0.0067642600   -0.0053251000
  -0.0010261100    0.0000644500    0.0000486000
  -0.0030304800    0.0069376500    0.0054323600
   0.0000032700    0.0000948100    0.0001074600
  -0.0003688700    0.0000597800    0.0000364100
  -0.0002254400    0.0000058300   -0.0000153800
   0.0002562900    0.0003576100    0.0001206200
  -0.0005899700    0.0000606700    0.0000387100
   0.0000224600   -0.0002609200   -0.0000282700
   0.0003515800   -0.0002224700    0.0002307100
  -0.0007072300    0.0000615900   -0.0000442700
   0.0001252700    0.0003218300   -0.0003246200
   0.0000055500   -0.0000007800   -0.0000226600
  -0.0003704200    0.0000625900   -0.0000513200
  -0.0002259400    0.0001069600   -0.0000669600
  -0.0029262500    0.0050248600   -0.0073197100
  -0.0010189100    0.0000633400   -0.0000350200
  -0.0032305500   -0.0049276600    0.0072656400
   0.0002865300   -0.0002190300    0.0003341700
  -0.0007339000    0.0000555200   -0.0000329000
   0.0000610200    0.0003220900   -0.0004548900

1    
  0.0000488550452480   0.0099998806585156   0.0000000000000000
   0.0000371500   -0.0151662100    0.0001744700
   0.0020788900   -0.0002033300   -0.0000807300
  -0.0003052600   -0.0001754800   -0.0000769300
   0.0001380700    0.0026604100   -0.0001524300
   0.0019899500    0.0001005000   -0.0000659300
  -0.0002245800    0.0001266000   -0.0000641300
   0.0001142700    0.0001255800   -0.0000650400
   0.0020325100   -0.0000862300   -0.0000885700
  -0.0002552700   -0.0000604100   -0.0000828900
   0.0001188500   -0.0001311300   -0.0001030600
   0.0020236400   -0.0000329800   -0.0000845100
  -0.0002519400   -0.0000060400   -0.0000800700
   0.0001135000    0.0001915800    0.0014636200
   0.0019409400   -0.0000559100    0.0001534000
  -0.0001647100   -0.0000260000    0.0001492200
   0.0001177600    0.0001924700   -0.0011793000
   0.0021048900   -0.0000572300    0.0000107300
  -0.0003281900   -0.0000276000    0.0000049800
   0.0001169500   -0.0000347500   -0.0008889000
   0.0018844500   -0.0000686400    0.0000253500
  -0.0001087600   -0.0000392900    0.0000185900
   0.0001175200   -0.0000406700    0.0009992700
   0.0021477200   -0.0000736500    0.0001139300
  -0.0003728200   -0.0000427400    0.0001078300
  -0.0044945300    0.0014311500    0.0017146000
  -0.0001819500   -0.0000499900    0.0000486300
   0.0041462100    0.0013857000    0.0017171100
   0.0006937700    0.0006498400   -0.0005275300
  -0.0001786100    0.0002508000   -0.0001537800
  -0.0010504300    0.0006477500   -0.0005253600
  -0.0000469300   -0.0000762800   -0.0001757100
  -0.0001814200    0.0000457800   -0.0000651500
  -0.0003171300   -0.0000739500   -0.0001568600
  -0.0002084100    0.0002423200    0.0000280900
  -0.0001790700    0.0001609100   -0.0000755100
  -0.0001533000    0.0002376800    0.0000456100
   0.0030710900    0.0002149800   -0.0021764900
  -0.0001808800   -0.0000000700    0.0000010700
  -0.0034333000    0.0002415200   -0.0021776600
  -0.0006553900    0.0006073700    0.0005151100
  -0.0001804600    0.0002000000    0.0001255400
   0.0002949800    0.0006052400    0.0005030000
  -0.0001884400   -0.0000150400    0.0001897300
  -0.0001813300    0.0000645800    0.0000500600
  -0.0001756800   -0.0000182600    0.0001752300
  -0.0000991300    0.0002495700   -0.0000639400
  -0.0001813500    0.0001310900    0.0000636100
  -0.0002628400    0.0002492200   -0.0000824600
   0.0006478600    0.0058227000   -0.0000633200
  -0.0000129200    0.0003247800    0.0000567400
  -0.0008133100    0.0058210000   -0.0000228300
   0.0000418400   -0.0026676800    0.0001134200
  -0.0000181800   -0.0003748700    0.0000849500
  -0.0002871800   -0.0026813000    0.0001491000
  -0.0000426400   -0.0001089600    0.0000059900
  -0.0000154800    0.0000180800    0.0001067200
  -0.0001778700   -0.0000791700    0.0000080800
   0.0000147400   -0.0001344600    0.0000451300
  -0.0000176500   -0.0001172100    0.0001197600
  -0.0002316100   -0.0001078400    0.0000489400
   0.0003487000   -0.0000169300   -0.0009849400
  -0.0000109900   -0.0000036700   -0.0002254000
  -0.0005700000   -0.0000229700   -0.0010298800
  -0.0003076200   -0.0001828600    0.0008584100
  -0.0000151600   -0.0000679900    0.0000381300
   0.0000859600   -0.0002047300    0.0008059400
   0.0005830200    0.0000556000    0.0010250600
  -0.0000175300   -0.0000328000    0.0000471300
  -0.0007973900    0.0000743100    0.0010191200
  -0.0005496000   -0.0002102400   -0.0009286900
  -0.0000154800   -0.0000810500   -0.0002270100
   0.0003304800   -0.0001902300   -0.0009459700
  -0.0001522200    0.0024347800    0.0000419800
  -0.0002242800    0.0001252000   -0.0000197200
  -0.0001059200    0.0001331500   -0.0000133800
  -0.0001774000   -0.0007863800   -0.0001299700
  -0.0001552300   -0.0002147000   -0.0000716000
  -0.0001750900   -0.0002042000   -0.0000605200
  -0.0001497300    0.0016788200   -0.0002278600
  -0.0001633100    0.0002503200   -0.0000635200
  -0.0001697400    0.0002506000   -0.0000623100
  -0.0001693600   -0.0013962200    0.0000058700
  -0.0001460600   -0.0003709100   -0.0000348400
  -0.0001865900   -0.0003736400   -0.0000390800
  -0.0001765100   -0.0021779600    0.0015361000
   0.0002622100    0.0000562400    0.0000604700
  -0.0005955200    0.0000636400    0.0000555100
  -0.0001867600   -0.0039442800   -0.0014284800
  -0.0006081600   -0.0000518300    0.0000419500
   0.0002746800   -0.0000507800    0.0000387400
  -0.0001566200    0.0001572700    0.0001276400
  -0.0001132700   -0.0000201800    0.0000682800
  -0.0002269900   -0.0000204000    0.0000708300
  -0.0001623700    0.0000528500   -0.0000271200
  -0.0002382100   -0.0000530900    0.0000452700
  -0.0000949200   -0.0000634500    0.0000471100
  -0.0019360100    0.0012875600   -0.0008795000
  -0.0002308100    0.0003247500   -0.0001019900
   0.0015577600    0.0012604400   -0.0008804000
   0.0049696000    0.0005722700    0.0029521600
  -0.0002343500   -0.0002122300    0.0002160600
  -0.0053489000    0.0006037900    0.0029361500
  -0.0000087900    0.0002205500    0.0002501800
  -0.0002324600    0.0001285800    0.0000498300
  -0.0003679900    0.0002098400    0.0002713100
  -0.0002604600   -0.0001408000   -0.0001256700
  -0.0002329300   -0.0000192400    0.0000189600
  -0.0001166200   -0.0001501800   -0.0001001400
   0.0000774500   -0.0002092500    0.0002190200
  -0.0002353500   -0.0000703900   -0.0000460900
  -0.0004568700   -0.0002242000    0.0002374700
  -0.0001181100    0.0003124000   -0.0002193600
  -0.0002355600    0.0001644300   -0.0000562800
  -0.0002542000    0.0002882800   -0.0001944400
  -0.0035122100   -0.0009140500   -0.0024015900
  -0.0002318100   -0.0002054800   -0.0001627100
   0.0031167900   -0.0009634300   -0.0024228000
   0.0010386400    0.0013399700    0.0005319600
  -0.0002299600    0.0002965800    0.0001108100
  -0.0014125000    0.0013426700    0.0005253300

1    
 -0.0000488550452480  -0.0099998806585156   0.0000000000000000
   0.0001871900    0.0152587000   -0.0003757800
   0.0019754900    0.0000863800   -0.0000932700
  -0.0001991900    0.0001154800   -0.0000887700
   0.0001023500   -0.0027565400   -0.0000498600
   0.0020665500   -0.0002175700   -0.0001067100
  -0.0002956500   -0.0001890200   -0.0001032500
   0.0001094100   -0.0002286300   -0.0001332300
   0.0020173300   -0.0000287300   -0.0000846000
  -0.0002390400   -0.0000004000   -0.0000810300
   0.0001131400    0.0000266400   -0.0000943200
   0.0020229200   -0.0000872600   -0.0000875300
  -0.0002477000   -0.0000591500   -0.0000839400
   0.0001136100   -0.0002956700   -0.0012753100
   0.0021066600   -0.0000620800    0.0000188300
  -0.0003328000   -0.0000327400    0.0000154000
   0.0001146500   -0.0002973600    0.0013669700
   0.0019506300   -0.0000631200    0.0001602800
  -0.0001777300   -0.0000331800    0.0001580400
   0.0001134700   -0.0000662800    0.0011002300
   0.0021641900   -0.0000459000    0.0001467600
  -0.0003862900   -0.0000153800    0.0001430100
   0.0001124100   -0.0000698600   -0.0007937400
   0.0019011200   -0.0000457500    0.0000610600
  -0.0001236600   -0.0000181800    0.0000568600
   0.0042394200   -0.0012335400   -0.0018520900
  -0.0001810500    0.0002472800   -0.0001524000
  -0.0046148100   -0.0011954000   -0.0018508900
  -0.0009841100   -0.0004507300    0.0004074000
  -0.0001838200   -0.0000504700    0.0000599100
   0.0006151000   -0.0004609900    0.0004100800
  -0.0002541400    0.0002698000    0.0000462800
  -0.0001816600    0.0001495700   -0.0000453400
  -0.0001087600    0.0002717500    0.0000647800
  -0.0000909900   -0.0000491500   -0.0001478700
  -0.0001809400    0.0000353400   -0.0000301400
  -0.0002746900   -0.0000521600   -0.0001288700
  -0.0033530300   -0.0000360100    0.0022806300
  -0.0001812300    0.0001845000    0.0000976700
   0.0029899000   -0.0000694700    0.0022836700
   0.0003606400   -0.0004052000   -0.0003964500
  -0.0001817700   -0.0000048800   -0.0000244500
  -0.0007297400   -0.0004054100   -0.0004098100
  -0.0001139800    0.0002100600   -0.0000663700
  -0.0001814900    0.0001281200    0.0000581500
  -0.0002493300    0.0002026800   -0.0000858200
  -0.0001993500   -0.0000451900    0.0001820700
  -0.0001824900    0.0000649500    0.0000428300
  -0.0001697000   -0.0000468500    0.0001663700
  -0.0007476700   -0.0059455300    0.0001999400
  -0.0000163600   -0.0003803500    0.0001957700
   0.0004670500   -0.0059565600    0.0002420700
  -0.0000354700    0.0025422900    0.0000154000
  -0.0000145200    0.0003332900    0.0001868600
  -0.0001628100    0.0025308200    0.0000575100
   0.0000615800   -0.0000230600    0.0001217800
  -0.0000153600   -0.0000953600    0.0001696200
  -0.0002838300   -0.0000033700    0.0001337600
  -0.0000034100    0.0000017900    0.0000917800
  -0.0000111200    0.0000327500    0.0001711000
  -0.0002221400    0.0000292500    0.0001086700
  -0.0003375600   -0.0000899100    0.0008932300
  -0.0000112000   -0.0000480300   -0.0000274900
   0.0001121700   -0.0000945500    0.0008368100
   0.0003169600    0.0001003400   -0.0009331600
  -0.0000071100    0.0000078000   -0.0003101500
  -0.0005437800    0.0000882800   -0.0009834500
  -0.0005745800   -0.0001431500   -0.0011384900
  -0.0000059400   -0.0000445600   -0.0003365700
   0.0003445500   -0.0001319800   -0.0011523500
   0.0005689600    0.0001108100    0.0008298100
  -0.0000089000    0.0000050400   -0.0000571500
  -0.0007918800    0.0001428800    0.0008033500
  -0.0001779700   -0.0025400200   -0.0001563400
  -0.0001238400   -0.0002454600   -0.0001111400
  -0.0002112500   -0.0002365100   -0.0001057000
  -0.0001613200    0.0006772300    0.0000100400
  -0.0001958400    0.0000902600   -0.0000582700
  -0.0001422200    0.0000963600   -0.0000584000
  -0.0001709100   -0.0018001800    0.0001045200
  -0.0001864800   -0.0003620900   -0.0000624800
  -0.0001521700   -0.0003656700   -0.0000653000
  -0.0001555900    0.0012758400   -0.0001413300
  -0.0002028900    0.0002576700   -0.0000959300
  -0.0001264900    0.0002551600   -0.0000929000
  -0.0001591600    0.0018806700   -0.0014019100
  -0.0006165900   -0.0001705800    0.0000708000
   0.0002788300   -0.0001732600    0.0000707100
  -0.0001481200    0.0039007900    0.0015373100
   0.0002565900   -0.0000589300    0.0000897500
  -0.0005923000   -0.0000498100    0.0000866700
  -0.0001688900   -0.0002709900    0.0000002100
  -0.0002355200   -0.0000878600    0.0000581600
  -0.0000974500   -0.0000929800    0.0000568300
  -0.0001641300   -0.0001501900    0.0001521800
  -0.0001094100   -0.0000481600    0.0000792500
  -0.0002243100   -0.0000507500    0.0000775400
   0.0017980900   -0.0011850300    0.0009577400
  -0.0002398300   -0.0002122500    0.0001980000
  -0.0021772000   -0.0011779800    0.0009570900
  -0.0050776800   -0.0004872800   -0.0028468400
  -0.0002370300    0.0003231000   -0.0001165900
   0.0047071500   -0.0005563000   -0.0028592600
  -0.0001407900   -0.0001138100   -0.0001761700
  -0.0002373500   -0.0000223600    0.0000197200
  -0.0002319100   -0.0001242600   -0.0001568100
   0.0001090200    0.0002326900    0.0001912500
  -0.0002367600    0.0001281900    0.0000648300
  -0.0004765700    0.0002224600    0.0002140500
  -0.0002302300    0.0003262100   -0.0003332400
  -0.0002375100    0.0001885300   -0.0000471100
  -0.0001361700    0.0003079000   -0.0003178900
  -0.0000268800   -0.0001938400    0.0000982000
  -0.0002389500   -0.0000562400   -0.0000382200
  -0.0003445600   -0.0002142300    0.0001169900
   0.0033624600    0.0010626300    0.0022995500
  -0.0002358900    0.0003162600    0.0000957200
  -0.0037210700    0.0010814500    0.0022839500
  -0.0011783300   -0.0012328400   -0.0006305200
  -0.0002384000   -0.0001920900   -0.0001827800
   0.0007992200   -0.0012533300   -0.0006400600

1    
  0.0000000000000000   0.0000000000000000   0.0100000000000000
   0.0001448600    0.0002139300   -0.0174790800
   0.0021730700   -0.0000552200   -0.0004378300
  -0.0003771600   -0.0000153900   -0.0004458400
   0.0000237300   -0.0000972900   -0.0001489900
   0.0020531200   -0.0000508400   -0.0002953700
  -0.0002059700   -0.0000054600   -0.0003053300
   0.0001029200   -0.0000306300    0.0026841400
   0.0019460200   -0.0000842100    0.0000027300
  -0.0001585000   -0.0000225300    0.0000040400
   0.0000450300   -0.0000904000   -0.0002434600
   0.0020412700   -0.0000671000   -0.0001736100
  -0.0002314800   -0.0000314200   -0.0001203700
   0.0001235100    0.0012241200    0.0000644900
   0.0019115600    0.0000250100    0.0000698700
  -0.0001430400    0.0000427200    0.0000679000
   0.0001304700   -0.0014328300    0.0000396500
   0.0019272100   -0.0001667800    0.0000773100
  -0.0001512200   -0.0000859200    0.0000638800
   0.0001206400   -0.0009542400    0.0004895200
   0.0021739500   -0.0001191400    0.0003434700
  -0.0003535600   -0.0000952900    0.0003328900
   0.0000817700    0.0009710700    0.0004899700
   0.0021480400    0.0000128100    0.0003317300
  -0.0003388600    0.0000230800    0.0003167800
  -0.0028513000    0.0020301800   -0.0008176200
  -0.0001856500    0.0001236100   -0.0002896700
   0.0025192000    0.0020155800   -0.0008167300
  -0.0000290800   -0.0000624000   -0.0003868200
  -0.0001846300    0.0000767300   -0.0002009600
  -0.0003350600    0.0000128900   -0.0003444800
   0.0002878800   -0.0003145500    0.0006893000
  -0.0001938200   -0.0000745200    0.0001829000
  -0.0006516600   -0.0003101900    0.0006812000
  -0.0002429800    0.0000587000    0.0002364500
  -0.0001861500   -0.0000313500    0.0001146100
  -0.0001017300    0.0000752600    0.0002648300
  -0.0041437800   -0.0019970800    0.0004467600
  -0.0001671900   -0.0001079300   -0.0002952900
   0.0037404300   -0.0020309900    0.0004660000
  -0.0000210300    0.0000677500   -0.0003338600
  -0.0001702600   -0.0000063500   -0.0001930300
  -0.0003441700    0.0000178000   -0.0002776500
   0.0007190300    0.0004648900    0.0007478100
  -0.0001617700    0.0001499200    0.0002638500
  -0.0010904100    0.0004751700    0.0007068800
  -0.0002008600   -0.0000073800    0.0002392500
  -0.0001861900    0.0000762400    0.0001486700
  -0.0001626700   -0.0000231300    0.0002677800
   0.0021228000    0.0001208100    0.0065939600
  -0.0000708200    0.0001829300    0.0010509700
  -0.0022432400    0.0000787400    0.0066682100
  -0.0001054500    0.0002271500    0.0005604900
  -0.0000534100    0.0001848500    0.0008609900
  -0.0000559600    0.0001325900    0.0007950700
   0.0005172000    0.0000272900   -0.0018357700
  -0.0000741100    0.0000893200    0.0004585200
  -0.0006790600    0.0000341300   -0.0018778400
   0.0001121700    0.0000251400    0.0005501300
   0.0000217400    0.0000342500    0.0007430100
  -0.0003569600    0.0000966500    0.0006197000
   0.0005384100   -0.0010923800   -0.0005080700
  -0.0000666700    0.0000033000   -0.0006012100
  -0.0007021000   -0.0010366900   -0.0005636800
   0.0005365900    0.0011514200   -0.0004493000
  -0.0000091000    0.0002710300   -0.0006539000
  -0.0007197900    0.0011384000   -0.0005588600
  -0.0003174000    0.0011736300   -0.0009453600
  -0.0000384300    0.0003452600   -0.0009722800
   0.0001503000    0.0012304700   -0.0009000400
  -0.0003096000   -0.0007909600   -0.0008833200
  -0.0000315300    0.0000176500   -0.0009569900
   0.0001441200   -0.0007341000   -0.0010081700
  -0.0001156100   -0.0003052000   -0.0007925900
   0.0003304400   -0.0001584500   -0.0000720100
  -0.0007021000   -0.0001066000   -0.0000936500
  -0.0001159500   -0.0001280600    0.0000335300
  -0.0000786700   -0.0001548000   -0.0001293500
  -0.0002945200   -0.0001837500   -0.0001842900
  -0.0001345800   -0.0002244200   -0.0040090600
  -0.0006281700   -0.0001748600   -0.0003789100
   0.0002604000   -0.0001654900   -0.0003871200
  -0.0001381700   -0.0001950800   -0.0003612900
  -0.0002736500   -0.0001615200   -0.0003742700
  -0.0000841700   -0.0001595400   -0.0003966300
  -0.0001672600    0.0000968600    0.0024001700
  -0.0003330100   -0.0000410700    0.0004997300
   0.0000203300   -0.0000748500    0.0004898200
  -0.0001444100   -0.0004437200    0.0021099100
  -0.0004018200   -0.0003055700    0.0004618400
   0.0000431800   -0.0002846500    0.0004789300
  -0.0001352300   -0.0004552000   -0.0007445500
  -0.0000326300   -0.0002499200    0.0000021800
  -0.0003319200   -0.0002751800   -0.0000136200
  -0.0001400800    0.0002291700   -0.0007357400
  -0.0000218200   -0.0000266700    0.0000181900
  -0.0003396900   -0.0000260100    0.0000313000
  -0.0000411700   -0.0003628900    0.0000916800
  -0.0001951900    0.0000262400    0.0001199800
  -0.0003971700   -0.0004102900    0.0000631300
   0.0037169000    0.0028906800    0.0005429400
  -0.0001792500    0.0001383900   -0.0000147500
  -0.0041691400    0.0029124800    0.0005260600
  -0.0001242800    0.0004434900    0.0001991200
  -0.0001971500    0.0001116900   -0.0000103500
  -0.0003178600    0.0004156300    0.0002234400
  -0.0014283900   -0.0009611800    0.0008990500
  -0.0001975400   -0.0000527800    0.0001485300
   0.0009691300   -0.0009960200    0.0009567500
  -0.0020809600    0.0012680100    0.0009335300
  -0.0001849600    0.0002227600    0.0001316800
   0.0016331900    0.0012272200    0.0009664800
  -0.0000935100   -0.0002536300    0.0000680600
  -0.0001884800    0.0000112500   -0.0000526900
  -0.0003764200   -0.0002649700    0.0000957000
   0.0053647200   -0.0028613100    0.0016350000
  -0.0001805200   -0.0001052900   -0.0001758800
  -0.0058791800   -0.0028263700    0.0016156300
  -0.0001989700    0.0002873900   -0.0001033600
  -0.0001881900    0.0001168800    0.0000115500
  -0.0002597100    0.0002994500   -0.0001386900

1    
  0.0000000000000000   0.0000000000000000  -0.0100000000000000
   0.0001149500   -0.0003299800    0.0181213600
   0.0018649400   -0.0000564700    0.0001120300
  -0.0000889000   -0.0000265200    0.0001156500
   0.0001051500    0.0000097000   -0.0001868000
   0.0020103800   -0.0000729400   -0.0000167700
  -0.0002273500   -0.0000396700   -0.0000147100
   0.0001123400   -0.0000762100   -0.0029315700
   0.0021634700   -0.0000511700   -0.0003495500
  -0.0003844600   -0.0000163300   -0.0003445500
   0.0001074600   -0.0000443400   -0.0001553500
   0.0020358900   -0.0000515700   -0.0002141800
  -0.0002551600   -0.0000231600   -0.0002039200
   0.0001079600   -0.0013183500    0.0002912200
   0.0021642100   -0.0001249400    0.0002666000
  -0.0003895800   -0.0000964800    0.0002638600
   0.0001261000    0.0013336300    0.0002871500