 120  120
1 1
     6.351275422331923    -0.023923675007002     0.000387329959437
    -0.023527465594293     1.521380535603642    -0.027514720667030
    -0.001495500000000    -0.027195500000000     1.780022000000000
1 2
    -0.154896957017179     0.005841832450711     0.016112238735986
    -0.004413302884627     0.014457132234691    -0.000705724837474
    -0.015406500000000    -0.000062500000000     0.027493000000000
1 3
    -0.154953691705612    -0.004103742937600    -0.014353226367083
     0.006060599290053     0.014568222714023    -0.000521883475873
     0.014413000000000    -0.000556500000000     0.028074500000000
1 4
    -0.020222500592822    -0.001213702619266     0.000595595358044
    -0.001687223017421    -0.270844802752442     0.005125651386468
     0.004071000000000     0.005349500000000    -0.001890500000000
1 5
     0.006015674906254    -0.004023794831417     0.002506989788821
     0.003800655750616    -0.015884031294532    -0.002051272390146
    -0.002137000000000    -0.001105000000000     0.013930000000000
1 6
     0.005593539930876     0.003800711389657    -0.001212559561097
    -0.003580869999276    -0.015799756949336    -0.001950099307552
    -0.001069000000000    -0.001710500000000     0.014531000000000
1 7
    -0.023358910640902    -0.000114686205563     0.000913800616769
    -0.000128881474460    -0.017710151055595    -0.003414005120292
     0.000471000000000    -0.002279000000000    -0.280785500000000
1 8
     0.007897690670125     0.001007060242354    -0.012375380711287
    -0.000797593722106     0.002870114254999     0.000258963068965
     0.010872500000000     0.001652000000000    -0.017614000000000
1 9
     0.007645880800741    -0.000831303533376     0.014024787831735
     0.000774155253636     0.003004597194483     0.000024482127762
    -0.011298000000000     0.000310000000000    -0.017429500000000
1 10
     0.006499524996362     0.000444106536376     0.000727630299930
    -0.000317257244974     0.007886424433267     0.000433450331738
     0.003121500000000     0.002303000000000     0.004405500000000
1 11
    -0.001462158759413     0.000007715693666     0.000053760258798
    -0.000028856961148    -0.002714070085172    -0.000151264451200
    -0.000269000000000     0.000776500000000    -0.002028500000000
1 12
    -0.001765941248538    -0.000118996454203     0.001343536841557
     0.000220630146993    -0.002654950326856    -0.000200066242939
    -0.001184000000000     0.000413000000000    -0.004177500000000
1 13
     0.016507829912292    -0.000314243364607    -0.001037799570146
    -0.000075149974582    -0.024361255493460    -0.136943064124359
    -0.000777500000000    -0.127123500000000     0.011336500000000
1 14
    -0.004726386114653     0.007313402705256     0.011400929953346
     0.008309189943855    -0.000344233770145    -0.006784280259482
     0.012632500000000    -0.007497500000000     0.009836500000000
1 15
    -0.005402573025708    -0.007476060292542    -0.012869596844912
    -0.008378205691788    -0.000300479259577    -0.006628204628360
    -0.012327000000000    -0.006960000000000     0.009798000000000
1 16
     0.016519041731879    -0.000169376509711    -0.000222836024725
    -0.000236206672052    -0.024490964789105     0.127316108075740
    -0.000218500000000     0.138323000000000     0.012375000000000
1 17
    -0.005058692445008    -0.007982846219707     0.013107443687490
    -0.007688377489409    -0.000255502817881     0.007413551998986
     0.011271500000000     0.008967500000000     0.009475000000000
1 18
    -0.005104616256425     0.008212036374371    -0.015075360952148
     0.007548028705113    -0.000319123749335     0.007726742956242
    -0.011352000000000     0.006708500000000     0.009926000000000
1 19
     0.033312250765599    -0.000129214951568    -0.000137188688886
    -0.000336751170685    -0.001575887526645     0.099458357186759
    -0.000052500000000     0.089734500000000    -0.033302000000000
1 20
    -0.012514388489241     0.012693413786890    -0.009371174889174
     0.014048306756167     0.001074999098708     0.006116355910823
    -0.012411000000000     0.004656000000000    -0.017451000000000
1 21
    -0.012354773851693    -0.012203502747189     0.007571859560696
    -0.013816305582286     0.001255135246860     0.006184081447601
     0.010555500000000     0.004734500000000    -0.017207000000000
1 22
     0.033296352037335    -0.000275140530223    -0.000929801154780
    -0.000418174469094    -0.001458173201750    -0.089647027313182
     0.001109000000000    -0.100108000000000    -0.033250000000000
1 23
    -0.011902709594072    -0.013842506694371    -0.011397303119689
    -0.012271995714239     0.001462645084513    -0.002587849307816
    -0.010260000000000    -0.006204000000000    -0.016922500000000
1 24
    -0.012321374788143     0.013680847420259     0.009976906791611
     0.012518345528073     0.001161176015672    -0.002597273219518
     0.008825000000000    -0.005488000000000    -0.016483500000000
1 25
    -0.306036344681640     0.456260412043353     0.257985027366893
     0.438197871465138    -0.135465178969077    -0.179597030356150
     0.270901000000000    -0.198946000000000     0.079683500000000
1 26
    -0.032924886804724     0.000388247731534    -0.000318695267933
     0.000205857140193     0.014861780576646    -0.010050062951770
     0.000040000000000    -0.007106000000000     0.025001000000000
1 27
    -0.314825870769682    -0.454731258558824    -0.260385106877595
    -0.436518126255947    -0.126834922045532    -0.177130001277889
    -0.273471000000000    -0.197314000000000     0.079393000000000
1 28
     0.022847591417163    -0.018627625660864    -0.005638122646330
    -0.084006624558777    -0.054938150290588     0.046774603288759
    -0.011910000000000     0.010529000000000     0.033509500000000
1 29
    -0.036312841702702     0.000066267904277    -0.000282199216103
    -0.000083094439215    -0.015064003528200     0.010686006213932
     0.000135000000000    -0.001649500000000     0.017955000000000
1 30
     0.023674830895761     0.017951438310756     0.004898376423300
     0.083161828972146    -0.055525364481036     0.046748626864872
     0.012013000000000     0.007309500000000     0.031737000000000
1 31
     0.017261582462529    -0.011938159648090    -0.014503998189348
    -0.010444956190883     0.017362531140002     0.011170492659099
    -0.043147000000000     0.034684000000000    -0.074614500000000
1 32
    -0.027625729044060     0.000438395810768    -0.000334647806444
     0.000122967091753     0.005187420122725     0.000992146763799
     0.000621500000000     0.013544500000000    -0.023969000000000
1 33
     0.017425787462324     0.012516455505151     0.013743579039788
     0.010333489557903     0.017224056354440     0.011014987136906
     0.043304000000000     0.034176000000000    -0.073443000000000
1 34
     0.005167675108032    -0.005649765476436    -0.010620436818647
     0.005845823064797    -0.014546071640179    -0.008746218186533
     0.008428000000000     0.000840000000000    -0.029240500000000
1 35
    -0.007043873591054     0.000394763918417    -0.000335392371687
    -0.000059087828862    -0.006280503573372     0.002270165653443
     0.000278000000000     0.008604500000000    -0.017785000000000
1 36
     0.004944232616105     0.005754497340254     0.009670183235796
    -0.006093727794270    -0.014520286910053    -0.008771348402528
    -0.009279500000000     0.000138000000000    -0.029707000000000
1 37
    -0.306290551477398    -0.310128724877032     0.419528306380869
    -0.319713431632406    -0.011034496398662     0.220809027728610
     0.401008500000000     0.207764500000000    -0.041630500000000
1 38
    -0.032480198030465     0.000586163738267     0.000531135059549
     0.000141183839353     0.009225746395831     0.004827462748920
    -0.000655000000000     0.017650000000000     0.032109500000000
1 39
    -0.300050437454354     0.313845144365070    -0.417382675380743
     0.322629748081155    -0.017082995743888     0.225108311425148
    -0.398085000000000     0.211127000000000    -0.042518500000000
1 40
     0.016491961253924     0.004121639521230    -0.007990495250064
     0.050721533766984    -0.050649240744088    -0.045539505874523
    -0.013506500000000    -0.000209500000000     0.037922000000000
1 41
    -0.021506063944088     0.000017858485910     0.000173790127569
     0.000039568444925    -0.010244209503631    -0.007500438563802
    -0.000445000000000     0.006670500000000     0.021696500000000
1 42
     0.015715027632944    -0.004032793270592     0.008255004953375
    -0.051313388220200    -0.050513400604650    -0.045681375032363
     0.013400500000000     0.001907500000000     0.035217500000000
1 43
     0.027030900372479     0.013145432961214    -0.026796356831804
     0.003590983269248     0.011190911481786    -0.012674237533682
    -0.085012000000000    -0.038569000000000    -0.071480000000000
1 44
    -0.042669529928795     0.000194548138303     0.000224477226952
     0.000200464573912     0.003176087438089     0.000403408129825
    -0.000835500000000    -0.009070500000000    -0.023946000000000
1 45
     0.026576658096890    -0.013100271913487     0.027857779474008
    -0.003812385880965     0.011111134039632    -0.013188756704251
     0.085069000000000    -0.039622000000000    -0.070546000000000
1 46
     0.005402908181503     0.009513748380356    -0.006198218778573
    -0.005037456050116    -0.014784655903038     0.012330928585021
     0.005633000000000     0.008067000000000    -0.023027500000000
1 47
    -0.007585688468371    -0.000164184811593     0.000362410082200
    -0.000019940322635    -0.003306237331487    -0.001040782976955
     0.000259500000000    -0.000910500000000    -0.013729500000000
1 48
     0.005635227363039    -0.009527844975338     0.007086812827170
     0.004629524320650    -0.014757127784015     0.012407025411149
    -0.005665000000000     0.008625000000000    -0.025015500000000
1 49
    -1.595855989651824     0.024849606004894     0.249609950021269
    -0.061980678028246    -0.588539926585423     0.011943671997292
    -0.218199000000000    -0.006689500000000    -0.611966000000000
1 50
     0.083077166648094    -0.001285554628328    -0.001911951679204
    -0.000577880770081    -0.035250640103418     0.006960923921279
     0.002511500000000    -0.010879500000000    -0.062375000000000
1 51
    -1.599848058146583    -0.015812692098395    -0.253977638673634
     0.071834922215686    -0.588807773940581     0.014485981780794
     0.213897000000000    -0.006441500000000    -0.613303000000000
1 52
    -0.043742898422000     0.006756481225963    -0.007098404207783
    -0.003651837453402     0.260468599651331    -0.004866378790211
     0.014178000000000    -0.017383000000000    -0.023101000000000
1 53
     0.057827205605717    -0.000471682853398    -0.001654039319337
    -0.000099516262285     0.035410727005587     0.005103641724197
     0.001879000000000    -0.008560000000000    -0.038865000000000
1 54
    -0.043809539477635    -0.005273349026857     0.003157047046974
     0.006432608471052     0.260634873425800    -0.004594978604790
    -0.017194000000000    -0.013948500000000    -0.031221500000000
1 55
    -0.046197442389483    -0.000443471973443     0.012294691134444
     0.005436762696961     0.004297217867969     0.005729502607566
    -0.048384500000000    -0.000762000000000     0.223471500000000
1 56
     0.055840862949426    -0.001088749741757    -0.001915083315211
    -0.000266813972805    -0.005666748536028     0.003154393793206
     0.002678000000000    -0.005112500000000     0.007200000000000
1 57
    -0.045660387195144    -0.000645441386302    -0.016864540443154
    -0.005074986537397     0.003793198575408     0.006366467767015
     0.045683500000000    -0.000170500000000     0.225503000000000
1 58
    -0.004831884274822    -0.000169652835453    -0.000921072121275
    -0.000883904356158     0.006813410151943     0.002337027792453
    -0.008055000000000    -0.002593500000000    -0.014422000000000
1 59
     0.012727946220883    -0.000773790309067    -0.001375418891971
     0.000264320715589     0.007501869884485     0.002573750330739
    -0.001474500000000    -0.002618500000000    -0.019662500000000
1 60
    -0.004595627514456    -0.000935938113038    -0.002875347665037
     0.000495957877851     0.006859154388053     0.003000583333435
     0.009003500000000    -0.004519000000000    -0.016759500000000
1 61
    -0.013965785150386    -0.020044621540713    -0.033815942550685
    -0.034245178780502    -0.003551114290290     0.094074830643335
    -0.048208500000000     0.110550000000000     0.010992500000000
1 62
     0.030203588148510    -0.000810346772456     0.002001411612866
    -0.000158061652896    -0.002214067470186     0.009885840073592
     0.002499000000000     0.008088000000000     0.011119000000000
1 63
    -0.013582887042930     0.018720258458511     0.038614883484319
     0.034175267108819    -0.003670501711717     0.093146958441642
     0.046184000000000     0.107868500000000     0.010618500000000
1 64
    -0.014994464483822     0.022722537767504    -0.033715057469004
     0.031302629094305     0.014049156603642    -0.089414852024298
    -0.049945500000000    -0.111042500000000     0.007494500000000
1 65
     0.032155586363742    -0.000684943362225     0.001339747715241
     0.000245406666042     0.003792891558826    -0.017420753245380
    -0.000230000000000    -0.021369500000000     0.012461000000000
1 66
    -0.015300436801731    -0.023579008808234     0.036917633105107
    -0.031412624529698     0.014765871572326    -0.089650931171100
     0.047689500000000    -0.111529000000000     0.009789500000000
1 67
    -0.014840128097229    -0.083888139933625     0.049779909566557
    -0.057808188378534    -0.009527777818692    -0.108421993897601
     0.038618000000000    -0.110320000000000     0.057636500000000
1 68
     0.044005811302004    -0.000746369175909     0.001998071345952
     0.000364513759928    -0.000584360583860    -0.019194990662469
     0.001001000000000    -0.025404000000000     0.047226500000000
1 69
    -0.013436866987721     0.083019522847060    -0.046226882965437
     0.057163328070110    -0.010720220191215    -0.108348951406575
    -0.041493000000000    -0.111678000000000     0.055083000000000
1 70
    -0.013345089986644     0.077741144380417     0.062105125269355
     0.055993865736619     0.015672882329871     0.087622630830967
     0.036265500000000     0.081703500000000     0.055040500000000
1 71
     0.045589566278871    -0.000595423660369     0.001810549074716
     0.000106273235942     0.004307460350858     0.008484255806671
     0.000826000000000     0.004462500000000     0.047181000000000
1 72
    -0.014297010118538    -0.078887534870147    -0.057484694182985
    -0.056048820787322     0.017041108779680     0.087747888929869
    -0.038141500000000     0.080761500000000     0.059645500000000
1 73
    -0.354315073441158     0.000692484199477     0.002015940101720
     0.000443513187452    -0.248746351710575    -0.009925967342456
    -0.002167500000000     0.020119500000000     0.034258500000000
1 74
     0.059501371076352    -0.002364185249762    -0.079188428616659
     0.004731362247154    -0.018521670802634    -0.004184174508242
    -0.051920500000000     0.002867000000000    -0.011453500000000
1 75
     0.058847519764490     0.003097994298198     0.082243424553912
    -0.005554066107132    -0.018498356027288    -0.005017860506685
     0.053687000000000     0.000700000000000    -0.010316500000000
1 76
    -0.009078456317099     0.000984684800171     0.001994741537618
     0.000848362963905     0.073176562617914     0.006990838110892
    -0.002336500000000     0.001240000000000    -0.021636500000000
1 77
     0.006905478901102    -0.000262362491990    -0.006319162268373
    -0.002064261383619     0.015249463762506     0.000697380618499
    -0.010056500000000     0.003653000000000    -0.004396000000000
1 78
     0.006343468733977     0.000608550280445     0.010178397366610
     0.001612528198948     0.015025206237893     0.000056274065193
     0.011819500000000     0.005144000000000    -0.001954000000000
1 79
    -0.270608953972022     0.000917056089757     0.001119831645479
     0.000263064408530    -0.173956556305041     0.016613727328117
    -0.001303000000000     0.010182000000000     0.376772000000000
1 80
     0.113178978784581    -0.002363849933126     0.103063024544559
    -0.001711456837744    -0.030609316696585    -0.000451520261261
     0.043657500000000     0.005470500000000     0.021265500000000
1 81
     0.111812965589662     0.002306649650979    -0.099329546334013
     0.000332241215697    -0.030825137019068     0.000335778955297
    -0.042053000000000     0.005290000000000     0.021654500000000
1 82
    -0.016400434272574     0.001701426222716     0.002348446985243
     0.000768633568834     0.133596282032351    -0.007371561321680
    -0.001103500000000     0.006109500000000     0.019013000000000
1 83
     0.011007460345795     0.001394318868240     0.005455484033485
    -0.002895311550404     0.031422563050392    -0.003081189563304
     0.008918000000000     0.003924000000000     0.021746500000000
1 84
     0.010716080683411     0.001160375501872    -0.000706163208639
     0.002952681777076     0.031434706126684    -0.002687582110453
    -0.007673500000000     0.003901000000000     0.022634500000000
1 85
    -0.349424583728209     0.003893742228511    -0.003188495741330
     0.002574646111088     0.202914898721246    -0.146886675557018
    -0.000191000000000    -0.019048500000000    -0.222755500000000
1 86
     0.078814986309359    -0.090912425814698     0.001471010556849
    -0.044325579960287    -0.010896976978463     0.000509319449562
     0.014887500000000    -0.007213000000000    -0.034912500000000
1 87
     0.081920006368571     0.091003936221603    -0.004919721315253
     0.043317796399227    -0.012289746809848     0.000784044677652
    -0.015821000000000    -0.005478000000000    -0.034599000000000
1 88
    -0.281742181059321     0.003745918278185    -0.000976155819173
     0.003308492184428     0.392239880348259     0.148296038800612
    -0.000926000000000     0.032251500000000    -0.192635500000000
1 89
     0.096655981050051     0.094751131598092    -0.000859291413364
     0.042765797140603    -0.000817916843293     0.002394226645144
     0.022285000000000     0.018703000000000    -0.030987000000000
1 90
     0.093259706689831    -0.093958641281244    -0.003447228712729
    -0.043805143496099     0.000507541424198     0.002413370252993
    -0.021143000000000     0.017997500000000    -0.031757000000000
1 91
    -0.009484889703064    -0.000392305517025    -0.001448669288639
    -0.000567168297109    -0.021411338915718    -0.006364498474505
    -0.001278500000000     0.036443000000000     0.093051000000000
1 92
     0.007191995318670    -0.005527497696337     0.004467969960222
    -0.006147709893354    -0.003357035448353    -0.000527834586714
    -0.013979500000000     0.013612500000000     0.018196500000000
1 93
     0.006377126861988     0.005531171125394    -0.008129829266193
     0.006445921444444    -0.003656066193597    -0.000660289562328
     0.015476500000000     0.014528000000000     0.018887000000000
1 94
    -0.007754338191346     0.000923797986550    -0.001898096367254
    -0.000050116743780    -0.010156634430026     0.008974380259977
    -0.001248000000000    -0.033557000000000     0.092713500000000
1 95
     0.006709941786213     0.004676150737062     0.005360252123747
     0.006407295014652     0.000223657313575     0.001672832427826
    -0.014948000000000    -0.007701500000000     0.016774500000000
1 96
     0.007470744584310    -0.003929844966113    -0.008977945569778
    -0.006506076000947     0.000654207082768     0.001565380475187
     0.016227500000000    -0.008245500000000     0.016251000000000
1 97
     0.057548678056837     0.048228295188316     0.041170145544275
     0.186426070509356    -0.123866597796731     0.091661956975058
    -0.005029500000000     0.042899000000000    -0.005159000000000
1 98
    -0.061739970689251    -0.000042922167454     0.000105416786032
    -0.000149370876451    -0.026850110736764     0.014999163988064
    -0.001775000000000     0.003905000000000    -0.006196500000000
1 99
     0.054928769137211    -0.049945170591109    -0.040300320983138
    -0.187018586657736    -0.121678444771707     0.092072486207232
     0.007856500000000     0.044412500000000    -0.004076500000000
1 100
    -0.279951579772607    -0.683912646955145    -0.539033285142243
    -0.501002274325808    -0.049636834042081    -0.287319979365706
    -0.380048000000000    -0.282710000000000    -0.051791000000000
1 101
    -0.079350208904562     0.000485508178120     0.000077087991741
     0.000253668831968     0.026764447458488    -0.016633075115320
    -0.002544500000000    -0.007291500000000     0.006908500000000
1 102
    -0.268267731315855     0.686044397982145     0.536578256840192
     0.504119139447842    -0.061356905252968    -0.292395444992344
     0.381869500000000    -0.286646000000000    -0.051868500000000
1 103
     0.008455594072595     0.003733625856906     0.006948074324849
    -0.006641389102425    -0.016736440381182    -0.021351699662906
     0.003003500000000    -0.038432500000000    -0.016821500000000
1 104
    -0.013777532329507    -0.000073939414188     0.000407626165296
    -0.000177191918098    -0.007546728832440    -0.001507509450317
    -0.001681000000000    -0.005650500000000     0.004029500000000
1 105
     0.008626200587696    -0.004196715869327    -0.006768195162674
     0.006761937355961    -0.016684696043270    -0.021373189022718
    -0.000409500000000    -0.037605000000000    -0.016956500000000
1 106
     0.033496524921398     0.030378043525368     0.009281950634058
     0.018310571097005     0.018526309026624     0.015800841557767
     0.132700500000000     0.102288000000000    -0.085908500000000
1 107
    -0.035895508948994     0.000080080321151     0.000209223496218
    -0.000016132521138     0.007371196736185     0.002292505196760
    -0.001571500000000     0.010518500000000    -0.011082500000000
1 108
     0.033140012145845    -0.030589936892290    -0.008510505152814
    -0.018159622398920     0.018781671418355     0.015751266089380
    -0.128263000000000     0.103954500000000    -0.087149500000000
1 109
     0.043150684972943    -0.028301116459583     0.028387503881093
    -0.015594998979716     0.026911586399387    -0.027752018475367
     0.197402500000000    -0.120808000000000    -0.099258500000000
1 110
    -0.047362963386134    -0.000006133147983    -0.000145247896246
     0.000123393444526     0.012946184465209    -0.000050290990926
    -0.002278500000000    -0.015296500000000    -0.019218000000000
1 111
     0.043646965611600     0.028003889272947    -0.029048069346879
     0.015821951373527     0.026468502751286    -0.027626415223509
    -0.194950500000000    -0.118919000000000    -0.099698000000000
1 112
     0.008311727977218    -0.006956311613619     0.003468176647467
     0.004520946969011    -0.025278316583318     0.015861245497754
    -0.000545500000000     0.031988000000000    -0.014209500000000
1 113
    -0.013548167964342    -0.000219003052525    -0.000192077794110
    -0.000103311597043    -0.011032561723825     0.000903949184796
    -0.002065500000000     0.004459000000000     0.000281500000000
1 114
     0.008505784237827     0.006158444733055    -0.003305742736267
    -0.004559609462437    -0.025155887323703     0.015587836248647
     0.004949000000000     0.031474000000000    -0.014355000000000
1 115
    -0.284417133528513     0.497843821331282    -0.727841780390921
     0.345127139991302     0.096402932245148     0.238615721986882
    -0.541858000000000     0.290287500000000    -0.169777000000000
1 116
    -0.078928556565626     0.000625180562973    -0.000060252422246
     0.000181607987574     0.026084256970925     0.012921948575934
    -0.002260000000000     0.015205500000000     0.014603000000000
1 117
    -0.292536472269116    -0.494388146200163     0.730357690056503
    -0.340467874935220     0.104660584560218     0.231772100203158
     0.549517500000000     0.285098000000000    -0.169682000000000
1 118
     0.036283496893931    -0.028401817627671     0.038494541086881
    -0.111027088202002    -0.128503276368643    -0.058312761167808
     0.010768500000000    -0.023098500000000     0.004951000000000
1 119
    -0.050221466207670    -0.000113093288842    -0.000156849868399
    -0.000176644907707    -0.024433239072128    -0.014678908889536
    -0.002011500000000    -0.005467000000000    -0.004329500000000
1 120
     0.037535837269144     0.026644850027694    -0.039517740073887
     0.110403936074141    -0.129931724159856    -0.058077129003138
    -0.007337000000000    -0.023750500000000     0.005930000000000
2 1
    -0.154953691705612    -0.004103742937600    -0.014353226367083
     0.006060599290053     0.014568222714023    -0.000521883475873
     0.014413000000000    -0.000556500000000     0.028074500000000
2 2
     6.351275422331921    -0.023923675007002     0.000387329959437
    -0.023527465594293     1.521380535603642    -0.027514720667030
    -0.001495500000000    -0.027195500000000     1.780022000000000
2 3
    -0.154896957017179     0.005841832450711     0.016112238735986
    -0.004413302884627     0.014457132234691    -0.000705724837474
    -0.015406500000000    -0.000062500000000     0.027493000000000
2 4
     0.005593539930876     0.003800711389657    -0.001212559561097
    -0.003580869999276    -0.015799756949336    -0.001950099307552
    -0.001069000000000    -0.001710500000000     0.014531000000000
2 5
    -0.020222500592822    -0.001213702619266     0.000595595358044
    -0.001687223017421    -0.270844802752442     0.005125651386468
     0.004071000000000     0.005349500000000    -0.001890500000000
2 6
     0.006015674906254    -0.004023794831417     0.002506989788821
     0.003800655750616    -0.015884031294532    -0.002051272390146
    -0.002137000000000    -0.001105000000000     0.013930000000000
2 7
     0.007645880800741    -0.000831303533376     0.014024787831735
     0.000774155253636     0.003004597194483     0.000024482127762
    -0.011298000000000     0.000310000000000    -0.017429500000000
2 8
    -0.023358910640902    -0.000114686205563     0.000913800616769
    -0.000128881474460    -0.017710151055595    -0.003414005120292
     0.000471000000000    -0.002279000000000    -0.280785500000000
2 9
     0.007897690670125     0.001007060242354    -0.012375380711287
    -0.000797593722106     0.002870114254999     0.000258963068965
     0.010872500000000     0.001652000000000    -0.017614000000000
2 10
    -0.001765941248538    -0.000118996454203     0.001343536841557
     0.000220630146993    -0.002654950326856    -0.000200066242939
    -0.001184000000000     0.000413000000000    -0.004177500000000
2 11
     0.006499524996362     0.000444106536376     0.000727630299930
    -0.000317257244974     0.007886424433267     0.000433450331738
     0.003121500000000     0.002303000000000     0.004405500000000
2 12
    -0.001462158759413     0.000007715693666     0.000053760258798
    -0.000028856961148    -0.002714070085172    -0.000151264451200
    -0.000269000000000     0.000776500000000    -0.002028500000000
2 13
    -0.005402573025708    -0.007476060292542    -0.012869596844912
    -0.008378205691788    -0.000300479259577    -0.006628204628360
    -0.012327000000000    -0.006960000000000     0.009798000000000
2 14
     0.016507829912292    -0.000314243364607    -0.001037799570146
    -0.000075149974582    -0.024361255493460    -0.136943064124359
    -0.000777500000000    -0.127123500000000     0.011336500000000
2 15
    -0.004726386114653     0.007313402705256     0.011400929953346
     0.008309189943855    -0.000344233770145    -0.006784280259482
     0.012632500000000    -0.007497500000000     0.009836500000000
2 16
    -0.005104616256425     0.008212036374371    -0.015075360952148
     0.007548028705113    -0.000319123749335     0.007726742956242
    -0.011352000000000     0.006708500000000     0.009926000000000
2 17
     0.016519041731879    -0.000169376509711    -0.000222836024725
    -0.000236206672052    -0.024490964789105     0.127316108075740
    -0.000218500000000     0.138323000000000     0.012375000000000
2 18
    -0.005058692445008    -0.007982846219707     0.013107443687490
    -0.007688377489409    -0.000255502817881     0.007413551998986
     0.011271500000000     0.008967500000000     0.009475000000000
2 19
    -0.012354773851693    -0.012203502747189     0.007571859560696
    -0.013816305582286     0.001255135246860     0.006184081447601
     0.010555500000000     0.004734500000000    -0.017207000000000
2 20
     0.033312250765599    -0.000129214951568    -0.000137188688886
    -0.000336751170685    -0.001575887526645     0.099458357186759
    -0.000052500000000     0.089734500000000    -0.033302000000000
2 21
    -0.012514388489241     0.012693413786890    -0.009371174889174
     0.014048306756167     0.001074999098708     0.006116355910823
    -0.012411000000000     0.004656000000000    -0.017451000000000
2 22
    -0.012321374788143     0.013680847420259     0.009976906791611
     0.012518345528073     0.001161176015672    -0.002597273219518
     0.008825000000000    -0.005488000000000    -0.016483500000000
2 23
     0.033296352037335    -0.000275140530223    -0.000929801154780
    -0.000418174469094    -0.001458173201750    -0.089647027313182
     0.001109000000000    -0.100108000000000    -0.033250000000000
2 24
    -0.011902709594072    -0.013842506694371    -0.011397303119689
    -0.012271995714239     0.001462645084513    -0.002587849307816
    -0.010260000000000    -0.006204000000000    -0.016922500000000
2 25
    -0.314825870769682    -0.454731258558824    -0.260385106877595
    -0.436518126255947    -0.126834922045532    -0.177130001277889
    -0.273471000000000    -0.197314000000000     0.079393000000000
2 26
    -0.306036344681640     0.456260412043353     0.257985027366893