phonopy:
  version: 2.9.3
  frequency_unit_conversion_factor: 15.633302
  symmetry_tolerance: 1.00000e-05
  nac_unit_conversion_factor: 14.399652

physical_unit:
  atomic_mass: "AMU"

space_group:
  type: "Pc"
  number: 7
  Hall_symbol: "P -2yc"

primitive_matrix:
- [  1.000000000000000,  0.000000000000000,  0.000000000000000 ]
- [  0.000000000000000,  1.000000000000000,  0.000000000000000 ]
- [  0.000000000000000,  0.000000000000000,  1.000000000000000 ]

supercell_matrix:
- [   3,   0,   0 ]
- [   0,   2,   0 ]
- [   0,   0,   2 ]

primitive_cell:
  lattice:
  - [     3.911909080000000,    -0.019147620000000,     0.000000000000000 ] # a
  - [     0.027403940000000,     5.609167450000000,     0.000000000000000 ] # b
  - [     0.000000000000000,     0.000000000000000,     5.597810050000000 ] # c
  points:
  - symbol: Li # 1
    coordinates: [  0.106251170000001,  0.725550940000002,  0.712962969999991 ]
    mass: 6.941000
  - symbol: Li # 2
    coordinates: [  0.106251170000001,  0.225550940000002,  0.287037030000009 ]
    mass: 6.941000
  - symbol: Li # 3
    coordinates: [  0.606283750000006,  0.437961200000006,  0.544924299999997 ]
    mass: 6.941000
  - symbol: Li # 4
    coordinates: [  0.606283750000006,  0.937961200000006,  0.455075700000003 ]
    mass: 6.941000
  - symbol: O  # 5
    coordinates: [  0.606271929999990,  0.735384750000003,  0.747530179999998 ]
    mass: 15.999400
  - symbol: O  # 6
    coordinates: [  0.606271929999990,  0.235384750000003,  0.252469820000002 ]
    mass: 15.999400
  - symbol: S  # 7
    coordinates: [  0.106282530000001,  0.740238930000009,  0.240588949999992 ]
    mass: 32.065000
  - symbol: S  # 8
    coordinates: [  0.106282530000001,  0.240238929999991,  0.759411050000009 ]
    mass: 32.065000
  - symbol: Fe # 9
    coordinates: [  0.606281610000008,  0.024506180000000,  0.960069250000007 ]
    mass: 55.845000
  - symbol: Fe # 10
    coordinates: [  0.606281610000008,  0.524506180000005,  0.039930750000000 ]
    mass: 55.845000
  reciprocal_lattice: # without 2pi
  - [     0.255623550230663,    -0.001248864915436,     0.000000000000000 ] # a*
  - [     0.000872604115762,     0.178275313782827,     0.000000000000000 ] # b*
  - [     0.000000000000000,     0.000000000000000,     0.178641288480305 ] # c*

unit_cell:
  lattice:
  - [     3.911909080000000,    -0.019147620000000,     0.000000000000000 ] # a
  - [     0.027403940000000,     5.609167450000000,     0.000000000000000 ] # b
  - [     0.000000000000000,     0.000000000000000,     5.597810050000000 ] # c
  points:
  - symbol: Li # 1
    coordinates: [  0.106251170000001,  0.725550940000002,  0.712962969999991 ]
    mass: 6.941000
    reduced_to: 1
  - symbol: Li # 2
    coordinates: [  0.106251170000001,  0.225550940000002,  0.287037030000009 ]
    mass: 6.941000
    reduced_to: 2
  - symbol: Li # 3
    coordinates: [  0.606283750000006,  0.437961200000006,  0.544924299999997 ]
    mass: 6.941000
    reduced_to: 3
  - symbol: Li # 4
    coordinates: [  0.606283750000006,  0.937961200000006,  0.455075700000003 ]
    mass: 6.941000
    reduced_to: 4
  - symbol: O  # 5
    coordinates: [  0.606271929999990,  0.735384750000003,  0.747530179999998 ]
    mass: 15.999400
    reduced_to: 5
  - symbol: O  # 6
    coordinates: [  0.606271929999990,  0.235384750000003,  0.252469820000002 ]
    mass: 15.999400
    reduced_to: 6
  - symbol: S  # 7
    coordinates: [  0.106282530000001,  0.740238930000009,  0.240588949999992 ]
    mass: 32.065000
    reduced_to: 7
  - symbol: S  # 8
    coordinates: [  0.106282530000001,  0.240238929999991,  0.759411050000009 ]
    mass: 32.065000
    reduced_to: 8
  - symbol: Fe # 9
    coordinates: [  0.606281610000008,  0.024506180000000,  0.960069250000007 ]
    mass: 55.845000
    reduced_to: 9
  - symbol: Fe # 10
    coordinates: [  0.606281610000008,  0.524506180000005,  0.039930750000000 ]
    mass: 55.845000
    reduced_to: 10

supercell:
  lattice:
  - [    11.735727239999999,    -0.057442860000000,     0.000000000000000 ] # a
  - [     0.054807880000000,    11.218334900000000,     0.000000000000000 ] # b
  - [     0.000000000000000,     0.000000000000000,    11.195620099999999 ] # c
  points:
  - symbol: Li # 1
    coordinates: [  0.035417056666667,  0.362775470000001,  0.356481484999996 ]
    mass: 6.941000
    reduced_to: 1
  - symbol: Li # 2
    coordinates: [  0.368750390000000,  0.362775470000001,  0.356481484999996 ]
    mass: 6.941000
    reduced_to: 1
  - symbol: Li # 3
    coordinates: [  0.702083723333333,  0.362775470000001,  0.356481484999996 ]
    mass: 6.941000
    reduced_to: 1
  - symbol: Li # 4
    coordinates: [  0.035417056666667,  0.862775470000001,  0.356481484999996 ]
    mass: 6.941000
    reduced_to: 1
  - symbol: Li # 5
    coordinates: [  0.368750390000000,  0.862775470000001,  0.356481484999996 ]
    mass: 6.941000
    reduced_to: 1
  - symbol: Li # 6
    coordinates: [  0.702083723333333,  0.862775470000001,  0.356481484999996 ]
    mass: 6.941000
    reduced_to: 1
  - symbol: Li # 7
    coordinates: [  0.035417056666667,  0.362775470000001,  0.856481484999996 ]
    mass: 6.941000
    reduced_to: 1
  - symbol: Li # 8
    coordinates: [  0.368750390000000,  0.362775470000001,  0.856481484999996 ]
    mass: 6.941000
    reduced_to: 1
  - symbol: Li # 9
    coordinates: [  0.702083723333333,  0.362775470000001,  0.856481484999996 ]
    mass: 6.941000
    reduced_to: 1
  - symbol: Li # 10
    coordinates: [  0.035417056666667,  0.862775470000001,  0.856481484999996 ]
    mass: 6.941000
    reduced_to: 1
  - symbol: Li # 11
    coordinates: [  0.368750390000000,  0.862775470000001,  0.856481484999996 ]
    mass: 6.941000
    reduced_to: 1
  - symbol: Li # 12
    coordinates: [  0.702083723333333,  0.862775470000001,  0.856481484999996 ]
    mass: 6.941000
    reduced_to: 1
  - symbol: Li # 13
    coordinates: [  0.035417056666667,  0.112775470000001,  0.143518515000004 ]
    mass: 6.941000
    reduced_to: 13
  - symbol: Li # 14
    coordinates: [  0.368750390000000,  0.112775470000001,  0.143518515000004 ]
    mass: 6.941000
    reduced_to: 13
  - symbol: Li # 15
    coordinates: [  0.702083723333333,  0.112775470000001,  0.143518515000004 ]
    mass: 6.941000
    reduced_to: 13
  - symbol: Li # 16
    coordinates: [  0.035417056666667,  0.612775470000001,  0.143518515000004 ]
    mass: 6.941000
    reduced_to: 13
  - symbol: Li # 17
    coordinates: [  0.368750390000000,  0.612775470000001,  0.143518515000004 ]
    mass: 6.941000
    reduced_to: 13
  - symbol: Li # 18
    coordinates: [  0.702083723333333,  0.612775470000001,  0.143518515000004 ]
    mass: 6.941000
    reduced_to: 13
  - symbol: Li # 19
    coordinates: [  0.035417056666667,  0.112775470000001,  0.643518515000004 ]
    mass: 6.941000
    reduced_to: 13
  - symbol: Li # 20
    coordinates: [  0.368750390000000,  0.112775470000001,  0.643518515000004 ]
    mass: 6.941000
    reduced_to: 13
  - symbol: Li # 21
    coordinates: [  0.702083723333333,  0.112775470000001,  0.643518515000004 ]
    mass: 6.941000
    reduced_to: 13
  - symbol: Li # 22
    coordinates: [  0.035417056666667,  0.612775470000001,  0.643518515000004 ]
    mass: 6.941000
    reduced_to: 13
  - symbol: Li # 23
    coordinates: [  0.368750390000000,  0.612775470000001,  0.643518515000004 ]
    mass: 6.941000
    reduced_to: 13
  - symbol: Li # 24
    coordinates: [  0.702083723333333,  0.612775470000001,  0.643518515000004 ]
    mass: 6.941000
    reduced_to: 13
  - symbol: Li # 25
    coordinates: [  0.202094583333335,  0.218980600000003,  0.272462149999999 ]
    mass: 6.941000
    reduced_to: 25
  - symbol: Li # 26
    coordinates: [  0.535427916666668,  0.218980600000003,  0.272462149999999 ]
    mass: 6.941000
    reduced_to: 25
  - symbol: Li # 27
    coordinates: [  0.868761250000002,  0.218980600000003,  0.272462149999999 ]
    mass: 6.941000
    reduced_to: 25
  - symbol: Li # 28
    coordinates: [  0.202094583333335,  0.718980600000003,  0.272462149999999 ]
    mass: 6.941000
    reduced_to: 25
  - symbol: Li # 29
    coordinates: [  0.535427916666668,  0.718980600000003,  0.272462149999999 ]
    mass: 6.941000
    reduced_to: 25
  - symbol: Li # 30
    coordinates: [  0.868761250000002,  0.718980600000003,  0.272462149999999 ]
    mass: 6.941000
    reduced_to: 25
  - symbol: Li # 31
    coordinates: [  0.202094583333335,  0.218980600000003,  0.772462149999999 ]
    mass: 6.941000
    reduced_to: 25
  - symbol: Li # 32
    coordinates: [  0.535427916666668,  0.218980600000003,  0.772462149999999 ]
    mass: 6.941000
    reduced_to: 25
  - symbol: Li # 33
    coordinates: [  0.868761250000002,  0.218980600000003,  0.772462149999999 ]
    mass: 6.941000
    reduced_to: 25
  - symbol: Li # 34
    coordinates: [  0.202094583333335,  0.718980600000003,  0.772462149999999 ]
    mass: 6.941000
    reduced_to: 25
  - symbol: Li # 35
    coordinates: [  0.535427916666668,  0.718980600000003,  0.772462149999999 ]
    mass: 6.941000
    reduced_to: 25
  - symbol: Li # 36
    coordinates: [  0.868761250000002,  0.718980600000003,  0.772462149999999 ]
    mass: 6.941000
    reduced_to: 25
  - symbol: Li # 37
    coordinates: [  0.202094583333335,  0.468980600000003,  0.227537850000001 ]
    mass: 6.941000
    reduced_to: 37
  - symbol: Li # 38
    coordinates: [  0.535427916666668,  0.468980600000003,  0.227537850000001 ]
    mass: 6.941000
    reduced_to: 37
  - symbol: Li # 39
    coordinates: [  0.868761250000002,  0.468980600000003,  0.227537850000001 ]
    mass: 6.941000
    reduced_to: 37
  - symbol: Li # 40
    coordinates: [  0.202094583333335,  0.968980600000003,  0.227537850000001 ]
    mass: 6.941000
    reduced_to: 37
  - symbol: Li # 41
    coordinates: [  0.535427916666668,  0.968980600000003,  0.227537850000001 ]
    mass: 6.941000
    reduced_to: 37
  - symbol: Li # 42
    coordinates: [  0.868761250000002,  0.968980600000003,  0.227537850000001 ]
    mass: 6.941000
    reduced_to: 37
  - symbol: Li # 43
    coordinates: [  0.202094583333335,  0.468980600000003,  0.727537850000001 ]
    mass: 6.941000
    reduced_to: 37
  - symbol: Li # 44
    coordinates: [  0.535427916666668,  0.468980600000003,  0.727537850000001 ]
    mass: 6.941000
    reduced_to: 37
  - symbol: Li # 45
    coordinates: [  0.868761250000002,  0.468980600000003,  0.727537850000001 ]
    mass: 6.941000
    reduced_to: 37
  - symbol: Li # 46
    coordinates: [  0.202094583333335,  0.968980600000003,  0.727537850000001 ]
    mass: 6.941000
    reduced_to: 37
  - symbol: Li # 47
    coordinates: [  0.535427916666668,  0.968980600000003,  0.727537850000001 ]
    mass: 6.941000
    reduced_to: 37
  - symbol: Li # 48
    coordinates: [  0.868761250000002,  0.968980600000003,  0.727537850000001 ]
    mass: 6.941000
    reduced_to: 37
  - symbol: O  # 49
    coordinates: [  0.202090643333330,  0.367692375000002,  0.373765089999999 ]
    mass: 15.999400
    reduced_to: 49
  - symbol: O  # 50
    coordinates: [  0.535423976666663,  0.367692375000002,  0.373765089999999 ]
    mass: 15.999400
    reduced_to: 49
  - symbol: O  # 51
    coordinates: [  0.868757309999997,  0.367692375000002,  0.373765089999999 ]
    mass: 15.999400
    reduced_to: 49
  - symbol: O  # 52
    coordinates: [  0.202090643333330,  0.867692375000002,  0.373765089999999 ]
    mass: 15.999400
    reduced_to: 49
  - symbol: O  # 53
    coordinates: [  0.535423976666663,  0.867692375000002,  0.373765089999999 ]
    mass: 15.999400
    reduced_to: 49
  - symbol: O  # 54
    coordinates: [  0.868757309999997,  0.867692375000002,  0.373765089999999 ]
    mass: 15.999400
    reduced_to: 49
  - symbol: O  # 55
    coordinates: [  0.202090643333330,  0.367692375000002,  0.873765089999999 ]
    mass: 15.999400
    reduced_to: 49
  - symbol: O  # 56
    coordinates: [  0.535423976666663,  0.367692375000002,  0.873765089999999 ]
    mass: 15.999400
    reduced_to: 49
  - symbol: O  # 57
    coordinates: [  0.868757309999997,  0.367692375000002,  0.873765089999999 ]
    mass: 15.999400
    reduced_to: 49
  - symbol: O  # 58
    coordinates: [  0.202090643333330,  0.867692375000002,  0.873765089999999 ]
    mass: 15.999400
    reduced_to: 49
  - symbol: O  # 59
    coordinates: [  0.535423976666663,  0.867692375000002,  0.873765089999999 ]
    mass: 15.999400
    reduced_to: 49
  - symbol: O  # 60
    coordinates: [  0.868757309999997,  0.867692375000002,  0.873765089999999 ]
    mass: 15.999400
    reduced_to: 49
  - symbol: O  # 61
    coordinates: [  0.202090643333330,  0.117692375000002,  0.126234910000001 ]
    mass: 15.999400
    reduced_to: 61
  - symbol: O  # 62
    coordinates: [  0.535423976666663,  0.117692375000002,  0.126234910000001 ]
    mass: 15.999400
    reduced_to: 61
  - symbol: O  # 63
    coordinates: [  0.868757309999997,  0.117692375000002,  0.126234910000001 ]
    mass: 15.999400
    reduced_to: 61
  - symbol: O  # 64
    coordinates: [  0.202090643333330,  0.617692375000002,  0.126234910000001 ]
    mass: 15.999400
    reduced_to: 61
  - symbol: O  # 65
    coordinates: [  0.535423976666663,  0.617692375000002,  0.126234910000001 ]
    mass: 15.999400
    reduced_to: 61
  - symbol: O  # 66
    coordinates: [  0.868757309999997,  0.617692375000002,  0.126234910000001 ]
    mass: 15.999400
    reduced_to: 61
  - symbol: O  # 67
    coordinates: [  0.202090643333330,  0.117692375000002,  0.626234910000001 ]
    mass: 15.999400
    reduced_to: 61
  - symbol: O  # 68
    coordinates: [  0.535423976666663,  0.117692375000002,  0.626234910000001 ]
    mass: 15.999400
    reduced_to: 61
  - symbol: O  # 69
    coordinates: [  0.868757309999997,  0.117692375000002,  0.626234910000001 ]
    mass: 15.999400
    reduced_to: 61
  - symbol: O  # 70
    coordinates: [  0.202090643333330,  0.617692375000002,  0.626234910000001 ]
    mass: 15.999400
    reduced_to: 61
  - symbol: O  # 71
    coordinates: [  0.535423976666663,  0.617692375000002,  0.626234910000001 ]
    mass: 15.999400
    reduced_to: 61
  - symbol: O  # 72
    coordinates: [  0.868757309999997,  0.617692375000002,  0.626234910000001 ]
    mass: 15.999400
    reduced_to: 61
  - symbol: S  # 73
    coordinates: [  0.035427510000000,  0.370119465000004,  0.120294474999996 ]
    mass: 32.065000
    reduced_to: 73
  - symbol: S  # 74
    coordinates: [  0.368760843333334,  0.370119465000004,  0.120294474999996 ]
    mass: 32.065000
    reduced_to: 73
  - symbol: S  # 75
    coordinates: [  0.702094176666667,  0.370119465000004,  0.120294474999996 ]
    mass: 32.065000
    reduced_to: 73
  - symbol: S  # 76
    coordinates: [  0.035427510000000,  0.870119465000004,  0.120294474999996 ]
    mass: 32.065000
    reduced_to: 73
  - symbol: S  # 77
    coordinates: [  0.368760843333334,  0.870119465000004,  0.120294474999996 ]
    mass: 32.065000
    reduced_to: 73
  - symbol: S  # 78
    coordinates: [  0.702094176666667,  0.870119465000004,  0.120294474999996 ]
    mass: 32.065000
    reduced_to: 73
  - symbol: S  # 79
    coordinates: [  0.035427510000000,  0.370119465000004,  0.620294474999996 ]
    mass: 32.065000
    reduced_to: 73
  - symbol: S  # 80
    coordinates: [  0.368760843333334,  0.370119465000004,  0.620294474999996 ]
    mass: 32.065000
    reduced_to: 73
  - symbol: S  # 81
    coordinates: [  0.702094176666667,  0.370119465000004,  0.620294474999996 ]
    mass: 32.065000
    reduced_to: 73
  - symbol: S  # 82
    coordinates: [  0.035427510000000,  0.870119465000004,  0.620294474999996 ]
    mass: 32.065000
    reduced_to: 73
  - symbol: S  # 83
    coordinates: [  0.368760843333334,  0.870119465000004,  0.620294474999996 ]
    mass: 32.065000
    reduced_to: 73
  - symbol: S  # 84
    coordinates: [  0.702094176666667,  0.870119465000004,  0.620294474999996 ]
    mass: 32.065000
    reduced_to: 73
  - symbol: S  # 85
    coordinates: [  0.035427510000000,  0.120119464999996,  0.379705525000004 ]
    mass: 32.065000
    reduced_to: 85
  - symbol: S  # 86
    coordinates: [  0.368760843333334,  0.120119464999996,  0.379705525000004 ]
    mass: 32.065000
    reduced_to: 85
  - symbol: S  # 87
    coordinates: [  0.702094176666667,  0.120119464999996,  0.379705525000004 ]
    mass: 32.065000
    reduced_to: 85
  - symbol: S  # 88
    coordinates: [  0.035427510000000,  0.620119464999995,  0.379705525000004 ]
    mass: 32.065000
    reduced_to: 85
  - symbol: S  # 89
    coordinates: [  0.368760843333334,  0.620119464999995,  0.379705525000004 ]
    mass: 32.065000
    reduced_to: 85
  - symbol: S  # 90
    coordinates: [  0.702094176666667,  0.620119464999995,  0.379705525000004 ]
    mass: 32.065000
    reduced_to: 85
  - symbol: S  # 91
    coordinates: [  0.035427510000000,  0.120119464999996,  0.879705525000004 ]
    mass: 32.065000
    reduced_to: 85
  - symbol: S  # 92
    coordinates: [  0.368760843333334,  0.120119464999996,  0.879705525000004 ]
    mass: 32.065000
    reduced_to: 85
  - symbol: S  # 93
    coordinates: [  0.702094176666667,  0.120119464999996,  0.879705525000004 ]
    mass: 32.065000
    reduced_to: 85
  - symbol: S  # 94
    coordinates: [  0.035427510000000,  0.620119464999995,  0.879705525000004 ]
    mass: 32.065000
    reduced_to: 85
  - symbol: S  # 95
    coordinates: [  0.368760843333334,  0.620119464999995,  0.879705525000004 ]
    mass: 32.065000
    reduced_to: 85
  - symbol: S  # 96
    coordinates: [  0.702094176666667,  0.620119464999995,  0.879705525000004 ]
    mass: 32.065000
    reduced_to: 85
  - symbol: Fe # 97
    coordinates: [  0.202093870000003,  0.012253090000000,  0.480034625000003 ]
    mass: 55.845000
    reduced_to: 97
  - symbol: Fe # 98
    coordinates: [  0.535427203333336,  0.012253090000000,  0.480034625000003 ]
    mass: 55.845000
    reduced_to: 97
  - symbol: Fe # 99
    coordinates: [  0.868760536666669,  0.012253090000000,  0.480034625000003 ]
    mass: 55.845000
    reduced_to: 97
  - symbol: Fe # 100
    coordinates: [  0.202093870000003,  0.512253090000000,  0.480034625000003 ]
    mass: 55.845000
    reduced_to: 97
  - symbol: Fe # 101
    coordinates: [  0.535427203333336,  0.512253090000000,  0.480034625000003 ]
    mass: 55.845000
    reduced_to: 97
  - symbol: Fe # 102
    coordinates: [  0.868760536666669,  0.512253090000000,  0.480034625000003 ]
    mass: 55.845000
    reduced_to: 97
  - symbol: Fe # 103
    coordinates: [  0.202093870000003,  0.012253090000000,  0.980034625000003 ]
    mass: 55.845000
    reduced_to: 97
  - symbol: Fe # 104
    coordinates: [  0.535427203333336,  0.012253090000000,  0.980034625000003 ]
    mass: 55.845000
    reduced_to: 97
  - symbol: Fe # 105
    coordinates: [  0.868760536666669,  0.012253090000000,  0.980034625000003 ]
    mass: 55.845000
    reduced_to: 97
  - symbol: Fe # 106
    coordinates: [  0.202093870000003,  0.512253090000000,  0.980034625000003 ]
    mass: 55.845000
    reduced_to: 97
  - symbol: Fe # 107
    coordinates: [  0.535427203333336,  0.512253090000000,  0.980034625000003 ]
    mass: 55.845000
    reduced_to: 97
  - symbol: Fe # 108
    coordinates: [  0.868760536666669,  0.512253090000000,  0.980034625000003 ]
    mass: 55.845000
    reduced_to: 97
  - symbol: Fe # 109
    coordinates: [  0.202093870000003,  0.262253090000002,  0.019965375000000 ]
    mass: 55.845000
    reduced_to: 109
  - symbol: Fe # 110
    coordinates: [  0.535427203333336,  0.262253090000002,  0.019965375000000 ]
    mass: 55.845000
    reduced_to: 109
  - symbol: Fe # 111
    coordinates: [  0.868760536666669,  0.262253090000002,  0.019965375000000 ]
    mass: 55.845000
    reduced_to: 109
  - symbol: Fe # 112
    coordinates: [  0.202093870000003,  0.762253090000002,  0.019965375000000 ]
    mass: 55.845000
    reduced_to: 109
  - symbol: Fe # 113
    coordinates: [  0.535427203333336,  0.762253090000002,  0.019965375000000 ]
    mass: 55.845000
    reduced_to: 109
  - symbol: Fe # 114
    coordinates: [  0.868760536666669,  0.762253090000002,  0.019965375000000 ]
    mass: 55.845000
    reduced_to: 109
  - symbol: Fe # 115
    coordinates: [  0.202093870000003,  0.262253090000002,  0.519965375000000 ]
    mass: 55.845000
    reduced_to: 109
  - symbol: Fe # 116
    coordinates: [  0.535427203333336,  0.262253090000002,  0.519965375000000 ]
    mass: 55.845000
    reduced_to: 109
  - symbol: Fe # 117
    coordinates: [  0.868760536666669,  0.262253090000002,  0.519965375000000 ]
    mass: 55.845000
    reduced_to: 109
  - symbol: Fe # 118
    coordinates: [  0.202093870000003,  0.762253090000002,  0.519965375000000 ]
    mass: 55.845000
    reduced_to: 109
  - symbol: Fe # 119
    coordinates: [  0.535427203333336,  0.762253090000002,  0.519965375000000 ]
    mass: 55.845000
    reduced_to: 109
  - symbol: Fe # 120
    coordinates: [  0.868760536666669,  0.762253090000002,  0.519965375000000 ]
    mass: 55.845000
    reduced_to: 109

born_effective_charge:
- # 1 (Li)
  - [  0.933863846000000,  0.001588667000000, -0.000069075000000 ]
  - [  0.001565543000000,  1.259197801000000, -0.012931550000000 ]
  - [ -0.000126370000000, -0.006728490000000,  1.304846510000000 ]
- # 2 (Li)
  - [  0.933863846000000,  0.001588667000000,  0.000069075000000 ]
  - [  0.001565543000000,  1.259197801000000,  0.012931550000000 ]
  - [  0.000126370000000,  0.006728490000000,  1.304846510000000 ]
- # 3 (Li)
  - [  1.290914536000000, -0.001011663000000, -0.000568825000000 ]
  - [ -0.001014297000000,  1.082323106000000, -0.113272240000000 ]
  - [ -0.000628425000000, -0.127180750000000,  1.469225870000000 ]
- # 4 (Li)
  - [  1.290914536000000, -0.001011663000000,  0.000568825000000 ]
  - [ -0.001014297000000,  1.082323106000000,  0.113272240000000 ]
  - [  0.000628425000000,  0.127180750000000,  1.469225870000000 ]
- # 5 (O)
  - [ -1.998816844000000, -0.003777173000000,  0.000509455000000 ]
  - [ -0.003781387000000, -2.770231484000000,  0.109544150000000 ]
  - [ -0.000446615000000, -0.085242885000000, -2.414989840000000 ]
- # 6 (O)
  - [ -1.998816844000000, -0.003777173000000, -0.000509455000000 ]
  - [ -0.003781387000000, -2.770231484000000, -0.109544150000000 ]
  - [  0.000446615000000,  0.085242885000000, -2.414989840000000 ]
- # 7 (S)
  - [ -2.407403304000000,  0.001399057000000, -0.000114695000000 ]
  - [  0.001397043000000, -2.124069339000000, -0.026336615000000 ]
  - [ -0.000109940000000, -0.018014605000000, -1.929562395000000 ]
- # 8 (S)
  - [ -2.407403304000000,  0.001399057000000,  0.000114695000000 ]
  - [  0.001397043000000, -2.124069339000000,  0.026336615000000 ]
  - [  0.000109940000000,  0.018014605000000, -1.929562395000000 ]
- # 9 (Fe)
  - [  2.181441766000000,  0.001801112000000,  0.000959140000000 ]
  - [  0.001833098000000,  2.552779916000000,  0.196039565000000 ]
  - [  0.000381000000000,  0.079538525000000,  1.570479855000000 ]
- # 10 (Fe)
  - [  2.181441766000000,  0.001801112000000, -0.000959140000000 ]
  - [  0.001833098000000,  2.552779916000000, -0.196039565000000 ]
  - [ -0.000381000000000, -0.079538525000000,  1.570479855000000 ]

dielectric_constant:
  - [  5.595144760000000, -0.000567550000000,  0.000000000000000 ]
  - [ -0.000578830000000,  5.479414270000000,  0.000000000000000 ]
  - [  0.000000000000000,  0.000000000000000,  4.877036400000000 ]

displacements:
- atom:    1
  displacement:
    [   0.0099998802117292, -0.0000489464101604,  0.0000000000000000 ]
  forces:
  - [  -0.0632278200000000,  0.0002122200000000, -0.0002889700000000 ]
  - [   0.0035829600000000, -0.0001164800000000, -0.0002493500000000 ]
  - [   0.0012799200000000,  0.0000116400000000,  0.0000544600000000 ]
  - [   0.0003223400000000, -0.0000527500000000, -0.0001098500000000 ]
  - [   0.0019621400000000, -0.0000178900000000, -0.0001128800000000 ]
  - [  -0.0003140400000000, -0.0000691100000000, -0.0000749300000000 ]
  - [   0.0003442800000000, -0.0000512500000000, -0.0001166400000000 ]
  - [   0.0019426300000000, -0.0000700700000000,  0.0000321300000000 ]
  - [  -0.0003218100000000, -0.0000235500000000, -0.0002287300000000 ]
  - [   0.0000480700000000, -0.0000598400000000, -0.0001114100000000 ]
  - [   0.0020371500000000, -0.0000607600000000, -0.0000908300000000 ]
  - [  -0.0002319200000000, -0.0000306500000000, -0.0000980800000000 ]
  - [  -0.0000493500000000, -0.0000489700000000,  0.0001043400000000 ]
  - [   0.0020735900000000, -0.0001332000000000, -0.0000235800000000 ]
  - [  -0.0002024800000000,  0.0000447800000000,  0.0002148100000000 ]
  - [  -0.0000521200000000, -0.0000531400000000,  0.0001129000000000 ]
  - [   0.0020709700000000,  0.0000182900000000, -0.0000386700000000 ]
  - [  -0.0001965200000000, -0.0001134400000000,  0.0002400400000000 ]
  - [  -0.0002215100000000, -0.0000487200000000,  0.0001080700000000 ]
  - [   0.0021515500000000, -0.0001833800000000,  0.0001853400000000 ]
  - [  -0.0001223900000000,  0.0000931900000000,  0.0000117400000000 ]
  - [  -0.0002186400000000, -0.0000506000000000,  0.0001065900000000 ]
  - [   0.0021380800000000,  0.0000792700000000,  0.0002034100000000 ]
  - [  -0.0001232400000000, -0.0001670100000000, -0.0000116000000000 ]
  - [   0.0029483300000000, -0.0044981200000000, -0.0026706900000000 ]
  - [   0.0001456200000000,  0.0000950900000000, -0.0000506400000000 ]
  - [   0.0028975500000000,  0.0046158600000000,  0.0025204600000000 ]
  - [  -0.0003867100000000,  0.0002795100000000, -0.0000032800000000 ]
  - [   0.0001796400000000,  0.0001028700000000, -0.0000496500000000 ]
  - [  -0.0004448500000000, -0.0000879000000000, -0.0001079200000000 ]
  - [  -0.0003265600000000,  0.0002148400000000,  0.0000799300000000 ]
  - [   0.0000964900000000,  0.0000946000000000, -0.0000531200000000 ]
  - [  -0.0003871200000000, -0.0000268800000000, -0.0001802100000000 ]
  - [  -0.0002037500000000,  0.0001500800000000,  0.0000378900000000 ]
  - [  -0.0001100600000000,  0.0000908200000000, -0.0000540300000000 ]
  - [  -0.0002638600000000,  0.0000396200000000, -0.0001445300000000 ]
  - [   0.0029104500000000,  0.0032234000000000, -0.0041506100000000 ]
  - [   0.0001439800000000,  0.0000861300000000,  0.0000504800000000 ]
  - [   0.0027857100000000, -0.0030255500000000,  0.0042261000000000 ]
  - [  -0.0003140500000000,  0.0000546300000000,  0.0001373800000000 ]
  - [   0.0000319900000000,  0.0000999700000000,  0.0000502200000000 ]
  - [  -0.0003736200000000,  0.0001328600000000, -0.0000234300000000 ]
  - [  -0.0004227200000000, -0.0000294700000000,  0.0003283500000000 ]
  - [   0.0002413700000000,  0.0000983200000000,  0.0000582300000000 ]
  - [  -0.0004773600000000,  0.0002285600000000, -0.0002344000000000 ]
  - [  -0.0002064400000000,  0.0000069400000000,  0.0001245800000000 ]
  - [  -0.0001060900000000,  0.0001022000000000,  0.0000590400000000 ]
  - [  -0.0002729000000000,  0.0001943800000000, -0.0000219700000000 ]
  - [   0.0166885200000000, -0.0003246500000000, -0.0023545400000000 ]
  - [  -0.0008373800000000, -0.0000158500000000,  0.0001433300000000 ]
  - [   0.0150628000000000,  0.0000777700000000,  0.0026987000000000 ]
  - [   0.0004406400000000, -0.0001241100000000,  0.0001431700000000 ]
  - [  -0.0005904200000000, -0.0000176500000000,  0.0001377600000000 ]
  - [   0.0002050300000000,  0.0000005600000000,  0.0000594300000000 ]
  - [   0.0004716300000000, -0.0000637700000000, -0.0000516400000000 ]
  - [  -0.0005727300000000, -0.0000221900000000,  0.0001485200000000 ]
  - [   0.0002214200000000, -0.0000300900000000,  0.0002451100000000 ]
  - [   0.0000593700000000, -0.0000722500000000,  0.0000692500000000 ]
  - [  -0.0001519200000000, -0.0000267100000000,  0.0001432400000000 ]
  - [  -0.0001796700000000, -0.0000234300000000,  0.0000934500000000 ]
  - [   0.0001431900000000,  0.0001619100000000,  0.0003064400000000 ]
  - [  -0.0003171700000000, -0.0000220100000000, -0.0001437200000000 ]
  - [  -0.0000920500000000, -0.0002509400000000, -0.0004732000000000 ]
  - [   0.0001601300000000, -0.0002690500000000,  0.0002934200000000 ]
  - [  -0.0003396900000000, -0.0000294700000000, -0.0001286700000000 ]
  - [  -0.0000786400000000,  0.0001693500000000, -0.0004641700000000 ]
  - [   0.0001568000000000,  0.0007912900000000, -0.0005446700000000 ]
  - [  -0.0004610900000000, -0.0000393300000000, -0.0001598700000000 ]
  - [  -0.0000878000000000, -0.0008668800000000,  0.0003912500000000 ]
  - [   0.0001497600000000, -0.0008220200000000, -0.0006649400000000 ]
  - [  -0.0004707400000000, -0.0000421500000000, -0.0001520900000000 ]
  - [  -0.0000920700000000,  0.0007595500000000,  0.0005183300000000 ]
  - [   0.0033738700000000, -0.0000777300000000, -0.0000742500000000 ]
  - [  -0.0007682800000000, -0.0000408300000000,  0.0007192800000000 ]
  - [  -0.0007446100000000, -0.0000885700000000, -0.0008884300000000 ]
  - [  -0.0000801200000000, -0.0000628100000000, -0.0000868600000000 ]
  - [  -0.0002515800000000, -0.0000635000000000, -0.0000078400000000 ]
  - [  -0.0002179500000000, -0.0000605500000000, -0.0001699300000000 ]
  - [   0.0025397600000000, -0.0000813700000000, -0.0000889800000000 ]
  - [  -0.0013038300000000, -0.0000383200000000, -0.0011009500000000 ]
  - [  -0.0012783500000000, -0.0000874300000000,  0.0009177400000000 ]
  - [   0.0000004400000000, -0.0000735000000000, -0.0000935500000000 ]
  - [  -0.0002817100000000, -0.0000711900000000, -0.0001253500000000 ]
  - [  -0.0002687700000000, -0.0000664200000000, -0.0000608900000000 ]
  - [   0.0033273300000000, -0.0000629600000000,  0.0000900300000000 ]
  - [  -0.0009737200000000,  0.0008485600000000,  0.0000588200000000 ]
  - [  -0.0009710500000000, -0.0009645600000000,  0.0001212000000000 ]
  - [   0.0026500800000000, -0.0000728500000000,  0.0000893800000000 ]
  - [  -0.0011420500000000, -0.0010045500000000,  0.0000788900000000 ]
  - [  -0.0010942500000000,  0.0008802100000000,  0.0001044200000000 ]
  - [  -0.0000712500000000, -0.0000563300000000,  0.0000880100000000 ]
  - [  -0.0002466200000000, -0.0000002600000000,  0.0000259300000000 ]
  - [  -0.0002260900000000, -0.0001189600000000,  0.0001573800000000 ]