 320 320   0   0
  0.1216366E+02  0.1589065E-08  0.1589065E-08  0.1541455E-08  0.5000000E-15
  1.000000000000000E-004
  CAR 
 unknown system                          
     16.94119427    -54.73899282  301      5.02436317      1.00000000
    -54.739  0.0000E+00  0.0000E+00  0.0000E+00  0.0000E+00
    -54.500  0.0000E+00  0.0000E+00  0.0000E+00  0.0000E+00
    -54.261  0.0000E+00  0.0000E+00  0.0000E+00  0.0000E+00
    -54.022  0.0000E+00  0.0000E+00  0.0000E+00  0.0000E+00
    -53.783  0.0000E+00  0.0000E+00  0.0000E+00  0.0000E+00
    -53.544  0.0000E+00  0.0000E+00  0.0000E+00  0.0000E+00
    -53.305  0.0000E+00  0.0000E+00  0.0000E+00  0.0000E+00
    -53.066  0.0000E+00  0.0000E+00  0.0000E+00  0.0000E+00
    -52.828  0.0000E+00  0.0000E+00  0.0000E+00  0.0000E+00
    -52.589  0.0000E+00  0.0000E+00  0.0000E+00  0.0000E+00
    -52.350  0.0000E+00  0.0000E+00  0.0000E+00  0.0000E+00
    -52.111  0.0000E+00  0.0000E+00  0.0000E+00  0.0000E+00
    -51.872  0.0000E+00  0.0000E+00  0.0000E+00  0.0000E+00
    -51.633  0.4346E-03  0.0000E+00  0.1038E-03  0.0000E+00
    -51.394  0.2629E+03  0.0000E+00  0.6281E+02  0.0000E+00
    -51.155  0.4961E+01  0.0000E+00  0.6400E+02  0.0000E+00
    -50.916  0.0000E+00  0.0000E+00  0.6400E+02  0.0000E+00
    -50.677  0.0000E+00  0.0000E+00  0.6400E+02  0.0000E+00
    -50.438  0.0000E+00  0.0000E+00  0.6400E+02  0.0000E+00
    -50.199  0.1238E-01  0.0000E+00  0.6400E+02  0.0000E+00
    -49.960  0.5299E+03  0.0000E+00  0.1906E+03  0.0000E+00
    -49.721  0.5797E+01  0.0000E+00  0.1920E+03  0.0000E+00
    -49.482  0.0000E+00  0.0000E+00  0.1920E+03  0.0000E+00
    -49.244  0.0000E+00  0.0000E+00  0.1920E+03  0.0000E+00
    -49.005  0.0000E+00  0.0000E+00  0.1920E+03  0.0000E+00
    -48.766  0.0000E+00  0.0000E+00  0.1920E+03  0.0000E+00
    -48.527  0.0000E+00  0.0000E+00  0.1920E+03  0.0000E+00
    -48.288  0.0000E+00  0.0000E+00  0.1920E+03  0.0000E+00
    -48.049  0.0000E+00  0.0000E+00  0.1920E+03  0.0000E+00
    -47.810  0.0000E+00  0.0000E+00  0.1920E+03  0.0000E+00
    -47.571  0.0000E+00  0.0000E+00  0.1920E+03  0.0000E+00
    -47.332  0.0000E+00  0.0000E+00  0.1920E+03  0.0000E+00
    -47.093  0.0000E+00  0.0000E+00  0.1920E+03  0.0000E+00
    -46.854  0.0000E+00  0.3867E-01  0.1920E+03  0.9238E-02
    -46.615  0.0000E+00  0.2676E+03  0.1920E+03  0.6394E+02
    -46.376  0.0000E+00  0.7924E+02  0.1920E+03  0.8288E+02
    -46.137  0.0000E+00  0.4567E+03  0.1920E+03  0.1920E+03
    -45.898  0.0000E+00  0.0000E+00  0.1920E+03  0.1920E+03
    -45.660  0.0000E+00  0.0000E+00  0.1920E+03  0.1920E+03
    -45.421  0.0000E+00  0.0000E+00  0.1920E+03  0.1920E+03
    -45.182  0.0000E+00  0.0000E+00  0.1920E+03  0.1920E+03
    -44.943  0.0000E+00  0.0000E+00  0.1920E+03  0.1920E+03
    -44.704  0.0000E+00  0.0000E+00  0.1920E+03  0.1920E+03
    -44.465  0.0000E+00  0.0000E+00  0.1920E+03  0.1920E+03
    -44.226  0.0000E+00  0.0000E+00  0.1920E+03  0.1920E+03
    -43.987  0.0000E+00  0.0000E+00  0.1920E+03  0.1920E+03
    -43.748  0.0000E+00  0.0000E+00  0.1920E+03  0.1920E+03
    -43.509  0.0000E+00  0.0000E+00  0.1920E+03  0.1920E+03
    -43.270  0.0000E+00  0.0000E+00  0.1920E+03  0.1920E+03
    -43.031  0.0000E+00  0.0000E+00  0.1920E+03  0.1920E+03
    -42.792  0.0000E+00  0.0000E+00  0.1920E+03  0.1920E+03
    -42.553  0.0000E+00  0.0000E+00  0.1920E+03  0.1920E+03
    -42.314  0.0000E+00  0.0000E+00  0.1920E+03  0.1920E+03
    -42.075  0.0000E+00  0.0000E+00  0.1920E+03  0.1920E+03
    -41.837  0.0000E+00  0.0000E+00  0.1920E+03  0.1920E+03
    -41.598  0.0000E+00  0.0000E+00  0.1920E+03  0.1920E+03
    -41.359  0.0000E+00  0.0000E+00  0.1920E+03  0.1920E+03
    -41.120  0.0000E+00  0.0000E+00  0.1920E+03  0.1920E+03
    -40.881  0.0000E+00  0.0000E+00  0.1920E+03  0.1920E+03
    -40.642  0.1314E-10  0.8597E-11  0.1920E+03  0.1920E+03
    -40.403  0.6456E+02  0.5998E+02  0.2074E+03  0.2063E+03
    -40.164  0.4668E+03  0.4721E+03  0.3190E+03  0.3191E+03
    -39.925  0.4359E+01  0.3649E+01  0.3200E+03  0.3200E+03
    -39.686  0.0000E+00  0.0000E+00  0.3200E+03  0.3200E+03
    -39.447  0.0000E+00  0.0000E+00  0.3200E+03  0.3200E+03
    -39.208  0.0000E+00  0.0000E+00  0.3200E+03  0.3200E+03
    -38.969  0.0000E+00  0.0000E+00  0.3200E+03  0.3200E+03
    -38.730  0.0000E+00  0.0000E+00  0.3200E+03  0.3200E+03
    -38.491  0.0000E+00  0.0000E+00  0.3200E+03  0.3200E+03
    -38.253  0.0000E+00  0.0000E+00  0.3200E+03  0.3200E+03
    -38.014  0.0000E+00  0.0000E+00  0.3200E+03  0.3200E+03
    -37.775  0.0000E+00  0.0000E+00  0.3200E+03  0.3200E+03
    -37.536  0.0000E+00  0.0000E+00  0.3200E+03  0.3200E+03
    -37.297  0.0000E+00  0.0000E+00  0.3200E+03  0.3200E+03
    -37.058  0.0000E+00  0.0000E+00  0.3200E+03  0.3200E+03
    -36.819  0.0000E+00  0.0000E+00  0.3200E+03  0.3200E+03
    -36.580  0.0000E+00  0.0000E+00  0.3200E+03  0.3200E+03
    -36.341  0.0000E+00  0.0000E+00  0.3200E+03  0.3200E+03
    -36.102  0.0000E+00  0.0000E+00  0.3200E+03  0.3200E+03
    -35.863  0.0000E+00  0.0000E+00  0.3200E+03  0.3200E+03
    -35.624  0.0000E+00  0.0000E+00  0.3200E+03  0.3200E+03
    -35.385  0.0000E+00  0.0000E+00  0.3200E+03  0.3200E+03
    -35.146  0.0000E+00  0.0000E+00  0.3200E+03  0.3200E+03
    -34.907  0.0000E+00  0.0000E+00  0.3200E+03  0.3200E+03
    -34.669  0.0000E+00  0.0000E+00  0.3200E+03  0.3200E+03
    -34.430  0.0000E+00  0.0000E+00  0.3200E+03  0.3200E+03
    -34.191  0.0000E+00  0.0000E+00  0.3200E+03  0.3200E+03
    -33.952  0.0000E+00  0.0000E+00  0.3200E+03  0.3200E+03
    -33.713  0.0000E+00  0.0000E+00  0.3200E+03  0.3200E+03
    -33.474  0.0000E+00  0.0000E+00  0.3200E+03  0.3200E+03
    -33.235  0.0000E+00  0.0000E+00  0.3200E+03  0.3200E+03
    -32.996  0.0000E+00  0.0000E+00  0.3200E+03  0.3200E+03
    -32.757  0.0000E+00  0.0000E+00  0.3200E+03  0.3200E+03
    -32.518  0.0000E+00  0.0000E+00  0.3200E+03  0.3200E+03
    -32.279  0.0000E+00  0.0000E+00  0.3200E+03  0.3200E+03
    -32.040  0.0000E+00  0.0000E+00  0.3200E+03  0.3200E+03
    -31.801  0.0000E+00  0.0000E+00  0.3200E+03  0.3200E+03
    -31.562  0.0000E+00  0.0000E+00  0.3200E+03  0.3200E+03
    -31.323  0.0000E+00  0.0000E+00  0.3200E+03  0.3200E+03
    -31.085  0.0000E+00  0.0000E+00  0.3200E+03  0.3200E+03
    -30.846  0.0000E+00  0.0000E+00  0.3200E+03  0.3200E+03
    -30.607  0.0000E+00  0.0000E+00  0.3200E+03  0.3200E+03
    -30.368  0.0000E+00  0.0000E+00  0.3200E+03  0.3200E+03
    -30.129  0.0000E+00  0.0000E+00  0.3200E+03  0.3200E+03
    -29.890  0.0000E+00  0.0000E+00  0.3200E+03  0.3200E+03
    -29.651  0.0000E+00  0.0000E+00  0.3200E+03  0.3200E+03
    -29.412  0.0000E+00  0.0000E+00  0.3200E+03  0.3200E+03
    -29.173  0.0000E+00  0.0000E+00  0.3200E+03  0.3200E+03
    -28.934  0.0000E+00  0.0000E+00  0.3200E+03  0.3200E+03
    -28.695  0.0000E+00  0.0000E+00  0.3200E+03  0.3200E+03
    -28.456  0.0000E+00  0.0000E+00  0.3200E+03  0.3200E+03
    -28.217  0.0000E+00  0.0000E+00  0.3200E+03  0.3200E+03
    -27.978  0.0000E+00  0.0000E+00  0.3200E+03  0.3200E+03
    -27.739  0.0000E+00  0.0000E+00  0.3200E+03  0.3200E+03
    -27.501  0.0000E+00  0.0000E+00  0.3200E+03  0.3200E+03
    -27.262  0.0000E+00  0.0000E+00  0.3200E+03  0.3200E+03
    -27.023  0.0000E+00  0.0000E+00  0.3200E+03  0.3200E+03
    -26.784  0.0000E+00  0.0000E+00  0.3200E+03  0.3200E+03
    -26.545  0.0000E+00  0.0000E+00  0.3200E+03  0.3200E+03
    -26.306  0.0000E+00  0.0000E+00  0.3200E+03  0.3200E+03
    -26.067  0.0000E+00  0.0000E+00  0.3200E+03  0.3200E+03
    -25.828  0.0000E+00  0.0000E+00  0.3200E+03  0.3200E+03
    -25.589  0.0000E+00  0.0000E+00  0.3200E+03  0.3200E+03
    -25.350  0.0000E+00  0.0000E+00  0.3200E+03  0.3200E+03
    -25.111  0.0000E+00  0.0000E+00  0.3200E+03  0.3200E+03
    -24.872  0.0000E+00  0.0000E+00  0.3200E+03  0.3200E+03
    -24.633  0.0000E+00  0.0000E+00  0.3200E+03  0.3200E+03
    -24.394  0.0000E+00  0.0000E+00  0.3200E+03  0.3200E+03
    -24.155  0.0000E+00  0.0000E+00  0.3200E+03  0.3200E+03
    -23.917  0.0000E+00  0.0000E+00  0.3200E+03  0.3200E+03
    -23.678  0.0000E+00  0.0000E+00  0.3200E+03  0.3200E+03
    -23.439  0.0000E+00  0.0000E+00  0.3200E+03  0.3200E+03
    -23.200  0.0000E+00  0.0000E+00  0.3200E+03  0.3200E+03
    -22.961  0.0000E+00  0.0000E+00  0.3200E+03  0.3200E+03
    -22.722  0.0000E+00  0.0000E+00  0.3200E+03  0.3200E+03
    -22.483  0.0000E+00  0.0000E+00  0.3200E+03  0.3200E+03
    -22.244  0.0000E+00  0.0000E+00  0.3200E+03  0.3200E+03
    -22.005  0.0000E+00  0.0000E+00  0.3200E+03  0.3200E+03
    -21.766  0.0000E+00  0.0000E+00  0.3200E+03  0.3200E+03
    -21.527  0.0000E+00  0.0000E+00  0.3200E+03  0.3200E+03
    -21.288  0.0000E+00  0.0000E+00  0.3200E+03  0.3200E+03
    -21.049  0.0000E+00  0.0000E+00  0.3200E+03  0.3200E+03
    -20.810  0.0000E+00  0.0000E+00  0.3200E+03  0.3200E+03
    -20.571  0.0000E+00  0.0000E+00  0.3200E+03  0.3200E+03
    -20.333  0.0000E+00  0.0000E+00  0.3200E+03  0.3200E+03
    -20.094  0.0000E+00  0.0000E+00  0.3200E+03  0.3200E+03
    -19.855  0.0000E+00  0.0000E+00  0.3200E+03  0.3200E+03
    -19.616  0.0000E+00  0.0000E+00  0.3200E+03  0.3200E+03
    -19.377  0.0000E+00  0.0000E+00  0.3200E+03  0.3200E+03
    -19.138  0.0000E+00  0.0000E+00  0.3200E+03  0.3200E+03
    -18.899  0.0000E+00  0.0000E+00  0.3200E+03  0.3200E+03
    -18.660  0.0000E+00  0.0000E+00  0.3200E+03  0.3200E+03
    -18.421  0.0000E+00  0.0000E+00  0.3200E+03  0.3200E+03
    -18.182  0.0000E+00  0.0000E+00  0.3200E+03  0.3200E+03
    -17.943  0.0000E+00  0.0000E+00  0.3200E+03  0.3200E+03
    -17.704  0.0000E+00  0.0000E+00  0.3200E+03  0.3200E+03
    -17.465  0.0000E+00  0.0000E+00  0.3200E+03  0.3200E+03
    -17.226  0.0000E+00  0.0000E+00  0.3200E+03  0.3200E+03
    -16.987  0.0000E+00  0.0000E+00  0.3200E+03  0.3200E+03
    -16.748  0.0000E+00  0.0000E+00  0.3200E+03  0.3200E+03
    -16.510  0.0000E+00  0.0000E+00  0.3200E+03  0.3200E+03
    -16.271  0.0000E+00  0.0000E+00  0.3200E+03  0.3200E+03
    -16.032  0.0000E+00  0.0000E+00  0.3200E+03  0.3200E+03
    -15.793  0.0000E+00  0.0000E+00  0.3200E+03  0.3200E+03
    -15.554  0.0000E+00  0.0000E+00  0.3200E+03  0.3200E+03
    -15.315  0.0000E+00  0.0000E+00  0.3200E+03  0.3200E+03
    -15.076  0.0000E+00  0.0000E+00  0.3200E+03  0.3200E+03
    -14.837  0.0000E+00  0.0000E+00  0.3200E+03  0.3200E+03
    -14.598  0.0000E+00  0.0000E+00  0.3200E+03  0.3200E+03
    -14.359  0.0000E+00  0.0000E+00  0.3200E+03  0.3200E+03
    -14.120  0.0000E+00  0.0000E+00  0.3200E+03  0.3200E+03
    -13.881  0.4454E-08  0.0000E+00  0.3200E+03  0.3200E+03
    -13.642  0.2720E+02  0.0000E+00  0.3265E+03  0.3200E+03
    -13.403  0.1446E+03  0.5094E+00  0.3610E+03  0.3201E+03
    -13.164  0.9608E+02  0.1638E+03  0.3840E+03  0.3593E+03
    -12.926  0.1808E-01  0.1035E+03  0.3840E+03  0.3840E+03
    -12.687  0.0000E+00  0.1304E-02  0.3840E+03  0.3840E+03
    -12.448  0.0000E+00  0.0000E+00  0.3840E+03  0.3840E+03
    -12.209  0.0000E+00  0.0000E+00  0.3840E+03  0.3840E+03
    -11.970  0.0000E+00  0.0000E+00  0.3840E+03  0.3840E+03
    -11.731  0.0000E+00  0.0000E+00  0.3840E+03  0.3840E+03
    -11.492  0.0000E+00  0.0000E+00  0.3840E+03  0.3840E+03
    -11.253  0.0000E+00  0.0000E+00  0.3840E+03  0.3840E+03
    -11.014  0.0000E+00  0.0000E+00  0.3840E+03  0.3840E+03
    -10.775  0.0000E+00  0.0000E+00  0.3840E+03  0.3840E+03
    -10.536  0.0000E+00  0.0000E+00  0.3840E+03  0.3840E+03
    -10.297  0.0000E+00  0.0000E+00  0.3840E+03  0.3840E+03
    -10.058  0.0000E+00  0.0000E+00  0.3840E+03  0.3840E+03
     -9.819  0.0000E+00  0.0000E+00  0.3840E+03  0.3840E+03
     -9.580  0.0000E+00  0.0000E+00  0.3840E+03  0.3840E+03
     -9.342  0.0000E+00  0.0000E+00  0.3840E+03  0.3840E+03
     -9.103  0.0000E+00  0.0000E+00  0.3840E+03  0.3840E+03
     -8.864  0.0000E+00  0.0000E+00  0.3840E+03  0.3840E+03
     -8.625  0.0000E+00  0.0000E+00  0.3840E+03  0.3840E+03
     -8.386  0.0000E+00  0.0000E+00  0.3840E+03  0.3840E+03
     -8.147  0.0000E+00  0.0000E+00  0.3840E+03  0.3840E+03
     -7.908  0.0000E+00  0.0000E+00  0.3840E+03  0.3840E+03
     -7.669  0.8214E-04  0.0000E+00  0.3840E+03  0.3840E+03
     -7.430  0.2274E+02  0.3891E-02  0.3894E+03  0.3840E+03
     -7.191  0.1141E+03  0.5215E+02  0.4167E+03  0.3965E+03
     -6.952  0.1149E+03  0.1234E+03  0.4442E+03  0.4260E+03
     -6.713  0.1608E+02  0.8232E+02  0.4480E+03  0.4456E+03
     -6.474  0.5381E-04  0.9945E+01  0.4480E+03  0.4480E+03
     -6.235  0.0000E+00  0.3940E-04  0.4480E+03  0.4480E+03
     -5.996  0.0000E+00  0.0000E+00  0.4480E+03  0.4480E+03
     -5.758  0.0000E+00  0.0000E+00  0.4480E+03  0.4480E+03
     -5.519  0.0000E+00  0.0000E+00  0.4480E+03  0.4480E+03
     -5.280  0.0000E+00  0.0000E+00  0.4480E+03  0.4480E+03
     -5.041  0.0000E+00  0.0000E+00  0.4480E+03  0.4480E+03
     -4.802  0.0000E+00  0.0000E+00  0.4480E+03  0.4480E+03
     -4.563  0.0000E+00  0.0000E+00  0.4480E+03  0.4480E+03
     -4.324  0.0000E+00  0.0000E+00  0.4480E+03  0.4480E+03
     -4.085  0.0000E+00  0.0000E+00  0.4480E+03  0.4480E+03
     -3.846  0.0000E+00  0.0000E+00  0.4480E+03  0.4480E+03
     -3.607  0.0000E+00  0.0000E+00  0.4480E+03  0.4480E+03
     -3.368  0.0000E+00  0.0000E+00  0.4480E+03  0.4480E+03
     -3.129  0.0000E+00  0.0000E+00  0.4480E+03  0.4480E+03
     -2.890  0.1947E-06  0.0000E+00  0.4480E+03  0.4480E+03
     -2.651  0.2848E+02  0.0000E+00  0.4548E+03  0.4480E+03
     -2.412  0.5059E+02  0.0000E+00  0.4669E+03  0.4480E+03
     -2.174  0.2138E+02  0.0000E+00  0.4720E+03  0.4480E+03
     -1.935  0.8167E-06  0.0000E+00  0.4720E+03  0.4480E+03
     -1.696  0.4809E+02  0.0000E+00  0.4835E+03  0.4480E+03
     -1.457  0.2097E+02  0.0000E+00  0.4885E+03  0.4480E+03
     -1.218  0.1123E+03  0.5038E-03  0.5153E+03  0.4480E+03
     -0.979  0.1358E+03  0.1810E+02  0.5478E+03  0.4523E+03
     -0.740  0.1496E+03  0.7429E+02  0.5835E+03  0.4701E+03
     -0.501  0.1401E+03  0.1495E+02  0.6170E+03  0.4736E+03
     -0.262  0.1688E+03  0.5106E+02  0.6573E+03  0.4858E+03
     -0.023  0.1879E+03  0.1234E+02  0.7022E+03  0.4888E+03
      0.216  0.1125E+03  0.5610E+02  0.7291E+03  0.5022E+03
      0.455  0.1050E+03  0.1638E+03  0.7542E+03  0.5413E+03
      0.694  0.9858E+02  0.1501E+03  0.7777E+03  0.5772E+03
      0.933  0.9514E+02  0.2047E+03  0.8005E+03  0.6261E+03
      1.172  0.1228E+03  0.6005E+02  0.8298E+03  0.6405E+03
      1.410  0.1901E+03  0.2960E+02  0.8752E+03  0.6475E+03
      1.649  0.1681E+03  0.9477E+02  0.9154E+03  0.6702E+03
      1.888  0.5430E+02  0.8657E+02  0.9284E+03  0.6909E+03
      2.127  0.9681E+02  0.7638E+02  0.9515E+03  0.7091E+03
      2.366  0.6652E+02  0.5000E+02  0.9674E+03  0.7211E+03
      2.605  0.9429E+02  0.9727E+02  0.9899E+03  0.7443E+03
      2.844  0.1018E+03  0.1171E+03  0.1014E+04  0.7723E+03
      3.083  0.1069E+03  0.1517E+03  0.1040E+04  0.8085E+03
      3.322  0.1058E+03  0.7573E+02  0.1065E+04  0.8266E+03
      3.561  0.1004E+03  0.7118E+02  0.1089E+04  0.8436E+03
      3.800  0.9654E+02  0.1605E+03  0.1112E+04  0.8820E+03
      4.039  0.8390E+02  0.5869E+02  0.1132E+04  0.8960E+03
      4.278  0.4529E+02  0.5454E-02  0.1143E+04  0.8960E+03
      4.517  0.3440E+02  0.0000E+00  0.1151E+04  0.8960E+03
      4.756  0.3301E+01  0.0000E+00  0.1152E+04  0.8960E+03
      4.994  0.2196E-03  0.0000E+00  0.1152E+04  0.8960E+03
      5.233  0.0000E+00  0.0000E+00  0.1152E+04  0.8960E+03
      5.472  0.0000E+00  0.0000E+00  0.1152E+04  0.8960E+03
      5.711  0.0000E+00  0.0000E+00  0.1152E+04  0.8960E+03
      5.950  0.0000E+00  0.0000E+00  0.1152E+04  0.8960E+03
      6.189  0.0000E+00  0.0000E+00  0.1152E+04  0.8960E+03
      6.428  0.0000E+00  0.1088E-05  0.1152E+04  0.8960E+03
      6.667  0.0000E+00  0.1741E+02  0.1152E+04  0.9002E+03
      6.906  0.8364E-14  0.1358E+03  0.1152E+04  0.9326E+03
      7.145  0.1060E+00  0.1323E+03  0.1152E+04  0.9642E+03
      7.384  0.4171E+00  0.1348E+03  0.1152E+04  0.9964E+03
      7.623  0.2268E+01  0.1071E+03  0.1153E+04  0.1022E+04
      7.862  0.2174E+01  0.1620E+03  0.1153E+04  0.1061E+04
      8.101  0.7060E+01  0.1582E+03  0.1155E+04  0.1098E+04
      8.340  0.2050E+02  0.1348E+03  0.1160E+04  0.1131E+04
      8.579  0.3327E+02  0.7813E+02  0.1168E+04  0.1149E+04
      8.817  0.3345E+02  0.1897E+02  0.1176E+04  0.1154E+04
      9.056  0.4791E+02  0.1502E+02  0.1187E+04  0.1157E+04
      9.295  0.7533E+02  0.2025E+02  0.1205E+04  0.1162E+04
      9.534  0.5559E+02  0.3533E+02  0.1218E+04  0.1171E+04
      9.773  0.4833E+02  0.5739E+02  0.1230E+04  0.1184E+04
     10.012  0.3642E+02  0.8344E+02  0.1239E+04  0.1204E+04
     10.251  0.3806E+02  0.7232E+02  0.1248E+04  0.1222E+04
     10.490  0.7383E+02  0.6489E+02  0.1265E+04  0.1237E+04
     10.729  0.6458E+02  0.4183E+02  0.1281E+04  0.1247E+04
     10.968  0.6529E+02  0.8271E+02  0.1296E+04  0.1267E+04
     11.207  0.9939E+02  0.4485E+02  0.1320E+04  0.1278E+04
     11.446  0.1291E+03  0.4894E+02  0.1351E+04  0.1289E+04
     11.685  0.1175E+03  0.9034E+02  0.1379E+04  0.1311E+04
     11.924  0.8025E+02  0.1411E+03  0.1398E+04  0.1345E+04
     12.163  0.3555E+02  0.1477E+03  0.1407E+04  0.1380E+04
     12.401  0.6940E+02  0.6897E+02  0.1423E+04  0.1396E+04
     12.640  0.6395E+02  0.5174E+02  0.1439E+04  0.1409E+04
     12.879  0.6301E+02  0.5458E+02  0.1454E+04  0.1422E+04
     13.118  0.4727E+02  0.7874E+02  0.1465E+04  0.1441E+04
     13.357  0.1229E+02  0.5723E+02  0.1468E+04  0.1454E+04
     13.596  0.2612E+00  0.5267E+02  0.1468E+04  0.1467E+04
     13.835  0.0000E+00  0.4534E+01  0.1468E+04  0.1468E+04
     14.074  0.0000E+00  0.4456E-05  0.1468E+04  0.1468E+04
     14.313  0.0000E+00  0.0000E+00  0.1468E+04  0.1468E+04
     14.552  0.0000E+00  0.0000E+00  0.1468E+04  0.1468E+04
     14.791  0.0000E+00  0.0000E+00  0.1468E+04  0.1468E+04
     15.030  0.0000E+00  0.0000E+00  0.1468E+04  0.1468E+04
     15.269  0.0000E+00  0.0000E+00  0.1468E+04  0.1468E+04
     15.508  0.0000E+00  0.0000E+00  0.1468E+04  0.1468E+04
     15.747  0.0000E+00  0.0000E+00  0.1468E+04  0.1468E+04
     15.985  0.0000E+00  0.0000E+00  0.1468E+04  0.1468E+04
     16.224  0.0000E+00  0.0000E+00  0.1468E+04  0.1468E+04
     16.463  0.0000E+00  0.0000E+00  0.1468E+04  0.1468E+04
     16.702  0.0000E+00  0.0000E+00  0.1468E+04  0.1468E+04
     16.941  0.0000E+00  0.0000E+00  0.1468E+04  0.1468E+04
