  320  320    1    2
  0.1216366E+02  0.1589065E-08  0.1589065E-08  0.1541455E-08  0.5000000E-15
  1.000000000000000E-004
  CAR 
 unknown system                          
   2048      8   1468
 
  0.0000000E+00  0.0000000E+00  0.0000000E+00  0.1250000E+00
    1      -51.480799    -46.737066   1.000000   1.000000
    2      -51.470205    -46.728465   1.000000   1.000000
    3      -51.469782    -46.728020   1.000000   1.000000
    4      -51.469464    -46.727752   1.000000   1.000000
    5      -51.469108    -46.727444   1.000000   1.000000
    6      -51.469038    -46.727196   1.000000   1.000000
    7      -51.468979    -46.727134   1.000000   1.000000
    8      -51.468790    -46.727037   1.000000   1.000000
    9      -51.468749    -46.727033   1.000000   1.000000
   10      -51.468726    -46.726989   1.000000   1.000000
   11      -51.468656    -46.726973   1.000000   1.000000
   12      -51.468647    -46.726922   1.000000   1.000000
   13      -51.468580    -46.726858   1.000000   1.000000
   14      -51.468565    -46.726814   1.000000   1.000000
   15      -51.468453    -46.726775   1.000000   1.000000
   16      -51.468431    -46.726718   1.000000   1.000000
   17      -51.468420    -46.726653   1.000000   1.000000
   18      -51.468404    -46.726607   1.000000   1.000000
   19      -51.468396    -46.726483   1.000000   1.000000
   20      -51.468278    -46.726349   1.000000   1.000000
   21      -51.468253    -46.726181   1.000000   1.000000
   22      -51.468174    -46.726101   1.000000   1.000000
   23      -51.468050    -46.726068   1.000000   1.000000
   24      -51.467994    -46.725931   1.000000   1.000000
   25      -51.467957    -46.725914   1.000000   1.000000
   26      -51.467943    -46.725880   1.000000   1.000000
   27      -51.467932    -46.725852   1.000000   1.000000
   28      -51.467931    -46.725839   1.000000   1.000000
   29      -51.467924    -46.725822   1.000000   1.000000
   30      -51.467917    -46.725788   1.000000   1.000000
   31      -51.467878    -46.725787   1.000000   1.000000
   32      -51.467844    -46.725723   1.000000   1.000000
   33      -51.467791    -46.725687   1.000000   1.000000
   34      -51.467775    -46.725627   1.000000   1.000000
   35      -51.467722    -46.725619   1.000000   1.000000
   36      -51.467719    -46.725604   1.000000   1.000000
   37      -51.467707    -46.725576   1.000000   1.000000
   38      -51.467703    -46.725567   1.000000   1.000000
   39      -51.467697    -46.725544   1.000000   1.000000
   40      -51.467676    -46.725496   1.000000   1.000000
   41      -51.467658    -46.725478   1.000000   1.000000
   42      -51.467578    -46.725360   1.000000   1.000000
   43      -51.467481    -46.725337   1.000000   1.000000
   44      -51.467405    -46.725247   1.000000   1.000000
   45      -51.467378    -46.725080   1.000000   1.000000
   46      -51.467254    -46.724928   1.000000   1.000000
   47      -51.467241    -46.724836   1.000000   1.000000
   48      -51.467233    -46.724769   1.000000   1.000000
   49      -51.467205    -46.724701   1.000000   1.000000
   50      -51.467203    -46.724664   1.000000   1.000000
   51      -51.467063    -46.724600   1.000000   1.000000
   52      -51.467056    -46.724587   1.000000   1.000000
   53      -51.466986    -46.724511   1.000000   1.000000
   54      -51.466978    -46.724443   1.000000   1.000000
   55      -51.466932    -46.724439   1.000000   1.000000
   56      -51.466902    -46.724394   1.000000   1.000000
   57      -51.466845    -46.724389   1.000000   1.000000
   58      -51.466676    -46.724313   1.000000   1.000000
   59      -51.466587    -46.724240   1.000000   1.000000
   60      -51.466551    -46.724003   1.000000   1.000000
   61      -51.466191    -46.723687   1.000000   1.000000
   62      -51.465848    -46.723402   1.000000   1.000000
   63      -51.465443    -46.722969   1.000000   1.000000
   64      -51.454816    -46.714384   1.000000   1.000000
   65      -50.071698    -46.357354   1.000000   1.000000
   66      -50.062714    -46.349190   1.000000   1.000000
   67      -50.062370    -46.348832   1.000000   1.000000
   68      -50.061887    -46.348379   1.000000   1.000000
   69      -50.061567    -46.348014   1.000000   1.000000
   70      -50.061547    -46.347984   1.000000   1.000000
   71      -50.061515    -46.347952   1.000000   1.000000
   72      -50.061253    -46.347709   1.000000   1.000000
   73      -50.061207    -46.347639   1.000000   1.000000
   74      -50.061005    -46.347442   1.000000   1.000000
   75      -50.060928    -46.347385   1.000000   1.000000
   76      -50.060903    -46.347349   1.000000   1.000000
   77      -50.060887    -46.347335   1.000000   1.000000
   78      -50.060857    -46.347309   1.000000   1.000000
   79      -50.060848    -46.347303   1.000000   1.000000
   80      -50.060812    -46.347261   1.000000   1.000000
   81      -50.060810    -46.347256   1.000000   1.000000
   82      -50.060757    -46.347182   1.000000   1.000000
   83      -50.060725    -46.347167   1.000000   1.000000
   84      -50.060693    -46.347160   1.000000   1.000000
   85      -50.060691    -46.347145   1.000000   1.000000
   86      -50.060661    -46.347111   1.000000   1.000000
   87      -50.060643    -46.347109   1.000000   1.000000
   88      -50.060631    -46.347090   1.000000   1.000000
   89      -50.060623    -46.347058   1.000000   1.000000
   90      -50.060590    -46.347056   1.000000   1.000000
   91      -50.060584    -46.347034   1.000000   1.000000
   92      -50.060523    -46.346986   1.000000   1.000000
   93      -50.060514    -46.346963   1.000000   1.000000
   94      -50.060499    -46.346953   1.000000   1.000000
   95      -50.060484    -46.346940   1.000000   1.000000
   96      -50.060479    -46.346929   1.000000   1.000000
   97      -50.060465    -46.346908   1.000000   1.000000
   98      -50.060443    -46.346890   1.000000   1.000000
   99      -50.060441    -46.346885   1.000000   1.000000
  100      -50.060430    -46.346877   1.000000   1.000000
  101      -50.060411    -46.346848   1.000000   1.000000
  102      -50.060411    -46.346826   1.000000   1.000000
  103      -50.060370    -46.346806   1.000000   1.000000
  104      -50.060362    -46.346797   1.000000   1.000000
  105      -50.060341    -46.346751   1.000000   1.000000
  106      -50.060312    -46.346732   1.000000   1.000000
  107      -50.060303    -46.346724   1.000000   1.000000
  108      -50.060284    -46.346711   1.000000   1.000000
  109      -50.060276    -46.346698   1.000000   1.000000
  110      -50.060255    -46.346690   1.000000   1.000000
  111      -50.060239    -46.346679   1.000000   1.000000
  112      -50.060153    -46.346590   1.000000   1.000000
  113      -50.060135    -46.346568   1.000000   1.000000
  114      -50.060106    -46.346538   1.000000   1.000000
  115      -50.060105    -46.346537   1.000000   1.000000
  116      -50.060092    -46.346523   1.000000   1.000000
  117      -50.060043    -46.346497   1.000000   1.000000
  118      -50.060002    -46.346449   1.000000   1.000000
  119      -50.059981    -46.346412   1.000000   1.000000
  120      -50.059784    -46.346216   1.000000   1.000000
  121      -50.059667    -46.346121   1.000000   1.000000
  122      -50.059440    -46.345889   1.000000   1.000000
  123      -50.059404    -46.345862   1.000000   1.000000
  124      -50.059366    -46.345823   1.000000   1.000000
  125      -50.059033    -46.345449   1.000000   1.000000
  126      -50.058623    -46.345024   1.000000   1.000000
  127      -50.058199    -46.344633   1.000000   1.000000
  128      -50.049265    -46.339563   1.000000   1.000000
  129      -50.044722    -46.336494   1.000000   1.000000
  130      -50.035905    -46.331561   1.000000   1.000000
  131      -50.035470    -46.331099   1.000000   1.000000
  132      -50.035065    -46.330634   1.000000   1.000000
  133      -50.034735    -46.330403   1.000000   1.000000
  134      -50.034716    -46.330384   1.000000   1.000000
  135      -50.034647    -46.330321   1.000000   1.000000
  136      -50.034516    -46.330202   1.000000   1.000000
  137      -50.034245    -46.329993   1.000000   1.000000
  138      -50.034235    -46.329860   1.000000   1.000000
  139      -50.034142    -46.329839   1.000000   1.000000
  140      -50.034125    -46.329827   1.000000   1.000000
  141      -50.034088    -46.329771   1.000000   1.000000
  142      -50.034082    -46.329698   1.000000   1.000000
  143      -50.034055    -46.329694   1.000000   1.000000
  144      -50.034052    -46.329625   1.000000   1.000000
  145      -50.033874    -46.329498   1.000000   1.000000
  146      -50.033869    -46.329495   1.000000   1.000000
  147      -50.033865    -46.329475   1.000000   1.000000
  148      -50.033805    -46.329459   1.000000   1.000000
  149      -50.033781    -46.329438   1.000000   1.000000
  150      -50.033765    -46.329405   1.000000   1.000000
  151      -50.033748    -46.329390   1.000000   1.000000
  152      -50.033737    -46.329367   1.000000   1.000000
  153      -50.033719    -46.329352   1.000000   1.000000
  154      -50.033688    -46.329313   1.000000   1.000000
  155      -50.033685    -46.329294   1.000000   1.000000
  156      -50.033683    -46.329242   1.000000   1.000000
  157      -50.033645    -46.329219   1.000000   1.000000
  158      -50.033628    -46.329217   1.000000   1.000000
  159      -50.033627    -46.329211   1.000000   1.000000
  160      -50.033584    -46.329192   1.000000   1.000000
  161      -50.033579    -46.329158   1.000000   1.000000
  162      -50.033575    -46.329147   1.000000   1.000000
  163      -50.033559    -46.329147   1.000000   1.000000
  164      -50.033527    -46.329123   1.000000   1.000000
  165      -50.033522    -46.329103   1.000000   1.000000
  166      -50.033474    -46.329012   1.000000   1.000000
  167      -50.033420    -46.329003   1.000000   1.000000
  168      -50.033418    -46.328978   1.000000   1.000000
  169      -50.033403    -46.328940   1.000000   1.000000
  170      -50.033381    -46.328938   1.000000   1.000000
  171      -50.033360    -46.328902   1.000000   1.000000
  172      -50.033339    -46.328898   1.000000   1.000000
  173      -50.033336    -46.328888   1.000000   1.000000
  174      -50.033321    -46.328826   1.000000   1.000000
  175      -50.033232    -46.328812   1.000000   1.000000
  176      -50.033226    -46.328798   1.000000   1.000000
  177      -50.033149    -46.328738   1.000000   1.000000
  178      -50.033125    -46.328672   1.000000   1.000000
  179      -50.033120    -46.328604   1.000000   1.000000
  180      -50.033066    -46.328600   1.000000   1.000000
  181      -50.033050    -46.328538   1.000000   1.000000
  182      -50.032979    -46.328462   1.000000   1.000000
  183      -50.032871    -46.328441   1.000000   1.000000
  184      -50.032854    -46.328324   1.000000   1.000000
  185      -50.032689    -46.328170   1.000000   1.000000
  186      -50.032562    -46.328053   1.000000   1.000000
  187      -50.032474    -46.327988   1.000000   1.000000
  188      -50.032382    -46.327897   1.000000   1.000000
  189      -50.032137    -46.327728   1.000000   1.000000
  190      -50.031629    -46.327197   1.000000   1.000000
  191      -50.031289    -46.326797   1.000000   1.000000
  192      -50.022347    -46.318724   1.000000   1.000000
  193      -40.388573    -40.386612   1.000000   1.000000
  194      -40.381703    -40.379788   1.000000   1.000000
  195      -40.380729    -40.378773   1.000000   1.000000
  196      -40.380631    -40.378681   1.000000   1.000000
  197      -40.380433    -40.378475   1.000000   1.000000
  198      -40.380153    -40.378204   1.000000   1.000000
  199      -40.379984    -40.378024   1.000000   1.000000
  200      -40.379887    -40.377928   1.000000   1.000000
  201      -40.379724    -40.377754   1.000000   1.000000
  202      -40.379454    -40.377491   1.000000   1.000000
  203      -40.379426    -40.377454   1.000000   1.000000
  204      -40.379378    -40.377398   1.000000   1.000000
  205      -40.379197    -40.377217   1.000000   1.000000
  206      -40.379174    -40.377198   1.000000   1.000000
  207      -40.379143    -40.377158   1.000000   1.000000
  208      -40.379088    -40.377106   1.000000   1.000000
  209      -40.379019    -40.377024   1.000000   1.000000
  210      -40.378898    -40.376906   1.000000   1.000000
  211      -40.378830    -40.376848   1.000000   1.000000
  212      -40.378770    -40.376792   1.000000   1.000000
  213      -40.378689    -40.376709   1.000000   1.000000
  214      -40.378625    -40.376634   1.000000   1.000000
  215      -40.378552    -40.376570   1.000000   1.000000
  216      -40.378414    -40.376426   1.000000   1.000000
  217      -40.378274    -40.376287   1.000000   1.000000
  218      -40.378256    -40.376274   1.000000   1.000000
  219      -40.378173    -40.376189   1.000000   1.000000
  220      -40.378096    -40.376112   1.000000   1.000000
  221      -40.378075    -40.376087   1.000000   1.000000
  222      -40.378045    -40.376059   1.000000   1.000000
  223      -40.378026    -40.376035   1.000000   1.000000
  224      -40.377974    -40.375983   1.000000   1.000000
  225      -40.377899    -40.375904   1.000000   1.000000
  226      -40.377859    -40.375864   1.000000   1.000000
  227      -40.377825    -40.375828   1.000000   1.000000
  228      -40.377712    -40.375718   1.000000   1.000000
  229      -40.377673    -40.375680   1.000000   1.000000
  230      -40.377643    -40.375643   1.000000   1.000000
  231      -40.377618    -40.375625   1.000000   1.000000
  232      -40.377585    -40.375595   1.000000   1.000000
  233      -40.377374    -40.375376   1.000000   1.000000
  234      -40.377358    -40.375358   1.000000   1.000000
  235      -40.377337    -40.375338   1.000000   1.000000
  236      -40.377305    -40.375312   1.000000   1.000000
  237      -40.377258    -40.375261   1.000000   1.000000
  238      -40.377242    -40.375246   1.000000   1.000000
  239      -40.377183    -40.375185   1.000000   1.000000
  240      -40.377021    -40.375023   1.000000   1.000000
  241      -40.376958    -40.374956   1.000000   1.000000
  242      -40.376922    -40.374925   1.000000   1.000000
  243      -40.376805    -40.374808   1.000000   1.000000
  244      -40.376743    -40.374744   1.000000   1.000000
  245      -40.376700    -40.374700   1.000000   1.000000
  246      -40.376688    -40.374688   1.000000   1.000000
  247      -40.376680    -40.374683   1.000000   1.000000
  248      -40.376574    -40.374573   1.000000   1.000000
  249      -40.376533    -40.374536   1.000000   1.000000
  250      -40.376449    -40.374450   1.000000   1.000000
  251      -40.376419    -40.374421   1.000000   1.000000
  252      -40.376354    -40.374358   1.000000   1.000000
  253      -40.375675    -40.373681   1.000000   1.000000
  254      -40.375421    -40.373427   1.000000   1.000000
  255      -40.375114    -40.373124   1.000000   1.000000
  256      -40.367539    -40.365533   1.000000   1.000000
  257      -40.250564    -40.253094   1.000000   1.000000
  258      -40.242314    -40.244814   1.000000   1.000000
  259      -40.241969    -40.244469   1.000000   1.000000
  260      -40.241283    -40.243794   1.000000   1.000000
  261      -40.241190    -40.243685   1.000000   1.000000
  262      -40.240991    -40.243479   1.000000   1.000000
  263      -40.240885    -40.243384   1.000000   1.000000
  264      -40.240730    -40.243247   1.000000   1.000000
  265      -40.240688    -40.243184   1.000000   1.000000
  266      -40.240625    -40.243136   1.000000   1.000000
  267      -40.240586    -40.243097   1.000000   1.000000
  268      -40.240533    -40.243042   1.000000   1.000000
  269      -40.240470    -40.242957   1.000000   1.000000
  270      -40.240356    -40.242855   1.000000   1.000000
  271      -40.240336    -40.242814   1.000000   1.000000
  272      -40.240258    -40.242760   1.000000   1.000000
  273      -40.240246    -40.242748   1.000000   1.000000
  274      -40.240221    -40.242738   1.000000   1.000000
  275      -40.240170    -40.242661   1.000000   1.000000
  276      -40.240142    -40.242644   1.000000   1.000000
  277      -40.240115    -40.242618   1.000000   1.000000
  278      -40.240085    -40.242576   1.000000   1.000000
  279      -40.240034    -40.242534   1.000000   1.000000
  280      -40.239994    -40.242504   1.000000   1.000000
  281      -40.239942    -40.242456   1.000000   1.000000
  282      -40.239932    -40.242437   1.000000   1.000000
  283      -40.239915    -40.242429   1.000000   1.000000
  284      -40.239904    -40.242409   1.000000   1.000000
  285      -40.239821    -40.242315   1.000000   1.000000
  286      -40.239798    -40.242305   1.000000   1.000000
  287      -40.239797    -40.242293   1.000000   1.000000
  288      -40.239770    -40.242273   1.000000   1.000000
  289      -40.239759    -40.242257   1.000000   1.000000
  290      -40.239738    -40.242235   1.000000   1.000000
  291      -40.239693    -40.242188   1.000000   1.000000
  292      -40.239677    -40.242176   1.000000   1.000000
  293      -40.239635    -40.242130   1.000000   1.000000
  294      -40.239622    -40.242111   1.000000   1.000000
  295      -40.239605    -40.242080   1.000000   1.000000
  296      -40.239574    -40.242051   1.000000   1.000000
  297      -40.239523    -40.242012   1.000000   1.000000
  298      -40.239497    -40.241971   1.000000   1.000000
  299      -40.239422    -40.241906   1.000000   1.000000
  300      -40.239399    -40.241878   1.000000   1.000000
  301      -40.239358    -40.241842   1.000000   1.000000
  302      -40.239333    -40.241813   1.000000   1.000000
  303      -40.239277    -40.241758   1.000000   1.000000
  304      -40.239238    -40.241725   1.000000   1.000000
  305      -40.239176    -40.241655   1.000000   1.000000
  306      -40.239081    -40.241561   1.000000   1.000000
  307      -40.239012    -40.241492   1.000000   1.000000
  308      -40.238937    -40.241401   1.000000   1.000000
  309      -40.238887    -40.241365   1.000000   1.000000
  310      -40.238860    -40.241334   1.000000   1.000000
  311      -40.238794    -40.241258   1.000000   1.000000
  312      -40.238760    -40.241232   1.000000   1.000000
  313      -40.238611    -40.241081   1.000000   1.000000
  314      -40.238483    -40.240947   1.000000   1.000000
  315      -40.238411    -40.240882   1.000000   1.000000
  316      -40.238225    -40.240701   1.000000   1.000000
  317      -40.238106    -40.240579   1.000000   1.000000
  318      -40.237475    -40.239955   1.000000   1.000000
  319      -40.237086    -40.239557   1.000000   1.000000
  320      -40.228901    -40.231343   1.000000   1.000000
  321      -13.667553    -13.339895   1.000000   1.000000
  322      -13.667492    -13.339853   1.000000   1.000000
  323      -13.664847    -13.336011   1.000000   1.000000
  324      -13.664790    -13.335965   1.000000   1.000000
  325      -13.650112    -13.322291   1.000000   1.000000
  326      -13.648975    -13.322128   1.000000   1.000000
  327      -13.648949    -13.322050   1.000000   1.000000
  328      -13.648899    -13.322025   1.000000   1.000000
  329      -13.648728    -13.320750   1.000000   1.000000
  330      -13.644619    -13.316305   1.000000   1.000000
  331      -13.644572    -13.316257   1.000000   1.000000
  332      -13.644551    -13.316242   1.000000   1.000000
  333      -13.644537    -13.316225   1.000000   1.000000
  334      -13.624370    -13.296602   1.000000   1.000000
  335      -13.624341    -13.296572   1.000000   1.000000
  336      -13.598829    -13.272336   1.000000   1.000000
  337      -13.507785    -13.233704   1.000000   1.000000
  338      -13.507661    -13.233670   1.000000   1.000000
  339      -13.507613    -13.233541   1.000000   1.000000
  340      -13.507474    -13.233434   1.000000   1.000000
  341      -13.504142    -13.232350   1.000000   1.000000
  342      -13.503991    -13.232232   1.000000   1.000000
  343      -13.503943    -13.232121   1.000000   1.000000
  344      -13.503771    -13.231988   1.000000   1.000000
  345      -13.498538    -13.224338   1.000000   1.000000
  346      -13.498372    -13.224222   1.000000   1.000000
  347      -13.498362    -13.224212   1.000000   1.000000
  348      -13.498237    -13.224126   1.000000   1.000000
  349      -13.476090    -13.201856   1.000000   1.000000
  350      -13.475772    -13.201628   1.000000   1.000000
  351      -13.475771    -13.201626   1.000000   1.000000
  352      -13.475770    -13.201625   1.000000   1.000000
  353      -13.475766    -13.201623   1.000000   1.000000
  354      -13.475765    -13.201622   1.000000   1.000000
  355      -13.475765    -13.201621   1.000000   1.000000
  356      -13.475469    -13.201412   1.000000   1.000000
  357      -13.453219    -13.179051   1.000000   1.000000
  358      -13.453086    -13.178957   1.000000   1.000000
  359      -13.453076    -13.178947   1.000000   1.000000
  360      -13.452912    -13.178833   1.000000   1.000000
  361      -13.448792    -13.173220   1.000000   1.000000
  362      -13.448636    -13.173123   1.000000   1.000000
  363      -13.448595    -13.173051   1.000000   1.000000
  364      -13.448465    -13.172946   1.000000   1.000000
  365      -13.443883    -13.169666   1.000000   1.000000
  366      -13.443735    -13.169560   1.000000   1.000000
  367      -13.443699    -13.169507   1.000000   1.000000
  368      -13.443576    -13.169449   1.000000   1.000000
  369      -13.355925    -13.144073   1.000000   1.000000
  370      -13.319907    -13.107656   1.000000   1.000000
  371      -13.319873    -13.107621   1.000000   1.000000
  372      -13.294327    -13.081715   1.000000   1.000000
  373      -13.294305    -13.081691   1.000000   1.000000
  374      -13.294290    -13.081682   1.000000   1.000000
  375      -13.294240    -13.081631   1.000000   1.000000
  376      -13.288445    -13.073441   1.000000   1.000000
  377      -13.288360    -13.073328   1.000000   1.000000
  378      -13.288282    -13.073227   1.000000   1.000000
  379      -13.288202    -13.073141   1.000000   1.000000
  380      -13.283345    -13.070631   1.000000   1.000000
  381      -13.268538    -13.055557   1.000000   1.000000
  382      -13.268480    -13.055509   1.000000   1.000000
  383      -13.265497    -13.051317   1.000000   1.000000
  384      -13.265446    -13.051282   1.000000   1.000000
  385       -7.538677     -7.332727   1.000000   1.000000
  386       -7.470158     -7.287902   1.000000   1.000000
  387       -7.469589     -7.287308   1.000000   1.000000
  388       -7.469505     -7.287225   1.000000   1.000000
  389       -7.468959     -7.286657   1.000000   1.000000
  390       -7.404720     -7.245210   1.000000   1.000000
  391       -7.404703     -7.245201   1.000000   1.000000
  392       -7.395583     -7.219123   1.000000   1.000000
  393       -7.395219     -7.218737   1.000000   1.000000
  394       -7.356466     -7.188686   1.000000   1.000000
  395       -7.356028     -7.188256   1.000000   1.000000
  396       -7.355830     -7.188038   1.000000   1.000000
  397       -7.355436     -7.187614   1.000000   1.000000
  398       -7.351802     -7.166537   1.000000   1.000000
  399       -7.351633     -7.166334   1.000000   1.000000
  400       -7.351285     -7.165976   1.000000   1.000000
  401       -7.351068     -7.165768   1.000000   1.000000
  402       -7.315260     -7.117906   1.000000   1.000000
  403       -7.315247     -7.117865   1.000000   1.000000
  404       -7.277588     -7.116795   1.000000   1.000000
  405       -7.277422     -7.116665   1.000000   1.000000
  406       -7.277058     -7.116294   1.000000   1.000000
  407       -7.276889     -7.116080   1.000000   1.000000
  408       -7.238219     -7.092060   1.000000   1.000000
  409       -7.237697     -7.085645   1.000000   1.000000
  410       -7.237620     -7.085109   1.000000   1.000000
  411       -7.237105     -7.085031   1.000000   1.000000
  412       -7.233079     -7.084487   1.000000   1.000000
  413       -7.209838     -7.034851   1.000000   1.000000
  414       -7.209500     -7.034490   1.000000   1.000000
  415       -7.209434     -7.034430   1.000000   1.000000
  416       -7.209237     -7.034213   1.000000   1.000000
  417       -7.209090     -7.034068   1.000000   1.000000
  418       -7.208891     -7.033852   1.000000   1.000000
  419       -7.208827     -7.033793   1.000000   1.000000
  420       -7.208471     -7.033426   1.000000   1.000000
  421       -7.147432     -7.005102   1.000000   1.000000
  422       -7.147424     -7.005101   1.000000   1.000000
  423       -7.143307     -6.979183   1.000000   1.000000
  424       -7.143124     -6.978640   1.000000   1.000000
  425       -7.142776     -6.978557   1.000000   1.000000
  426       -7.142627     -6.978007   1.000000   1.000000
  427       -7.141115     -6.950932   1.000000   1.000000
  428       -7.140629     -6.950755   1.000000   1.000000
  429       -7.140546     -6.950396   1.000000   1.000000
  430       -7.139991     -6.950222   1.000000   1.000000
  431       -7.052467     -6.907003   1.000000   1.000000
  432       -7.052229     -6.889702   1.000000   1.000000
  433       -7.051876     -6.889533   1.000000   1.000000
  434       -7.051797     -6.889169   1.000000   1.000000
  435       -7.050707     -6.888985   1.000000   1.000000
  436       -7.046690     -6.862845   1.000000   1.000000
  437       -7.046274     -6.862413   1.000000   1.000000
  438       -7.046074     -6.862197   1.000000   1.000000
  439       -7.045701     -6.861804   1.000000   1.000000
  440       -7.042261     -6.856001   1.000000   1.000000
  441       -7.042163     -6.855937   1.000000   1.000000
  442       -6.950773     -6.764502   1.000000   1.000000
  443       -6.950426     -6.764140   1.000000   1.000000
  444       -6.946621     -6.737377   1.000000   1.000000
  445       -6.946128     -6.736838   1.000000   1.000000
  446       -6.946051     -6.736759   1.000000   1.000000
  447       -6.945476     -6.736190   1.000000   1.000000
  448       -6.844503     -6.608332   1.000000   1.000000
  449       -2.693688     -1.099978   1.000000   1.000000
  450       -2.693609     -1.099966   1.000000   1.000000
  451       -2.690418     -1.046656   1.000000   1.000000
  452       -2.690418     -1.046639   1.000000   1.000000
  453       -2.690007     -1.040235   1.000000   1.000000
  454       -2.689889     -1.040230   1.000000   1.000000
  455       -2.687294     -0.973035   1.000000   1.000000
  456       -2.687217     -0.972983   1.000000   1.000000
  457       -2.687058     -0.972936   1.000000   1.000000
  458       -2.687028     -0.972877   1.000000   1.000000
  459       -2.686968     -0.914355   1.000000   1.000000
  460       -2.686901     -0.914350   1.000000   1.000000
  461       -2.685395     -0.914341   1.000000   1.000000
  462       -2.685328     -0.914321   1.000000   1.000000
  463       -2.685321     -0.898295   1.000000   1.000000
  464       -2.685126     -0.898271   1.000000   1.000000
  465       -1.748533     -0.599527   1.000000   1.000000
  466       -1.748488     -0.599454   1.000000   1.000000
  467       -1.748434     -0.599422   1.000000   1.000000
  468       -1.748328     -0.599350   1.000000   1.000000
  469       -1.746490     -0.494299   1.000000   1.000000
  470       -1.746404     -0.494192   1.000000   1.000000
  471       -1.746338     -0.494004   1.000000   1.000000
  472       -1.746306     -0.493892   1.000000   1.000000
  473       -1.725256     -0.416927   1.000000   1.000000
  474       -1.725172     -0.416860   1.000000   1.000000
  475       -1.725112     -0.416797   1.000000   1.000000
  476       -1.725046     -0.416725   1.000000   1.000000
  477       -1.719692     -0.391522   1.000000   1.000000
  478       -1.719564     -0.391470   1.000000   1.000000
  479       -1.719538     -0.391448   1.000000   1.000000
  480       -1.719529     -0.391389   1.000000   1.000000
  481       -1.719461     -0.376185   1.000000   1.000000
  482       -1.719441     -0.376052   1.000000   1.000000
  483       -1.719405     -0.376005   1.000000   1.000000
  484       -1.719279     -0.375878   1.000000   1.000000
  485       -1.717779     -0.285555   1.000000   1.000000
  486       -1.717731     -0.285224   1.000000   1.000000
  487       -1.717664     -0.285195   1.000000   1.000000
  488       -1.717598     -0.285184   1.000000   1.000000
  489       -1.690862     -0.285143   1.000000   1.000000
  490       -1.690801     -0.285137   1.000000   1.000000
  491       -1.690751     -0.285115   1.000000   1.000000
  492       -1.690676     -0.284790   1.000000   1.000000
  493       -1.688839     -0.028263   1.000000   1.000000
  494       -1.688764     -0.028017   1.000000   1.000000
  495       -1.688720     -0.027995   1.000000   1.000000
  496       -1.688656     -0.027751   1.000000   1.000000
  497       -1.448998      0.029469   1.000000   1.000000
  498       -1.448976      0.029477   1.000000   1.000000
  499       -1.438446      0.046163   1.000000   1.000000
  500       -1.438431      0.046272   1.000000   1.000000
  501       -1.398142      0.186429   1.000000   1.000000
  502       -1.398135      0.186578   1.000000   1.000000
  503       -1.382525      0.186591   1.000000   1.000000
  504       -1.382514      0.186741   1.000000   1.000000
  505       -1.326348      0.212061   1.000000   1.000000
  506       -1.326339      0.212074   1.000000   1.000000
  507       -1.326251      0.262273   1.000000   1.000000
  508       -1.326229      0.262323   1.000000   1.000000
  509       -1.320840      0.262452   1.000000   1.000000
  510       -1.320810      0.262512   1.000000   1.000000
  511       -1.320785      0.285015   1.000000   1.000000
  512       -1.320752      0.285061   1.000000   1.000000