 144 144   0   0
  0.1325381E+02  0.1546422E-08  0.1214491E-08  0.1054520E-08  0.5000000E-15
  1.000000000000000E-004
  CAR 
 unknown system                          
     16.99939868    -54.86968228  301      5.08110942      1.00000000
    -54.870  0.0000E+00  0.0000E+00  0.0000E+00  0.0000E+00
    -54.630  0.0000E+00  0.0000E+00  0.0000E+00  0.0000E+00
    -54.391  0.0000E+00  0.0000E+00  0.0000E+00  0.0000E+00
    -54.151  0.0000E+00  0.0000E+00  0.0000E+00  0.0000E+00
    -53.911  0.0000E+00  0.0000E+00  0.0000E+00  0.0000E+00
    -53.672  0.0000E+00  0.0000E+00  0.0000E+00  0.0000E+00
    -53.432  0.0000E+00  0.0000E+00  0.0000E+00  0.0000E+00
    -53.193  0.0000E+00  0.0000E+00  0.0000E+00  0.0000E+00
    -52.953  0.0000E+00  0.0000E+00  0.0000E+00  0.0000E+00
    -52.714  0.0000E+00  0.0000E+00  0.0000E+00  0.0000E+00
    -52.474  0.0000E+00  0.0000E+00  0.0000E+00  0.0000E+00
    -52.234  0.0000E+00  0.0000E+00  0.0000E+00  0.0000E+00
    -51.995  0.0000E+00  0.0000E+00  0.0000E+00  0.0000E+00
    -51.755  0.3643E-03  0.0000E+00  0.8728E-04  0.0000E+00
    -51.516  0.4986E+02  0.0000E+00  0.1195E+02  0.0000E+00
    -51.276  0.8676E+02  0.0000E+00  0.3273E+02  0.0000E+00
    -51.037  0.1364E+02  0.0000E+00  0.3600E+02  0.0000E+00
    -50.797  0.0000E+00  0.0000E+00  0.3600E+02  0.0000E+00
    -50.558  0.0000E+00  0.0000E+00  0.3600E+02  0.0000E+00
    -50.318  0.1273E-03  0.0000E+00  0.3600E+02  0.0000E+00
    -50.078  0.6709E+02  0.0000E+00  0.5207E+02  0.0000E+00
    -49.839  0.2090E+03  0.0000E+00  0.1021E+03  0.0000E+00
    -49.599  0.2447E+02  0.0000E+00  0.1080E+03  0.0000E+00
    -49.360  0.0000E+00  0.0000E+00  0.1080E+03  0.0000E+00
    -49.120  0.0000E+00  0.0000E+00  0.1080E+03  0.0000E+00
    -48.881  0.0000E+00  0.0000E+00  0.1080E+03  0.0000E+00
    -48.641  0.0000E+00  0.0000E+00  0.1080E+03  0.0000E+00
    -48.401  0.0000E+00  0.0000E+00  0.1080E+03  0.0000E+00
    -48.162  0.0000E+00  0.0000E+00  0.1080E+03  0.0000E+00
    -47.922  0.0000E+00  0.0000E+00  0.1080E+03  0.0000E+00
    -47.683  0.0000E+00  0.0000E+00  0.1080E+03  0.0000E+00
    -47.443  0.0000E+00  0.0000E+00  0.1080E+03  0.0000E+00
    -47.204  0.0000E+00  0.0000E+00  0.1080E+03  0.0000E+00
    -46.964  0.0000E+00  0.6213E-01  0.1080E+03  0.1488E-01
    -46.725  0.0000E+00  0.5098E+02  0.1080E+03  0.1223E+02
    -46.485  0.0000E+00  0.9547E+02  0.1080E+03  0.3510E+02
    -46.245  0.0000E+00  0.1464E+03  0.1080E+03  0.7017E+02
    -46.006  0.0000E+00  0.1579E+03  0.1080E+03  0.1080E+03
    -45.766  0.0000E+00  0.4535E-02  0.1080E+03  0.1080E+03
    -45.527  0.0000E+00  0.0000E+00  0.1080E+03  0.1080E+03
    -45.287  0.0000E+00  0.0000E+00  0.1080E+03  0.1080E+03
    -45.048  0.0000E+00  0.0000E+00  0.1080E+03  0.1080E+03
    -44.808  0.0000E+00  0.0000E+00  0.1080E+03  0.1080E+03
    -44.568  0.0000E+00  0.0000E+00  0.1080E+03  0.1080E+03
    -44.329  0.0000E+00  0.0000E+00  0.1080E+03  0.1080E+03
    -44.089  0.0000E+00  0.0000E+00  0.1080E+03  0.1080E+03
    -43.850  0.0000E+00  0.0000E+00  0.1080E+03  0.1080E+03
    -43.610  0.0000E+00  0.0000E+00  0.1080E+03  0.1080E+03
    -43.371  0.0000E+00  0.0000E+00  0.1080E+03  0.1080E+03
    -43.131  0.0000E+00  0.0000E+00  0.1080E+03  0.1080E+03
    -42.892  0.0000E+00  0.0000E+00  0.1080E+03  0.1080E+03
    -42.652  0.0000E+00  0.0000E+00  0.1080E+03  0.1080E+03
    -42.412  0.0000E+00  0.0000E+00  0.1080E+03  0.1080E+03
    -42.173  0.0000E+00  0.0000E+00  0.1080E+03  0.1080E+03
    -41.933  0.0000E+00  0.0000E+00  0.1080E+03  0.1080E+03
    -41.694  0.0000E+00  0.0000E+00  0.1080E+03  0.1080E+03
    -41.454  0.0000E+00  0.0000E+00  0.1080E+03  0.1080E+03
    -41.215  0.0000E+00  0.0000E+00  0.1080E+03  0.1080E+03
    -40.975  0.0000E+00  0.0000E+00  0.1080E+03  0.1080E+03
    -40.735  0.9432E-09  0.3034E-09  0.1080E+03  0.1080E+03
    -40.496  0.2817E+02  0.2487E+02  0.1147E+03  0.1140E+03
    -40.256  0.4720E+02  0.5078E+02  0.1261E+03  0.1261E+03
    -40.017  0.9948E+02  0.9949E+02  0.1499E+03  0.1500E+03
    -39.777  0.2552E+02  0.2523E+02  0.1560E+03  0.1560E+03
    -39.538  0.0000E+00  0.0000E+00  0.1560E+03  0.1560E+03
    -39.298  0.0000E+00  0.0000E+00  0.1560E+03  0.1560E+03
    -39.058  0.0000E+00  0.0000E+00  0.1560E+03  0.1560E+03
    -38.819  0.0000E+00  0.0000E+00  0.1560E+03  0.1560E+03
    -38.579  0.0000E+00  0.0000E+00  0.1560E+03  0.1560E+03
    -38.340  0.0000E+00  0.0000E+00  0.1560E+03  0.1560E+03
    -38.100  0.0000E+00  0.0000E+00  0.1560E+03  0.1560E+03
    -37.861  0.0000E+00  0.0000E+00  0.1560E+03  0.1560E+03
    -37.621  0.0000E+00  0.0000E+00  0.1560E+03  0.1560E+03
    -37.382  0.0000E+00  0.0000E+00  0.1560E+03  0.1560E+03
    -37.142  0.0000E+00  0.0000E+00  0.1560E+03  0.1560E+03
    -36.902  0.0000E+00  0.0000E+00  0.1560E+03  0.1560E+03
    -36.663  0.0000E+00  0.0000E+00  0.1560E+03  0.1560E+03
    -36.423  0.0000E+00  0.0000E+00  0.1560E+03  0.1560E+03
    -36.184  0.0000E+00  0.0000E+00  0.1560E+03  0.1560E+03
    -35.944  0.0000E+00  0.0000E+00  0.1560E+03  0.1560E+03
    -35.705  0.0000E+00  0.0000E+00  0.1560E+03  0.1560E+03
    -35.465  0.0000E+00  0.0000E+00  0.1560E+03  0.1560E+03
    -35.225  0.0000E+00  0.0000E+00  0.1560E+03  0.1560E+03
    -34.986  0.0000E+00  0.0000E+00  0.1560E+03  0.1560E+03
    -34.746  0.0000E+00  0.0000E+00  0.1560E+03  0.1560E+03
    -34.507  0.0000E+00  0.0000E+00  0.1560E+03  0.1560E+03
    -34.267  0.0000E+00  0.0000E+00  0.1560E+03  0.1560E+03
    -34.028  0.0000E+00  0.0000E+00  0.1560E+03  0.1560E+03
    -33.788  0.0000E+00  0.0000E+00  0.1560E+03  0.1560E+03
    -33.549  0.0000E+00  0.0000E+00  0.1560E+03  0.1560E+03
    -33.309  0.0000E+00  0.0000E+00  0.1560E+03  0.1560E+03
    -33.069  0.0000E+00  0.0000E+00  0.1560E+03  0.1560E+03
    -32.830  0.0000E+00  0.0000E+00  0.1560E+03  0.1560E+03
    -32.590  0.0000E+00  0.0000E+00  0.1560E+03  0.1560E+03
    -32.351  0.0000E+00  0.0000E+00  0.1560E+03  0.1560E+03
    -32.111  0.0000E+00  0.0000E+00  0.1560E+03  0.1560E+03
    -31.872  0.0000E+00  0.0000E+00  0.1560E+03  0.1560E+03
    -31.632  0.0000E+00  0.0000E+00  0.1560E+03  0.1560E+03
    -31.392  0.0000E+00  0.0000E+00  0.1560E+03  0.1560E+03
    -31.153  0.0000E+00  0.0000E+00  0.1560E+03  0.1560E+03
    -30.913  0.0000E+00  0.0000E+00  0.1560E+03  0.1560E+03
    -30.674  0.0000E+00  0.0000E+00  0.1560E+03  0.1560E+03
    -30.434  0.0000E+00  0.0000E+00  0.1560E+03  0.1560E+03
    -30.195  0.0000E+00  0.0000E+00  0.1560E+03  0.1560E+03
    -29.955  0.0000E+00  0.0000E+00  0.1560E+03  0.1560E+03
    -29.716  0.0000E+00  0.0000E+00  0.1560E+03  0.1560E+03
    -29.476  0.0000E+00  0.0000E+00  0.1560E+03  0.1560E+03
    -29.236  0.0000E+00  0.0000E+00  0.1560E+03  0.1560E+03
    -28.997  0.0000E+00  0.0000E+00  0.1560E+03  0.1560E+03
    -28.757  0.0000E+00  0.0000E+00  0.1560E+03  0.1560E+03
    -28.518  0.0000E+00  0.0000E+00  0.1560E+03  0.1560E+03
    -28.278  0.0000E+00  0.0000E+00  0.1560E+03  0.1560E+03
    -28.039  0.0000E+00  0.0000E+00  0.1560E+03  0.1560E+03
    -27.799  0.0000E+00  0.0000E+00  0.1560E+03  0.1560E+03
    -27.559  0.0000E+00  0.0000E+00  0.1560E+03  0.1560E+03
    -27.320  0.0000E+00  0.0000E+00  0.1560E+03  0.1560E+03
    -27.080  0.0000E+00  0.0000E+00  0.1560E+03  0.1560E+03
    -26.841  0.0000E+00  0.0000E+00  0.1560E+03  0.1560E+03
    -26.601  0.0000E+00  0.0000E+00  0.1560E+03  0.1560E+03
    -26.362  0.0000E+00  0.0000E+00  0.1560E+03  0.1560E+03
    -26.122  0.0000E+00  0.0000E+00  0.1560E+03  0.1560E+03
    -25.882  0.0000E+00  0.0000E+00  0.1560E+03  0.1560E+03
    -25.643  0.0000E+00  0.0000E+00  0.1560E+03  0.1560E+03
    -25.403  0.0000E+00  0.0000E+00  0.1560E+03  0.1560E+03
    -25.164  0.0000E+00  0.0000E+00  0.1560E+03  0.1560E+03
    -24.924  0.0000E+00  0.0000E+00  0.1560E+03  0.1560E+03
    -24.685  0.0000E+00  0.0000E+00  0.1560E+03  0.1560E+03
    -24.445  0.0000E+00  0.0000E+00  0.1560E+03  0.1560E+03
    -24.206  0.0000E+00  0.0000E+00  0.1560E+03  0.1560E+03
    -23.966  0.0000E+00  0.0000E+00  0.1560E+03  0.1560E+03
    -23.726  0.0000E+00  0.0000E+00  0.1560E+03  0.1560E+03
    -23.487  0.0000E+00  0.0000E+00  0.1560E+03  0.1560E+03
    -23.247  0.0000E+00  0.0000E+00  0.1560E+03  0.1560E+03
    -23.008  0.0000E+00  0.0000E+00  0.1560E+03  0.1560E+03
    -22.768  0.0000E+00  0.0000E+00  0.1560E+03  0.1560E+03
    -22.529  0.0000E+00  0.0000E+00  0.1560E+03  0.1560E+03
    -22.289  0.0000E+00  0.0000E+00  0.1560E+03  0.1560E+03
    -22.049  0.0000E+00  0.0000E+00  0.1560E+03  0.1560E+03
    -21.810  0.0000E+00  0.0000E+00  0.1560E+03  0.1560E+03
    -21.570  0.0000E+00  0.0000E+00  0.1560E+03  0.1560E+03
    -21.331  0.0000E+00  0.0000E+00  0.1560E+03  0.1560E+03
    -21.091  0.0000E+00  0.0000E+00  0.1560E+03  0.1560E+03
    -20.852  0.0000E+00  0.0000E+00  0.1560E+03  0.1560E+03
    -20.612  0.0000E+00  0.0000E+00  0.1560E+03  0.1560E+03
    -20.373  0.0000E+00  0.0000E+00  0.1560E+03  0.1560E+03
    -20.133  0.0000E+00  0.0000E+00  0.1560E+03  0.1560E+03
    -19.893  0.0000E+00  0.0000E+00  0.1560E+03  0.1560E+03
    -19.654  0.0000E+00  0.0000E+00  0.1560E+03  0.1560E+03
    -19.414  0.0000E+00  0.0000E+00  0.1560E+03  0.1560E+03
    -19.175  0.0000E+00  0.0000E+00  0.1560E+03  0.1560E+03
    -18.935  0.0000E+00  0.0000E+00  0.1560E+03  0.1560E+03
    -18.696  0.0000E+00  0.0000E+00  0.1560E+03  0.1560E+03
    -18.456  0.0000E+00  0.0000E+00  0.1560E+03  0.1560E+03
    -18.216  0.0000E+00  0.0000E+00  0.1560E+03  0.1560E+03
    -17.977  0.0000E+00  0.0000E+00  0.1560E+03  0.1560E+03
    -17.737  0.0000E+00  0.0000E+00  0.1560E+03  0.1560E+03
    -17.498  0.0000E+00  0.0000E+00  0.1560E+03  0.1560E+03
    -17.258  0.0000E+00  0.0000E+00  0.1560E+03  0.1560E+03
    -17.019  0.0000E+00  0.0000E+00  0.1560E+03  0.1560E+03
    -16.779  0.0000E+00  0.0000E+00  0.1560E+03  0.1560E+03
    -16.540  0.0000E+00  0.0000E+00  0.1560E+03  0.1560E+03
    -16.300  0.0000E+00  0.0000E+00  0.1560E+03  0.1560E+03
    -16.060  0.0000E+00  0.0000E+00  0.1560E+03  0.1560E+03
    -15.821  0.0000E+00  0.0000E+00  0.1560E+03  0.1560E+03
    -15.581  0.0000E+00  0.0000E+00  0.1560E+03  0.1560E+03
    -15.342  0.0000E+00  0.0000E+00  0.1560E+03  0.1560E+03
    -15.102  0.0000E+00  0.0000E+00  0.1560E+03  0.1560E+03
    -14.863  0.0000E+00  0.0000E+00  0.1560E+03  0.1560E+03
    -14.623  0.0000E+00  0.0000E+00  0.1560E+03  0.1560E+03
    -14.383  0.0000E+00  0.0000E+00  0.1560E+03  0.1560E+03
    -14.144  0.0000E+00  0.0000E+00  0.1560E+03  0.1560E+03
    -13.904  0.7210E-03  0.0000E+00  0.1560E+03  0.1560E+03
    -13.665  0.2149E+02  0.1903E-13  0.1611E+03  0.1560E+03
    -13.425  0.2834E+02  0.1412E+01  0.1679E+03  0.1563E+03
    -13.186  0.8172E+01  0.4413E+02  0.1699E+03  0.1669E+03
    -12.946  0.3156E+02  0.5087E+01  0.1775E+03  0.1681E+03
    -12.706  0.1061E+02  0.4133E+02  0.1800E+03  0.1780E+03
    -12.467  0.0000E+00  0.8227E+01  0.1800E+03  0.1800E+03
    -12.227  0.0000E+00  0.0000E+00  0.1800E+03  0.1800E+03
    -11.988  0.0000E+00  0.0000E+00  0.1800E+03  0.1800E+03
    -11.748  0.0000E+00  0.0000E+00  0.1800E+03  0.1800E+03
    -11.509  0.0000E+00  0.0000E+00  0.1800E+03  0.1800E+03
    -11.269  0.0000E+00  0.0000E+00  0.1800E+03  0.1800E+03
    -11.030  0.0000E+00  0.0000E+00  0.1800E+03  0.1800E+03
    -10.790  0.0000E+00  0.0000E+00  0.1800E+03  0.1800E+03
    -10.550  0.0000E+00  0.0000E+00  0.1800E+03  0.1800E+03
    -10.311  0.0000E+00  0.0000E+00  0.1800E+03  0.1800E+03
    -10.071  0.0000E+00  0.0000E+00  0.1800E+03  0.1800E+03
     -9.832  0.0000E+00  0.0000E+00  0.1800E+03  0.1800E+03
     -9.592  0.0000E+00  0.0000E+00  0.1800E+03  0.1800E+03
     -9.353  0.0000E+00  0.0000E+00  0.1800E+03  0.1800E+03
     -9.113  0.0000E+00  0.0000E+00  0.1800E+03  0.1800E+03
     -8.873  0.0000E+00  0.0000E+00  0.1800E+03  0.1800E+03
     -8.634  0.0000E+00  0.0000E+00  0.1800E+03  0.1800E+03
     -8.394  0.0000E+00  0.0000E+00  0.1800E+03  0.1800E+03
     -8.155  0.0000E+00  0.0000E+00  0.1800E+03  0.1800E+03
     -7.915  0.1277E-02  0.0000E+00  0.1800E+03  0.1800E+03
     -7.676  0.8932E+01  0.1041E-01  0.1821E+03  0.1800E+03
     -7.436  0.2274E+02  0.1150E+02  0.1876E+03  0.1828E+03
     -7.197  0.5460E+02  0.2789E+02  0.2007E+03  0.1894E+03
     -6.957  0.5956E+02  0.5911E+02  0.2149E+03  0.2036E+03
     -6.717  0.4449E+01  0.4802E+02  0.2160E+03  0.2151E+03
     -6.478  0.0000E+00  0.3744E+01  0.2160E+03  0.2160E+03
     -6.238  0.0000E+00  0.0000E+00  0.2160E+03  0.2160E+03
     -5.999  0.0000E+00  0.0000E+00  0.2160E+03  0.2160E+03
     -5.759  0.0000E+00  0.0000E+00  0.2160E+03  0.2160E+03
     -5.520  0.0000E+00  0.0000E+00  0.2160E+03  0.2160E+03
     -5.280  0.0000E+00  0.0000E+00  0.2160E+03  0.2160E+03
     -5.040  0.0000E+00  0.0000E+00  0.2160E+03  0.2160E+03
     -4.801  0.0000E+00  0.0000E+00  0.2160E+03  0.2160E+03
     -4.561  0.0000E+00  0.0000E+00  0.2160E+03  0.2160E+03
     -4.322  0.0000E+00  0.0000E+00  0.2160E+03  0.2160E+03
     -4.082  0.0000E+00  0.0000E+00  0.2160E+03  0.2160E+03
     -3.843  0.0000E+00  0.0000E+00  0.2160E+03  0.2160E+03
     -3.603  0.0000E+00  0.0000E+00  0.2160E+03  0.2160E+03
     -3.364  0.0000E+00  0.0000E+00  0.2160E+03  0.2160E+03
     -3.124  0.0000E+00  0.0000E+00  0.2160E+03  0.2160E+03
     -2.884  0.3682E-14  0.0000E+00  0.2160E+03  0.2160E+03
     -2.645  0.5954E+00  0.0000E+00  0.2161E+03  0.2160E+03
     -2.405  0.1054E+02  0.0000E+00  0.2187E+03  0.2160E+03
     -2.166  0.1993E+02  0.0000E+00  0.2234E+03  0.2160E+03
     -1.926  0.2376E+01  0.0000E+00  0.2240E+03  0.2160E+03
     -1.687  0.3386E+02  0.0000E+00  0.2321E+03  0.2160E+03
     -1.447  0.1890E+02  0.1030E-15  0.2367E+03  0.2160E+03
     -1.207  0.4453E+02  0.6070E-01  0.2473E+03  0.2160E+03
     -0.968  0.4885E+02  0.4358E+01  0.2590E+03  0.2171E+03
     -0.728  0.7446E+02  0.1380E+02  0.2769E+03  0.2204E+03
     -0.489  0.1024E+03  0.1514E+02  0.3014E+03  0.2240E+03
     -0.249  0.8562E+02  0.1899E+02  0.3219E+03  0.2285E+03
     -0.010  0.1104E+03  0.4139E+02  0.3484E+03  0.2385E+03
      0.230  0.7122E+02  0.3403E+02  0.3654E+03  0.2466E+03
      0.470  0.3893E+02  0.4160E+02  0.3747E+03  0.2566E+03
      0.709  0.4564E+02  0.3416E+02  0.3857E+03  0.2648E+03
      0.949  0.4866E+02  0.5204E+02  0.3973E+03  0.2772E+03
      1.188  0.5504E+02  0.6097E+02  0.4105E+03  0.2918E+03
      1.428  0.6362E+02  0.4439E+02  0.4258E+03  0.3025E+03
      1.667  0.1007E+03  0.4055E+02  0.4499E+03  0.3122E+03
      1.907  0.5425E+02  0.3821E+02  0.4629E+03  0.3213E+03
      2.146  0.3815E+02  0.3755E+02  0.4720E+03  0.3303E+03
      2.386  0.4658E+02  0.3809E+02  0.4832E+03  0.3395E+03
      2.626  0.4777E+02  0.4862E+02  0.4946E+03  0.3511E+03
      2.865  0.4376E+02  0.6326E+02  0.5051E+03  0.3663E+03
      3.105  0.4028E+02  0.5882E+02  0.5148E+03  0.3803E+03
      3.344  0.4665E+02  0.4878E+02  0.5259E+03  0.3920E+03
      3.584  0.5273E+02  0.2897E+02  0.5386E+03  0.3990E+03
      3.823  0.4588E+02  0.6044E+02  0.5496E+03  0.4135E+03
      4.063  0.3183E+02  0.7579E+02  0.5572E+03  0.4316E+03
      4.303  0.4274E+02  0.1625E+01  0.5674E+03  0.4320E+03
      4.542  0.2409E+02  0.0000E+00  0.5732E+03  0.4320E+03
      4.782  0.1060E+02  0.0000E+00  0.5757E+03  0.4320E+03
      5.021  0.1100E+01  0.0000E+00  0.5760E+03  0.4320E+03
      5.261  0.0000E+00  0.0000E+00  0.5760E+03  0.4320E+03
      5.500  0.0000E+00  0.0000E+00  0.5760E+03  0.4320E+03
      5.740  0.0000E+00  0.0000E+00  0.5760E+03  0.4320E+03
      5.979  0.0000E+00  0.9624E-12  0.5760E+03  0.4320E+03
      6.219  0.0000E+00  0.1163E+00  0.5760E+03  0.4320E+03
      6.459  0.0000E+00  0.7714E+01  0.5760E+03  0.4339E+03
      6.698  0.0000E+00  0.2962E+02  0.5760E+03  0.4410E+03
      6.938  0.1519E-12  0.4251E+02  0.5760E+03  0.4512E+03
      7.177  0.8708E-01  0.7220E+02  0.5760E+03  0.4685E+03
      7.417  0.1483E+00  0.8134E+02  0.5761E+03  0.4879E+03
      7.656  0.8218E+00  0.6539E+02  0.5763E+03  0.5036E+03
      7.896  0.3420E+01  0.8796E+02  0.5771E+03  0.5247E+03
      8.136  0.4281E+01  0.7180E+02  0.5781E+03  0.5419E+03
      8.375  0.6838E+01  0.5499E+02  0.5797E+03  0.5551E+03
      8.615  0.1595E+02  0.3715E+02  0.5836E+03  0.5640E+03
      8.854  0.2548E+02  0.3989E+02  0.5897E+03  0.5735E+03
      9.094  0.1930E+02  0.1983E+02  0.5943E+03  0.5783E+03
      9.333  0.2488E+02  0.1345E+02  0.6002E+03  0.5815E+03
      9.573  0.3095E+02  0.2055E+02  0.6077E+03  0.5864E+03
      9.812  0.2691E+02  0.2979E+02  0.6141E+03  0.5935E+03
     10.052  0.2987E+02  0.2653E+02  0.6213E+03  0.5999E+03
     10.292  0.2280E+02  0.3413E+02  0.6267E+03  0.6081E+03
     10.531  0.2043E+02  0.3610E+02  0.6316E+03  0.6167E+03
     10.771  0.2795E+02  0.2774E+02  0.6383E+03  0.6234E+03
     11.010  0.3907E+02  0.2292E+02  0.6477E+03  0.6289E+03
     11.250  0.3930E+02  0.2120E+02  0.6571E+03  0.6339E+03
     11.489  0.3750E+02  0.3213E+02  0.6661E+03  0.6416E+03
     11.729  0.4438E+02  0.3886E+02  0.6767E+03  0.6509E+03
     11.969  0.3888E+02  0.4226E+02  0.6860E+03  0.6611E+03
     12.208  0.3833E+02  0.5167E+02  0.6952E+03  0.6734E+03
     12.448  0.3970E+02  0.4725E+02  0.7047E+03  0.6848E+03
     12.687  0.3691E+02  0.3605E+02  0.7136E+03  0.6934E+03
     12.927  0.3433E+02  0.4111E+02  0.7218E+03  0.7032E+03
     13.166  0.2351E+02  0.4021E+02  0.7274E+03  0.7129E+03
     13.406  0.2456E+01  0.3382E+02  0.7280E+03  0.7210E+03
     13.646  0.0000E+00  0.2444E+02  0.7280E+03  0.7268E+03
     13.885  0.0000E+00  0.4875E+01  0.7280E+03  0.7280E+03
     14.125  0.0000E+00  0.3753E-05  0.7280E+03  0.7280E+03
     14.364  0.0000E+00  0.0000E+00  0.7280E+03  0.7280E+03
     14.604  0.0000E+00  0.0000E+00  0.7280E+03  0.7280E+03
     14.843  0.0000E+00  0.0000E+00  0.7280E+03  0.7280E+03
     15.083  0.0000E+00  0.0000E+00  0.7280E+03  0.7280E+03
     15.322  0.0000E+00  0.0000E+00  0.7280E+03  0.7280E+03
     15.562  0.0000E+00  0.0000E+00  0.7280E+03  0.7280E+03
     15.802  0.0000E+00  0.0000E+00  0.7280E+03  0.7280E+03
     16.041  0.0000E+00  0.0000E+00  0.7280E+03  0.7280E+03
     16.281  0.0000E+00  0.0000E+00  0.7280E+03  0.7280E+03
     16.520  0.0000E+00  0.0000E+00  0.7280E+03  0.7280E+03
     16.760  0.0000E+00  0.0000E+00  0.7280E+03  0.7280E+03
     16.999  0.0000E+00  0.0000E+00  0.7280E+03  0.7280E+03
