 vasp.5.4.4.18Apr17-6-g9f103f2a35 (build Oct 25 2017 14:42:18) complex          
  
 executed on             LinuxIFC date 2021.04.16  11:31:08
 running on   48 total cores
 distrk:  each k-point on   24 cores,    2 groups
 distr:  one band on NCORES_PER_BAND=   6 cores,    4 groups


--------------------------------------------------------------------------------------------------------


 INCAR:
 POTCAR:    PAW_PBE Li_sv 10Sep2004               
 POTCAR:    PAW_PBE O 08Apr2002                   
 POTCAR:    PAW_PBE S 06Sep2000                   
 POTCAR:    PAW_PBE Fe_pv 02Aug2007               

 ----------------------------------------------------------------------------- 
|                                                                             |
|           W    W    AA    RRRRR   N    N  II  N    N   GGGG   !!!           |
|           W    W   A  A   R    R  NN   N  II  NN   N  G    G  !!!           |
|           W    W  A    A  R    R  N N  N  II  N N  N  G       !!!           |
|           W WW W  AAAAAA  RRRRR   N  N N  II  N  N N  G  GGG   !            |
|           WW  WW  A    A  R   R   N   NN  II  N   NN  G    G                |
|           W    W  A    A  R    R  N    N  II  N    N   GGGG   !!!           |
|                                                                             |
|      You have enabled k-point parallelism (KPAR>1).                         |
|      This developmental code was originally  written by Paul Kent at ORNL,  |
|      and carefully double checked in Vienna.                                |
|      GW as well as linear response parallelism added by Martijn Marsman     |
|      and Georg Kresse.                                                      |
|      Carefully verify results versus KPAR=1.                                |
|      Report problems to Paul Kent and Vienna.                               |
|                                                                             |
 ----------------------------------------------------------------------------- 

 POTCAR:    PAW_PBE Li_sv 10Sep2004               
  local pseudopotential read in
  atomic valenz-charges read in
  non local Contribution for L=           0  read in
    real space projection operators read in
  non local Contribution for L=           0  read in
    real space projection operators read in
  non local Contribution for L=           1  read in
    real space projection operators read in
    PAW grid and wavefunctions read in
 
   number of l-projection  operators is LMAX  =           3
   number of lm-projection operators is LMMAX =           5
 
 POTCAR:    PAW_PBE O 08Apr2002                   
  local pseudopotential read in
  partial core-charges read in
  partial kinetic energy density read in
  kinetic energy density of atom read in
  atomic valenz-charges read in
  non local Contribution for L=           0  read in
    real space projection operators read in
  non local Contribution for L=           0  read in
    real space projection operators read in
  non local Contribution for L=           1  read in
    real space projection operators read in
  non local Contribution for L=           1  read in
    real space projection operators read in
    PAW grid and wavefunctions read in
 
   number of l-projection  operators is LMAX  =           4
   number of lm-projection operators is LMMAX =           8
 
 POTCAR:    PAW_PBE S 06Sep2000                   
  local pseudopotential read in
  partial core-charges read in
  partial kinetic energy density read in
  atomic valenz-charges read in
  non local Contribution for L=           0  read in
    real space projection operators read in
  non local Contribution for L=           0  read in
    real space projection operators read in
  non local Contribution for L=           1  read in
    real space projection operators read in
  non local Contribution for L=           1  read in
    real space projection operators read in
    PAW grid and wavefunctions read in
 
   number of l-projection  operators is LMAX  =           4
   number of lm-projection operators is LMMAX =           8
 
 POTCAR:    PAW_PBE Fe_pv 02Aug2007               
  local pseudopotential read in
  partial core-charges read in
  partial kinetic energy density read in
  atomic valenz-charges read in
  non local Contribution for L=           1  read in
    real space projection operators read in
  non local Contribution for L=           1  read in
    real space projection operators read in
  non local Contribution for L=           2  read in
    real space projection operators read in
  non local Contribution for L=           2  read in
    real space projection operators read in
  non local Contribution for L=           0  read in
    real space projection operators read in
  non local Contribution for L=           0  read in
    real space projection operators read in
    PAW grid and wavefunctions read in
 
   number of l-projection  operators is LMAX  =           6
   number of lm-projection operators is LMMAX =          18
 

 ----------------------------------------------------------------------------- 
|                                                                             |
|  ADVICE TO THIS USER RUNNING 'VASP/VAMP'   (HEAR YOUR MASTER'S VOICE ...):  |
|                                                                             |
|      You have a (more or less) 'large supercell' and for larger cells       |
|      it might be more efficient to use real space projection opertators     |
|      So try LREAL= Auto  in the INCAR   file.                               |
|      Mind:          For very  accurate calculation you might also keep the  |
|      reciprocal projection scheme          (i.e. LREAL=.FALSE.)             |
|                                                                             |
 ----------------------------------------------------------------------------- 

  PAW_PBE Li_sv 10Sep2004               :
 energy of atom  1       EATOM= -202.7858
 kinetic energy error for atom=    0.0072 (will be added to EATOM!!)
  PAW_PBE O 08Apr2002                   :
 energy of atom  2       EATOM= -432.3788
 kinetic energy error for atom=    0.0129 (will be added to EATOM!!)
  PAW_PBE S 06Sep2000                   :
 energy of atom  3       EATOM= -276.8230
 kinetic energy error for atom=    0.0008 (will be added to EATOM!!)
  PAW_PBE Fe_pv 02Aug2007               :
 energy of atom  4       EATOM=-2457.4239
 kinetic energy error for atom=    0.0041 (will be added to EATOM!!)
 
 
 POSCAR: # Compound: Li48O24S24Fe24. Old comment:
  positions in direct lattice
  No initial velocities read in
 exchange correlation table for  LEXCH =        8
   RHO(1)=    0.500       N(1)  =     2000
   RHO(2)=  100.500       N(2)  =     4000
 


--------------------------------------------------------------------------------------------------------


 ion  position               nearest neighbor table
   1  0.035  0.363  0.356-  51 1.97  49 1.97  73 2.65
   2  0.369  0.363  0.356-  49 1.97  50 1.97  74 2.65
   3  0.702  0.363  0.356-  50 1.97  51 1.97  75 2.65
   4  0.035  0.863  0.356-  54 1.97  52 1.97  76 2.65
   5  0.369  0.863  0.356-  52 1.97  53 1.97  77 2.65
   6  0.702  0.863  0.356-  53 1.97  54 1.97  78 2.65
   7  0.035  0.363  0.856-  57 1.97  55 1.97  79 2.65
   8  0.369  0.363  0.856-  55 1.97  56 1.97  80 2.65
   9  0.702  0.363  0.856-  56 1.97  57 1.97  81 2.65
  10  0.035  0.863  0.856-  60 1.97  58 1.97  82 2.65
  11  0.369  0.863  0.856-  58 1.97  59 1.97  83 2.65
  12  0.702  0.863  0.856-  59 1.97  60 1.97  84 2.65
  13  0.035  0.113  0.144-  63 1.97  61 1.97  85 2.65
  14  0.369  0.113  0.144-  61 1.97  62 1.97  86 2.65
  15  0.702  0.113  0.144-  62 1.97  63 1.97  87 2.65
  16  0.035  0.613  0.144-  66 1.97  64 1.97  88 2.65
  17  0.369  0.613  0.144-  64 1.97  65 1.97  89 2.65
  18  0.702  0.613  0.144-  65 1.97  66 1.97  90 2.65
  19  0.035  0.113  0.644-  69 1.97  67 1.97  91 2.65
  20  0.369  0.113  0.644-  67 1.97  68 1.97  92 2.65
  21  0.702  0.113  0.644-  68 1.97  69 1.97  93 2.65
  22  0.035  0.613  0.644-  72 1.97  70 1.97  94 2.65
  23  0.369  0.613  0.644-  70 1.97  71 1.97  95 2.65
  24  0.702  0.613  0.644-  71 1.97  72 1.97  96 2.65
  25  0.201  0.219  0.272-  61 1.99  49 2.02  85 2.54  86 2.56
  26  0.535  0.219  0.272-  62 1.99  50 2.02  86 2.55  87 2.55
  27  0.869  0.219  0.272-  63 1.99  51 2.02  87 2.55  85 2.55
  28  0.202  0.719  0.272-  64 1.99  52 2.02  88 2.55  89 2.55
  29  0.535  0.719  0.272-  65 1.99  53 2.02  89 2.55  90 2.55
  30  0.869  0.719  0.272-  66 1.99  54 2.02  90 2.55  88 2.55
  31  0.202  0.219  0.772-  67 1.99  55 2.02  91 2.55  92 2.55
  32  0.535  0.219  0.772-  68 1.99  56 2.02  92 2.55  93 2.55
  33  0.869  0.219  0.772-  69 1.99  57 2.02  93 2.55  91 2.55
  34  0.202  0.719  0.772-  70 1.99  58 2.02  94 2.55  95 2.55
  35  0.535  0.719  0.772-  71 1.99  59 2.02  95 2.55  96 2.55
  36  0.869  0.719  0.772-  72 1.99  60 2.02  96 2.55  94 2.55
  37  0.202  0.469  0.228-  49 1.99  64 2.02  73 2.55  74 2.55
  38  0.535  0.469  0.228-  50 1.99  65 2.02  74 2.55  75 2.55
  39  0.869  0.469  0.228-  51 1.99  66 2.02  75 2.55  73 2.55
  40  0.202  0.969  0.228-  52 1.99  61 2.02  76 2.55  77 2.55
  41  0.535  0.969  0.228-  53 1.99  62 2.02  77 2.55  78 2.55
  42  0.869  0.969  0.228-  54 1.99  63 2.02  78 2.55  76 2.55
  43  0.202  0.469  0.728-  55 1.99  70 2.02  79 2.55  80 2.55
  44  0.535  0.469  0.728-  56 1.99  71 2.02  80 2.55  81 2.55
  45  0.869  0.469  0.728-  57 1.99  72 2.02  81 2.55  79 2.55
  46  0.202  0.969  0.728-  58 1.99  67 2.02  82 2.55  83 2.55
  47  0.535  0.969  0.728-  59 1.99  68 2.02  83 2.55  84 2.55
  48  0.869  0.969  0.728-  60 1.99  69 2.02  84 2.55  82 2.55
  49  0.202  0.368  0.374-   2 1.97   1 1.97  37 1.99 100 2.01  25 2.02 115 2.02
  50  0.535  0.368  0.374-   3 1.97   2 1.97  38 1.99 101 2.01  26 2.02 116 2.02
  51  0.869  0.368  0.374-   1 1.97   3 1.97  39 1.99 102 2.01  27 2.02 117 2.02
  52  0.202  0.868  0.374-   5 1.97   4 1.97  40 1.99  97 2.01  28 2.02 118 2.02
  53  0.535  0.868  0.374-   6 1.97   5 1.97  41 1.99  98 2.01  29 2.02 119 2.02
  54  0.869  0.868  0.374-   4 1.97   6 1.97  42 1.99  99 2.01  30 2.02 120 2.02
  55  0.202  0.368  0.874-   8 1.97   7 1.97  43 1.99 106 2.01  31 2.02 109 2.02
  56  0.535  0.368  0.874-   9 1.97   8 1.97  44 1.99 107 2.01  32 2.02 110 2.02
  57  0.869  0.368  0.874-   7 1.97   9 1.97  45 1.99 108 2.01  33 2.02 111 2.02
  58  0.202  0.868  0.874-  11 1.97  10 1.97  46 1.99 103 2.01  34 2.02 112 2.02
  59  0.535  0.868  0.874-  12 1.97  11 1.97  47 1.99 104 2.01  35 2.02 113 2.02
  60  0.869  0.868  0.874-  10 1.97  12 1.97  48 1.99 105 2.01  36 2.02 114 2.02
  61  0.202  0.118  0.126-  14 1.97  13 1.97  25 1.99 109 2.01  40 2.02 103 2.02
  62  0.535  0.118  0.126-  15 1.97  14 1.97  26 1.99 110 2.01  41 2.02 104 2.02
  63  0.869  0.118  0.126-  13 1.97  15 1.97  27 1.99 111 2.01  42 2.02 105 2.02
  64  0.202  0.618  0.126-  17 1.97  16 1.97  28 1.99 112 2.01  37 2.02 106 2.02
  65  0.535  0.618  0.126-  18 1.97  17 1.97  29 1.99 113 2.01  38 2.02 107 2.02
  66  0.869  0.618  0.126-  16 1.97  18 1.97  30 1.99 114 2.01  39 2.02 108 2.02
  67  0.202  0.118  0.626-  20 1.97  19 1.97  31 1.99 115 2.01  46 2.02  97 2.02
  68  0.535  0.118  0.626-  21 1.97  20 1.97  32 1.99 116 2.01  47 2.02  98 2.02
  69  0.869  0.118  0.626-  19 1.97  21 1.97  33 1.99 117 2.01  48 2.02  99 2.02
  70  0.202  0.618  0.626-  23 1.97  22 1.97  34 1.99 118 2.01  43 2.02 100 2.02
  71  0.535  0.618  0.626-  24 1.97  23 1.97  35 1.99 119 2.01  44 2.02 101 2.02
  72  0.869  0.618  0.626-  22 1.97  24 1.97  36 1.99 120 2.01  45 2.02 102 2.02
  73  0.035  0.370  0.120-  37 2.55  39 2.55 111 2.56 109 2.56   1 2.65
  74  0.369  0.370  0.120-  38 2.55  37 2.55 109 2.56 110 2.56   2 2.65
  75  0.702  0.370  0.120-  39 2.55  38 2.55 110 2.56 111 2.56   3 2.65
  76  0.035  0.870  0.120-  40 2.55  42 2.55 114 2.56 112 2.56   4 2.65
  77  0.369  0.870  0.120-  41 2.55  40 2.55 112 2.56 113 2.56   5 2.65
  78  0.702  0.870  0.120-  42 2.55  41 2.55 113 2.56 114 2.56   6 2.65
  79  0.035  0.370  0.620-  43 2.55  45 2.55 117 2.56 115 2.56   7 2.65
  80  0.369  0.370  0.620-  44 2.55  43 2.55 115 2.56 116 2.56   8 2.65
  81  0.702  0.370  0.620-  45 2.55  44 2.55 116 2.56 117 2.56   9 2.65
  82  0.035  0.870  0.620-  46 2.55  48 2.55 120 2.56 118 2.56  10 2.65
  83  0.369  0.870  0.620-  47 2.55  46 2.55 118 2.56 119 2.56  11 2.65
  84  0.702  0.870  0.620-  48 2.55  47 2.55 119 2.56 120 2.56  12 2.65
  85  0.035  0.120  0.380-  25 2.54  27 2.55  99 2.56  97 2.56  13 2.65
  86  0.369  0.120  0.380-  26 2.55  25 2.56  97 2.56  98 2.56  14 2.65
  87  0.702  0.120  0.380-  27 2.55  26 2.55  98 2.56  99 2.56  15 2.65
  88  0.035  0.620  0.380-  28 2.55  30 2.55 102 2.56 100 2.56  16 2.65
  89  0.369  0.620  0.380-  29 2.55  28 2.55 100 2.56 101 2.56  17 2.65
  90  0.702  0.620  0.380-  30 2.55  29 2.55 101 2.56 102 2.56  18 2.65
  91  0.035  0.120  0.880-  31 2.55  33 2.55 105 2.56 103 2.56  19 2.65
  92  0.369  0.120  0.880-  32 2.55  31 2.55 103 2.56 104 2.56  20 2.65
  93  0.702  0.120  0.880-  33 2.55  32 2.55 104 2.56 105 2.56  21 2.65
  94  0.035  0.620  0.880-  34 2.55  36 2.55 108 2.56 106 2.56  22 2.65
  95  0.369  0.620  0.880-  35 2.55  34 2.55 106 2.56 107 2.56  23 2.65
  96  0.702  0.620  0.880-  36 2.55  35 2.55 107 2.56 108 2.56  24 2.65
  97  0.202  0.012  0.480-  52 2.01  67 2.02  86 2.56  85 2.56
  98  0.535  0.012  0.480-  53 2.01  68 2.02  87 2.56  86 2.56
  99  0.869  0.012  0.480-  54 2.01  69 2.02  85 2.56  87 2.56
 100  0.202  0.512  0.480-  49 2.01  70 2.02  89 2.56  88 2.56
 101  0.535  0.512  0.480-  50 2.01  71 2.02  90 2.56  89 2.56
 102  0.869  0.512  0.480-  51 2.01  72 2.02  88 2.56  90 2.56
 103  0.202  0.012  0.980-  58 2.01  61 2.02  92 2.56  91 2.56
 104  0.535  0.012  0.980-  59 2.01  62 2.02  93 2.56  92 2.56
 105  0.869  0.012  0.980-  60 2.01  63 2.02  91 2.56  93 2.56
 106  0.202  0.512  0.980-  55 2.01  64 2.02  95 2.56  94 2.56
 107  0.535  0.512  0.980-  56 2.01  65 2.02  96 2.56  95 2.56
 108  0.869  0.512  0.980-  57 2.01  66 2.02  94 2.56  96 2.56
 109  0.202  0.262  0.020-  61 2.01  55 2.02  74 2.56  73 2.56
 110  0.535  0.262  0.020-  62 2.01  56 2.02  75 2.56  74 2.56
 111  0.869  0.262  0.020-  63 2.01  57 2.02  73 2.56  75 2.56
 112  0.202  0.762  0.020-  64 2.01  58 2.02  77 2.56  76 2.56
 113  0.535  0.762  0.020-  65 2.01  59 2.02  78 2.56  77 2.56
 114  0.869  0.762  0.020-  66 2.01  60 2.02  76 2.56  78 2.56
 115  0.202  0.262  0.520-  67 2.01  49 2.02  80 2.56  79 2.56
 116  0.535  0.262  0.520-  68 2.01  50 2.02  81 2.56  80 2.56
 117  0.869  0.262  0.520-  69 2.01  51 2.02  79 2.56  81 2.56
 118  0.202  0.762  0.520-  70 2.01  52 2.02  83 2.56  82 2.56
 119  0.535  0.762  0.520-  71 2.01  53 2.02  84 2.56  83 2.56
 120  0.869  0.762  0.520-  72 2.01  54 2.02  82 2.56  84 2.56
 

IMPORTANT INFORMATION: All symmetrisations will be switched off!
NOSYMM: (Re-)initialisation of all symmetry stuff for point group C_1.

 
 
 KPOINTS: # No comment                            

Automatic generation of k-mesh.
Space group operators:
 irot       det(A)        alpha          n_x          n_y          n_z        tau_x        tau_y        tau_z
    1     1.000000     0.000000     1.000000     0.000000     0.000000     0.000000     0.000000     0.000000
 
 Subroutine IBZKPT returns following result:
 ===========================================
 
 Found     14 irreducible k-points:
 
 Following reciprocal coordinates:
            Coordinates               Weight
  0.000000  0.000000  0.000000      1.000000
  0.333333  0.000000  0.000000      2.000000
  0.000000  0.333333  0.000000      2.000000
  0.333333  0.333333  0.000000      2.000000
 -0.333333  0.333333  0.000000      2.000000
  0.000000  0.000000  0.333333      2.000000
  0.333333  0.000000  0.333333      2.000000
 -0.333333  0.000000  0.333333      2.000000
  0.000000  0.333333  0.333333      2.000000
  0.333333  0.333333  0.333333      2.000000
 -0.333333  0.333333  0.333333      2.000000
 -0.000000 -0.333333  0.333333      2.000000
  0.333333 -0.333333  0.333333      2.000000
 -0.333333 -0.333333  0.333333      2.000000
 
 Following cartesian coordinates:
            Coordinates               Weight
  0.000000  0.000000  0.000000      1.000000
  0.028403 -0.000139  0.000000      2.000000
  0.000145  0.029713  0.000000      2.000000
  0.028548  0.029574  0.000000      2.000000
 -0.028257  0.029851  0.000000      2.000000
  0.000000  0.000000  0.029774      2.000000
  0.028403 -0.000139  0.029774      2.000000
 -0.028403  0.000139  0.029774      2.000000
  0.000145  0.029713  0.029774      2.000000
  0.028548  0.029574  0.029774      2.000000
 -0.028257  0.029851  0.029774      2.000000
 -0.000145 -0.029713  0.029774      2.000000
  0.028257 -0.029851  0.029774      2.000000
 -0.028548 -0.029574  0.029774      2.000000
 


--------------------------------------------------------------------------------------------------------




 Dimension of arrays:
   k-points           NKPTS =     14   k-points in BZ     NKDIM =     14   number of bands    NBANDS=    552
   number of dos      NEDOS =    301   number of ions     NIONS =    120
   non local maximal  LDIM  =      6   non local SUM 2l+1 LMDIM =     18
   total plane-waves  NPLWV = 903168
   max r-space proj   IRMAX =      1   max aug-charges    IRDMAX= 154614
   dimension x,y,z NGX =    98 NGY =   96 NGZ =   96
   dimension x,y,z NGXF=   196 NGYF=  192 NGZF=  192
   support grid    NGXF=   392 NGYF=  384 NGZF=  384
   ions per type =              48  24  24  24
   NGX,Y,Z   is equivalent  to a cutoff of  13.88, 14.23, 14.26 a.u.
   NGXF,Y,Z  is equivalent  to a cutoff of  27.76, 28.45, 28.51 a.u.

 SYSTEM =  unknown system                          
 POSCAR =  # Compound: Li48O24S24Fe24. Old comment:

 Startparameter for this run:
   NWRITE =      1    write-flag & timer
   PREC   = accura    normal or accurate (medium, high low for compatibility)
   ISTART =      0    job   : 0-new  1-cont  2-samecut
   ICHARG =      1    charge: 1-file 2-atom 10-const
   ISPIN  =      2    spin polarized calculation?
   LNONCOLLINEAR =      F non collinear calculations
   LSORBIT =      F    spin-orbit coupling
   INIWAV =      1    electr: 0-lowe 1-rand  2-diag
   LASPH  =      T    aspherical Exc in radial PAW
   METAGGA=      F    non-selfconsistent MetaGGA calc.

 Electronic Relaxation 1
   ENCUT  =  650.0 eV  47.77 Ry    6.91 a.u.  24.40 23.32 23.27*2*pi/ulx,y,z
   ENINI  =  650.0     initial cutoff
   ENAUG  =  628.9 eV  augmentation charge cutoff
   NELM   =    200;   NELMIN=  8; NELMDL=  0     # of ELM steps 
   EDIFF  = 0.1E-05   stopping-criterion for ELM
   LREAL  =      F    real-space projection
   NLSPLINE    = F    spline interpolate recip. space projectors
   LCOMPAT=      F    compatible to vasp.4.4
   GGA_COMPAT  = T    GGA compatible to vasp.4.4-vasp.4.6
   LMAXPAW     = -100 max onsite density
   LMAXMIX     =    4 max onsite mixed and CHGCAR
   VOSKOWN=      0    Vosko Wilk Nusair interpolation
   ROPT   =    0.00000   0.00000   0.00000   0.00000
 Ionic relaxation
   EDIFFG = 0.1E-04   stopping-criterion for IOM
   NSW    =      0    number of steps for IOM
   NBLOCK =      1;   KBLOCK =      1    inner block; outer block 
   IBRION =     -1    ionic relax: 0-MD 1-quasi-New 2-CG
   NFREE  =      0    steps in history (QN), initial steepest desc. (CG)
   ISIF   =      3    stress and relaxation
   IWAVPR =     10    prediction:  0-non 1-charg 2-wave 3-comb
   ISYM   =      0    0-nonsym 1-usesym 2-fastsym
   LCORR  =      T    Harris-Foulkes like correction to forces

   POTIM  = 0.5000    time-step for ionic-motion
   TEIN   =    0.0    initial temperature
   TEBEG  =    0.0;   TEEND  =   0.0 temperature during run
   SMASS  =  -3.00    Nose mass-parameter (am)
   estimated Nose-frequenzy (Omega)   =  0.10E-29 period in steps =****** mass=  -0.315E-26a.u.
   SCALEE = 1.0000    scale energy and forces
   NPACO  =    256;   APACO  = 16.0  distance and # of slots for P.C.
   PSTRESS=    0.0 pullay stress

  Mass of Ions in am
   POMASS =   7.01 16.00 32.07 55.85
  Ionic Valenz
   ZVAL   =   3.00  6.00  6.00 14.00
  Atomic Wigner-Seitz radii
   RWIGS  =  -1.00 -1.00 -1.00 -1.00
  virtual crystal weights 
   VCA    =   1.00  1.00  1.00  1.00
   NELECT =     768.0000    total number of electrons
   NUPDOWN=      -1.0000    fix difference up-down

 DOS related values:
   EMIN   =  10.00;   EMAX   =-10.00  energy-range for DOS
   EFERMI =   0.00
   ISMEAR =     0;   SIGMA  =   0.05  broadening in eV -4-tet -1-fermi 0-gaus

 Electronic relaxation 2 (details)
   IALGO  =     38    algorithm
   LDIAG  =      T    sub-space diagonalisation (order eigenvalues)
   LSUBROT=      F    optimize rotation matrix (better conditioning)
   TURBO    =      0    0=normal 1=particle mesh
   IRESTART =      0    0=no restart 2=restart with 2 vectors
   NREBOOT  =      0    no. of reboots
   NMIN     =      0    reboot dimension
   EREF     =   0.00    reference energy to select bands
   IMIX   =      4    mixing-type and parameters
     AMIX     =   0.40;   BMIX     =  1.00
     AMIX_MAG =   1.60;   BMIX_MAG =  1.00
     AMIN     =   0.10
     WC   =   100.;   INIMIX=   1;  MIXPRE=   1;  MAXMIX= -45

 Intra band minimization:
   WEIMIN = 0.0000     energy-eigenvalue tresh-hold
   EBREAK =  0.45E-09  absolut break condition
   DEPER  =   0.30     relativ break condition  

   TIME   =   0.40     timestep for ELM

  volume/ion in A,a.u.               =      12.28        82.89
  Fermi-wavevector in a.u.,A,eV,Ry     =   1.317335  2.489402 23.611165  1.735372
  Thomas-Fermi vector in A             =   2.447383
 
 Write flags
   LWAVE        =      F    write WAVECAR
   LDOWNSAMPLE  =      F    k-point downsampling of WAVECAR
   LCHARG       =      T    write CHGCAR
   LVTOT        =      F    write LOCPOT, total local potential
   LVHAR        =      F    write LOCPOT, Hartree potential only
   LELF         =      F    write electronic localiz. function (ELF)
   LORBIT       =      0    0 simple, 1 ext, 2 COOP (PROOUT), +10 PAW based schemes


 Dipole corrections
   LMONO  =      F    monopole corrections only (constant potential shift)
   LDIPOL =      F    correct potential (dipole corrections)
   IDIPOL =      0    1-x, 2-y, 3-z, 4-all directions 
   EPSILON=  1.0000000 bulk dielectric constant

 LDA+U is selected, type is set to LDAUTYPE =  2
   angular momentum for each species LDAUL =    -1   -1   -1    2
   U (eV)           for each species LDAUU =   0.0  0.0  0.0  4.0
   J (eV)           for each species LDAUJ =   0.0  0.0  0.0  0.0
 Exchange correlation treatment:
   GGA     =    PE    GGA type
   LEXCH   =     8    internal setting for exchange type
   VOSKOWN=      0    Vosko Wilk Nusair interpolation
   LHFCALC =     F    Hartree Fock is set to
   LHFONE  =     F    Hartree Fock one center treatment
   AEXX    =    0.0000 exact exchange contribution

 Linear response parameters
   LEPSILON=     F    determine dielectric tensor
   LRPA    =     F    only Hartree local field effects (RPA)
   LNABLA  =     F    use nabla operator in PAW spheres
   LVEL    =     F    velocity operator in full k-point grid
   LINTERFAST=   F  fast interpolation
   KINTER  =     0    interpolate to denser k-point grid
   CSHIFT  =0.1000    complex shift for real part using Kramers Kronig
   OMEGAMAX=  -1.0    maximum frequency
   DEG_THRESHOLD= 0.2000000E-02 threshold for treating states as degnerate
   RTIME   =   -0.100 relaxation time in fs
  (WPLASMAI=    0.000 imaginary part of plasma frequency in eV, 0.658/RTIME)
   DFIELD  = 0.0000000 0.0000000 0.0000000 field for delta impulse in time
 
 Orbital magnetization related:
   ORBITALMAG=     F  switch on orbital magnetization
   LCHIMAG   =     F  perturbation theory with respect to B field
   DQ        =  0.001000  dq finite difference perturbation B field
   LLRAUG    =     F  two centre corrections for induced B field



--------------------------------------------------------------------------------------------------------


 Static calculation
 charge density and potential will be updated during run
 spin polarized calculation
 Variant of blocked Davidson
 Davidson routine will perform the subspace rotation
 perform sub-space diagonalisation
    after iterative eigenvector-optimisation
 modified Broyden-mixing scheme, WC =      100.0
 initial mixing is a Kerker type mixing with AMIX =  0.4000 and BMIX =      1.0000
 Hartree-type preconditioning will be used
 using additional bands          168
 reciprocal scheme for non local part
 use partial core corrections
 calculate Harris-corrections to forces 
   (improved forces if not selfconsistent)
 use gradient corrections 
 use of overlap-Matrix (Vanderbilt PP)
 Gauss-broadening in eV      SIGMA  =   0.05


--------------------------------------------------------------------------------------------------------


  energy-cutoff  :      650.00
  volume of cell :     1474.00
      direct lattice vectors                 reciprocal lattice vectors
    11.735727240 -0.057442860  0.000000000     0.085207850 -0.000416288  0.000000000
     0.054807880 11.218334900  0.000000000     0.000436302  0.089137657  0.000000000
     0.000000000  0.000000000 11.195620100     0.000000000  0.000000000  0.089320644

  length of vectors
    11.735867822 11.218468783 11.195620100     0.085208867  0.089138725  0.089320644


 
 k-points in units of 2pi/SCALE and weight: # No comment                            
   0.00000000  0.00000000  0.00000000       0.037
   0.02840262 -0.00013876  0.00000000       0.074
   0.00014543  0.02971255  0.00000000       0.074
   0.02854805  0.02957379  0.00000000       0.074
  -0.02825718  0.02985132  0.00000000       0.074
   0.00000000  0.00000000  0.02977355       0.074
   0.02840262 -0.00013876  0.02977355       0.074
  -0.02840262  0.00013876  0.02977355       0.074
   0.00014543  0.02971255  0.02977355       0.074
   0.02854805  0.02957379  0.02977355       0.074
  -0.02825718  0.02985132  0.02977355       0.074
  -0.00014543 -0.02971255  0.02977355       0.074
   0.02825718 -0.02985132  0.02977355       0.074
  -0.02854805 -0.02957379  0.02977355       0.074
 
 k-points in reciprocal lattice and weights: # No comment                            
   0.00000000  0.00000000  0.00000000       0.037
   0.33333333  0.00000000  0.00000000       0.074
   0.00000000  0.33333333  0.00000000       0.074
   0.33333333  0.33333333  0.00000000       0.074
  -0.33333333  0.33333333  0.00000000       0.074
   0.00000000  0.00000000  0.33333333       0.074
   0.33333333  0.00000000  0.33333333       0.074
  -0.33333333  0.00000000  0.33333333       0.074
   0.00000000  0.33333333  0.33333333       0.074
   0.33333333  0.33333333  0.33333333       0.074
  -0.33333333  0.33333333  0.33333333       0.074
  -0.00000000 -0.33333333  0.33333333       0.074
   0.33333333 -0.33333333  0.33333333       0.074
  -0.33333333 -0.33333333  0.33333333       0.074
 
 position of ions in fractional coordinates (direct lattice) 
   0.03541706  0.36277547  0.35648149
   0.36875039  0.36277547  0.35648149
   0.70208372  0.36277547  0.35648149
   0.03541706  0.86277547  0.35648149
   0.36875039  0.86277547  0.35648149
   0.70208372  0.86277547  0.35648149
   0.03541706  0.36277547  0.85648149
   0.36875039  0.36277547  0.85648149
   0.70208372  0.36277547  0.85648149
   0.03541706  0.86277547  0.85648149
   0.36875039  0.86277547  0.85648149
   0.70208372  0.86277547  0.85648149
   0.03541706  0.11277547  0.14351851
   0.36875039  0.11277547  0.14351851
   0.70208372  0.11277547  0.14351851
   0.03541706  0.61277547  0.14351851
   0.36875039  0.61277547  0.14351851
   0.70208372  0.61277547  0.14351851
   0.03541706  0.11277547  0.64351851
   0.36875039  0.11277547  0.64351851
   0.70208372  0.11277547  0.64351851
   0.03541706  0.61277547  0.64351851
   0.36875039  0.61277547  0.64351851
   0.70208372  0.61277547  0.64351851
   0.20124249  0.21898060  0.27246215
   0.53542792  0.21898060  0.27246215
   0.86876125  0.21898060  0.27246215
   0.20209458  0.71898060  0.27246215
   0.53542792  0.71898060  0.27246215
   0.86876125  0.71898060  0.27246215
   0.20209458  0.21898060  0.77246215
   0.53542792  0.21898060  0.77246215
   0.86876125  0.21898060  0.77246215
   0.20209458  0.71898060  0.77246215
   0.53542792  0.71898060  0.77246215
   0.86876125  0.71898060  0.77246215
   0.20209458  0.46898060  0.22753785
   0.53542792  0.46898060  0.22753785
   0.86876125  0.46898060  0.22753785
   0.20209458  0.96898060  0.22753785
   0.53542792  0.96898060  0.22753785
   0.86876125  0.96898060  0.22753785
   0.20209458  0.46898060  0.72753785
   0.53542792  0.46898060  0.72753785
   0.86876125  0.46898060  0.72753785
   0.20209458  0.96898060  0.72753785
   0.53542792  0.96898060  0.72753785
   0.86876125  0.96898060  0.72753785
   0.20209064  0.36769237  0.37376509
   0.53542398  0.36769237  0.37376509
   0.86875731  0.36769237  0.37376509
   0.20209064  0.86769237  0.37376509
   0.53542398  0.86769237  0.37376509
   0.86875731  0.86769237  0.37376509
   0.20209064  0.36769237  0.87376509
   0.53542398  0.36769237  0.87376509
   0.86875731  0.36769237  0.87376509
   0.20209064  0.86769237  0.87376509
   0.53542398  0.86769237  0.87376509
   0.86875731  0.86769237  0.87376509
   0.20209064  0.11769237  0.12623491
   0.53542398  0.11769237  0.12623491
   0.86875731  0.11769237  0.12623491
   0.20209064  0.61769237  0.12623491
   0.53542398  0.61769237  0.12623491
   0.86875731  0.61769237  0.12623491
   0.20209064  0.11769237  0.62623491
   0.53542398  0.11769237  0.62623491
   0.86875731  0.11769237  0.62623491
   0.20209064  0.61769237  0.62623491
   0.53542398  0.61769237  0.62623491
   0.86875731  0.61769237  0.62623491
   0.03542751  0.37011947  0.12029448
   0.36876084  0.37011947  0.12029448
   0.70209418  0.37011947  0.12029448
   0.03542751  0.87011947  0.12029448
   0.36876084  0.87011947  0.12029448
   0.70209418  0.87011947  0.12029448
   0.03542751  0.37011947  0.62029448
   0.36876084  0.37011947  0.62029448
   0.70209418  0.37011947  0.62029448
   0.03542751  0.87011947  0.62029448
   0.36876084  0.87011947  0.62029448
   0.70209418  0.87011947  0.62029448
   0.03542751  0.12011947  0.37970552
   0.36876084  0.12011947  0.37970552
   0.70209418  0.12011947  0.37970552
   0.03542751  0.62011947  0.37970552
   0.36876084  0.62011947  0.37970552
   0.70209418  0.62011947  0.37970552
   0.03542751  0.12011947  0.87970552
   0.36876084  0.12011947  0.87970552
   0.70209418  0.12011947  0.87970552
   0.03542751  0.62011947  0.87970552
   0.36876084  0.62011947  0.87970552
   0.70209418  0.62011947  0.87970552
   0.20209387  0.01225309  0.48003463
   0.53542720  0.01225309  0.48003463
   0.86876054  0.01225309  0.48003463
   0.20209387  0.51225309  0.48003463
   0.53542720  0.51225309  0.48003463
   0.86876054  0.51225309  0.48003463
   0.20209387  0.01225309  0.98003463
   0.53542720  0.01225309  0.98003463
   0.86876054  0.01225309  0.98003463
   0.20209387  0.51225309  0.98003463
   0.53542720  0.51225309  0.98003463
   0.86876054  0.51225309  0.98003463
   0.20209387  0.26225309  0.01996537
   0.53542720  0.26225309  0.01996537
   0.86876054  0.26225309  0.01996537
   0.20209387  0.76225309  0.01996537
   0.53542720  0.76225309  0.01996537
   0.86876054  0.76225309  0.01996537
   0.20209387  0.26225309  0.51996537
   0.53542720  0.26225309  0.51996537
   0.86876054  0.26225309  0.51996537
   0.20209387  0.76225309  0.51996537
   0.53542720  0.76225309  0.51996537
   0.86876054  0.76225309  0.51996537
 
 position of ions in cartesian coordinates  (Angst):
   0.43552787  4.06770226  3.99103128
   4.34743695  4.04855464  3.99103128
   8.25934603  4.02940702  3.99103128
   0.46293181  9.67686971  3.99103128
   4.37484089  9.65772209  3.99103128
   8.28674997  9.63857447  3.99103128
   0.43552787  4.06770226  9.58884133
   4.34743695  4.04855464  9.58884133
   8.25934603  4.02940702  9.58884133
   0.46293181  9.67686971  9.58884133
   4.37484089  9.65772209  9.58884133
   8.28674997  9.63857447  9.58884133
   0.42182590  1.26311853  1.60677877
   4.33373498  1.24397091  1.60677877
   8.24564406  1.22482329  1.60677877
   0.44922984  6.87228598  1.60677877
   4.36113892  6.85313836  1.60677877
   8.27304800  6.83399074  1.60677877
   0.42182590  1.26311853  7.20458882
   4.33373498  1.24397091  7.20458882
   8.24564406  1.22482329  7.20458882
   0.44922984  6.87228598  7.20458882
   4.36113892  6.85313836  7.20458882
   8.27304800  6.83399074  7.20458882
   2.37372889  2.44503776  3.05038272
   6.29563785  2.42584120  3.05038272
  10.20754693  2.40669358  3.05038272
   2.41113271  8.05415627  3.05038272
   6.32304179  8.03500865  3.05038272
  10.23495087  8.01586103  3.05038272
   2.38372877  2.44498882  8.64819277
   6.29563785  2.42584120  8.64819277
  10.20754693  2.40669358  8.64819277
   2.41113271  8.05415627  8.64819277
   6.32304179  8.03500865  8.64819277
  10.23495087  8.01586103  8.64819277
   2.39743074  5.24957254  2.54742733
   6.30933982  5.23042492  2.54742733
  10.22124890  5.21127730  2.54742733
   2.42483468 10.85873999  2.54742733
   6.33674376 10.83959237  2.54742733
  10.24865284 10.82044475  2.54742733
   2.39743074  5.24957254  8.14523738
   6.30933982  5.23042492  8.14523738
  10.22124890  5.21127730  8.14523738
   2.42483468 10.85873999  8.14523738
   6.33674376 10.83959237  8.14523738
  10.24865284 10.82044475  8.14523738
   2.39183311  4.11328754  4.18453195
   6.30374219  4.09413992  4.18453195
  10.21565127  4.07499230  4.18453195
   2.41923705  9.72245499  4.18453195
   6.33114613  9.70330737  4.18453195
  10.24305521  9.68415975  4.18453195
   2.39183311  4.11328754  9.78234200
   6.30374219  4.09413992  9.78234200
  10.21565127  4.07499230  9.78234200
   2.41923705  9.72245499  9.78234200
   6.33114613  9.70330737  9.78234200
  10.24305521  9.68415975  9.78234200
   2.37813114  1.30870381  1.41327810
   6.29004022  1.28955619  1.41327810
  10.20194930  1.27040857  1.41327810
   2.40553508  6.91787126  1.41327810
   6.31744416  6.89872364  1.41327810
  10.22935324  6.87957602  1.41327810
   2.37813114  1.30870381  7.01108815
   6.29004022  1.28955619  7.01108815
  10.20194930  1.27040857  7.01108815
   2.40553508  6.91787126  7.01108815
   6.31744416  6.89872364  7.01108815
  10.22935324  6.87957602  7.01108815
   0.43605306  4.15008905  1.34677124
   4.34796214  4.13094143  1.34677124
   8.25987122  4.11179381  1.34677124
   0.46345700  9.75925650  1.34677124
   4.37536608  9.74010888  1.34677124
   8.28727516  9.72096126  1.34677124
   0.43605306  4.15008905  6.94458129
   4.34796214  4.13094143  6.94458129
   8.25987122  4.11179381  6.94458129
   0.46345700  9.75925650  6.94458129
   4.37536608  9.74010888  6.94458129
   8.28727516  9.72096126  6.94458129
   0.42235109  1.34550533  4.25103881
   4.33426017  1.32635771  4.25103881
   8.24616925  1.30721009  4.25103881
   0.44975503  6.95467278  4.25103881
   4.36166411  6.93552516  4.25103881
   8.27357319  6.91637754  4.25103881
   0.42235109  1.34550533  9.84884886
   4.33426017  1.32635771  9.84884886
   8.24616925  1.30721009  9.84884886
   0.44975503  6.95467278  9.84884886
   4.36166411  6.93552516  9.84884886
   8.27357319  6.91637754  9.84884886
   2.37239010  0.12585042  5.37428530
   6.28429918  0.10670280  5.37428530
  10.19620826  0.08755518  5.37428530
   2.39979404  5.73501787  5.37428530
   6.31170312  5.71587025  5.37428530
  10.22361220  5.69672263  5.37428530
   2.37239010  0.12585042 10.97209535
   6.28429918  0.10670280 10.97209535
  10.19620826  0.08755518 10.97209535
   2.39979404  5.73501787 10.97209535
   6.31170312  5.71587025 10.97209535
  10.22361220  5.69672263 10.97209535
   2.38609207  2.93043414  0.22352475
   6.29800115  2.91128652  0.22352475
  10.20991023  2.89213890  0.22352475
   2.41349601  8.53960159  0.22352475
   6.32540509  8.52045397  0.22352475
  10.23731417  8.50130635  0.22352475
   2.38609207  2.93043414  5.82133480
   6.29800115  2.91128652  5.82133480
  10.20991023  2.89213890  5.82133480
   2.41349601  8.53960159  5.82133480
   6.32540509  8.52045397  5.82133480
  10.23731417  8.50130635  5.82133480
 


--------------------------------------------------------------------------------------------------------


 k-point  1 :   0.0000 0.0000 0.0000  plane waves:   55469
 k-point  2 :   0.3333 0.0000 0.0000  plane waves:   55443
 k-point  3 :   0.0000 0.3333 0.0000  plane waves:   55474
 k-point  4 :   0.3333 0.3333 0.0000  plane waves:   55456
 k-point  5 :  -0.3333 0.3333 0.0000  plane waves:   55456
 k-point  6 :   0.0000 0.0000 0.3333  plane waves:   55522
 k-point  7 :   0.3333 0.0000 0.3333  plane waves:   55468
 k-point  8 :  -0.3333 0.0000 0.3333  plane waves:   55468
 k-point  9 :   0.0000 0.3333 0.3333  plane waves:   55433
 k-point 10 :   0.3333 0.3333 0.3333  plane waves:   55444
 k-point 11 :  -0.3333 0.3333 0.3333  plane waves:   55444
 k-point 12 :  -0.0000-0.3333 0.3333  plane waves:   55433
 k-point 13 :   0.3333-0.3333 0.3333  plane waves:   55444
 k-point 14 :  -0.3333-0.3333 0.3333  plane waves:   55444

 maximum and minimum number of plane-waves per node :      9314     9185

 maximum number of plane-waves:     55522
 maximum index in each direction: 
   IXMAX=   24   IYMAX=   23   IZMAX=   23
   IXMIN=  -24   IYMIN=  -23   IZMIN=  -23


 parallel 3D FFT for wavefunctions:
    minimum data exchange during FFTs selected (reduces bandwidth)
 parallel 3D FFT for charge:
    minimum data exchange during FFTs selected (reduces bandwidth)


 total amount of memory used by VASP MPI-rank0   801761. kBytes
=======================================================================

   base      :      30000. kBytes
   nonl-proj :      92491. kBytes
   fftplans  :      50318. kBytes
   grid      :      44712. kBytes
   one-center:        622. kBytes
   wavefun   :     583618. kBytes
 
     INWAV:  cpu time    0.0000: real time    0.0000
 Broyden mixing: mesh for mixing (old mesh)
   NGX = 49   NGY = 47   NGZ = 47
  (NGX  =196   NGY  =192   NGZ  =192)
  gives a total of 108241 points

 initial charge density was supplied:
 number of electron     768.0000015 magnetization      96.0009074
 keeping initial charge density in first step


--------------------------------------------------------------------------------------------------------


 Maximum index for augmentation-charges         7847 (set IRDMAX)


--------------------------------------------------------------------------------------------------------


 First call to EWALD:  gamma=   0.156
 Maximum number of real-space cells 3x 3x 3
 Maximum number of reciprocal cells 3x 3x 3

    FEWALD:  cpu time    0.0193: real time    0.0193


--------------------------------------- Iteration      1(   1)  ---------------------------------------


    POTLOK:  cpu time    0.4811: real time    0.4893
    SETDIJ:  cpu time    1.5011: real time    1.5022
     EDDAV:  cpu time  219.5898: real time  221.2869
       DOS:  cpu time    0.0059: real time    0.0059
    --------------------------------------------
      LOOP:  cpu time  221.5780: real time  223.2843

 eigenvalue-minimisations  : 32400
 total energy-change (2. order) : 0.1004337E+05  (-0.4138226E+05)
 number of electron     768.0000015 magnetization      96.0009074
 augmentation part      768.0000015 magnetization      96.0009074

 Free energy of the ion-electron system (eV)
  ---------------------------------------------------
  alpha Z        PSCENC =      1915.67052055
  Ewald energy   TEWEN  =    -48532.25920285
  -Hartree energ DENC   =    -28983.30167088
  -exchange      EXHF   =         0.00000000
  -V(xc)+E(xc)   XCENC  =      3297.26492007
  PAW double counting   =     81710.32686745   -84426.12035439
  entropy T*S    EENTRO =        -0.01844810
  eigenvalues    EBANDS =      -670.15993893
  atomic energy  EATOM  =     85731.96378919
  Solvation  Ediel_sol  =         0.00000000
  ---------------------------------------------------
  free energy    TOTEN  =     10043.36648211 eV

  energy without entropy =    10043.38493021  energy(sigma->0) =    10043.37570616


--------------------------------------------------------------------------------------------------------




--------------------------------------- Iteration      1(   2)  ---------------------------------------


     EDDAV:  cpu time  211.3270: real time  213.3941
       DOS:  cpu time    0.0054: real time    0.0054
    --------------------------------------------
      LOOP:  cpu time  211.3324: real time  213.3995

 eigenvalue-minimisations  : 30912
 total energy-change (2. order) :-0.9006312E+04  (-0.8363406E+04)
 number of electron     768.0000015 magnetization      96.0009074
 augmentation part      768.0000015 magnetization      96.0009074

 Free energy of the ion-electron system (eV)
  ---------------------------------------------------
  alpha Z        PSCENC =      1915.67052055
  Ewald energy   TEWEN  =    -48532.25920285
  -Hartree energ DENC   =    -28983.30167088
  -exchange      EXHF   =         0.00000000
  -V(xc)+E(xc)   XCENC  =      3297.26492007
  PAW double counting   =     81710.32686745   -84426.12035439
  entropy T*S    EENTRO =        -0.05225306
  eigenvalues    EBANDS =     -9676.43805852
  atomic energy  EATOM  =     85731.96378919
  Solvation  Ediel_sol  =         0.00000000
  ---------------------------------------------------
  free energy    TOTEN  =      1037.05455757 eV

  energy without entropy =     1037.10681062  energy(sigma->0) =     1037.08068409


--------------------------------------------------------------------------------------------------------




--------------------------------------- Iteration      1(   3)  ---------------------------------------


     EDDAV:  cpu time  226.9420: real time  228.7989
       DOS:  cpu time    0.0021: real time    0.0026
    --------------------------------------------
      LOOP:  cpu time  226.9441: real time  228.8014

 eigenvalue-minimisations  : 34704
 total energy-change (2. order) :-0.1436949E+04  (-0.1296284E+04)
 number of electron     768.0000015 magnetization      96.0009074
 augmentation part      768.0000015 magnetization      96.0009074

 Free energy of the ion-electron system (eV)
  ---------------------------------------------------
  alpha Z        PSCENC =      1915.67052055
  Ewald energy   TEWEN  =    -48532.25920285
  -Hartree energ DENC   =    -28983.30167088
  -exchange      EXHF   =         0.00000000
  -V(xc)+E(xc)   XCENC  =      3297.26492007
  PAW double counting   =     81710.32686745   -84426.12035439
  entropy T*S    EENTRO =        -0.00000000
  eigenvalues    EBANDS =    -11113.43905330
  atomic energy  EATOM  =     85731.96378919
  Solvation  Ediel_sol  =         0.00000000
  ---------------------------------------------------
  free energy    TOTEN  =      -399.89418416 eV

  energy without entropy =     -399.89418416  energy(sigma->0) =     -399.89418416


--------------------------------------------------------------------------------------------------------




--------------------------------------- Iteration      1(   4)  ---------------------------------------


     EDDAV:  cpu time  261.0139: real time  263.3000
       DOS:  cpu time    0.0021: real time    0.0021
    --------------------------------------------
      LOOP:  cpu time  261.0160: real time  263.3020

 eigenvalue-minimisations  : 41056
 total energy-change (2. order) :-0.1904206E+03  (-0.1882638E+03)
 number of electron     768.0000015 magnetization      96.0009074
 augmentation part      768.0000015 magnetization      96.0009074

 Free energy of the ion-electron system (eV)
  ---------------------------------------------------
  alpha Z        PSCENC =      1915.67052055
  Ewald energy   TEWEN  =    -48532.25920285
  -Hartree energ DENC   =    -28983.30167088
  -exchange      EXHF   =         0.00000000
  -V(xc)+E(xc)   XCENC  =      3297.26492007
  PAW double counting   =     81710.32686745   -84426.12035439
  entropy T*S    EENTRO =        -0.00000000
  eigenvalues    EBANDS =    -11303.85967030
  atomic energy  EATOM  =     85731.96378919
  Solvation  Ediel_sol  =         0.00000000
  ---------------------------------------------------
  free energy    TOTEN  =      -590.31480115 eV

  energy without entropy =     -590.31480115  energy(sigma->0) =     -590.31480115


--------------------------------------------------------------------------------------------------------




--------------------------------------- Iteration      1(   5)  ---------------------------------------


     EDDAV:  cpu time  331.8502: real time  335.4431
       DOS:  cpu time    0.0020: real time    0.0021
    CHARGE:  cpu time    5.5420: real time    5.6443
    MIXING:  cpu time    0.0172: real time    0.0220
    --------------------------------------------
      LOOP:  cpu time  337.4115: real time  341.1115

 eigenvalue-minimisations  : 54472
 total energy-change (2. order) :-0.2512450E+02  (-0.2488751E+02)
 number of electron     768.0000015 magnetization      96.0005841
 augmentation part      246.8452894 magnetization      62.9008232

 Broyden mixing:
  rms(total) = 0.28050E+00    rms(broyden)= 0.28035E+00
  rms(prec ) = 0.28472E+00
  weight for this iteration     100.00

 Free energy of the ion-electron system (eV)
  ---------------------------------------------------
  alpha Z        PSCENC =      1915.67052055
  Ewald energy   TEWEN  =    -48532.25920285
  -Hartree energ DENC   =    -28983.30167088
  -exchange      EXHF   =         0.00000000
  -V(xc)+E(xc)   XCENC  =      3297.26492007
  PAW double counting   =     81710.32686745   -84426.12035439
  entropy T*S    EENTRO =        -0.00000000
  eigenvalues    EBANDS =    -11328.98417249
  atomic energy  EATOM  =     85731.96378919
  Solvation  Ediel_sol  =         0.00000000
  ---------------------------------------------------
  free energy    TOTEN  =      -615.43930335 eV

  energy without entropy =     -615.43930335  energy(sigma->0) =     -615.43930335


--------------------------------------------------------------------------------------------------------




--------------------------------------- Iteration      1(   6)  ---------------------------------------


    POTLOK:  cpu time    0.4793: real time    0.4818
    SETDIJ:  cpu time    1.4104: real time    1.4890
     EDDAV:  cpu time  267.5424: real time  270.3924
       DOS:  cpu time    0.0021: real time    0.0021
    CHARGE:  cpu time    5.7071: real time    5.7102
    MIXING:  cpu time    0.0285: real time    0.0333
    --------------------------------------------
      LOOP:  cpu time  275.1699: real time  278.1088

 eigenvalue-minimisations  : 42408
 total energy-change (2. order) :-0.9492943E+00  (-0.9777717E+00)
 number of electron     768.0000015 magnetization      96.0004371
 augmentation part      245.7186161 magnetization      63.0671426

 Broyden mixing:
  rms(total) = 0.12143E+00    rms(broyden)= 0.12129E+00
  rms(prec ) = 0.12292E+00
  weight for this iteration     100.00

 eigenvalues of (default mixing * dielectric matrix)
  average eigenvalue GAMMA=   0.6652
  0.6652

 Free energy of the ion-electron system (eV)
  ---------------------------------------------------
  alpha Z        PSCENC =      1915.67052055
  Ewald energy   TEWEN  =    -48532.25920285
  -Hartree energ DENC   =    -28977.19318840
  -exchange      EXHF   =         0.00000000
  -V(xc)+E(xc)   XCENC  =      3296.38624998
  PAW double counting   =     81548.35431925   -84260.24530773
  entropy T*S    EENTRO =        -0.00000000
  eigenvalues    EBANDS =    -11339.06577765
  atomic energy  EATOM  =     85731.96378919
  Solvation  Ediel_sol  =         0.00000000
  ---------------------------------------------------
  free energy    TOTEN  =      -616.38859766 eV

  energy without entropy =     -616.38859766  energy(sigma->0) =     -616.38859766


--------------------------------------------------------------------------------------------------------




--------------------------------------- Iteration      1(   7)  ---------------------------------------


    POTLOK:  cpu time    0.5061: real time    0.5219
    SETDIJ:  cpu time    1.4748: real time    1.4763
     EDDAV:  cpu time  306.9812: real time  309.8764
       DOS:  cpu time    0.0022: real time    0.0022
    CHARGE:  cpu time    5.7054: real time    5.7618
    MIXING:  cpu time    0.0221: real time    0.0286
    --------------------------------------------
      LOOP:  cpu time  314.6918: real time  317.6671

 eigenvalue-minimisations  : 49464
 total energy-change (2. order) :-0.4691662E-01  (-0.4659804E-01)
 number of electron     768.0000015 magnetization      96.0003801
 augmentation part      245.5230849 magnetization      63.0193195

 Broyden mixing:
  rms(total) = 0.84280E-01    rms(broyden)= 0.84226E-01
  rms(prec ) = 0.85938E-01
  weight for this iteration     100.00

 eigenvalues of (default mixing * dielectric matrix)
  average eigenvalue GAMMA=   0.5808
  0.5808  0.5808

 Free energy of the ion-electron system (eV)
  ---------------------------------------------------
  alpha Z        PSCENC =      1915.67052055
  Ewald energy   TEWEN  =    -48532.25920285
  -Hartree energ DENC   =    -28979.17184024
  -exchange      EXHF   =         0.00000000
  -V(xc)+E(xc)   XCENC  =      3296.64360195
  PAW double counting   =     81588.23551551   -84301.07446184
  entropy T*S    EENTRO =        -0.00000000
  eigenvalues    EBANDS =    -11336.44343656
  atomic energy  EATOM  =     85731.96378919
  Solvation  Ediel_sol  =         0.00000000
  ---------------------------------------------------
  free energy    TOTEN  =      -616.43551428 eV

  energy without entropy =     -616.43551428  energy(sigma->0) =     -616.43551428


--------------------------------------------------------------------------------------------------------




--------------------------------------- Iteration      1(   8)  ---------------------------------------


    POTLOK:  cpu time    0.4774: real time    0.4960
    SETDIJ:  cpu time    1.4142: real time    1.4787
     EDDAV:  cpu time  294.8012: real time  297.0213
       DOS:  cpu time    0.0022: real time    0.0022
    CHARGE:  cpu time    5.6821: real time    5.7428
    MIXING:  cpu time    0.0229: real time    0.0282
    --------------------------------------------
      LOOP:  cpu time  302.3999: real time  304.7692

 eigenvalue-minimisations  : 47320
 total energy-change (2. order) :-0.1258852E-03  (-0.1707050E-02)
 number of electron     768.0000015 magnetization      96.0003543
 augmentation part      245.4883402 magnetization      63.0151341

 Broyden mixing:
  rms(total) = 0.73006E-01    rms(broyden)= 0.73002E-01
  rms(prec ) = 0.74532E-01
  weight for this iteration     100.00

 eigenvalues of (default mixing * dielectric matrix)
  average eigenvalue GAMMA=   0.5407
  0.6145  0.6145  0.3929

 Free energy of the ion-electron system (eV)
  ---------------------------------------------------
  alpha Z        PSCENC =      1915.67052055
  Ewald energy   TEWEN  =    -48532.25920285
  -Hartree energ DENC   =    -28979.92285810
  -exchange      EXHF   =         0.00000000
  -V(xc)+E(xc)   XCENC  =      3296.74570788
  PAW double counting   =     81608.93496139   -84322.32019823
  entropy T*S    EENTRO =        -0.00000000
  eigenvalues    EBANDS =    -11335.24835999
  atomic energy  EATOM  =     85731.96378919
  Solvation  Ediel_sol  =         0.00000000
  ---------------------------------------------------
  free energy    TOTEN  =      -616.43564017 eV

  energy without entropy =     -616.43564017  energy(sigma->0) =     -616.43564017


--------------------------------------------------------------------------------------------------------




--------------------------------------- Iteration      1(   9)  ---------------------------------------


    POTLOK:  cpu time    0.4859: real time    0.4960
    SETDIJ:  cpu time    1.4471: real time    1.4677
     EDDAV:  cpu time  305.5121: real time  308.3274
       DOS:  cpu time    0.0022: real time    0.0038
    CHARGE:  cpu time    5.7487: real time    5.7519
    MIXING:  cpu time    0.0324: real time    0.0366
    --------------------------------------------
      LOOP:  cpu time  313.2283: real time  316.0834

 eigenvalue-minimisations  : 49200
 total energy-change (2. order) : 0.6188806E-03  (-0.1029031E-03)
 number of electron     768.0000015 magnetization      96.0003504
 augmentation part      245.4938975 magnetization      63.0121728

 Broyden mixing:
  rms(total) = 0.66652E-01    rms(broyden)= 0.66652E-01
  rms(prec ) = 0.68027E-01
  weight for this iteration     100.00

 eigenvalues of (default mixing * dielectric matrix)
  average eigenvalue GAMMA=   0.4954
  0.6204  0.6204  0.3705  0.3705

 Free energy of the ion-electron system (eV)
  ---------------------------------------------------
  alpha Z        PSCENC =      1915.67052055
  Ewald energy   TEWEN  =    -48532.25920285
  -Hartree energ DENC   =    -28980.11609170
  -exchange      EXHF   =         0.00000000
  -V(xc)+E(xc)   XCENC  =      3296.79041934
  PAW double counting   =     81616.31116761   -84329.91262388
  entropy T*S    EENTRO =        -0.00000000
  eigenvalues    EBANDS =    -11334.88299954
  atomic energy  EATOM  =     85731.96378919
  Solvation  Ediel_sol  =         0.00000000
  ---------------------------------------------------
  free energy    TOTEN  =      -616.43502128 eV

  energy without entropy =     -616.43502128  energy(sigma->0) =     -616.43502128


--------------------------------------------------------------------------------------------------------




--------------------------------------- Iteration      1(  10)  ---------------------------------------


    POTLOK:  cpu time    0.4816: real time    0.4841
    SETDIJ:  cpu time    1.5265: real time    1.5270
     EDDAV:  cpu time  302.6655: real time  305.2118
       DOS:  cpu time    0.0022: real time    0.0022
    CHARGE:  cpu time    5.8559: real time    5.8599
    MIXING:  cpu time    0.0199: real time    0.0243
    --------------------------------------------
      LOOP:  cpu time  310.5515: real time  313.1093

 eigenvalue-minimisations  : 48608
 total energy-change (2. order) : 0.8868451E-04  (-0.1109001E-04)
 number of electron     768.0000015 magnetization      96.0002553
 augmentation part      245.4984615 magnetization      63.0118293

 Broyden mixing:
  rms(total) = 0.65557E-01    rms(broyden)= 0.65557E-01
  rms(prec ) = 0.66882E-01
  weight for this iteration     100.00

 eigenvalues of (default mixing * dielectric matrix)
  average eigenvalue GAMMA=   0.6358
  0.9218  0.9218  0.4733  0.4733  0.3889

 Free energy of the ion-electron system (eV)
  ---------------------------------------------------
  alpha Z        PSCENC =      1915.67052055
  Ewald energy   TEWEN  =    -48532.25920285
  -Hartree energ DENC   =    -28980.16116983
  -exchange      EXHF   =         0.00000000
  -V(xc)+E(xc)   XCENC  =      3296.79782477
  PAW double counting   =     81617.38973783   -84331.02305628
  entropy T*S    EENTRO =        -0.00000000
  eigenvalues    EBANDS =    -11334.81337597
  atomic energy  EATOM  =     85731.96378919
  Solvation  Ediel_sol  =         0.00000000
  ---------------------------------------------------
  free energy    TOTEN  =      -616.43493260 eV

  energy without entropy =     -616.43493260  energy(sigma->0) =     -616.43493260


--------------------------------------------------------------------------------------------------------




--------------------------------------- Iteration      1(  11)  ---------------------------------------


    POTLOK:  cpu time    0.4757: real time    0.4765
    SETDIJ:  cpu time    1.4852: real time    1.4894
     EDDAV:  cpu time  307.8081: real time  310.1322
       DOS:  cpu time    0.0020: real time    0.0020
    CHARGE:  cpu time    5.6138: real time    5.6265
    MIXING:  cpu time    0.0264: real time    0.0314
    --------------------------------------------
      LOOP:  cpu time  315.4112: real time  317.7580

 eigenvalue-minimisations  : 50032
 total energy-change (2. order) : 0.1513376E-02  (-0.3469293E-04)
 number of electron     768.0000015 magnetization      96.0002097
 augmentation part      245.5091013 magnetization      63.0113526

 Broyden mixing:
  rms(total) = 0.45725E-01    rms(broyden)= 0.45725E-01
  rms(prec ) = 0.46587E-01
  weight for this iteration     100.00

 eigenvalues of (default mixing * dielectric matrix)
  average eigenvalue GAMMA=   0.6432
  1.0527  1.0527  0.5303  0.5303  0.3971  0.2959

 Free energy of the ion-electron system (eV)
  ---------------------------------------------------
  alpha Z        PSCENC =      1915.67052055
  Ewald energy   TEWEN  =    -48532.25920285
  -Hartree energ DENC   =    -28981.09731143
  -exchange      EXHF   =         0.00000000
  -V(xc)+E(xc)   XCENC  =      3296.95418498
  PAW double counting   =     81645.20440737   -84359.61415641
  entropy T*S    EENTRO =        -0.00000000
  eigenvalues    EBANDS =    -11333.25565063
  atomic energy  EATOM  =     85731.96378919
  Solvation  Ediel_sol  =         0.00000000
  ---------------------------------------------------
  free energy    TOTEN  =      -616.43341922 eV

  energy without entropy =     -616.43341922  energy(sigma->0) =     -616.43341922


--------------------------------------------------------------------------------------------------------




--------------------------------------- Iteration      1(  12)  ---------------------------------------


    POTLOK:  cpu time    0.4787: real time    0.4878
    SETDIJ:  cpu time    1.3924: real time    1.4799
     EDDAV:  cpu time  272.4073: real time  274.7882
       DOS:  cpu time    0.0021: real time    0.0021
    CHARGE:  cpu time    5.5795: real time    5.6562
    MIXING:  cpu time    0.0238: real time    0.0294
    --------------------------------------------
      LOOP:  cpu time  279.8837: real time  282.4436

 eigenvalue-minimisations  : 42792
 total energy-change (2. order) : 0.4140764E-03  (-0.4308446E-04)
 number of electron     768.0000015 magnetization      96.0001577
 augmentation part      245.5205422 magnetization      63.0109918

 Broyden mixing:
  rms(total) = 0.36333E-01    rms(broyden)= 0.36332E-01
  rms(prec ) = 0.36957E-01
  weight for this iteration     100.00

 eigenvalues of (default mixing * dielectric matrix)
  average eigenvalue GAMMA=   0.7311
  1.3115  1.3115  0.6096  0.6096  0.4619  0.4619  0.3516

 Free energy of the ion-electron system (eV)
  ---------------------------------------------------
  alpha Z        PSCENC =      1915.67052055
  Ewald energy   TEWEN  =    -48532.25920285
  -Hartree energ DENC   =    -28981.58257803
  -exchange      EXHF   =         0.00000000
  -V(xc)+E(xc)   XCENC  =      3297.02401039
  PAW double counting   =     81657.81608097   -84372.55819940
  entropy T*S    EENTRO =        -0.00000000
  eigenvalues    EBANDS =    -11332.50742597
  atomic energy  EATOM  =     85731.96378919
  Solvation  Ediel_sol  =         0.00000000
  ---------------------------------------------------
  free energy    TOTEN  =      -616.43300515 eV

  energy without entropy =     -616.43300515  energy(sigma->0) =     -616.43300515


--------------------------------------------------------------------------------------------------------




--------------------------------------- Iteration      1(  13)  ---------------------------------------


    POTLOK:  cpu time    0.4807: real time    0.4872
    SETDIJ:  cpu time    1.4490: real time    1.4749
     EDDAV:  cpu time  297.2817: real time  299.6345
       DOS:  cpu time    0.0021: real time    0.0021
    CHARGE:  cpu time    5.6110: real time    5.6318
    MIXING:  cpu time    0.0207: real time    0.0249
    --------------------------------------------
      LOOP:  cpu time  304.8451: real time  307.2553

 eigenvalue-minimisations  : 47360
 total energy-change (2. order) : 0.3317727E-03  (-0.9666257E-05)
 number of electron     768.0000015 magnetization      96.0001301
 augmentation part      245.5250995 magnetization      63.0108559

 Broyden mixing:
  rms(total) = 0.26581E-01    rms(broyden)= 0.26580E-01
  rms(prec ) = 0.26997E-01
  weight for this iteration     100.00

 eigenvalues of (default mixing * dielectric matrix)
  average eigenvalue GAMMA=   0.7589
  1.4866  1.4866  0.6899  0.6899  0.4832  0.4832  0.4133  0.3384

 Free energy of the ion-electron system (eV)
  ---------------------------------------------------
  alpha Z        PSCENC =      1915.67052055
  Ewald energy   TEWEN  =    -48532.25920285
  -Hartree energ DENC   =    -28982.09088435
  -exchange      EXHF   =         0.00000000
  -V(xc)+E(xc)   XCENC  =      3297.09855575
  PAW double counting   =     81671.49991672   -84386.56360629
  entropy T*S    EENTRO =        -0.00000000
  eigenvalues    EBANDS =    -11331.75176209
  atomic energy  EATOM  =     85731.96378919
  Solvation  Ediel_sol  =         0.00000000
  ---------------------------------------------------
  free energy    TOTEN  =      -616.43267338 eV

  energy without entropy =     -616.43267338  energy(sigma->0) =     -616.43267338


--------------------------------------------------------------------------------------------------------




--------------------------------------- Iteration      1(  14)  ---------------------------------------


    POTLOK:  cpu time    0.4756: real time    0.4783
    SETDIJ:  cpu time    1.4638: real time    1.4731
     EDDAV:  cpu time  277.3024: real time  280.1279
       DOS:  cpu time    0.0022: real time    0.0027
    CHARGE:  cpu time    5.5682: real time    5.6164
    MIXING:  cpu time    0.0216: real time    0.0316
    --------------------------------------------
      LOOP:  cpu time  284.8338: real time  287.7301

 eigenvalue-minimisations  : 43608
 total energy-change (2. order) : 0.9849628E-04  (-0.1069686E-04)
 number of electron     768.0000015 magnetization      96.0000826
 augmentation part      245.5305048 magnetization      63.0103827

 Broyden mixing:
  rms(total) = 0.21604E-01    rms(broyden)= 0.21603E-01
  rms(prec ) = 0.21910E-01
  weight for this iteration     100.00

 eigenvalues of (default mixing * dielectric matrix)
  average eigenvalue GAMMA=   0.8749
  1.9208  1.9208  0.8422  0.8422  0.5536  0.5536  0.4502  0.4502  0.3408

 Free energy of the ion-electron system (eV)
  ---------------------------------------------------
  alpha Z        PSCENC =      1915.67052055
  Ewald energy   TEWEN  =    -48532.25920285
  -Hartree energ DENC   =    -28982.35173319
  -exchange      EXHF   =         0.00000000
  -V(xc)+E(xc)   XCENC  =      3297.13335868
  PAW double counting   =     81678.29338515   -84393.49356140
  entropy T*S    EENTRO =        -0.00000000
  eigenvalues    EBANDS =    -11331.38913102
  atomic energy  EATOM  =     85731.96378919
  Solvation  Ediel_sol  =         0.00000000
  ---------------------------------------------------
  free energy    TOTEN  =      -616.43257488 eV

  energy without entropy =     -616.43257488  energy(sigma->0) =     -616.43257488


--------------------------------------------------------------------------------------------------------




--------------------------------------- Iteration      1(  15)  ---------------------------------------


    POTLOK:  cpu time    0.4770: real time    0.4786
    SETDIJ:  cpu time    1.4956: real time    1.4965
     EDDAV:  cpu time  242.2174: real time  244.1111
       DOS:  cpu time    0.0018: real time    0.0018
    CHARGE:  cpu time    5.6339: real time    5.6859
    MIXING:  cpu time    0.0362: real time    0.0405
    --------------------------------------------
      LOOP:  cpu time  249.8620: real time  251.8144

 eigenvalue-minimisations  : 36728
 total energy-change (2. order) : 0.1090083E-03  (-0.2834953E-05)
 number of electron     768.0000015 magnetization      96.0000161
 augmentation part      245.5325192 magnetization      63.0105084

 Broyden mixing:
  rms(total) = 0.13688E-01    rms(broyden)= 0.13688E-01
  rms(prec ) = 0.13883E-01
  weight for this iteration     100.00

 eigenvalues of (default mixing * dielectric matrix)
  average eigenvalue GAMMA=   1.0059
  2.5007  2.5007  0.9830  0.9830  0.6394  0.6394  0.5038  0.5038  0.3417  0.4631

 Free energy of the ion-electron system (eV)
  ---------------------------------------------------
  alpha Z        PSCENC =      1915.67052055
  Ewald energy   TEWEN  =    -48532.25920285
  -Hartree energ DENC   =    -28982.75088013
  -exchange      EXHF   =         0.00000000
  -V(xc)+E(xc)   XCENC  =      3297.18401818
  PAW double counting   =     81689.13690025   -84404.49866743
  entropy T*S    EENTRO =        -0.00000000
  eigenvalues    EBANDS =    -11330.87894363
  atomic energy  EATOM  =     85731.96378919
  Solvation  Ediel_sol  =         0.00000000
  ---------------------------------------------------
  free energy    TOTEN  =      -616.43246587 eV

  energy without entropy =     -616.43246587  energy(sigma->0) =     -616.43246587


--------------------------------------------------------------------------------------------------------




--------------------------------------- Iteration      1(  16)  ---------------------------------------


    POTLOK:  cpu time    0.4769: real time    0.4773
    SETDIJ:  cpu time    1.5252: real time    1.5264
     EDDAV:  cpu time  293.5285: real time  295.9806
       DOS:  cpu time    0.0021: real time    0.0021
    CHARGE:  cpu time    5.6563: real time    5.6728
    MIXING:  cpu time    0.0331: real time    0.0470
    --------------------------------------------
      LOOP:  cpu time  301.2221: real time  303.7063

 eigenvalue-minimisations  : 47280
 total energy-change (2. order) : 0.8600295E-04  (-0.1673214E-04)
 number of electron     768.0000015 magnetization      96.0000087
 augmentation part      245.5405691 magnetization      63.0109215

 Broyden mixing:
  rms(total) = 0.23836E-02    rms(broyden)= 0.23786E-02
  rms(prec ) = 0.23985E-02
  weight for this iteration     100.00

 eigenvalues of (default mixing * dielectric matrix)
  average eigenvalue GAMMA=   0.9614
  2.4375  2.4375  1.0316  1.0316  0.6980  0.6980  0.4904  0.4904  0.3370  0.4617
  0.4617

 Free energy of the ion-electron system (eV)
  ---------------------------------------------------
  alpha Z        PSCENC =      1915.67052055
  Ewald energy   TEWEN  =    -48532.25920285
  -Hartree energ DENC   =    -28983.35382730
  -exchange      EXHF   =         0.00000000
  -V(xc)+E(xc)   XCENC  =      3297.26676161
  PAW double counting   =     81705.59871479   -84421.29233777
  entropy T*S    EENTRO =        -0.00000000
  eigenvalues    EBANDS =    -11330.02679809
  atomic energy  EATOM  =     85731.96378919
  Solvation  Ediel_sol  =         0.00000000
  ---------------------------------------------------
  free energy    TOTEN  =      -616.43237987 eV

  energy without entropy =     -616.43237987  energy(sigma->0) =     -616.43237987


--------------------------------------------------------------------------------------------------------




--------------------------------------- Iteration      1(  17)  ---------------------------------------


    POTLOK:  cpu time    0.4808: real time    0.4815
    SETDIJ:  cpu time    1.4672: real time    1.5043
     EDDAV:  cpu time  269.5353: real time  272.0020
       DOS:  cpu time    0.0023: real time    0.0023
    CHARGE:  cpu time    5.5389: real time    5.6166
    MIXING:  cpu time    0.0452: real time    0.0492
    --------------------------------------------
      LOOP:  cpu time  277.0697: real time  279.6560

 eigenvalue-minimisations  : 42504
 total energy-change (2. order) :-0.5575770E-05  (-0.5593316E-05)
 number of electron     768.0000015 magnetization      96.0000074
 augmentation part      245.5426918 magnetization      63.0105506

 Broyden mixing:
  rms(total) = 0.20859E-02    rms(broyden)= 0.20812E-02
  rms(prec ) = 0.21249E-02
  weight for this iteration     100.00

 eigenvalues of (default mixing * dielectric matrix)
  average eigenvalue GAMMA=   0.9071
  2.4541  2.4541  1.0477  1.0477  0.7012  0.7012  0.4878  0.4878  0.4226  0.3678
  0.3565  0.3565

 Free energy of the ion-electron system (eV)
  ---------------------------------------------------
  alpha Z        PSCENC =      1915.67052055
  Ewald energy   TEWEN  =    -48532.25920285
  -Hartree energ DENC   =    -28983.41906933
  -exchange      EXHF   =         0.00000000
  -V(xc)+E(xc)   XCENC  =      3297.27546201
  PAW double counting   =     81707.58583233   -84423.32945936
  entropy T*S    EENTRO =        -0.00000000
  eigenvalues    EBANDS =    -11329.92025798
  atomic energy  EATOM  =     85731.96378919
  Solvation  Ediel_sol  =         0.00000000
  ---------------------------------------------------
  free energy    TOTEN  =      -616.43238544 eV

  energy without entropy =     -616.43238544  energy(sigma->0) =     -616.43238544


--------------------------------------------------------------------------------------------------------




--------------------------------------- Iteration      1(  18)  ---------------------------------------


    POTLOK:  cpu time    0.4759: real time    0.4767
    SETDIJ:  cpu time    1.5011: real time    1.5026
     EDDAV:  cpu time  201.8168: real time  203.9130
       DOS:  cpu time    0.0019: real time    0.0019
    --------------------------------------------
      LOOP:  cpu time  203.7956: real time  205.8941

 eigenvalue-minimisations  : 29032
 total energy-change (2. order) :-0.5207403E-06  (-0.2446129E-06)
 number of electron     768.0000015 magnetization      96.0000074
 augmentation part      245.5426918 magnetization      63.0105506

 Free energy of the ion-electron system (eV)
  ---------------------------------------------------
  alpha Z        PSCENC =      1915.67052055
  Ewald energy   TEWEN  =    -48532.25920285
  -Hartree energ DENC   =    -28983.41920586
  -exchange      EXHF   =         0.00000000
  -V(xc)+E(xc)   XCENC  =      3297.27587062
  PAW double counting   =     81707.92389494   -84423.67341080
  entropy T*S    EENTRO =        -0.00000000
  eigenvalues    EBANDS =    -11329.91464176
  atomic energy  EATOM  =     85731.96378919
  Solvation  Ediel_sol  =         0.00000000
  ---------------------------------------------------
  free energy    TOTEN  =      -616.43238596 eV

  energy without entropy =     -616.43238596  energy(sigma->0) =     -616.43238596


--------------------------------------------------------------------------------------------------------




 average (electrostatic) potential at core
  the test charge radii are     0.7079  0.7215  0.9698  0.9500
  (the norm of the test charge is              1.0000)
       1 -59.3931       2 -59.3876       3 -59.3905       4 -59.3913       5 -59.3893
       6 -59.3903       7 -59.3910       8 -59.3896       9 -59.3903      10 -59.3908
      11 -59.3900      12 -59.3905      13 -59.3930      14 -59.3877      15 -59.3904
      16 -59.3909      17 -59.3896      18 -59.3904      19 -59.3911      20 -59.3892
      21 -59.3904      22 -59.3908      23 -59.3900      24 -59.3903      25 -59.5918
      26 -59.5916      27 -59.5938      28 -59.5928      29 -59.5916      30 -59.5932
      31 -59.5927      32 -59.5923      33 -59.5940      34 -59.5925      35 -59.5924
      36 -59.5924      37 -59.5927      38 -59.5917      39 -59.5935      40 -59.5933
      41 -59.5918      42 -59.5926      43 -59.5929      44 -59.5921      45 -59.5929
      46 -59.5925      47 -59.5912      48 -59.5925      49 -70.1771      50 -70.1763
      51 -70.1778      52 -70.1771      53 -70.1762      54 -70.1779      55 -70.1771
      56 -70.1764      57 -70.1776      58 -70.1771      59 -70.1768      60 -70.1773
      61 -70.1770      62 -70.1763      63 -70.1778      64 -70.1771      65 -70.1765
      66 -70.1776      67 -70.1771      68 -70.1761      69 -70.1780      70 -70.1770
      71 -70.1768      72 -70.1773      73 -86.0067      74 -86.0016      75 -86.0041
      76 -86.0045      77 -86.0037      78 -86.0041      79 -86.0046      80 -86.0037
      81 -86.0041      82 -86.0047      83 -86.0036      84 -86.0041      85 -86.0081
      86 -86.0002      87 -86.0041      88 -86.0044      89 -86.0038      90 -86.0041
      91 -86.0044      92 -86.0038      93 -86.0041      94 -86.0046      95 -86.0037
      96 -86.0041      97 -79.0585      98 -79.0569      99 -79.0600     100 -79.0585
     101 -79.0582     102 -79.0587     103 -79.0585     104 -79.0582     105 -79.0587
     106 -79.0585     107 -79.0578     108 -79.0591     109 -79.0585     110 -79.0578
     111 -79.0592     112 -79.0585     113 -79.0583     114 -79.0587     115 -79.0585
     116 -79.0577     117 -79.0593     118 -79.0585     119 -79.0582     120 -79.0588
 
 
 
 E-fermi :   4.4055     XC(G=0): -10.1825     alpha+bet :-12.6708


 spin component 1

 k-point     1 :       0.0000    0.0000    0.0000
  band No.  band energies     occupation 
      1     -51.4828      1.00000
      2     -51.4825      1.00000
      3     -51.4820      1.00000
      4     -51.4820      1.00000
      5     -51.4816      1.00000
      6     -51.4813      1.00000
      7     -51.4673      1.00000
      8     -51.4669      1.00000
      9     -51.4668      1.00000
     10     -51.4668      1.00000
     11     -51.4664      1.00000
     12     -51.4664      1.00000
     13     -51.4664      1.00000
     14     -51.4664      1.00000
     15     -51.4659      1.00000
     16     -51.4659      1.00000
     17     -51.4658      1.00000
     18     -51.4654      1.00000
     19     -51.4516      1.00000
     20     -51.4513      1.00000
     21     -51.4508      1.00000
     22     -51.4508      1.00000
     23     -51.4504      1.00000
     24     -51.4501      1.00000
     25     -50.2021      1.00000
     26     -50.2019      1.00000
     27     -50.2014      1.00000
     28     -50.2013      1.00000
     29     -50.2006      1.00000
     30     -50.2005      1.00000
     31     -50.1995      1.00000
     32     -50.1992      1.00000
     33     -50.1992      1.00000
     34     -50.1991      1.00000
     35     -50.1987      1.00000
     36     -50.1986      1.00000
     37     -50.1986      1.00000
     38     -50.1986      1.00000
     39     -50.1980      1.00000
     40     -50.1979      1.00000
     41     -50.1979      1.00000
     42     -50.1976      1.00000
     43     -50.1966      1.00000
     44     -50.1964      1.00000
     45     -50.1959      1.00000
     46     -50.1959      1.00000
     47     -50.1953      1.00000
     48     -50.1950      1.00000
     49     -50.0076      1.00000
     50     -50.0073      1.00000
     51     -50.0068      1.00000
     52     -50.0068      1.00000
     53     -50.0063      1.00000
     54     -50.0060      1.00000
     55     -49.9915      1.00000
     56     -49.9911      1.00000
     57     -49.9910      1.00000
     58     -49.9910      1.00000
     59     -49.9906      1.00000
     60     -49.9906      1.00000
     61     -49.9906      1.00000
     62     -49.9906      1.00000
     63     -49.9901      1.00000
     64     -49.9901      1.00000
     65     -49.9900      1.00000
     66     -49.9896      1.00000
     67     -49.9748      1.00000
     68     -49.9745      1.00000
     69     -49.9741      1.00000
     70     -49.9741      1.00000
     71     -49.9736      1.00000
     72     -49.9733      1.00000
     73     -40.5230      1.00000
     74     -40.5229      1.00000
     75     -40.5207      1.00000
     76     -40.5206      1.00000
     77     -40.5199      1.00000
     78     -40.5197      1.00000
     79     -40.5139      1.00000
     80     -40.5139      1.00000
     81     -40.5138      1.00000
     82     -40.5135      1.00000
     83     -40.5126      1.00000
     84     -40.5125      1.00000
     85     -40.5122      1.00000
     86     -40.5122      1.00000
     87     -40.5120      1.00000
     88     -40.5116      1.00000
     89     -40.5113      1.00000
     90     -40.5113      1.00000
     91     -40.5047      1.00000
     92     -40.5044      1.00000
     93     -40.5041      1.00000
     94     -40.5040      1.00000
     95     -40.5033      1.00000
     96     -40.5031      1.00000
     97     -40.3073      1.00000
     98     -40.3068      1.00000
     99     -40.3055      1.00000
    100     -40.3054      1.00000
    101     -40.3050      1.00000
    102     -40.3049      1.00000
    103     -40.3049      1.00000
    104     -40.3048      1.00000
    105     -40.3047      1.00000
    106     -40.3046      1.00000
    107     -40.3044      1.00000
    108     -40.3043      1.00000
    109     -40.3043      1.00000
    110     -40.3042      1.00000
    111     -40.3042      1.00000
    112     -40.3040      1.00000
    113     -40.3040      1.00000
    114     -40.3036      1.00000
    115     -40.3035      1.00000
    116     -40.3033      1.00000
    117     -40.3029      1.00000
    118     -40.3025      1.00000
    119     -40.3017      1.00000
    120     -40.3012      1.00000
    121     -13.5429      1.00000
    122     -13.5422      1.00000
    123     -13.5124      1.00000
    124     -13.5117      1.00000
    125     -13.5116      1.00000
    126     -13.4890      1.00000
    127     -13.3748      1.00000
    128     -13.3747      1.00000
    129     -13.3741      1.00000
    130     -13.3741      1.00000
    131     -13.3734      1.00000
    132     -13.3734      1.00000
    133     -13.3727      1.00000
    134     -13.3727      1.00000
    135     -13.3405      1.00000
    136     -13.3405      1.00000
    137     -13.3369      1.00000
    138     -13.3369      1.00000
    139     -13.2389      1.00000
    140     -13.2382      1.00000
    141     -13.2022      1.00000
    142     -13.2015      1.00000
    143     -13.1976      1.00000
    144     -13.1650      1.00000
    145      -7.7342      1.00000
    146      -7.6693      1.00000
    147      -7.5822      1.00000
    148      -7.5822      1.00000
    149      -7.5404      1.00000
    150      -7.5403      1.00000
    151      -7.5308      1.00000
    152      -7.5293      1.00000
    153      -7.4082      1.00000
    154      -7.3747      1.00000
    155      -7.3733      1.00000
    156      -7.3523      1.00000
    157      -7.3519      1.00000
    158      -7.3508      1.00000
    159      -7.3505      1.00000
    160      -7.3434      1.00000
    161      -7.3431      1.00000
    162      -7.3419      1.00000
    163      -7.3416      1.00000
    164      -7.3152      1.00000
    165      -7.3137      1.00000
    166      -7.2337      1.00000
    167      -7.1165      1.00000
    168      -7.1150      1.00000
    169      -1.9249      1.00000
    170      -1.9145      1.00000
    171      -1.8863      1.00000
    172      -1.8449      1.00000
    173      -1.8443      1.00000
    174      -1.7996      1.00000
    175      -1.7990      1.00000
    176      -1.7917      1.00000
    177      -1.7913      1.00000
    178      -1.7910      1.00000
    179      -1.7780      1.00000
    180      -1.7773      1.00000
    181      -1.5320      1.00000
    182      -1.5320      1.00000
    183      -1.5145      1.00000
    184      -1.5145      1.00000
    185      -1.4878      1.00000
    186      -1.4877      1.00000
    187      -1.4871      1.00000
    188      -1.4871      1.00000
    189      -1.4733      1.00000
    190      -1.4733      1.00000
    191      -1.4727      1.00000
    192      -1.4726      1.00000
    193      -1.4342      1.00000
    194      -1.4335      1.00000
    195      -1.3247      1.00000
    196      -1.3240      1.00000
    197      -1.2049      1.00000
    198      -1.1835      1.00000
    199      -1.1563      1.00000
    200      -1.1563      1.00000
    201      -1.1557      1.00000
[...]
   0.219E+00 0.306E+02 -.266E+03   -.231E+00 -.320E+02 0.274E+03   0.122E-01 0.140E+01 -.824E+01   0.695E-04 -.214E-03 0.164E-03
   0.145E+00 0.305E+02 -.266E+03   -.152E+00 -.319E+02 0.274E+03   0.611E-02 0.140E+01 -.824E+01   -.114E-03 -.150E-03 0.553E-04
   0.176E+00 0.305E+02 -.266E+03   -.187E+00 -.319E+02 0.274E+03   0.108E-01 0.140E+01 -.824E+01   -.654E-06 -.159E-03 0.285E-03
   0.176E+00 0.305E+02 -.266E+03   -.187E+00 -.319E+02 0.274E+03   0.106E-01 0.140E+01 -.824E+01   0.859E-04 -.150E-03 0.151E-03
   0.135E+00 0.305E+02 -.266E+03   -.140E+00 -.319E+02 0.274E+03   0.432E-02 0.140E+01 -.824E+01   -.120E-03 -.196E-03 0.172E-03
   0.180E+00 0.305E+02 -.266E+03   -.191E+00 -.319E+02 0.274E+03   0.119E-01 0.140E+01 -.824E+01   0.330E-04 -.212E-03 0.170E-03
   0.180E+00 0.305E+02 -.266E+03   -.191E+00 -.319E+02 0.274E+03   0.117E-01 0.140E+01 -.824E+01   0.902E-04 -.244E-03 0.731E-04
   0.155E+00 0.305E+02 -.266E+03   -.163E+00 -.319E+02 0.274E+03   0.734E-02 0.140E+01 -.824E+01   -.731E-04 -.718E-04 0.857E-04
   0.172E+00 0.305E+02 -.266E+03   -.182E+00 -.319E+02 0.274E+03   0.979E-02 0.140E+01 -.824E+01   -.188E-05 -.176E-03 0.177E-03
   0.172E+00 0.305E+02 -.266E+03   -.182E+00 -.319E+02 0.274E+03   0.963E-02 0.140E+01 -.824E+01   -.432E-05 -.120E-03 0.205E-03
   -.989E-01 -.246E+02 -.149E+03   0.100E+00 0.252E+02 0.150E+03   -.576E-03 -.552E+00 -.114E+01   -.612E-04 0.128E-03 -.457E-03
   -.975E-01 -.244E+02 -.149E+03   0.990E-01 0.250E+02 0.150E+03   -.544E-03 -.540E+00 -.115E+01   -.334E-04 0.910E-06 -.355E-03
   -.856E-01 -.245E+02 -.149E+03   0.873E-01 0.251E+02 0.150E+03   -.100E-02 -.546E+00 -.114E+01   0.237E-04 0.344E-04 -.381E-03
   -.128E+00 -.245E+02 -.149E+03   0.131E+00 0.250E+02 0.150E+03   -.341E-02 -.545E+00 -.114E+01   -.839E-04 0.638E-04 -.490E-03
   -.128E+00 -.245E+02 -.149E+03   0.131E+00 0.251E+02 0.150E+03   -.352E-02 -.547E+00 -.115E+01   -.211E-04 0.500E-04 -.439E-03
   -.102E+00 -.245E+02 -.149E+03   0.105E+00 0.251E+02 0.150E+03   -.223E-02 -.546E+00 -.114E+01   0.514E-04 0.135E-03 -.359E-03
   -.128E+00 -.245E+02 -.149E+03   0.132E+00 0.251E+02 0.150E+03   -.358E-02 -.547E+00 -.114E+01   -.885E-05 0.856E-04 -.403E-03
   -.128E+00 -.245E+02 -.149E+03   0.131E+00 0.250E+02 0.150E+03   -.366E-02 -.545E+00 -.114E+01   0.549E-04 0.365E-04 -.392E-03
   -.102E+00 -.245E+02 -.149E+03   0.105E+00 0.251E+02 0.150E+03   -.187E-02 -.546E+00 -.114E+01   -.222E-04 0.199E-04 -.417E-03
   -.126E+00 -.245E+02 -.149E+03   0.129E+00 0.251E+02 0.150E+03   -.360E-02 -.544E+00 -.115E+01   -.223E-04 0.912E-04 -.379E-03
   -.126E+00 -.245E+02 -.149E+03   0.129E+00 0.251E+02 0.150E+03   -.367E-02 -.547E+00 -.114E+01   0.422E-05 0.957E-04 -.437E-03
   -.109E+00 -.245E+02 -.149E+03   0.112E+00 0.251E+02 0.150E+03   -.171E-02 -.546E+00 -.114E+01   0.260E-04 0.544E-04 -.375E-03
   0.108E-01 -.244E+02 0.149E+03   -.463E-02 0.249E+02 -.150E+03   -.952E-02 -.544E+00 0.114E+01   -.826E-04 -.195E-04 0.511E-03
   0.917E-02 -.247E+02 0.149E+03   -.320E-02 0.252E+02 -.150E+03   -.912E-02 -.548E+00 0.115E+01   -.780E-04 0.164E-03 0.318E-03
   -.776E-01 -.245E+02 0.149E+03   0.785E-01 0.251E+02 -.150E+03   0.543E-03 -.546E+00 0.114E+01   -.714E-04 0.108E-03 0.439E-03
   -.128E+00 -.245E+02 0.149E+03   0.131E+00 0.251E+02 -.150E+03   -.351E-02 -.546E+00 0.114E+01   -.216E-04 0.980E-04 0.381E-03
   -.128E+00 -.245E+02 0.149E+03   0.131E+00 0.250E+02 -.150E+03   -.356E-02 -.546E+00 0.114E+01   0.130E-04 0.794E-04 0.445E-03
   -.104E+00 -.245E+02 0.149E+03   0.106E+00 0.251E+02 -.150E+03   -.216E-02 -.546E+00 0.114E+01   -.146E-05 0.657E-04 0.410E-03
   -.128E+00 -.245E+02 0.149E+03   0.132E+00 0.251E+02 -.150E+03   -.365E-02 -.545E+00 0.114E+01   -.318E-04 -.263E-04 0.383E-03
   -.128E+00 -.245E+02 0.149E+03   0.131E+00 0.251E+02 -.150E+03   -.362E-02 -.546E+00 0.114E+01   -.101E-05 0.773E-04 0.409E-03
   -.103E+00 -.245E+02 0.149E+03   0.106E+00 0.251E+02 -.150E+03   -.197E-02 -.546E+00 0.114E+01   0.349E-04 0.581E-04 0.412E-03
   -.125E+00 -.245E+02 0.149E+03   0.129E+00 0.251E+02 -.150E+03   -.344E-02 -.546E+00 0.115E+01   -.315E-04 0.773E-04 0.427E-03
   -.125E+00 -.245E+02 0.149E+03   0.128E+00 0.251E+02 -.150E+03   -.343E-02 -.545E+00 0.114E+01   -.237E-04 0.212E-04 0.401E-03
   -.111E+00 -.245E+02 0.149E+03   0.114E+00 0.251E+02 -.150E+03   -.220E-02 -.546E+00 0.114E+01   0.814E-04 0.271E-04 0.340E-03
   -.222E+00 -.159E+02 0.822E+02   0.245E+00 0.171E+02 -.834E+02   -.201E-01 -.114E+01 0.122E+01   -.234E-03 -.761E-04 0.539E-03
   -.338E-01 -.160E+02 0.822E+02   0.245E-01 0.171E+02 -.834E+02   0.687E-02 -.115E+01 0.122E+01   0.161E-03 0.379E-04 0.504E-03
   -.335E-01 -.159E+02 0.821E+02   0.242E-01 0.171E+02 -.833E+02   0.678E-02 -.114E+01 0.121E+01   0.168E-03 -.207E-04 0.604E-03
   -.164E+00 -.159E+02 0.822E+02   0.169E+00 0.171E+02 -.834E+02   -.503E-02 -.114E+01 0.122E+01   -.136E-03 0.474E-04 0.523E-03
   -.416E-01 -.159E+02 0.822E+02   0.458E-01 0.171E+02 -.834E+02   -.472E-02 -.114E+01 0.122E+01   0.101E-03 -.950E-04 0.482E-03
   -.419E-01 -.160E+02 0.821E+02   0.462E-01 0.171E+02 -.834E+02   -.482E-02 -.114E+01 0.122E+01   0.166E-05 -.168E-04 0.465E-03
   -.165E+00 -.159E+02 0.822E+02   0.170E+00 0.171E+02 -.834E+02   -.509E-02 -.114E+01 0.122E+01   -.169E-03 -.154E-03 0.356E-03
   -.414E-01 -.160E+02 0.821E+02   0.457E-01 0.171E+02 -.833E+02   -.473E-02 -.114E+01 0.122E+01   0.612E-04 0.335E-04 0.476E-03
   -.413E-01 -.159E+02 0.822E+02   0.456E-01 0.171E+02 -.834E+02   -.480E-02 -.114E+01 0.122E+01   0.661E-04 0.406E-04 0.354E-03
   -.127E+00 -.159E+02 0.822E+02   0.139E+00 0.171E+02 -.834E+02   -.102E-01 -.114E+01 0.122E+01   -.234E-03 0.697E-05 0.425E-03
   -.566E-01 -.159E+02 0.821E+02   0.569E-01 0.171E+02 -.834E+02   -.169E-02 -.114E+01 0.122E+01   0.608E-04 -.162E-03 0.351E-03
   -.569E-01 -.160E+02 0.822E+02   0.572E-01 0.171E+02 -.834E+02   -.177E-02 -.115E+01 0.122E+01   0.916E-04 -.121E-03 0.454E-03
   -.312E+00 -.159E+02 -.822E+02   0.330E+00 0.171E+02 0.834E+02   -.142E-01 -.114E+01 -.122E+01   -.408E-04 -.234E-05 -.406E-03
   -.639E-02 -.159E+02 -.822E+02   0.645E-02 0.171E+02 0.834E+02   -.135E-02 -.114E+01 -.122E+01   0.959E-04 -.466E-04 -.467E-03
   -.640E-02 -.160E+02 -.821E+02   0.656E-02 0.171E+02 0.833E+02   -.142E-02 -.114E+01 -.122E+01   -.635E-05 -.465E-04 -.425E-03
   -.110E+00 -.159E+02 -.822E+02   0.117E+00 0.171E+02 0.834E+02   -.718E-02 -.114E+01 -.122E+01   -.244E-03 0.347E-04 -.532E-03
   -.623E-01 -.160E+02 -.822E+02   0.662E-01 0.171E+02 0.834E+02   -.445E-02 -.114E+01 -.122E+01   0.704E-04 0.240E-04 -.435E-03
   -.624E-01 -.159E+02 -.822E+02   0.662E-01 0.171E+02 0.834E+02   -.454E-02 -.114E+01 -.122E+01   0.151E-03 0.169E-04 -.525E-03
   -.328E+00 -.159E+02 -.822E+02   0.345E+00 0.171E+02 0.834E+02   -.134E-01 -.114E+01 -.122E+01   -.145E-03 -.130E-03 -.431E-03
   -.376E-02 -.159E+02 -.821E+02   0.381E-02 0.171E+02 0.833E+02   -.162E-02 -.114E+01 -.122E+01   0.236E-03 -.990E-04 -.523E-03
   -.359E-02 -.160E+02 -.822E+02   0.391E-02 0.171E+02 0.834E+02   -.168E-02 -.115E+01 -.122E+01   -.523E-04 -.149E-04 -.446E-03
   -.110E+00 -.159E+02 -.822E+02   0.118E+00 0.171E+02 0.834E+02   -.730E-02 -.114E+01 -.122E+01   -.115E-03 0.252E-05 -.440E-03
   -.621E-01 -.160E+02 -.822E+02   0.660E-01 0.171E+02 0.834E+02   -.442E-02 -.114E+01 -.122E+01   0.637E-04 0.221E-04 -.497E-03
   -.621E-01 -.159E+02 -.822E+02   0.660E-01 0.171E+02 0.834E+02   -.447E-02 -.114E+01 -.122E+01   -.203E-04 -.639E-05 -.322E-03
 -----------------------------------------------------------------------------------------------
   -.524E-01 -.193E+01 -.819E-04   0.111E-13 -.139E-12 -.114E-12   0.519E-01 0.193E+01 0.208E-04   -.252E-03 -.290E-02 0.646E-04
 
 
 POSITION                                       TOTAL-FORCE (eV/Angst)
 -----------------------------------------------------------------------------------
      0.43553      4.06770      3.99103        -0.002983      0.004366      0.002608
      4.34744      4.04855      3.99103        -0.001093     -0.004387     -0.002836
      8.25935      4.02941      3.99103        -0.000585     -0.000027     -0.000123
      0.46293      9.67687      3.99103         0.000322     -0.000889     -0.000257
      4.37484      9.65772      3.99103         0.002258      0.000777     -0.000005
      8.28675      9.63857      3.99103        -0.000617     -0.000022     -0.000120
      0.43553      4.06770      9.58884         0.000277     -0.000154     -0.000568
      4.34744      4.04855      9.58884         0.002196      0.000041      0.000301
      8.25935      4.02941      9.58884        -0.000535     -0.000025     -0.000120
      0.46293      9.67687      9.58884         0.000150      0.000006     -0.000065
      4.37484      9.65772      9.58884         0.002071     -0.000116     -0.000207
      8.28675      9.63857      9.58884        -0.000326     -0.000028     -0.000119
      0.42183      1.26312      1.60678        -0.002960     -0.003273     -0.003886
      4.33373      1.24397      1.60678        -0.000984      0.003149      0.004099
      8.24564      1.22482      1.60678        -0.000584     -0.000028      0.000122
      0.44923      6.87229      1.60678         0.000274      0.000461      0.000278
      4.36114      6.85314      1.60678         0.002179     -0.000573     -0.000008
      8.27305      6.83399      1.60678        -0.000477     -0.000026      0.000121
      0.42183      1.26312      7.20459         0.000376     -0.000019      0.000969
      4.33373      1.24397      7.20459         0.002289     -0.000101     -0.000701
      8.24564      1.22482      7.20459        -0.000687     -0.000033      0.000118
      0.44923      6.87229      7.20459         0.000153     -0.000097      0.000079
      4.36114      6.85314      7.20459         0.002073     -0.000010      0.000185
      8.27305      6.83399      7.20459        -0.000331     -0.000028      0.000118
      2.37373      2.44504      3.05038         0.022728      0.000121     -0.000211
      6.29564      2.42584      3.05038        -0.001463     -0.000083      0.000135
     10.20755      2.40669      3.05038        -0.001496      0.000279     -0.000240
      2.41113      8.05416      3.05038         0.000037      0.000087     -0.000062
      6.32304      8.03501      3.05038        -0.000269      0.000172     -0.000027
     10.23495      8.01586      3.05038        -0.000299      0.000023     -0.000071
      2.38373      2.44499      8.64819         0.000043      0.000089     -0.000064
      6.29564      2.42584      8.64819        -0.000272      0.000095     -0.000137
     10.20755      2.40669      8.64819        -0.000300      0.000095      0.000032
      2.41113      8.05416      8.64819         0.000215      0.000095     -0.000060
      6.32304      8.03501      8.64819        -0.000362      0.000104     -0.000069
     10.23495      8.01586      8.64819        -0.000391      0.000088     -0.000023
      2.39743      5.24957      2.54743         0.001358      0.000079      0.000059
      6.30934      5.23042      2.54743        -0.000692     -0.000123     -0.000139
     10.22125      5.21128      2.54743        -0.000724      0.000319      0.000244
      2.42483     10.85874      2.54743         0.001356      0.000110      0.000058
      6.33674     10.83959      2.54743        -0.000689      0.000431      0.000413
     10.24865     10.82044      2.54743        -0.000724     -0.000242     -0.000312
      2.39743      5.24957      8.14524         0.000136      0.000100      0.000060
      6.30934      5.23042      8.14524        -0.000317      0.000038      0.000125
     10.22125      5.21128      8.14524        -0.000352      0.000154     -0.000040
      2.42483     10.85874      8.14524         0.000136      0.000099      0.000055
      6.33674     10.83959      8.14524        -0.000318      0.000221     -0.000105
     10.24865     10.82044      8.14524        -0.000353     -0.000031      0.000187
      2.39183      4.11329      4.18453        -0.005537     -0.000039      0.000121
      6.30374      4.09414      4.18453         0.000845      0.000727      0.000520
     10.21565      4.07499      4.18453         0.000633     -0.000787     -0.000145
      2.41924      9.72245      4.18453        -0.001132     -0.000029      0.000121
      6.33115      9.70331      4.18453         0.000696     -0.001091      0.000135
     10.24306      9.68416      4.18453         0.000492      0.001033      0.000256
      2.39183      4.11329      9.78234        -0.000883     -0.000040      0.000135
      6.30374      4.09414      9.78234         0.000582     -0.000108     -0.000402
     10.21565      4.07499      9.78234         0.000377      0.000065      0.000750
      2.41924      9.72245      9.78234        -0.000410     -0.000052      0.000135
      6.33115      9.70331      9.78234         0.000202     -0.000023      0.000212
     10.24306      9.68416      9.78234        -0.000020     -0.000018      0.000166
      2.37813      1.30870      1.41328        -0.005544      0.000014     -0.000082
      6.29004      1.28956      1.41328         0.000806     -0.000370     -0.000882
     10.20195      1.27041      1.41328         0.000597      0.000329      0.000509
      2.40554      6.91787      1.41328        -0.000743     -0.000011     -0.000104
      6.31744      6.89872      1.41328         0.000482      0.000577     -0.000110
     10.22935      6.87958      1.41328         0.000258     -0.000627     -0.000274
      2.37813      1.30870      7.01109        -0.001344     -0.000013     -0.000120
      6.29004      1.28956      7.01109         0.000894      0.000140      0.000888
     10.20195      1.27041      7.01109         0.000676     -0.000152     -0.001228
      2.40554      6.91787      7.01109        -0.000426     -0.000026     -0.000102
      6.31744      6.89872      7.01109         0.000208     -0.000054     -0.000194
     10.22935      6.87958      7.01109        -0.000003      0.000034     -0.000159
      0.43605      4.15009      1.34677         0.000958     -0.002196      0.002593
      4.34796      4.13094      1.34677         0.000974      0.002006     -0.002769
      8.25987      4.11179      1.34677         0.000742     -0.000080     -0.000098
      0.46346      9.75926      1.34677        -0.000391      0.000171      0.000232
      4.37537      9.74011      1.34677        -0.000407     -0.000333     -0.000419
      8.28728      9.72096      1.34677         0.000261     -0.000081     -0.000099
      0.43605      4.15009      6.94458        -0.000495     -0.000403     -0.000266
      4.34796      4.13094      6.94458        -0.000504      0.000244      0.000076
      8.25987      4.11179      6.94458         0.000429     -0.000081     -0.000100
      0.46346      9.75926      6.94458        -0.000467      0.000439     -0.000498
      4.37537      9.74011      6.94458        -0.000490     -0.000602      0.000304
      8.28728      9.72096      6.94458         0.000454     -0.000086     -0.000096
      0.42235      1.34551      4.25104        -0.003436     -0.000777      0.000285
      4.33426      1.32636      4.25104        -0.003224      0.000532      0.000044
      8.24617      1.30721      4.25104         0.001368     -0.000088      0.000095
      0.44976      6.95467      4.25104        -0.000428     -0.000108     -0.000068
      4.36166      6.93553      4.25104        -0.000439     -0.000038      0.000259
      8.27357      6.91638      4.25104         0.000284     -0.000078      0.000098
      0.42235      1.34551      9.84885        -0.000474      0.000113      0.000097
      4.33426      1.32636      9.84885        -0.000483     -0.000260      0.000092
      8.24617      1.30721      9.84885         0.000353     -0.000087      0.000098
      0.44976      6.95467      9.84885        -0.000395     -0.000365      0.000328
      4.36166      6.93553      9.84885        -0.000405      0.000214     -0.000134
      8.27357      6.91638      9.84885         0.000256     -0.000082      0.000099
      2.37239      0.12585      5.37429         0.003001      0.000045      0.000045
      6.28430      0.10670      5.37429        -0.002292      0.000948     -0.000588
     10.19621      0.08756      5.37429        -0.002381     -0.000818      0.000689
      2.39979      5.73502      5.37429         0.000085      0.000051      0.000048
      6.31170      5.71587      5.37429        -0.000409     -0.000246     -0.000138
     10.22361      5.69672      5.37429        -0.000495      0.000342      0.000237
      2.37239      0.12585     10.97210         0.000065      0.000058      0.000056
      6.28430      0.10670     10.97210        -0.000412      0.000261      0.000328
     10.19621      0.08756     10.97210        -0.000488     -0.000159     -0.000219
      2.39979      5.73502     10.97210         0.001376      0.000051      0.000042
      6.31170      5.71587     10.97210        -0.001266     -0.000576      0.000550
     10.22361      5.69672     10.97210        -0.001341      0.000691     -0.000429
      2.38609      2.93043      0.22352         0.002851      0.000030     -0.000041
      6.29800      2.91129      0.22352        -0.001183      0.000503      0.000391
     10.20991      2.89214      0.22352        -0.001267     -0.000396     -0.000496
      2.41350      8.53960      0.22352         0.000372      0.000061     -0.000072
      6.32541      8.52045      0.22352        -0.000453     -0.000115      0.000043
     10.23731      8.50131      0.22352        -0.000529      0.000210     -0.000147
      2.38609      2.93043      5.82133         0.002908      0.000047     -0.000088
      6.29800      2.91129      5.82133        -0.001329     -0.000808     -0.000622
     10.20991      2.89214      5.82133        -0.001402      0.000914      0.000498
      2.41350      8.53960      5.82133         0.000449      0.000053     -0.000059
      6.32541      8.52045      5.82133        -0.000482      0.000400     -0.000285
     10.23731      8.50131      5.82133        -0.000570     -0.000290      0.000164
 -----------------------------------------------------------------------------------
    total drift:                               -0.000788      0.000912      0.000003


--------------------------------------------------------------------------------------------------------



  FREE ENERGIE OF THE ION-ELECTRON SYSTEM (eV)
  ---------------------------------------------------
  free  energy   TOTEN  =      -616.43238596 eV

  energy  without entropy=     -616.43238596  energy(sigma->0) =     -616.43238596
 


--------------------------------------------------------------------------------------------------------


    POTLOK:  cpu time    1.9375: real time    1.9508


--------------------------------------------------------------------------------------------------------


     LOOP+:  cpu time 5358.3079: real time 5406.0219
    4ORBIT:  cpu time    0.0000: real time    0.0000

 total amount of memory used by VASP MPI-rank0   801761. kBytes
=======================================================================

   base      :      30000. kBytes
   nonl-proj :      92491. kBytes
   fftplans  :      50318. kBytes
   grid      :      44712. kBytes
   one-center:        622. kBytes
   wavefun   :     583618. kBytes
 
  
  
 General timing and accounting informations for this job:
 ========================================================
  
                  Total CPU time used (sec):     5454.329
                            User time (sec):     5392.103
                          System time (sec):       62.226
                         Elapsed time (sec):     5503.416
  
                   Maximum memory used (kb):      975300.
                   Average memory used (kb):           0.
  
                          Minor page faults:       571900
                          Major page faults:            6
                 Voluntary context switches:        57920
