 120 120   0   0
  0.1228332E+02  0.1173587E-08  0.1121847E-08  0.1119562E-08  0.5000000E-15
  1.000000000000000E-004
  CAR 
 unknown system                          
     16.74257920    -54.73101279  301      4.41338458      1.00000000
    -54.731  0.0000E+00  0.0000E+00  0.0000E+00  0.0000E+00
    -54.493  0.0000E+00  0.0000E+00  0.0000E+00  0.0000E+00
    -54.255  0.0000E+00  0.0000E+00  0.0000E+00  0.0000E+00
    -54.016  0.0000E+00  0.0000E+00  0.0000E+00  0.0000E+00
    -53.778  0.0000E+00  0.0000E+00  0.0000E+00  0.0000E+00
    -53.540  0.0000E+00  0.0000E+00  0.0000E+00  0.0000E+00
    -53.302  0.0000E+00  0.0000E+00  0.0000E+00  0.0000E+00
    -53.063  0.0000E+00  0.0000E+00  0.0000E+00  0.0000E+00
    -52.825  0.0000E+00  0.0000E+00  0.0000E+00  0.0000E+00
    -52.587  0.0000E+00  0.0000E+00  0.0000E+00  0.0000E+00
    -52.349  0.0000E+00  0.0000E+00  0.0000E+00  0.0000E+00
    -52.110  0.0000E+00  0.0000E+00  0.0000E+00  0.0000E+00
    -51.872  0.0000E+00  0.0000E+00  0.0000E+00  0.0000E+00
    -51.634  0.2691E-03  0.0000E+00  0.6412E-04  0.0000E+00
    -51.396  0.9792E+02  0.0000E+00  0.2333E+02  0.0000E+00
    -51.157  0.2812E+01  0.0000E+00  0.2400E+02  0.0000E+00
    -50.919  0.0000E+00  0.0000E+00  0.2400E+02  0.0000E+00
    -50.681  0.0000E+00  0.0000E+00  0.2400E+02  0.0000E+00
    -50.443  0.2900E-09  0.0000E+00  0.2400E+02  0.0000E+00
    -50.204  0.4401E+02  0.0000E+00  0.3449E+02  0.0000E+00
    -49.966  0.1315E+03  0.0000E+00  0.6582E+02  0.0000E+00
    -49.728  0.2592E+02  0.0000E+00  0.7200E+02  0.0000E+00
    -49.490  0.0000E+00  0.0000E+00  0.7200E+02  0.0000E+00
    -49.251  0.0000E+00  0.0000E+00  0.7200E+02  0.0000E+00
    -49.013  0.0000E+00  0.0000E+00  0.7200E+02  0.0000E+00
    -48.775  0.0000E+00  0.0000E+00  0.7200E+02  0.0000E+00
    -48.537  0.0000E+00  0.0000E+00  0.7200E+02  0.0000E+00
    -48.298  0.0000E+00  0.0000E+00  0.7200E+02  0.0000E+00
    -48.060  0.0000E+00  0.0000E+00  0.7200E+02  0.0000E+00
    -47.822  0.0000E+00  0.0000E+00  0.7200E+02  0.0000E+00
    -47.584  0.0000E+00  0.0000E+00  0.7200E+02  0.0000E+00
    -47.345  0.0000E+00  0.0000E+00  0.7200E+02  0.0000E+00
    -47.107  0.0000E+00  0.0000E+00  0.7200E+02  0.0000E+00
    -46.869  0.0000E+00  0.6968E-01  0.7200E+02  0.1660E-01
    -46.631  0.0000E+00  0.1006E+03  0.7200E+02  0.2398E+02
    -46.392  0.0000E+00  0.9737E+02  0.7200E+02  0.4718E+02
    -46.154  0.0000E+00  0.1042E+03  0.7200E+02  0.7200E+02
    -45.916  0.0000E+00  0.0000E+00  0.7200E+02  0.7200E+02
    -45.678  0.0000E+00  0.0000E+00  0.7200E+02  0.7200E+02
    -45.439  0.0000E+00  0.0000E+00  0.7200E+02  0.7200E+02
    -45.201  0.0000E+00  0.0000E+00  0.7200E+02  0.7200E+02
    -44.963  0.0000E+00  0.0000E+00  0.7200E+02  0.7200E+02
    -44.725  0.0000E+00  0.0000E+00  0.7200E+02  0.7200E+02
    -44.486  0.0000E+00  0.0000E+00  0.7200E+02  0.7200E+02
    -44.248  0.0000E+00  0.0000E+00  0.7200E+02  0.7200E+02
    -44.010  0.0000E+00  0.0000E+00  0.7200E+02  0.7200E+02
    -43.772  0.0000E+00  0.0000E+00  0.7200E+02  0.7200E+02
    -43.533  0.0000E+00  0.0000E+00  0.7200E+02  0.7200E+02
    -43.295  0.0000E+00  0.0000E+00  0.7200E+02  0.7200E+02
    -43.057  0.0000E+00  0.0000E+00  0.7200E+02  0.7200E+02
    -42.819  0.0000E+00  0.0000E+00  0.7200E+02  0.7200E+02
    -42.581  0.0000E+00  0.0000E+00  0.7200E+02  0.7200E+02
    -42.342  0.0000E+00  0.0000E+00  0.7200E+02  0.7200E+02
    -42.104  0.0000E+00  0.0000E+00  0.7200E+02  0.7200E+02
    -41.866  0.0000E+00  0.0000E+00  0.7200E+02  0.7200E+02
    -41.628  0.0000E+00  0.0000E+00  0.7200E+02  0.7200E+02
    -41.389  0.0000E+00  0.0000E+00  0.7200E+02  0.7200E+02
    -41.151  0.0000E+00  0.0000E+00  0.7200E+02  0.7200E+02
    -40.913  0.0000E+00  0.0000E+00  0.7200E+02  0.7200E+02
    -40.675  0.3792E-03  0.1185E-03  0.7200E+02  0.7200E+02
    -40.436  0.9916E+02  0.9791E+02  0.9562E+02  0.9533E+02
    -40.198  0.1022E+03  0.1034E+03  0.1200E+03  0.1200E+03
    -39.960  0.1273E+00  0.1300E+00  0.1200E+03  0.1200E+03
    -39.722  0.0000E+00  0.0000E+00  0.1200E+03  0.1200E+03
    -39.483  0.0000E+00  0.0000E+00  0.1200E+03  0.1200E+03
    -39.245  0.0000E+00  0.0000E+00  0.1200E+03  0.1200E+03
    -39.007  0.0000E+00  0.0000E+00  0.1200E+03  0.1200E+03
    -38.769  0.0000E+00  0.0000E+00  0.1200E+03  0.1200E+03
    -38.530  0.0000E+00  0.0000E+00  0.1200E+03  0.1200E+03
    -38.292  0.0000E+00  0.0000E+00  0.1200E+03  0.1200E+03
    -38.054  0.0000E+00  0.0000E+00  0.1200E+03  0.1200E+03
    -37.816  0.0000E+00  0.0000E+00  0.1200E+03  0.1200E+03
    -37.577  0.0000E+00  0.0000E+00  0.1200E+03  0.1200E+03
    -37.339  0.0000E+00  0.0000E+00  0.1200E+03  0.1200E+03
    -37.101  0.0000E+00  0.0000E+00  0.1200E+03  0.1200E+03
    -36.863  0.0000E+00  0.0000E+00  0.1200E+03  0.1200E+03
    -36.624  0.0000E+00  0.0000E+00  0.1200E+03  0.1200E+03
    -36.386  0.0000E+00  0.0000E+00  0.1200E+03  0.1200E+03
    -36.148  0.0000E+00  0.0000E+00  0.1200E+03  0.1200E+03
    -35.910  0.0000E+00  0.0000E+00  0.1200E+03  0.1200E+03
    -35.671  0.0000E+00  0.0000E+00  0.1200E+03  0.1200E+03
    -35.433  0.0000E+00  0.0000E+00  0.1200E+03  0.1200E+03
    -35.195  0.0000E+00  0.0000E+00  0.1200E+03  0.1200E+03
    -34.957  0.0000E+00  0.0000E+00  0.1200E+03  0.1200E+03
    -34.718  0.0000E+00  0.0000E+00  0.1200E+03  0.1200E+03
    -34.480  0.0000E+00  0.0000E+00  0.1200E+03  0.1200E+03
    -34.242  0.0000E+00  0.0000E+00  0.1200E+03  0.1200E+03
    -34.004  0.0000E+00  0.0000E+00  0.1200E+03  0.1200E+03
    -33.765  0.0000E+00  0.0000E+00  0.1200E+03  0.1200E+03
    -33.527  0.0000E+00  0.0000E+00  0.1200E+03  0.1200E+03
    -33.289  0.0000E+00  0.0000E+00  0.1200E+03  0.1200E+03
    -33.051  0.0000E+00  0.0000E+00  0.1200E+03  0.1200E+03
    -32.812  0.0000E+00  0.0000E+00  0.1200E+03  0.1200E+03
    -32.574  0.0000E+00  0.0000E+00  0.1200E+03  0.1200E+03
    -32.336  0.0000E+00  0.0000E+00  0.1200E+03  0.1200E+03
    -32.098  0.0000E+00  0.0000E+00  0.1200E+03  0.1200E+03
    -31.859  0.0000E+00  0.0000E+00  0.1200E+03  0.1200E+03
    -31.621  0.0000E+00  0.0000E+00  0.1200E+03  0.1200E+03
    -31.383  0.0000E+00  0.0000E+00  0.1200E+03  0.1200E+03
    -31.145  0.0000E+00  0.0000E+00  0.1200E+03  0.1200E+03
    -30.906  0.0000E+00  0.0000E+00  0.1200E+03  0.1200E+03
    -30.668  0.0000E+00  0.0000E+00  0.1200E+03  0.1200E+03
    -30.430  0.0000E+00  0.0000E+00  0.1200E+03  0.1200E+03
    -30.192  0.0000E+00  0.0000E+00  0.1200E+03  0.1200E+03
    -29.954  0.0000E+00  0.0000E+00  0.1200E+03  0.1200E+03
    -29.715  0.0000E+00  0.0000E+00  0.1200E+03  0.1200E+03
    -29.477  0.0000E+00  0.0000E+00  0.1200E+03  0.1200E+03
    -29.239  0.0000E+00  0.0000E+00  0.1200E+03  0.1200E+03
    -29.001  0.0000E+00  0.0000E+00  0.1200E+03  0.1200E+03
    -28.762  0.0000E+00  0.0000E+00  0.1200E+03  0.1200E+03
    -28.524  0.0000E+00  0.0000E+00  0.1200E+03  0.1200E+03
    -28.286  0.0000E+00  0.0000E+00  0.1200E+03  0.1200E+03
    -28.048  0.0000E+00  0.0000E+00  0.1200E+03  0.1200E+03
    -27.809  0.0000E+00  0.0000E+00  0.1200E+03  0.1200E+03
    -27.571  0.0000E+00  0.0000E+00  0.1200E+03  0.1200E+03
    -27.333  0.0000E+00  0.0000E+00  0.1200E+03  0.1200E+03
    -27.095  0.0000E+00  0.0000E+00  0.1200E+03  0.1200E+03
    -26.856  0.0000E+00  0.0000E+00  0.1200E+03  0.1200E+03
    -26.618  0.0000E+00  0.0000E+00  0.1200E+03  0.1200E+03
    -26.380  0.0000E+00  0.0000E+00  0.1200E+03  0.1200E+03
    -26.142  0.0000E+00  0.0000E+00  0.1200E+03  0.1200E+03
    -25.903  0.0000E+00  0.0000E+00  0.1200E+03  0.1200E+03
    -25.665  0.0000E+00  0.0000E+00  0.1200E+03  0.1200E+03
    -25.427  0.0000E+00  0.0000E+00  0.1200E+03  0.1200E+03
    -25.189  0.0000E+00  0.0000E+00  0.1200E+03  0.1200E+03
    -24.950  0.0000E+00  0.0000E+00  0.1200E+03  0.1200E+03
    -24.712  0.0000E+00  0.0000E+00  0.1200E+03  0.1200E+03
    -24.474  0.0000E+00  0.0000E+00  0.1200E+03  0.1200E+03
    -24.236  0.0000E+00  0.0000E+00  0.1200E+03  0.1200E+03
    -23.997  0.0000E+00  0.0000E+00  0.1200E+03  0.1200E+03
    -23.759  0.0000E+00  0.0000E+00  0.1200E+03  0.1200E+03
    -23.521  0.0000E+00  0.0000E+00  0.1200E+03  0.1200E+03
    -23.283  0.0000E+00  0.0000E+00  0.1200E+03  0.1200E+03
    -23.044  0.0000E+00  0.0000E+00  0.1200E+03  0.1200E+03
    -22.806  0.0000E+00  0.0000E+00  0.1200E+03  0.1200E+03
    -22.568  0.0000E+00  0.0000E+00  0.1200E+03  0.1200E+03
    -22.330  0.0000E+00  0.0000E+00  0.1200E+03  0.1200E+03
    -22.091  0.0000E+00  0.0000E+00  0.1200E+03  0.1200E+03
    -21.853  0.0000E+00  0.0000E+00  0.1200E+03  0.1200E+03
    -21.615  0.0000E+00  0.0000E+00  0.1200E+03  0.1200E+03
    -21.377  0.0000E+00  0.0000E+00  0.1200E+03  0.1200E+03
    -21.138  0.0000E+00  0.0000E+00  0.1200E+03  0.1200E+03
    -20.900  0.0000E+00  0.0000E+00  0.1200E+03  0.1200E+03
    -20.662  0.0000E+00  0.0000E+00  0.1200E+03  0.1200E+03
    -20.424  0.0000E+00  0.0000E+00  0.1200E+03  0.1200E+03
    -20.185  0.0000E+00  0.0000E+00  0.1200E+03  0.1200E+03
    -19.947  0.0000E+00  0.0000E+00  0.1200E+03  0.1200E+03
    -19.709  0.0000E+00  0.0000E+00  0.1200E+03  0.1200E+03
    -19.471  0.0000E+00  0.0000E+00  0.1200E+03  0.1200E+03
    -19.232  0.0000E+00  0.0000E+00  0.1200E+03  0.1200E+03
    -18.994  0.0000E+00  0.0000E+00  0.1200E+03  0.1200E+03
    -18.756  0.0000E+00  0.0000E+00  0.1200E+03  0.1200E+03
    -18.518  0.0000E+00  0.0000E+00  0.1200E+03  0.1200E+03
    -18.279  0.0000E+00  0.0000E+00  0.1200E+03  0.1200E+03
    -18.041  0.0000E+00  0.0000E+00  0.1200E+03  0.1200E+03
    -17.803  0.0000E+00  0.0000E+00  0.1200E+03  0.1200E+03
    -17.565  0.0000E+00  0.0000E+00  0.1200E+03  0.1200E+03
    -17.326  0.0000E+00  0.0000E+00  0.1200E+03  0.1200E+03
    -17.088  0.0000E+00  0.0000E+00  0.1200E+03  0.1200E+03
    -16.850  0.0000E+00  0.0000E+00  0.1200E+03  0.1200E+03
    -16.612  0.0000E+00  0.0000E+00  0.1200E+03  0.1200E+03
    -16.374  0.0000E+00  0.0000E+00  0.1200E+03  0.1200E+03
    -16.135  0.0000E+00  0.0000E+00  0.1200E+03  0.1200E+03
    -15.897  0.0000E+00  0.0000E+00  0.1200E+03  0.1200E+03
    -15.659  0.0000E+00  0.0000E+00  0.1200E+03  0.1200E+03
    -15.421  0.0000E+00  0.0000E+00  0.1200E+03  0.1200E+03
    -15.182  0.0000E+00  0.0000E+00  0.1200E+03  0.1200E+03
    -14.944  0.0000E+00  0.0000E+00  0.1200E+03  0.1200E+03
    -14.706  0.0000E+00  0.0000E+00  0.1200E+03  0.1200E+03
    -14.468  0.0000E+00  0.0000E+00  0.1200E+03  0.1200E+03
    -14.229  0.0000E+00  0.0000E+00  0.1200E+03  0.1200E+03
    -13.991  0.0000E+00  0.0000E+00  0.1200E+03  0.1200E+03
    -13.753  0.3988E-08  0.0000E+00  0.1200E+03  0.1200E+03
    -13.515  0.1055E+02  0.1053E-14  0.1225E+03  0.1200E+03
    -13.276  0.5999E+02  0.4946E+00  0.1368E+03  0.1201E+03
    -13.038  0.3019E+02  0.6929E+02  0.1440E+03  0.1366E+03
    -12.800  0.1266E-03  0.3096E+02  0.1440E+03  0.1440E+03
    -12.562  0.0000E+00  0.1297E-04  0.1440E+03  0.1440E+03
    -12.323  0.0000E+00  0.0000E+00  0.1440E+03  0.1440E+03
    -12.085  0.0000E+00  0.0000E+00  0.1440E+03  0.1440E+03
    -11.847  0.0000E+00  0.0000E+00  0.1440E+03  0.1440E+03
    -11.609  0.0000E+00  0.0000E+00  0.1440E+03  0.1440E+03
    -11.370  0.0000E+00  0.0000E+00  0.1440E+03  0.1440E+03
    -11.132  0.0000E+00  0.0000E+00  0.1440E+03  0.1440E+03
    -10.894  0.0000E+00  0.0000E+00  0.1440E+03  0.1440E+03
    -10.656  0.0000E+00  0.0000E+00  0.1440E+03  0.1440E+03
    -10.417  0.0000E+00  0.0000E+00  0.1440E+03  0.1440E+03
    -10.179  0.0000E+00  0.0000E+00  0.1440E+03  0.1440E+03
     -9.941  0.0000E+00  0.0000E+00  0.1440E+03  0.1440E+03
     -9.703  0.0000E+00  0.0000E+00  0.1440E+03  0.1440E+03
     -9.464  0.0000E+00  0.0000E+00  0.1440E+03  0.1440E+03
     -9.226  0.0000E+00  0.0000E+00  0.1440E+03  0.1440E+03
     -8.988  0.0000E+00  0.0000E+00  0.1440E+03  0.1440E+03
     -8.750  0.0000E+00  0.0000E+00  0.1440E+03  0.1440E+03
     -8.511  0.0000E+00  0.0000E+00  0.1440E+03  0.1440E+03
     -8.273  0.0000E+00  0.0000E+00  0.1440E+03  0.1440E+03
     -8.035  0.0000E+00  0.0000E+00  0.1440E+03  0.1440E+03
     -7.797  0.2092E-01  0.1381E-14  0.1440E+03  0.1440E+03
     -7.558  0.1949E+02  0.2082E+00  0.1486E+03  0.1440E+03
     -7.320  0.4883E+02  0.3029E+02  0.1603E+03  0.1513E+03
     -7.082  0.3174E+02  0.4930E+02  0.1678E+03  0.1630E+03
     -6.844  0.6509E+00  0.2043E+02  0.1680E+03  0.1679E+03
     -6.605  0.0000E+00  0.5041E+00  0.1680E+03  0.1680E+03
     -6.367  0.0000E+00  0.0000E+00  0.1680E+03  0.1680E+03
     -6.129  0.0000E+00  0.0000E+00  0.1680E+03  0.1680E+03
     -5.891  0.0000E+00  0.0000E+00  0.1680E+03  0.1680E+03
     -5.652  0.0000E+00  0.0000E+00  0.1680E+03  0.1680E+03
     -5.414  0.0000E+00  0.0000E+00  0.1680E+03  0.1680E+03
     -5.176  0.0000E+00  0.0000E+00  0.1680E+03  0.1680E+03
     -4.938  0.0000E+00  0.0000E+00  0.1680E+03  0.1680E+03
     -4.699  0.0000E+00  0.0000E+00  0.1680E+03  0.1680E+03
     -4.461  0.0000E+00  0.0000E+00  0.1680E+03  0.1680E+03
     -4.223  0.0000E+00  0.0000E+00  0.1680E+03  0.1680E+03
     -3.985  0.0000E+00  0.0000E+00  0.1680E+03  0.1680E+03
     -3.747  0.0000E+00  0.0000E+00  0.1680E+03  0.1680E+03
     -3.508  0.0000E+00  0.0000E+00  0.1680E+03  0.1680E+03
     -3.270  0.0000E+00  0.0000E+00  0.1680E+03  0.1680E+03
     -3.032  0.0000E+00  0.0000E+00  0.1680E+03  0.1680E+03
     -2.794  0.0000E+00  0.0000E+00  0.1680E+03  0.1680E+03
     -2.555  0.0000E+00  0.0000E+00  0.1680E+03  0.1680E+03
     -2.317  0.0000E+00  0.0000E+00  0.1680E+03  0.1680E+03
     -2.079  0.6842E-05  0.0000E+00  0.1680E+03  0.1680E+03
     -1.841  0.9409E+01  0.0000E+00  0.1702E+03  0.1680E+03
     -1.602  0.5941E+02  0.0000E+00  0.1844E+03  0.1680E+03
     -1.364  0.3975E+02  0.0000E+00  0.1939E+03  0.1680E+03
     -1.126  0.3296E+02  0.0000E+00  0.2017E+03  0.1680E+03
     -0.888  0.5488E+02  0.9688E-08  0.2148E+03  0.1680E+03
     -0.649  0.5301E+02  0.2153E+01  0.2274E+03  0.1685E+03
     -0.411  0.6760E+02  0.1799E+02  0.2435E+03  0.1728E+03
     -0.173  0.5321E+02  0.3891E+02  0.2562E+03  0.1821E+03
      0.065  0.3471E+02  0.3430E+02  0.2645E+03  0.1902E+03
      0.304  0.5551E+02  0.2399E+02  0.2777E+03  0.1960E+03
      0.542  0.4711E+02  0.4870E+02  0.2889E+03  0.2076E+03
      0.780  0.3240E+02  0.4891E+02  0.2966E+03  0.2192E+03
      1.018  0.5014E+02  0.6851E+02  0.3086E+03  0.2355E+03
      1.257  0.4986E+02  0.2444E+02  0.3205E+03  0.2414E+03
      1.495  0.5395E+02  0.2372E+02  0.3333E+03  0.2470E+03
      1.733  0.6171E+02  0.3871E+02  0.3480E+03  0.2562E+03
      1.971  0.3331E+02  0.4581E+02  0.3560E+03  0.2671E+03
      2.210  0.2348E+02  0.2904E+02  0.3616E+03  0.2741E+03
      2.448  0.1425E+02  0.3563E+02  0.3649E+03  0.2826E+03
      2.686  0.3758E+02  0.2554E+02  0.3739E+03  0.2886E+03
      2.924  0.3875E+02  0.4567E+02  0.3831E+03  0.2995E+03
      3.163  0.3074E+02  0.4171E+02  0.3905E+03  0.3095E+03
      3.401  0.4409E+02  0.1373E+02  0.4010E+03  0.3127E+03
      3.639  0.5387E+02  0.3213E+02  0.4138E+03  0.3204E+03
      3.877  0.4662E+02  0.5636E+02  0.4249E+03  0.3338E+03
      4.116  0.2819E+02  0.9200E+01  0.4316E+03  0.3360E+03
      4.354  0.1604E+01  0.1792E-05  0.4320E+03  0.3360E+03
      4.592  0.0000E+00  0.0000E+00  0.4320E+03  0.3360E+03
      4.830  0.0000E+00  0.0000E+00  0.4320E+03  0.3360E+03
      5.069  0.0000E+00  0.0000E+00  0.4320E+03  0.3360E+03
      5.307  0.0000E+00  0.0000E+00  0.4320E+03  0.3360E+03
      5.545  0.0000E+00  0.0000E+00  0.4320E+03  0.3360E+03
      5.783  0.0000E+00  0.0000E+00  0.4320E+03  0.3360E+03
      6.022  0.0000E+00  0.7118E-02  0.4320E+03  0.3360E+03
      6.260  0.0000E+00  0.2042E+01  0.4320E+03  0.3365E+03
      6.498  0.0000E+00  0.1402E+02  0.4320E+03  0.3398E+03
      6.736  0.0000E+00  0.2704E+02  0.4320E+03  0.3463E+03
      6.975  0.0000E+00  0.2565E+02  0.4320E+03  0.3524E+03
      7.213  0.2463E-04  0.5915E+02  0.4320E+03  0.3665E+03
      7.451  0.1553E+00  0.7423E+02  0.4320E+03  0.3842E+03
      7.689  0.7896E+00  0.2914E+02  0.4322E+03  0.3911E+03
      7.928  0.1598E+01  0.4158E+02  0.4326E+03  0.4010E+03
      8.166  0.4829E+01  0.7920E+02  0.4338E+03  0.4199E+03
      8.404  0.7392E+01  0.4795E+02  0.4355E+03  0.4313E+03
      8.642  0.1572E+02  0.3366E+01  0.4393E+03  0.4321E+03
      8.880  0.2409E+02  0.1249E+01  0.4450E+03  0.4324E+03
      9.119  0.1997E+02  0.4544E+01  0.4498E+03  0.4335E+03
      9.357  0.1934E+02  0.1108E+02  0.4544E+03  0.4361E+03
      9.595  0.1975E+02  0.2151E+02  0.4591E+03  0.4412E+03
      9.833  0.2451E+02  0.2896E+02  0.4649E+03  0.4481E+03
     10.072  0.2189E+02  0.3011E+02  0.4701E+03  0.4553E+03
     10.310  0.1805E+02  0.2993E+02  0.4744E+03  0.4625E+03
     10.548  0.2484E+02  0.2574E+02  0.4803E+03  0.4686E+03
     10.786  0.1461E+02  0.2577E+02  0.4838E+03  0.4747E+03
     11.025  0.2823E+02  0.2387E+02  0.4906E+03  0.4804E+03
     11.263  0.4562E+02  0.1058E+02  0.5014E+03  0.4829E+03
     11.501  0.4849E+02  0.2606E+02  0.5130E+03  0.4891E+03
     11.739  0.3470E+02  0.3132E+02  0.5212E+03  0.4966E+03
     11.978  0.2045E+02  0.5605E+02  0.5261E+03  0.5100E+03
     12.216  0.2072E+02  0.4422E+02  0.5310E+03  0.5205E+03
     12.454  0.3071E+02  0.2662E+02  0.5384E+03  0.5268E+03
     12.692  0.3174E+02  0.2387E+02  0.5459E+03  0.5325E+03
     12.931  0.1807E+02  0.2730E+02  0.5502E+03  0.5390E+03
     13.169  0.7332E+01  0.3295E+02  0.5520E+03  0.5469E+03
     13.407  0.8597E-01  0.1759E+02  0.5520E+03  0.5511E+03
     13.645  0.0000E+00  0.3922E+01  0.5520E+03  0.5520E+03
     13.884  0.0000E+00  0.2800E-05  0.5520E+03  0.5520E+03
     14.122  0.0000E+00  0.0000E+00  0.5520E+03  0.5520E+03
     14.360  0.0000E+00  0.0000E+00  0.5520E+03  0.5520E+03
     14.598  0.0000E+00  0.0000E+00  0.5520E+03  0.5520E+03
     14.837  0.0000E+00  0.0000E+00  0.5520E+03  0.5520E+03
     15.075  0.0000E+00  0.0000E+00  0.5520E+03  0.5520E+03
     15.313  0.0000E+00  0.0000E+00  0.5520E+03  0.5520E+03
     15.551  0.0000E+00  0.0000E+00  0.5520E+03  0.5520E+03
     15.790  0.0000E+00  0.0000E+00  0.5520E+03  0.5520E+03
     16.028  0.0000E+00  0.0000E+00  0.5520E+03  0.5520E+03
     16.266  0.0000E+00  0.0000E+00  0.5520E+03  0.5520E+03
     16.504  0.0000E+00  0.0000E+00  0.5520E+03  0.5520E+03
     16.743  0.0000E+00  0.0000E+00  0.5520E+03  0.5520E+03
