 144 144   0   0
  0.1325381E+02  0.1546422E-08  0.1214491E-08  0.1054520E-08  0.5000000E-15
  1.000000000000000E-004
  CAR 
 unknown system                          
     17.00542873    -54.87025425  301      5.08604463      1.00000000
    -54.870  0.0000E+00  0.0000E+00  0.0000E+00  0.0000E+00
    -54.631  0.0000E+00  0.0000E+00  0.0000E+00  0.0000E+00
    -54.391  0.0000E+00  0.0000E+00  0.0000E+00  0.0000E+00
    -54.151  0.0000E+00  0.0000E+00  0.0000E+00  0.0000E+00
    -53.912  0.0000E+00  0.0000E+00  0.0000E+00  0.0000E+00
    -53.672  0.0000E+00  0.0000E+00  0.0000E+00  0.0000E+00
    -53.433  0.0000E+00  0.0000E+00  0.0000E+00  0.0000E+00
    -53.193  0.0000E+00  0.0000E+00  0.0000E+00  0.0000E+00
    -52.954  0.0000E+00  0.0000E+00  0.0000E+00  0.0000E+00
    -52.714  0.0000E+00  0.0000E+00  0.0000E+00  0.0000E+00
    -52.474  0.0000E+00  0.0000E+00  0.0000E+00  0.0000E+00
    -52.235  0.0000E+00  0.0000E+00  0.0000E+00  0.0000E+00
    -51.995  0.0000E+00  0.0000E+00  0.0000E+00  0.0000E+00
    -51.756  0.3675E-03  0.0000E+00  0.8805E-04  0.0000E+00
    -51.516  0.4985E+02  0.0000E+00  0.1194E+02  0.0000E+00
    -51.276  0.8684E+02  0.0000E+00  0.3275E+02  0.0000E+00
    -51.037  0.1357E+02  0.0000E+00  0.3600E+02  0.0000E+00
    -50.797  0.0000E+00  0.0000E+00  0.3600E+02  0.0000E+00
    -50.558  0.0000E+00  0.0000E+00  0.3600E+02  0.0000E+00
    -50.318  0.1312E-03  0.0000E+00  0.3600E+02  0.0000E+00
    -50.079  0.6733E+02  0.0000E+00  0.5213E+02  0.0000E+00
    -49.839  0.2089E+03  0.0000E+00  0.1022E+03  0.0000E+00
    -49.599  0.2430E+02  0.0000E+00  0.1080E+03  0.0000E+00
    -49.360  0.0000E+00  0.0000E+00  0.1080E+03  0.0000E+00
    -49.120  0.0000E+00  0.0000E+00  0.1080E+03  0.0000E+00
    -48.881  0.0000E+00  0.0000E+00  0.1080E+03  0.0000E+00
    -48.641  0.0000E+00  0.0000E+00  0.1080E+03  0.0000E+00
    -48.401  0.0000E+00  0.0000E+00  0.1080E+03  0.0000E+00
    -48.162  0.0000E+00  0.0000E+00  0.1080E+03  0.0000E+00
    -47.922  0.0000E+00  0.0000E+00  0.1080E+03  0.0000E+00
    -47.683  0.0000E+00  0.0000E+00  0.1080E+03  0.0000E+00
    -47.443  0.0000E+00  0.0000E+00  0.1080E+03  0.0000E+00
    -47.204  0.0000E+00  0.0000E+00  0.1080E+03  0.0000E+00
    -46.964  0.0000E+00  0.6543E-01  0.1080E+03  0.1568E-01
    -46.724  0.0000E+00  0.5093E+02  0.1080E+03  0.1222E+02
    -46.485  0.0000E+00  0.9564E+02  0.1080E+03  0.3513E+02
    -46.245  0.0000E+00  0.1457E+03  0.1080E+03  0.7004E+02
    -46.006  0.0000E+00  0.1584E+03  0.1080E+03  0.1080E+03
    -45.766  0.0000E+00  0.4262E-02  0.1080E+03  0.1080E+03
    -45.526  0.0000E+00  0.0000E+00  0.1080E+03  0.1080E+03
    -45.287  0.0000E+00  0.0000E+00  0.1080E+03  0.1080E+03
    -45.047  0.0000E+00  0.0000E+00  0.1080E+03  0.1080E+03
    -44.808  0.0000E+00  0.0000E+00  0.1080E+03  0.1080E+03
    -44.568  0.0000E+00  0.0000E+00  0.1080E+03  0.1080E+03
    -44.328  0.0000E+00  0.0000E+00  0.1080E+03  0.1080E+03
    -44.089  0.0000E+00  0.0000E+00  0.1080E+03  0.1080E+03
    -43.849  0.0000E+00  0.0000E+00  0.1080E+03  0.1080E+03
    -43.610  0.0000E+00  0.0000E+00  0.1080E+03  0.1080E+03
    -43.370  0.0000E+00  0.0000E+00  0.1080E+03  0.1080E+03
    -43.131  0.0000E+00  0.0000E+00  0.1080E+03  0.1080E+03
    -42.891  0.0000E+00  0.0000E+00  0.1080E+03  0.1080E+03
    -42.651  0.0000E+00  0.0000E+00  0.1080E+03  0.1080E+03
    -42.412  0.0000E+00  0.0000E+00  0.1080E+03  0.1080E+03
    -42.172  0.0000E+00  0.0000E+00  0.1080E+03  0.1080E+03
    -41.933  0.0000E+00  0.0000E+00  0.1080E+03  0.1080E+03
    -41.693  0.0000E+00  0.0000E+00  0.1080E+03  0.1080E+03
    -41.453  0.0000E+00  0.0000E+00  0.1080E+03  0.1080E+03
    -41.214  0.0000E+00  0.0000E+00  0.1080E+03  0.1080E+03
    -40.974  0.0000E+00  0.0000E+00  0.1080E+03  0.1080E+03
    -40.735  0.1525E-08  0.5023E-09  0.1080E+03  0.1080E+03
    -40.495  0.2953E+02  0.2629E+02  0.1151E+03  0.1143E+03
    -40.256  0.4635E+02  0.4995E+02  0.1262E+03  0.1263E+03
    -40.016  0.9999E+02  0.9995E+02  0.1501E+03  0.1502E+03
    -39.776  0.2448E+02  0.2416E+02  0.1560E+03  0.1560E+03
    -39.537  0.0000E+00  0.0000E+00  0.1560E+03  0.1560E+03
    -39.297  0.0000E+00  0.0000E+00  0.1560E+03  0.1560E+03
    -39.058  0.0000E+00  0.0000E+00  0.1560E+03  0.1560E+03
    -38.818  0.0000E+00  0.0000E+00  0.1560E+03  0.1560E+03
    -38.578  0.0000E+00  0.0000E+00  0.1560E+03  0.1560E+03
    -38.339  0.0000E+00  0.0000E+00  0.1560E+03  0.1560E+03
    -38.099  0.0000E+00  0.0000E+00  0.1560E+03  0.1560E+03
    -37.860  0.0000E+00  0.0000E+00  0.1560E+03  0.1560E+03
    -37.620  0.0000E+00  0.0000E+00  0.1560E+03  0.1560E+03
    -37.381  0.0000E+00  0.0000E+00  0.1560E+03  0.1560E+03
    -37.141  0.0000E+00  0.0000E+00  0.1560E+03  0.1560E+03
    -36.901  0.0000E+00  0.0000E+00  0.1560E+03  0.1560E+03
    -36.662  0.0000E+00  0.0000E+00  0.1560E+03  0.1560E+03
    -36.422  0.0000E+00  0.0000E+00  0.1560E+03  0.1560E+03
    -36.183  0.0000E+00  0.0000E+00  0.1560E+03  0.1560E+03
    -35.943  0.0000E+00  0.0000E+00  0.1560E+03  0.1560E+03
    -35.703  0.0000E+00  0.0000E+00  0.1560E+03  0.1560E+03
    -35.464  0.0000E+00  0.0000E+00  0.1560E+03  0.1560E+03
    -35.224  0.0000E+00  0.0000E+00  0.1560E+03  0.1560E+03
    -34.985  0.0000E+00  0.0000E+00  0.1560E+03  0.1560E+03
    -34.745  0.0000E+00  0.0000E+00  0.1560E+03  0.1560E+03
    -34.505  0.0000E+00  0.0000E+00  0.1560E+03  0.1560E+03
    -34.266  0.0000E+00  0.0000E+00  0.1560E+03  0.1560E+03
    -34.026  0.0000E+00  0.0000E+00  0.1560E+03  0.1560E+03
    -33.787  0.0000E+00  0.0000E+00  0.1560E+03  0.1560E+03
    -33.547  0.0000E+00  0.0000E+00  0.1560E+03  0.1560E+03
    -33.308  0.0000E+00  0.0000E+00  0.1560E+03  0.1560E+03
    -33.068  0.0000E+00  0.0000E+00  0.1560E+03  0.1560E+03
    -32.828  0.0000E+00  0.0000E+00  0.1560E+03  0.1560E+03
    -32.589  0.0000E+00  0.0000E+00  0.1560E+03  0.1560E+03
    -32.349  0.0000E+00  0.0000E+00  0.1560E+03  0.1560E+03
    -32.110  0.0000E+00  0.0000E+00  0.1560E+03  0.1560E+03
    -31.870  0.0000E+00  0.0000E+00  0.1560E+03  0.1560E+03
    -31.630  0.0000E+00  0.0000E+00  0.1560E+03  0.1560E+03
    -31.391  0.0000E+00  0.0000E+00  0.1560E+03  0.1560E+03
    -31.151  0.0000E+00  0.0000E+00  0.1560E+03  0.1560E+03
    -30.912  0.0000E+00  0.0000E+00  0.1560E+03  0.1560E+03
    -30.672  0.0000E+00  0.0000E+00  0.1560E+03  0.1560E+03
    -30.433  0.0000E+00  0.0000E+00  0.1560E+03  0.1560E+03
    -30.193  0.0000E+00  0.0000E+00  0.1560E+03  0.1560E+03
    -29.953  0.0000E+00  0.0000E+00  0.1560E+03  0.1560E+03
    -29.714  0.0000E+00  0.0000E+00  0.1560E+03  0.1560E+03
    -29.474  0.0000E+00  0.0000E+00  0.1560E+03  0.1560E+03
    -29.235  0.0000E+00  0.0000E+00  0.1560E+03  0.1560E+03
    -28.995  0.0000E+00  0.0000E+00  0.1560E+03  0.1560E+03
    -28.755  0.0000E+00  0.0000E+00  0.1560E+03  0.1560E+03
    -28.516  0.0000E+00  0.0000E+00  0.1560E+03  0.1560E+03
    -28.276  0.0000E+00  0.0000E+00  0.1560E+03  0.1560E+03
    -28.037  0.0000E+00  0.0000E+00  0.1560E+03  0.1560E+03
    -27.797  0.0000E+00  0.0000E+00  0.1560E+03  0.1560E+03
    -27.557  0.0000E+00  0.0000E+00  0.1560E+03  0.1560E+03
    -27.318  0.0000E+00  0.0000E+00  0.1560E+03  0.1560E+03
    -27.078  0.0000E+00  0.0000E+00  0.1560E+03  0.1560E+03
    -26.839  0.0000E+00  0.0000E+00  0.1560E+03  0.1560E+03
    -26.599  0.0000E+00  0.0000E+00  0.1560E+03  0.1560E+03
    -26.360  0.0000E+00  0.0000E+00  0.1560E+03  0.1560E+03
    -26.120  0.0000E+00  0.0000E+00  0.1560E+03  0.1560E+03
    -25.880  0.0000E+00  0.0000E+00  0.1560E+03  0.1560E+03
    -25.641  0.0000E+00  0.0000E+00  0.1560E+03  0.1560E+03
    -25.401  0.0000E+00  0.0000E+00  0.1560E+03  0.1560E+03
    -25.162  0.0000E+00  0.0000E+00  0.1560E+03  0.1560E+03
    -24.922  0.0000E+00  0.0000E+00  0.1560E+03  0.1560E+03
    -24.682  0.0000E+00  0.0000E+00  0.1560E+03  0.1560E+03
    -24.443  0.0000E+00  0.0000E+00  0.1560E+03  0.1560E+03
    -24.203  0.0000E+00  0.0000E+00  0.1560E+03  0.1560E+03
    -23.964  0.0000E+00  0.0000E+00  0.1560E+03  0.1560E+03
    -23.724  0.0000E+00  0.0000E+00  0.1560E+03  0.1560E+03
    -23.485  0.0000E+00  0.0000E+00  0.1560E+03  0.1560E+03
    -23.245  0.0000E+00  0.0000E+00  0.1560E+03  0.1560E+03
    -23.005  0.0000E+00  0.0000E+00  0.1560E+03  0.1560E+03
    -22.766  0.0000E+00  0.0000E+00  0.1560E+03  0.1560E+03
    -22.526  0.0000E+00  0.0000E+00  0.1560E+03  0.1560E+03
    -22.287  0.0000E+00  0.0000E+00  0.1560E+03  0.1560E+03
    -22.047  0.0000E+00  0.0000E+00  0.1560E+03  0.1560E+03
    -21.807  0.0000E+00  0.0000E+00  0.1560E+03  0.1560E+03
    -21.568  0.0000E+00  0.0000E+00  0.1560E+03  0.1560E+03
    -21.328  0.0000E+00  0.0000E+00  0.1560E+03  0.1560E+03
    -21.089  0.0000E+00  0.0000E+00  0.1560E+03  0.1560E+03
    -20.849  0.0000E+00  0.0000E+00  0.1560E+03  0.1560E+03
    -20.610  0.0000E+00  0.0000E+00  0.1560E+03  0.1560E+03
    -20.370  0.0000E+00  0.0000E+00  0.1560E+03  0.1560E+03
    -20.130  0.0000E+00  0.0000E+00  0.1560E+03  0.1560E+03
    -19.891  0.0000E+00  0.0000E+00  0.1560E+03  0.1560E+03
    -19.651  0.0000E+00  0.0000E+00  0.1560E+03  0.1560E+03
    -19.412  0.0000E+00  0.0000E+00  0.1560E+03  0.1560E+03
    -19.172  0.0000E+00  0.0000E+00  0.1560E+03  0.1560E+03
    -18.932  0.0000E+00  0.0000E+00  0.1560E+03  0.1560E+03
    -18.693  0.0000E+00  0.0000E+00  0.1560E+03  0.1560E+03
    -18.453  0.0000E+00  0.0000E+00  0.1560E+03  0.1560E+03
    -18.214  0.0000E+00  0.0000E+00  0.1560E+03  0.1560E+03
    -17.974  0.0000E+00  0.0000E+00  0.1560E+03  0.1560E+03
    -17.734  0.0000E+00  0.0000E+00  0.1560E+03  0.1560E+03
    -17.495  0.0000E+00  0.0000E+00  0.1560E+03  0.1560E+03
    -17.255  0.0000E+00  0.0000E+00  0.1560E+03  0.1560E+03
    -17.016  0.0000E+00  0.0000E+00  0.1560E+03  0.1560E+03
    -16.776  0.0000E+00  0.0000E+00  0.1560E+03  0.1560E+03
    -16.537  0.0000E+00  0.0000E+00  0.1560E+03  0.1560E+03
    -16.297  0.0000E+00  0.0000E+00  0.1560E+03  0.1560E+03
    -16.057  0.0000E+00  0.0000E+00  0.1560E+03  0.1560E+03
    -15.818  0.0000E+00  0.0000E+00  0.1560E+03  0.1560E+03
    -15.578  0.0000E+00  0.0000E+00  0.1560E+03  0.1560E+03
    -15.339  0.0000E+00  0.0000E+00  0.1560E+03  0.1560E+03
    -15.099  0.0000E+00  0.0000E+00  0.1560E+03  0.1560E+03
    -14.859  0.0000E+00  0.0000E+00  0.1560E+03  0.1560E+03
    -14.620  0.0000E+00  0.0000E+00  0.1560E+03  0.1560E+03
    -14.380  0.0000E+00  0.0000E+00  0.1560E+03  0.1560E+03
    -14.141  0.0000E+00  0.0000E+00  0.1560E+03  0.1560E+03
    -13.901  0.9489E-03  0.0000E+00  0.1560E+03  0.1560E+03
    -13.662  0.2182E+02  0.3352E-13  0.1612E+03  0.1560E+03
    -13.422  0.2804E+02  0.1585E+01  0.1679E+03  0.1564E+03
    -13.182  0.8864E+01  0.4428E+02  0.1701E+03  0.1670E+03
    -12.943  0.3148E+02  0.4909E+01  0.1776E+03  0.1682E+03
    -12.703  0.9969E+01  0.4197E+02  0.1800E+03  0.1782E+03
    -12.464  0.0000E+00  0.7427E+01  0.1800E+03  0.1800E+03
    -12.224  0.0000E+00  0.0000E+00  0.1800E+03  0.1800E+03
    -11.984  0.0000E+00  0.0000E+00  0.1800E+03  0.1800E+03
    -11.745  0.0000E+00  0.0000E+00  0.1800E+03  0.1800E+03
    -11.505  0.0000E+00  0.0000E+00  0.1800E+03  0.1800E+03
    -11.266  0.0000E+00  0.0000E+00  0.1800E+03  0.1800E+03
    -11.026  0.0000E+00  0.0000E+00  0.1800E+03  0.1800E+03
    -10.787  0.0000E+00  0.0000E+00  0.1800E+03  0.1800E+03
    -10.547  0.0000E+00  0.0000E+00  0.1800E+03  0.1800E+03
    -10.307  0.0000E+00  0.0000E+00  0.1800E+03  0.1800E+03
    -10.068  0.0000E+00  0.0000E+00  0.1800E+03  0.1800E+03
     -9.828  0.0000E+00  0.0000E+00  0.1800E+03  0.1800E+03
     -9.589  0.0000E+00  0.0000E+00  0.1800E+03  0.1800E+03
     -9.349  0.0000E+00  0.0000E+00  0.1800E+03  0.1800E+03
     -9.109  0.0000E+00  0.0000E+00  0.1800E+03  0.1800E+03
     -8.870  0.0000E+00  0.0000E+00  0.1800E+03  0.1800E+03
     -8.630  0.0000E+00  0.0000E+00  0.1800E+03  0.1800E+03
     -8.391  0.0000E+00  0.0000E+00  0.1800E+03  0.1800E+03
     -8.151  0.0000E+00  0.0000E+00  0.1800E+03  0.1800E+03
     -7.911  0.1895E-02  0.0000E+00  0.1800E+03  0.1800E+03
     -7.672  0.9255E+01  0.1457E-01  0.1822E+03  0.1800E+03
     -7.432  0.2296E+02  0.1183E+02  0.1877E+03  0.1828E+03
     -7.193  0.5537E+02  0.2830E+02  0.2010E+03  0.1896E+03
     -6.953  0.5851E+02  0.5967E+02  0.2150E+03  0.2039E+03
     -6.714  0.4168E+01  0.4697E+02  0.2160E+03  0.2152E+03
     -6.474  0.0000E+00  0.3480E+01  0.2160E+03  0.2160E+03
     -6.234  0.0000E+00  0.0000E+00  0.2160E+03  0.2160E+03
     -5.995  0.0000E+00  0.0000E+00  0.2160E+03  0.2160E+03
     -5.755  0.0000E+00  0.0000E+00  0.2160E+03  0.2160E+03
     -5.516  0.0000E+00  0.0000E+00  0.2160E+03  0.2160E+03
     -5.276  0.0000E+00  0.0000E+00  0.2160E+03  0.2160E+03
     -5.036  0.0000E+00  0.0000E+00  0.2160E+03  0.2160E+03
     -4.797  0.0000E+00  0.0000E+00  0.2160E+03  0.2160E+03
     -4.557  0.0000E+00  0.0000E+00  0.2160E+03  0.2160E+03
     -4.318  0.0000E+00  0.0000E+00  0.2160E+03  0.2160E+03
     -4.078  0.0000E+00  0.0000E+00  0.2160E+03  0.2160E+03
     -3.839  0.0000E+00  0.0000E+00  0.2160E+03  0.2160E+03
     -3.599  0.0000E+00  0.0000E+00  0.2160E+03  0.2160E+03
     -3.359  0.0000E+00  0.0000E+00  0.2160E+03  0.2160E+03
     -3.120  0.0000E+00  0.0000E+00  0.2160E+03  0.2160E+03
     -2.880  0.8727E-14  0.0000E+00  0.2160E+03  0.2160E+03
     -2.641  0.7262E+00  0.0000E+00  0.2162E+03  0.2160E+03
     -2.401  0.1041E+02  0.0000E+00  0.2187E+03  0.2160E+03
     -2.161  0.2035E+02  0.0000E+00  0.2235E+03  0.2160E+03
     -1.922  0.1986E+01  0.0000E+00  0.2240E+03  0.2160E+03
     -1.682  0.3429E+02  0.0000E+00  0.2322E+03  0.2160E+03
     -1.443  0.1925E+02  0.2317E-15  0.2368E+03  0.2160E+03
     -1.203  0.4445E+02  0.7408E-01  0.2475E+03  0.2160E+03
     -0.963  0.4933E+02  0.4388E+01  0.2593E+03  0.2171E+03
     -0.724  0.7475E+02  0.1399E+02  0.2772E+03  0.2204E+03
     -0.484  0.1030E+03  0.1526E+02  0.3019E+03  0.2241E+03
     -0.245  0.8556E+02  0.1933E+02  0.3224E+03  0.2287E+03
     -0.005  0.1104E+03  0.4129E+02  0.3489E+03  0.2386E+03
      0.234  0.7030E+02  0.3399E+02  0.3657E+03  0.2467E+03
      0.474  0.3849E+02  0.4189E+02  0.3749E+03  0.2568E+03
      0.714  0.4569E+02  0.3398E+02  0.3859E+03  0.2649E+03
      0.953  0.4867E+02  0.5272E+02  0.3975E+03  0.2776E+03
      1.193  0.5534E+02  0.6054E+02  0.4108E+03  0.2921E+03
      1.432  0.6410E+02  0.4441E+02  0.4261E+03  0.3027E+03
      1.672  0.1008E+03  0.4022E+02  0.4503E+03  0.3123E+03
      1.912  0.5310E+02  0.3836E+02  0.4630E+03  0.3215E+03
      2.151  0.3857E+02  0.3745E+02  0.4722E+03  0.3305E+03
      2.391  0.4655E+02  0.3822E+02  0.4834E+03  0.3397E+03
      2.630  0.4781E+02  0.4909E+02  0.4949E+03  0.3514E+03
      2.870  0.4360E+02  0.6304E+02  0.5053E+03  0.3665E+03
      3.109  0.4017E+02  0.5875E+02  0.5149E+03  0.3806E+03
      3.349  0.4718E+02  0.4830E+02  0.5262E+03  0.3922E+03
      3.589  0.5261E+02  0.2960E+02  0.5388E+03  0.3993E+03
      3.828  0.4558E+02  0.6099E+02  0.5498E+03  0.4139E+03
      4.068  0.3191E+02  0.7421E+02  0.5574E+03  0.4317E+03
      4.307  0.4253E+02  0.1453E+01  0.5676E+03  0.4320E+03
      4.547  0.2378E+02  0.0000E+00  0.5733E+03  0.4320E+03
      4.787  0.1037E+02  0.0000E+00  0.5758E+03  0.4320E+03
      5.026  0.9616E+00  0.0000E+00  0.5760E+03  0.4320E+03
      5.266  0.0000E+00  0.0000E+00  0.5760E+03  0.4320E+03
      5.505  0.0000E+00  0.0000E+00  0.5760E+03  0.4320E+03
      5.745  0.0000E+00  0.0000E+00  0.5760E+03  0.4320E+03
      5.984  0.0000E+00  0.2812E-11  0.5760E+03  0.4320E+03
      6.224  0.0000E+00  0.1339E+00  0.5760E+03  0.4320E+03
      6.464  0.0000E+00  0.7989E+01  0.5760E+03  0.4339E+03
      6.703  0.0000E+00  0.3003E+02  0.5760E+03  0.4411E+03
      6.943  0.4205E-12  0.4310E+02  0.5760E+03  0.4515E+03
      7.182  0.9988E-01  0.7285E+02  0.5760E+03  0.4689E+03
      7.422  0.1372E+00  0.8101E+02  0.5761E+03  0.4883E+03
      7.662  0.8671E+00  0.6532E+02  0.5763E+03  0.5040E+03
      7.901  0.3474E+01  0.8793E+02  0.5771E+03  0.5250E+03
      8.141  0.4271E+01  0.7150E+02  0.5781E+03  0.5422E+03
      8.380  0.6964E+01  0.5466E+02  0.5798E+03  0.5553E+03
      8.620  0.1622E+02  0.3714E+02  0.5837E+03  0.5642E+03
      8.860  0.2535E+02  0.3944E+02  0.5897E+03  0.5736E+03
      9.099  0.1926E+02  0.1954E+02  0.5944E+03  0.5783E+03
      9.339  0.2520E+02  0.1373E+02  0.6004E+03  0.5816E+03
      9.578  0.3113E+02  0.2057E+02  0.6079E+03  0.5865E+03
      9.818  0.2672E+02  0.2992E+02  0.6143E+03  0.5937E+03
     10.057  0.2973E+02  0.2655E+02  0.6214E+03  0.6001E+03
     10.297  0.2277E+02  0.3451E+02  0.6268E+03  0.6083E+03
     10.537  0.2042E+02  0.3570E+02  0.6317E+03  0.6169E+03
     10.776  0.2832E+02  0.2786E+02  0.6385E+03  0.6235E+03
     11.016  0.3900E+02  0.2262E+02  0.6479E+03  0.6290E+03
     11.255  0.3935E+02  0.2144E+02  0.6573E+03  0.6341E+03
     11.495  0.3736E+02  0.3224E+02  0.6662E+03  0.6418E+03
     11.735  0.4466E+02  0.3878E+02  0.6769E+03  0.6511E+03
     11.974  0.3865E+02  0.4247E+02  0.6862E+03  0.6613E+03
     12.214  0.3848E+02  0.5186E+02  0.6954E+03  0.6737E+03
     12.453  0.3984E+02  0.4697E+02  0.7050E+03  0.6850E+03
     12.693  0.3665E+02  0.3600E+02  0.7137E+03  0.6936E+03
     12.932  0.3452E+02  0.4121E+02  0.7220E+03  0.7035E+03
     13.172  0.2316E+02  0.3993E+02  0.7276E+03  0.7130E+03
     13.412  0.1809E+01  0.3415E+02  0.7280E+03  0.7212E+03
     13.651  0.0000E+00  0.2441E+02  0.7280E+03  0.7271E+03
     13.891  0.0000E+00  0.3899E+01  0.7280E+03  0.7280E+03
     14.130  0.0000E+00  0.3746E-05  0.7280E+03  0.7280E+03
     14.370  0.0000E+00  0.0000E+00  0.7280E+03  0.7280E+03
     14.610  0.0000E+00  0.0000E+00  0.7280E+03  0.7280E+03
     14.849  0.0000E+00  0.0000E+00  0.7280E+03  0.7280E+03
     15.089  0.0000E+00  0.0000E+00  0.7280E+03  0.7280E+03
     15.328  0.0000E+00  0.0000E+00  0.7280E+03  0.7280E+03
     15.568  0.0000E+00  0.0000E+00  0.7280E+03  0.7280E+03
     15.808  0.0000E+00  0.0000E+00  0.7280E+03  0.7280E+03
     16.047  0.0000E+00  0.0000E+00  0.7280E+03  0.7280E+03
     16.287  0.0000E+00  0.0000E+00  0.7280E+03  0.7280E+03
     16.526  0.0000E+00  0.0000E+00  0.7280E+03  0.7280E+03
     16.766  0.0000E+00  0.0000E+00  0.7280E+03  0.7280E+03
     17.005  0.0000E+00  0.0000E+00  0.7280E+03  0.7280E+03
