  88  88   0   0
  0.1431748E+02  0.1111223E-08  0.1111745E-08  0.1056954E-08  0.5000000E-15
  1.000000000000000E-004
  CAR 
 unknown system                          
     17.90233321    -54.33956538  301      5.19979938      1.00000000
    -54.340  0.0000E+00  0.0000E+00  0.0000E+00  0.0000E+00
    -54.099  0.0000E+00  0.0000E+00  0.0000E+00  0.0000E+00
    -53.858  0.0000E+00  0.0000E+00  0.0000E+00  0.0000E+00
    -53.617  0.0000E+00  0.0000E+00  0.0000E+00  0.0000E+00
    -53.376  0.0000E+00  0.0000E+00  0.0000E+00  0.0000E+00
    -53.136  0.0000E+00  0.0000E+00  0.0000E+00  0.0000E+00
    -52.895  0.0000E+00  0.0000E+00  0.0000E+00  0.0000E+00
    -52.654  0.0000E+00  0.0000E+00  0.0000E+00  0.0000E+00
    -52.413  0.0000E+00  0.0000E+00  0.0000E+00  0.0000E+00
    -52.172  0.0000E+00  0.0000E+00  0.0000E+00  0.0000E+00
    -51.932  0.0000E+00  0.0000E+00  0.0000E+00  0.0000E+00
    -51.691  0.0000E+00  0.0000E+00  0.0000E+00  0.0000E+00
    -51.450  0.0000E+00  0.0000E+00  0.0000E+00  0.0000E+00
    -51.209  0.4132E-03  0.0000E+00  0.9950E-04  0.0000E+00
    -50.968  0.1311E+03  0.0000E+00  0.3156E+02  0.0000E+00
    -50.727  0.1823E+01  0.0000E+00  0.3200E+02  0.0000E+00
    -50.487  0.0000E+00  0.0000E+00  0.3200E+02  0.0000E+00
    -50.246  0.0000E+00  0.0000E+00  0.3200E+02  0.0000E+00
    -50.005  0.0000E+00  0.0000E+00  0.3200E+02  0.0000E+00
    -49.764  0.2127E+01  0.0000E+00  0.3251E+02  0.0000E+00
    -49.523  0.2371E+03  0.0000E+00  0.8961E+02  0.0000E+00
    -49.283  0.2652E+02  0.0000E+00  0.9600E+02  0.0000E+00
    -49.042  0.0000E+00  0.0000E+00  0.9600E+02  0.0000E+00
    -48.801  0.0000E+00  0.0000E+00  0.9600E+02  0.0000E+00
    -48.560  0.0000E+00  0.0000E+00  0.9600E+02  0.0000E+00
    -48.319  0.0000E+00  0.0000E+00  0.9600E+02  0.0000E+00
    -48.079  0.0000E+00  0.0000E+00  0.9600E+02  0.0000E+00
    -47.838  0.0000E+00  0.0000E+00  0.9600E+02  0.0000E+00
    -47.597  0.0000E+00  0.0000E+00  0.9600E+02  0.0000E+00
    -47.356  0.0000E+00  0.0000E+00  0.9600E+02  0.0000E+00
    -47.115  0.0000E+00  0.0000E+00  0.9600E+02  0.0000E+00
    -46.875  0.0000E+00  0.0000E+00  0.9600E+02  0.0000E+00
    -46.634  0.0000E+00  0.0000E+00  0.9600E+02  0.0000E+00
    -46.393  0.0000E+00  0.3692E+00  0.9600E+02  0.8892E-01
    -46.152  0.0000E+00  0.1325E+03  0.9600E+02  0.3199E+02
    -45.911  0.0000E+00  0.6082E+02  0.9600E+02  0.4664E+02
    -45.671  0.0000E+00  0.2050E+03  0.9600E+02  0.9600E+02
    -45.430  0.0000E+00  0.0000E+00  0.9600E+02  0.9600E+02
    -45.189  0.0000E+00  0.0000E+00  0.9600E+02  0.9600E+02
    -44.948  0.0000E+00  0.0000E+00  0.9600E+02  0.9600E+02
    -44.707  0.0000E+00  0.0000E+00  0.9600E+02  0.9600E+02
    -44.467  0.0000E+00  0.0000E+00  0.9600E+02  0.9600E+02
    -44.226  0.0000E+00  0.0000E+00  0.9600E+02  0.9600E+02
    -43.985  0.0000E+00  0.0000E+00  0.9600E+02  0.9600E+02
    -43.744  0.0000E+00  0.0000E+00  0.9600E+02  0.9600E+02
    -43.503  0.0000E+00  0.0000E+00  0.9600E+02  0.9600E+02
    -43.262  0.0000E+00  0.0000E+00  0.9600E+02  0.9600E+02
    -43.022  0.0000E+00  0.0000E+00  0.9600E+02  0.9600E+02
    -42.781  0.0000E+00  0.0000E+00  0.9600E+02  0.9600E+02
    -42.540  0.0000E+00  0.0000E+00  0.9600E+02  0.9600E+02
    -42.299  0.0000E+00  0.0000E+00  0.9600E+02  0.9600E+02
    -42.058  0.0000E+00  0.0000E+00  0.9600E+02  0.9600E+02
    -41.818  0.0000E+00  0.0000E+00  0.9600E+02  0.9600E+02
    -41.577  0.0000E+00  0.0000E+00  0.9600E+02  0.9600E+02
    -41.336  0.0000E+00  0.0000E+00  0.9600E+02  0.9600E+02
    -41.095  0.0000E+00  0.0000E+00  0.9600E+02  0.9600E+02
    -40.854  0.0000E+00  0.0000E+00  0.9600E+02  0.9600E+02
    -40.614  0.0000E+00  0.0000E+00  0.9600E+02  0.9600E+02
    -40.373  0.0000E+00  0.0000E+00  0.9600E+02  0.9600E+02
    -40.132  0.1841E-11  0.1177E-11  0.9600E+02  0.9600E+02
    -39.891  0.1557E+02  0.1440E+02  0.9975E+02  0.9947E+02
    -39.650  0.5087E+02  0.5205E+02  0.1120E+03  0.1120E+03
    -39.410  0.0000E+00  0.0000E+00  0.1120E+03  0.1120E+03
    -39.169  0.0000E+00  0.0000E+00  0.1120E+03  0.1120E+03
    -38.928  0.0000E+00  0.0000E+00  0.1120E+03  0.1120E+03
    -38.687  0.0000E+00  0.0000E+00  0.1120E+03  0.1120E+03
    -38.446  0.0000E+00  0.0000E+00  0.1120E+03  0.1120E+03
    -38.206  0.0000E+00  0.0000E+00  0.1120E+03  0.1120E+03
    -37.965  0.0000E+00  0.0000E+00  0.1120E+03  0.1120E+03
    -37.724  0.0000E+00  0.0000E+00  0.1120E+03  0.1120E+03
    -37.483  0.0000E+00  0.0000E+00  0.1120E+03  0.1120E+03
    -37.242  0.0000E+00  0.0000E+00  0.1120E+03  0.1120E+03
    -37.002  0.0000E+00  0.0000E+00  0.1120E+03  0.1120E+03
    -36.761  0.0000E+00  0.0000E+00  0.1120E+03  0.1120E+03
    -36.520  0.0000E+00  0.0000E+00  0.1120E+03  0.1120E+03
    -36.279  0.0000E+00  0.0000E+00  0.1120E+03  0.1120E+03
    -36.038  0.0000E+00  0.0000E+00  0.1120E+03  0.1120E+03
    -35.797  0.0000E+00  0.0000E+00  0.1120E+03  0.1120E+03
    -35.557  0.0000E+00  0.0000E+00  0.1120E+03  0.1120E+03
    -35.316  0.0000E+00  0.0000E+00  0.1120E+03  0.1120E+03
    -35.075  0.0000E+00  0.0000E+00  0.1120E+03  0.1120E+03
    -34.834  0.0000E+00  0.0000E+00  0.1120E+03  0.1120E+03
    -34.593  0.0000E+00  0.0000E+00  0.1120E+03  0.1120E+03
    -34.353  0.0000E+00  0.0000E+00  0.1120E+03  0.1120E+03
    -34.112  0.0000E+00  0.0000E+00  0.1120E+03  0.1120E+03
    -33.871  0.0000E+00  0.0000E+00  0.1120E+03  0.1120E+03
    -33.630  0.0000E+00  0.0000E+00  0.1120E+03  0.1120E+03
    -33.389  0.0000E+00  0.0000E+00  0.1120E+03  0.1120E+03
    -33.149  0.0000E+00  0.0000E+00  0.1120E+03  0.1120E+03
    -32.908  0.0000E+00  0.0000E+00  0.1120E+03  0.1120E+03
    -32.667  0.0000E+00  0.0000E+00  0.1120E+03  0.1120E+03
    -32.426  0.0000E+00  0.0000E+00  0.1120E+03  0.1120E+03
    -32.185  0.0000E+00  0.0000E+00  0.1120E+03  0.1120E+03
    -31.945  0.0000E+00  0.0000E+00  0.1120E+03  0.1120E+03
    -31.704  0.0000E+00  0.0000E+00  0.1120E+03  0.1120E+03
    -31.463  0.0000E+00  0.0000E+00  0.1120E+03  0.1120E+03
    -31.222  0.0000E+00  0.0000E+00  0.1120E+03  0.1120E+03
    -30.981  0.0000E+00  0.0000E+00  0.1120E+03  0.1120E+03
    -30.741  0.0000E+00  0.0000E+00  0.1120E+03  0.1120E+03
    -30.500  0.0000E+00  0.0000E+00  0.1120E+03  0.1120E+03
    -30.259  0.0000E+00  0.0000E+00  0.1120E+03  0.1120E+03
    -30.018  0.0000E+00  0.0000E+00  0.1120E+03  0.1120E+03
    -29.777  0.0000E+00  0.0000E+00  0.1120E+03  0.1120E+03
    -29.537  0.0000E+00  0.0000E+00  0.1120E+03  0.1120E+03
    -29.296  0.0000E+00  0.0000E+00  0.1120E+03  0.1120E+03
    -29.055  0.0000E+00  0.0000E+00  0.1120E+03  0.1120E+03
    -28.814  0.0000E+00  0.0000E+00  0.1120E+03  0.1120E+03
    -28.573  0.0000E+00  0.0000E+00  0.1120E+03  0.1120E+03
    -28.332  0.0000E+00  0.0000E+00  0.1120E+03  0.1120E+03
    -28.092  0.0000E+00  0.0000E+00  0.1120E+03  0.1120E+03
    -27.851  0.0000E+00  0.0000E+00  0.1120E+03  0.1120E+03
    -27.610  0.0000E+00  0.0000E+00  0.1120E+03  0.1120E+03
    -27.369  0.0000E+00  0.0000E+00  0.1120E+03  0.1120E+03
    -27.128  0.0000E+00  0.0000E+00  0.1120E+03  0.1120E+03
    -26.888  0.0000E+00  0.0000E+00  0.1120E+03  0.1120E+03
    -26.647  0.0000E+00  0.0000E+00  0.1120E+03  0.1120E+03
    -26.406  0.0000E+00  0.0000E+00  0.1120E+03  0.1120E+03
    -26.165  0.0000E+00  0.0000E+00  0.1120E+03  0.1120E+03
    -25.924  0.0000E+00  0.0000E+00  0.1120E+03  0.1120E+03
    -25.684  0.0000E+00  0.0000E+00  0.1120E+03  0.1120E+03
    -25.443  0.0000E+00  0.0000E+00  0.1120E+03  0.1120E+03
    -25.202  0.0000E+00  0.0000E+00  0.1120E+03  0.1120E+03
    -24.961  0.0000E+00  0.0000E+00  0.1120E+03  0.1120E+03
    -24.720  0.0000E+00  0.0000E+00  0.1120E+03  0.1120E+03
    -24.480  0.0000E+00  0.0000E+00  0.1120E+03  0.1120E+03
    -24.239  0.0000E+00  0.0000E+00  0.1120E+03  0.1120E+03
    -23.998  0.0000E+00  0.0000E+00  0.1120E+03  0.1120E+03
    -23.757  0.0000E+00  0.0000E+00  0.1120E+03  0.1120E+03
    -23.516  0.0000E+00  0.0000E+00  0.1120E+03  0.1120E+03
    -23.276  0.0000E+00  0.0000E+00  0.1120E+03  0.1120E+03
    -23.035  0.0000E+00  0.0000E+00  0.1120E+03  0.1120E+03
    -22.794  0.0000E+00  0.0000E+00  0.1120E+03  0.1120E+03
    -22.553  0.0000E+00  0.0000E+00  0.1120E+03  0.1120E+03
    -22.312  0.0000E+00  0.0000E+00  0.1120E+03  0.1120E+03
    -22.072  0.0000E+00  0.0000E+00  0.1120E+03  0.1120E+03
    -21.831  0.0000E+00  0.0000E+00  0.1120E+03  0.1120E+03
    -21.590  0.0000E+00  0.0000E+00  0.1120E+03  0.1120E+03
    -21.349  0.0000E+00  0.0000E+00  0.1120E+03  0.1120E+03
    -21.108  0.0000E+00  0.0000E+00  0.1120E+03  0.1120E+03
    -20.867  0.0000E+00  0.0000E+00  0.1120E+03  0.1120E+03
    -20.627  0.0000E+00  0.0000E+00  0.1120E+03  0.1120E+03
    -20.386  0.0000E+00  0.0000E+00  0.1120E+03  0.1120E+03
    -20.145  0.0000E+00  0.0000E+00  0.1120E+03  0.1120E+03
    -19.904  0.0000E+00  0.0000E+00  0.1120E+03  0.1120E+03
    -19.663  0.0000E+00  0.0000E+00  0.1120E+03  0.1120E+03
    -19.423  0.0000E+00  0.0000E+00  0.1120E+03  0.1120E+03
    -19.182  0.0000E+00  0.0000E+00  0.1120E+03  0.1120E+03
    -18.941  0.0000E+00  0.0000E+00  0.1120E+03  0.1120E+03
    -18.700  0.0000E+00  0.0000E+00  0.1120E+03  0.1120E+03
    -18.459  0.0000E+00  0.0000E+00  0.1120E+03  0.1120E+03
    -18.219  0.0000E+00  0.0000E+00  0.1120E+03  0.1120E+03
    -17.978  0.0000E+00  0.0000E+00  0.1120E+03  0.1120E+03
    -17.737  0.0000E+00  0.0000E+00  0.1120E+03  0.1120E+03
    -17.496  0.0000E+00  0.0000E+00  0.1120E+03  0.1120E+03
    -17.255  0.0000E+00  0.0000E+00  0.1120E+03  0.1120E+03
    -17.015  0.0000E+00  0.0000E+00  0.1120E+03  0.1120E+03
    -16.774  0.0000E+00  0.0000E+00  0.1120E+03  0.1120E+03
    -16.533  0.0000E+00  0.0000E+00  0.1120E+03  0.1120E+03
    -16.292  0.0000E+00  0.0000E+00  0.1120E+03  0.1120E+03
    -16.051  0.0000E+00  0.0000E+00  0.1120E+03  0.1120E+03
    -15.811  0.0000E+00  0.0000E+00  0.1120E+03  0.1120E+03
    -15.570  0.0000E+00  0.0000E+00  0.1120E+03  0.1120E+03
    -15.329  0.0000E+00  0.0000E+00  0.1120E+03  0.1120E+03
    -15.088  0.0000E+00  0.0000E+00  0.1120E+03  0.1120E+03
    -14.847  0.0000E+00  0.0000E+00  0.1120E+03  0.1120E+03
    -14.607  0.0000E+00  0.0000E+00  0.1120E+03  0.1120E+03
    -14.366  0.0000E+00  0.0000E+00  0.1120E+03  0.1120E+03
    -14.125  0.0000E+00  0.0000E+00  0.1120E+03  0.1120E+03
    -13.884  0.0000E+00  0.0000E+00  0.1120E+03  0.1120E+03
    -13.643  0.0000E+00  0.0000E+00  0.1120E+03  0.1120E+03
    -13.402  0.8041E-06  0.0000E+00  0.1120E+03  0.1120E+03
    -13.162  0.1907E+02  0.0000E+00  0.1166E+03  0.1120E+03
    -12.921  0.4596E+02  0.8696E-02  0.1277E+03  0.1120E+03
    -12.680  0.1410E+01  0.4234E+02  0.1280E+03  0.1222E+03
    -12.439  0.0000E+00  0.2410E+02  0.1280E+03  0.1280E+03
    -12.198  0.0000E+00  0.1666E-05  0.1280E+03  0.1280E+03
    -11.958  0.0000E+00  0.0000E+00  0.1280E+03  0.1280E+03
    -11.717  0.0000E+00  0.0000E+00  0.1280E+03  0.1280E+03
    -11.476  0.0000E+00  0.0000E+00  0.1280E+03  0.1280E+03
    -11.235  0.0000E+00  0.0000E+00  0.1280E+03  0.1280E+03
    -10.994  0.0000E+00  0.0000E+00  0.1280E+03  0.1280E+03
    -10.754  0.0000E+00  0.0000E+00  0.1280E+03  0.1280E+03
    -10.513  0.0000E+00  0.0000E+00  0.1280E+03  0.1280E+03
    -10.272  0.0000E+00  0.0000E+00  0.1280E+03  0.1280E+03
    -10.031  0.0000E+00  0.0000E+00  0.1280E+03  0.1280E+03
     -9.790  0.0000E+00  0.0000E+00  0.1280E+03  0.1280E+03
     -9.550  0.0000E+00  0.0000E+00  0.1280E+03  0.1280E+03
     -9.309  0.0000E+00  0.0000E+00  0.1280E+03  0.1280E+03
     -9.068  0.0000E+00  0.0000E+00  0.1280E+03  0.1280E+03
     -8.827  0.0000E+00  0.0000E+00  0.1280E+03  0.1280E+03
     -8.586  0.0000E+00  0.0000E+00  0.1280E+03  0.1280E+03
     -8.346  0.0000E+00  0.0000E+00  0.1280E+03  0.1280E+03
     -8.105  0.0000E+00  0.0000E+00  0.1280E+03  0.1280E+03
     -7.864  0.4313E-10  0.0000E+00  0.1280E+03  0.1280E+03
     -7.623  0.5226E+00  0.7451E-11  0.1281E+03  0.1280E+03
     -7.382  0.1243E+02  0.4568E+00  0.1311E+03  0.1281E+03
     -7.142  0.3023E+02  0.1366E+02  0.1384E+03  0.1314E+03
     -6.901  0.3350E+02  0.2947E+02  0.1465E+03  0.1385E+03
     -6.660  0.2298E+02  0.2573E+02  0.1520E+03  0.1447E+03
     -6.419  0.3827E-04  0.3028E+02  0.1520E+03  0.1520E+03
     -6.178  0.0000E+00  0.6830E-01  0.1520E+03  0.1520E+03
     -5.937  0.0000E+00  0.0000E+00  0.1520E+03  0.1520E+03
     -5.697  0.0000E+00  0.0000E+00  0.1520E+03  0.1520E+03
     -5.456  0.0000E+00  0.0000E+00  0.1520E+03  0.1520E+03
     -5.215  0.0000E+00  0.0000E+00  0.1520E+03  0.1520E+03
     -4.974  0.0000E+00  0.0000E+00  0.1520E+03  0.1520E+03
     -4.733  0.0000E+00  0.0000E+00  0.1520E+03  0.1520E+03
     -4.493  0.0000E+00  0.0000E+00  0.1520E+03  0.1520E+03
     -4.252  0.0000E+00  0.0000E+00  0.1520E+03  0.1520E+03
     -4.011  0.0000E+00  0.0000E+00  0.1520E+03  0.1520E+03
     -3.770  0.0000E+00  0.0000E+00  0.1520E+03  0.1520E+03
     -3.529  0.0000E+00  0.0000E+00  0.1520E+03  0.1520E+03
     -3.289  0.0000E+00  0.0000E+00  0.1520E+03  0.1520E+03
     -3.048  0.0000E+00  0.0000E+00  0.1520E+03  0.1520E+03
     -2.807  0.0000E+00  0.0000E+00  0.1520E+03  0.1520E+03
     -2.566  0.0000E+00  0.0000E+00  0.1520E+03  0.1520E+03
     -2.325  0.0000E+00  0.0000E+00  0.1520E+03  0.1520E+03
     -2.085  0.2110E-04  0.0000E+00  0.1520E+03  0.1520E+03
     -1.844  0.1579E+02  0.0000E+00  0.1558E+03  0.1520E+03
     -1.603  0.1962E+02  0.0000E+00  0.1605E+03  0.1520E+03
     -1.362  0.1485E+02  0.0000E+00  0.1641E+03  0.1520E+03
     -1.121  0.1705E+02  0.0000E+00  0.1682E+03  0.1520E+03
     -0.881  0.4558E+02  0.0000E+00  0.1792E+03  0.1520E+03
     -0.640  0.5888E+02  0.6755E-06  0.1934E+03  0.1520E+03
     -0.399  0.3861E+02  0.4010E+01  0.2027E+03  0.1530E+03
     -0.158  0.6760E+02  0.2035E+02  0.2189E+03  0.1579E+03
      0.083  0.7382E+02  0.1223E+02  0.2367E+03  0.1608E+03
      0.323  0.7757E+02  0.1842E+02  0.2554E+03  0.1652E+03
      0.564  0.6975E+02  0.2950E+02  0.2722E+03  0.1724E+03
      0.805  0.5613E+02  0.3918E+02  0.2857E+03  0.1818E+03
      1.046  0.3650E+02  0.3734E+02  0.2945E+03  0.1908E+03
      1.287  0.3049E+02  0.3137E+02  0.3018E+03  0.1983E+03
      1.528  0.4509E+02  0.2062E+02  0.3127E+03  0.2033E+03
      1.768  0.4187E+02  0.2902E+02  0.3228E+03  0.2103E+03
      2.009  0.6868E+02  0.3671E+02  0.3393E+03  0.2191E+03
      2.250  0.5868E+02  0.2788E+02  0.3535E+03  0.2258E+03
      2.491  0.2668E+02  0.2698E+02  0.3599E+03  0.2323E+03
      2.732  0.4256E+02  0.3034E+02  0.3701E+03  0.2396E+03
      2.972  0.3066E+02  0.4423E+02  0.3775E+03  0.2503E+03
      3.213  0.8636E+01  0.4553E+02  0.3796E+03  0.2613E+03
      3.454  0.2753E+02  0.3266E+02  0.3862E+03  0.2691E+03
      3.695  0.2744E+02  0.1263E+02  0.3928E+03  0.2722E+03
      3.936  0.3079E+02  0.1735E+02  0.4002E+03  0.2763E+03
      4.176  0.3592E+02  0.5274E+02  0.4089E+03  0.2890E+03
      4.417  0.3631E+02  0.4449E+02  0.4176E+03  0.2998E+03
      4.658  0.3037E+02  0.1763E+02  0.4249E+03  0.3040E+03
      4.899  0.2588E+02  0.6646E-02  0.4312E+03  0.3040E+03
      5.140  0.3406E+01  0.0000E+00  0.4320E+03  0.3040E+03
      5.380  0.0000E+00  0.0000E+00  0.4320E+03  0.3040E+03
      5.621  0.0000E+00  0.0000E+00  0.4320E+03  0.3040E+03
      5.862  0.0000E+00  0.0000E+00  0.4320E+03  0.3040E+03
      6.103  0.0000E+00  0.1758E-09  0.4320E+03  0.3040E+03
      6.344  0.0000E+00  0.3723E+00  0.4320E+03  0.3041E+03
      6.584  0.0000E+00  0.4185E+01  0.4320E+03  0.3051E+03
      6.825  0.0000E+00  0.7745E+01  0.4320E+03  0.3070E+03
      7.066  0.3244E-15  0.1888E+02  0.4320E+03  0.3115E+03
      7.307  0.2301E-01  0.4396E+02  0.4320E+03  0.3221E+03
      7.548  0.1308E+00  0.5313E+02  0.4320E+03  0.3349E+03
      7.788  0.2253E+00  0.6352E+02  0.4321E+03  0.3502E+03
      8.029  0.7439E+00  0.6558E+02  0.4323E+03  0.3660E+03
      8.270  0.2058E+01  0.6989E+02  0.4328E+03  0.3828E+03
      8.511  0.2635E+01  0.5968E+02  0.4334E+03  0.3972E+03
      8.752  0.8841E+01  0.5854E+02  0.4355E+03  0.4113E+03
      8.992  0.1237E+02  0.4827E+02  0.4385E+03  0.4229E+03
      9.233  0.1307E+02  0.3031E+02  0.4417E+03  0.4302E+03
      9.474  0.1804E+02  0.9089E+01  0.4460E+03  0.4324E+03
      9.715  0.1634E+02  0.2929E+01  0.4499E+03  0.4331E+03
      9.956  0.1568E+02  0.8300E+01  0.4537E+03  0.4351E+03
     10.197  0.2248E+02  0.1854E+02  0.4591E+03  0.4396E+03
     10.437  0.1484E+02  0.1800E+02  0.4627E+03  0.4439E+03
     10.678  0.1537E+02  0.1714E+02  0.4664E+03  0.4480E+03
     10.919  0.1311E+02  0.2757E+02  0.4696E+03  0.4547E+03
     11.160  0.2057E+02  0.1899E+02  0.4745E+03  0.4592E+03
     11.401  0.2458E+02  0.2389E+02  0.4804E+03  0.4650E+03
     11.641  0.2742E+02  0.1505E+02  0.4870E+03  0.4686E+03
     11.882  0.2443E+02  0.1375E+02  0.4929E+03  0.4719E+03
     12.123  0.3371E+02  0.1590E+02  0.5010E+03  0.4757E+03
     12.364  0.1993E+02  0.3641E+02  0.5058E+03  0.4845E+03
     12.605  0.2302E+02  0.3281E+02  0.5114E+03  0.4924E+03
     12.845  0.2139E+02  0.3014E+02  0.5165E+03  0.4997E+03
     13.086  0.2044E+02  0.2029E+02  0.5215E+03  0.5046E+03
     13.327  0.2363E+02  0.2199E+02  0.5271E+03  0.5099E+03
     13.568  0.2455E+02  0.2723E+02  0.5331E+03  0.5164E+03
     13.809  0.1347E+02  0.2375E+02  0.5363E+03  0.5221E+03
     14.049  0.7058E+01  0.2632E+02  0.5380E+03  0.5285E+03
     14.290  0.1080E-01  0.1929E+02  0.5380E+03  0.5331E+03
     14.531  0.0000E+00  0.1695E+02  0.5380E+03  0.5372E+03
     14.772  0.0000E+00  0.3341E+01  0.5380E+03  0.5380E+03
     15.013  0.0000E+00  0.2249E-05  0.5380E+03  0.5380E+03
     15.253  0.0000E+00  0.0000E+00  0.5380E+03  0.5380E+03
     15.494  0.0000E+00  0.0000E+00  0.5380E+03  0.5380E+03
     15.735  0.0000E+00  0.0000E+00  0.5380E+03  0.5380E+03
     15.976  0.0000E+00  0.0000E+00  0.5380E+03  0.5380E+03
     16.217  0.0000E+00  0.0000E+00  0.5380E+03  0.5380E+03
     16.457  0.0000E+00  0.0000E+00  0.5380E+03  0.5380E+03
     16.698  0.0000E+00  0.0000E+00  0.5380E+03  0.5380E+03
     16.939  0.0000E+00  0.0000E+00  0.5380E+03  0.5380E+03
     17.180  0.0000E+00  0.0000E+00  0.5380E+03  0.5380E+03
     17.421  0.0000E+00  0.0000E+00  0.5380E+03  0.5380E+03
     17.662  0.0000E+00  0.0000E+00  0.5380E+03  0.5380E+03
     17.902  0.0000E+00  0.0000E+00  0.5380E+03  0.5380E+03
