  88  88   0   0
  0.1431748E+02  0.1111223E-08  0.1111745E-08  0.1056954E-08  0.5000000E-15
  1.000000000000000E-004
  CAR 
 unknown system                          
     17.89937865    -54.33894631  301      5.19747318      1.00000000
    -54.339  0.0000E+00  0.0000E+00  0.0000E+00  0.0000E+00
    -54.098  0.0000E+00  0.0000E+00  0.0000E+00  0.0000E+00
    -53.857  0.0000E+00  0.0000E+00  0.0000E+00  0.0000E+00
    -53.617  0.0000E+00  0.0000E+00  0.0000E+00  0.0000E+00
    -53.376  0.0000E+00  0.0000E+00  0.0000E+00  0.0000E+00
    -53.135  0.0000E+00  0.0000E+00  0.0000E+00  0.0000E+00
    -52.894  0.0000E+00  0.0000E+00  0.0000E+00  0.0000E+00
    -52.653  0.0000E+00  0.0000E+00  0.0000E+00  0.0000E+00
    -52.413  0.0000E+00  0.0000E+00  0.0000E+00  0.0000E+00
    -52.172  0.0000E+00  0.0000E+00  0.0000E+00  0.0000E+00
    -51.931  0.0000E+00  0.0000E+00  0.0000E+00  0.0000E+00
    -51.690  0.0000E+00  0.0000E+00  0.0000E+00  0.0000E+00
    -51.449  0.0000E+00  0.0000E+00  0.0000E+00  0.0000E+00
    -51.209  0.4620E-03  0.0000E+00  0.1113E-03  0.0000E+00
    -50.968  0.1311E+03  0.0000E+00  0.3157E+02  0.0000E+00
    -50.727  0.1769E+01  0.0000E+00  0.3200E+02  0.0000E+00
    -50.486  0.0000E+00  0.0000E+00  0.3200E+02  0.0000E+00
    -50.245  0.0000E+00  0.0000E+00  0.3200E+02  0.0000E+00
    -50.005  0.0000E+00  0.0000E+00  0.3200E+02  0.0000E+00
    -49.764  0.2054E+01  0.0000E+00  0.3249E+02  0.0000E+00
    -49.523  0.2377E+03  0.0000E+00  0.8973E+02  0.0000E+00
    -49.282  0.2604E+02  0.0000E+00  0.9600E+02  0.0000E+00
    -49.041  0.0000E+00  0.0000E+00  0.9600E+02  0.0000E+00
    -48.801  0.0000E+00  0.0000E+00  0.9600E+02  0.0000E+00
    -48.560  0.0000E+00  0.0000E+00  0.9600E+02  0.0000E+00
    -48.319  0.0000E+00  0.0000E+00  0.9600E+02  0.0000E+00
    -48.078  0.0000E+00  0.0000E+00  0.9600E+02  0.0000E+00
    -47.837  0.0000E+00  0.0000E+00  0.9600E+02  0.0000E+00
    -47.597  0.0000E+00  0.0000E+00  0.9600E+02  0.0000E+00
    -47.356  0.0000E+00  0.0000E+00  0.9600E+02  0.0000E+00
    -47.115  0.0000E+00  0.0000E+00  0.9600E+02  0.0000E+00
    -46.874  0.0000E+00  0.0000E+00  0.9600E+02  0.0000E+00
    -46.634  0.0000E+00  0.0000E+00  0.9600E+02  0.0000E+00
    -46.393  0.0000E+00  0.4083E+00  0.9600E+02  0.9831E-01
    -46.152  0.0000E+00  0.1324E+03  0.9600E+02  0.3199E+02
    -45.911  0.0000E+00  0.6113E+02  0.9600E+02  0.4671E+02
    -45.670  0.0000E+00  0.2047E+03  0.9600E+02  0.9600E+02
    -45.430  0.0000E+00  0.0000E+00  0.9600E+02  0.9600E+02
    -45.189  0.0000E+00  0.0000E+00  0.9600E+02  0.9600E+02
    -44.948  0.0000E+00  0.0000E+00  0.9600E+02  0.9600E+02
    -44.707  0.0000E+00  0.0000E+00  0.9600E+02  0.9600E+02
    -44.466  0.0000E+00  0.0000E+00  0.9600E+02  0.9600E+02
    -44.226  0.0000E+00  0.0000E+00  0.9600E+02  0.9600E+02
    -43.985  0.0000E+00  0.0000E+00  0.9600E+02  0.9600E+02
    -43.744  0.0000E+00  0.0000E+00  0.9600E+02  0.9600E+02
    -43.503  0.0000E+00  0.0000E+00  0.9600E+02  0.9600E+02
    -43.262  0.0000E+00  0.0000E+00  0.9600E+02  0.9600E+02
    -43.022  0.0000E+00  0.0000E+00  0.9600E+02  0.9600E+02
    -42.781  0.0000E+00  0.0000E+00  0.9600E+02  0.9600E+02
    -42.540  0.0000E+00  0.0000E+00  0.9600E+02  0.9600E+02
    -42.299  0.0000E+00  0.0000E+00  0.9600E+02  0.9600E+02
    -42.058  0.0000E+00  0.0000E+00  0.9600E+02  0.9600E+02
    -41.818  0.0000E+00  0.0000E+00  0.9600E+02  0.9600E+02
    -41.577  0.0000E+00  0.0000E+00  0.9600E+02  0.9600E+02
    -41.336  0.0000E+00  0.0000E+00  0.9600E+02  0.9600E+02
    -41.095  0.0000E+00  0.0000E+00  0.9600E+02  0.9600E+02
    -40.854  0.0000E+00  0.0000E+00  0.9600E+02  0.9600E+02
    -40.614  0.0000E+00  0.0000E+00  0.9600E+02  0.9600E+02
    -40.373  0.0000E+00  0.0000E+00  0.9600E+02  0.9600E+02
    -40.132  0.1447E-11  0.9155E-12  0.9600E+02  0.9600E+02
    -39.891  0.1525E+02  0.1408E+02  0.9967E+02  0.9939E+02
    -39.650  0.5119E+02  0.5237E+02  0.1120E+03  0.1120E+03
    -39.410  0.0000E+00  0.0000E+00  0.1120E+03  0.1120E+03
    -39.169  0.0000E+00  0.0000E+00  0.1120E+03  0.1120E+03
    -38.928  0.0000E+00  0.0000E+00  0.1120E+03  0.1120E+03
    -38.687  0.0000E+00  0.0000E+00  0.1120E+03  0.1120E+03
    -38.447  0.0000E+00  0.0000E+00  0.1120E+03  0.1120E+03
    -38.206  0.0000E+00  0.0000E+00  0.1120E+03  0.1120E+03
    -37.965  0.0000E+00  0.0000E+00  0.1120E+03  0.1120E+03
    -37.724  0.0000E+00  0.0000E+00  0.1120E+03  0.1120E+03
    -37.483  0.0000E+00  0.0000E+00  0.1120E+03  0.1120E+03
    -37.243  0.0000E+00  0.0000E+00  0.1120E+03  0.1120E+03
    -37.002  0.0000E+00  0.0000E+00  0.1120E+03  0.1120E+03
    -36.761  0.0000E+00  0.0000E+00  0.1120E+03  0.1120E+03
    -36.520  0.0000E+00  0.0000E+00  0.1120E+03  0.1120E+03
    -36.279  0.0000E+00  0.0000E+00  0.1120E+03  0.1120E+03
    -36.039  0.0000E+00  0.0000E+00  0.1120E+03  0.1120E+03
    -35.798  0.0000E+00  0.0000E+00  0.1120E+03  0.1120E+03
    -35.557  0.0000E+00  0.0000E+00  0.1120E+03  0.1120E+03
    -35.316  0.0000E+00  0.0000E+00  0.1120E+03  0.1120E+03
    -35.075  0.0000E+00  0.0000E+00  0.1120E+03  0.1120E+03
    -34.835  0.0000E+00  0.0000E+00  0.1120E+03  0.1120E+03
    -34.594  0.0000E+00  0.0000E+00  0.1120E+03  0.1120E+03
    -34.353  0.0000E+00  0.0000E+00  0.1120E+03  0.1120E+03
    -34.112  0.0000E+00  0.0000E+00  0.1120E+03  0.1120E+03
    -33.871  0.0000E+00  0.0000E+00  0.1120E+03  0.1120E+03
    -33.631  0.0000E+00  0.0000E+00  0.1120E+03  0.1120E+03
    -33.390  0.0000E+00  0.0000E+00  0.1120E+03  0.1120E+03
    -33.149  0.0000E+00  0.0000E+00  0.1120E+03  0.1120E+03
    -32.908  0.0000E+00  0.0000E+00  0.1120E+03  0.1120E+03
    -32.667  0.0000E+00  0.0000E+00  0.1120E+03  0.1120E+03
    -32.427  0.0000E+00  0.0000E+00  0.1120E+03  0.1120E+03
    -32.186  0.0000E+00  0.0000E+00  0.1120E+03  0.1120E+03
    -31.945  0.0000E+00  0.0000E+00  0.1120E+03  0.1120E+03
    -31.704  0.0000E+00  0.0000E+00  0.1120E+03  0.1120E+03
    -31.463  0.0000E+00  0.0000E+00  0.1120E+03  0.1120E+03
    -31.223  0.0000E+00  0.0000E+00  0.1120E+03  0.1120E+03
    -30.982  0.0000E+00  0.0000E+00  0.1120E+03  0.1120E+03
    -30.741  0.0000E+00  0.0000E+00  0.1120E+03  0.1120E+03
    -30.500  0.0000E+00  0.0000E+00  0.1120E+03  0.1120E+03
    -30.260  0.0000E+00  0.0000E+00  0.1120E+03  0.1120E+03
    -30.019  0.0000E+00  0.0000E+00  0.1120E+03  0.1120E+03
    -29.778  0.0000E+00  0.0000E+00  0.1120E+03  0.1120E+03
    -29.537  0.0000E+00  0.0000E+00  0.1120E+03  0.1120E+03
    -29.296  0.0000E+00  0.0000E+00  0.1120E+03  0.1120E+03
    -29.056  0.0000E+00  0.0000E+00  0.1120E+03  0.1120E+03
    -28.815  0.0000E+00  0.0000E+00  0.1120E+03  0.1120E+03
    -28.574  0.0000E+00  0.0000E+00  0.1120E+03  0.1120E+03
    -28.333  0.0000E+00  0.0000E+00  0.1120E+03  0.1120E+03
    -28.092  0.0000E+00  0.0000E+00  0.1120E+03  0.1120E+03
    -27.852  0.0000E+00  0.0000E+00  0.1120E+03  0.1120E+03
    -27.611  0.0000E+00  0.0000E+00  0.1120E+03  0.1120E+03
    -27.370  0.0000E+00  0.0000E+00  0.1120E+03  0.1120E+03
    -27.129  0.0000E+00  0.0000E+00  0.1120E+03  0.1120E+03
    -26.888  0.0000E+00  0.0000E+00  0.1120E+03  0.1120E+03
    -26.648  0.0000E+00  0.0000E+00  0.1120E+03  0.1120E+03
    -26.407  0.0000E+00  0.0000E+00  0.1120E+03  0.1120E+03
    -26.166  0.0000E+00  0.0000E+00  0.1120E+03  0.1120E+03
    -25.925  0.0000E+00  0.0000E+00  0.1120E+03  0.1120E+03
    -25.684  0.0000E+00  0.0000E+00  0.1120E+03  0.1120E+03
    -25.444  0.0000E+00  0.0000E+00  0.1120E+03  0.1120E+03
    -25.203  0.0000E+00  0.0000E+00  0.1120E+03  0.1120E+03
    -24.962  0.0000E+00  0.0000E+00  0.1120E+03  0.1120E+03
    -24.721  0.0000E+00  0.0000E+00  0.1120E+03  0.1120E+03
    -24.480  0.0000E+00  0.0000E+00  0.1120E+03  0.1120E+03
    -24.240  0.0000E+00  0.0000E+00  0.1120E+03  0.1120E+03
    -23.999  0.0000E+00  0.0000E+00  0.1120E+03  0.1120E+03
    -23.758  0.0000E+00  0.0000E+00  0.1120E+03  0.1120E+03
    -23.517  0.0000E+00  0.0000E+00  0.1120E+03  0.1120E+03
    -23.276  0.0000E+00  0.0000E+00  0.1120E+03  0.1120E+03
    -23.036  0.0000E+00  0.0000E+00  0.1120E+03  0.1120E+03
    -22.795  0.0000E+00  0.0000E+00  0.1120E+03  0.1120E+03
    -22.554  0.0000E+00  0.0000E+00  0.1120E+03  0.1120E+03
    -22.313  0.0000E+00  0.0000E+00  0.1120E+03  0.1120E+03
    -22.072  0.0000E+00  0.0000E+00  0.1120E+03  0.1120E+03
    -21.832  0.0000E+00  0.0000E+00  0.1120E+03  0.1120E+03
    -21.591  0.0000E+00  0.0000E+00  0.1120E+03  0.1120E+03
    -21.350  0.0000E+00  0.0000E+00  0.1120E+03  0.1120E+03
    -21.109  0.0000E+00  0.0000E+00  0.1120E+03  0.1120E+03
    -20.869  0.0000E+00  0.0000E+00  0.1120E+03  0.1120E+03
    -20.628  0.0000E+00  0.0000E+00  0.1120E+03  0.1120E+03
    -20.387  0.0000E+00  0.0000E+00  0.1120E+03  0.1120E+03
    -20.146  0.0000E+00  0.0000E+00  0.1120E+03  0.1120E+03
    -19.905  0.0000E+00  0.0000E+00  0.1120E+03  0.1120E+03
    -19.665  0.0000E+00  0.0000E+00  0.1120E+03  0.1120E+03
    -19.424  0.0000E+00  0.0000E+00  0.1120E+03  0.1120E+03
    -19.183  0.0000E+00  0.0000E+00  0.1120E+03  0.1120E+03
    -18.942  0.0000E+00  0.0000E+00  0.1120E+03  0.1120E+03
    -18.701  0.0000E+00  0.0000E+00  0.1120E+03  0.1120E+03
    -18.461  0.0000E+00  0.0000E+00  0.1120E+03  0.1120E+03
    -18.220  0.0000E+00  0.0000E+00  0.1120E+03  0.1120E+03
    -17.979  0.0000E+00  0.0000E+00  0.1120E+03  0.1120E+03
    -17.738  0.0000E+00  0.0000E+00  0.1120E+03  0.1120E+03
    -17.497  0.0000E+00  0.0000E+00  0.1120E+03  0.1120E+03
    -17.257  0.0000E+00  0.0000E+00  0.1120E+03  0.1120E+03
    -17.016  0.0000E+00  0.0000E+00  0.1120E+03  0.1120E+03
    -16.775  0.0000E+00  0.0000E+00  0.1120E+03  0.1120E+03
    -16.534  0.0000E+00  0.0000E+00  0.1120E+03  0.1120E+03
    -16.293  0.0000E+00  0.0000E+00  0.1120E+03  0.1120E+03
    -16.053  0.0000E+00  0.0000E+00  0.1120E+03  0.1120E+03
    -15.812  0.0000E+00  0.0000E+00  0.1120E+03  0.1120E+03
    -15.571  0.0000E+00  0.0000E+00  0.1120E+03  0.1120E+03
    -15.330  0.0000E+00  0.0000E+00  0.1120E+03  0.1120E+03
    -15.089  0.0000E+00  0.0000E+00  0.1120E+03  0.1120E+03
    -14.849  0.0000E+00  0.0000E+00  0.1120E+03  0.1120E+03
    -14.608  0.0000E+00  0.0000E+00  0.1120E+03  0.1120E+03
    -14.367  0.0000E+00  0.0000E+00  0.1120E+03  0.1120E+03
    -14.126  0.0000E+00  0.0000E+00  0.1120E+03  0.1120E+03
    -13.885  0.0000E+00  0.0000E+00  0.1120E+03  0.1120E+03
    -13.645  0.0000E+00  0.0000E+00  0.1120E+03  0.1120E+03
    -13.404  0.4073E-06  0.0000E+00  0.1120E+03  0.1120E+03
    -13.163  0.1833E+02  0.0000E+00  0.1164E+03  0.1120E+03
    -12.922  0.4652E+02  0.5834E-02  0.1276E+03  0.1120E+03
    -12.682  0.1599E+01  0.4157E+02  0.1280E+03  0.1220E+03
    -12.441  0.0000E+00  0.2487E+02  0.1280E+03  0.1280E+03
    -12.200  0.0000E+00  0.3687E-05  0.1280E+03  0.1280E+03
    -11.959  0.0000E+00  0.0000E+00  0.1280E+03  0.1280E+03
    -11.718  0.0000E+00  0.0000E+00  0.1280E+03  0.1280E+03
    -11.478  0.0000E+00  0.0000E+00  0.1280E+03  0.1280E+03
    -11.237  0.0000E+00  0.0000E+00  0.1280E+03  0.1280E+03
    -10.996  0.0000E+00  0.0000E+00  0.1280E+03  0.1280E+03
    -10.755  0.0000E+00  0.0000E+00  0.1280E+03  0.1280E+03
    -10.514  0.0000E+00  0.0000E+00  0.1280E+03  0.1280E+03
    -10.274  0.0000E+00  0.0000E+00  0.1280E+03  0.1280E+03
    -10.033  0.0000E+00  0.0000E+00  0.1280E+03  0.1280E+03
     -9.792  0.0000E+00  0.0000E+00  0.1280E+03  0.1280E+03
     -9.551  0.0000E+00  0.0000E+00  0.1280E+03  0.1280E+03
     -9.310  0.0000E+00  0.0000E+00  0.1280E+03  0.1280E+03
     -9.070  0.0000E+00  0.0000E+00  0.1280E+03  0.1280E+03
     -8.829  0.0000E+00  0.0000E+00  0.1280E+03  0.1280E+03
     -8.588  0.0000E+00  0.0000E+00  0.1280E+03  0.1280E+03
     -8.347  0.0000E+00  0.0000E+00  0.1280E+03  0.1280E+03
     -8.106  0.0000E+00  0.0000E+00  0.1280E+03  0.1280E+03
     -7.866  0.3963E-10  0.0000E+00  0.1280E+03  0.1280E+03
     -7.625  0.5153E+00  0.6938E-11  0.1281E+03  0.1280E+03
     -7.384  0.1222E+02  0.4506E+00  0.1311E+03  0.1281E+03
     -7.143  0.3027E+02  0.1342E+02  0.1384E+03  0.1313E+03
     -6.902  0.3362E+02  0.2955E+02  0.1465E+03  0.1385E+03
     -6.662  0.2304E+02  0.2582E+02  0.1520E+03  0.1447E+03
     -6.421  0.3909E-04  0.3035E+02  0.1520E+03  0.1520E+03
     -6.180  0.0000E+00  0.6994E-01  0.1520E+03  0.1520E+03
     -5.939  0.0000E+00  0.0000E+00  0.1520E+03  0.1520E+03
     -5.698  0.0000E+00  0.0000E+00  0.1520E+03  0.1520E+03
     -5.458  0.0000E+00  0.0000E+00  0.1520E+03  0.1520E+03
     -5.217  0.0000E+00  0.0000E+00  0.1520E+03  0.1520E+03
     -4.976  0.0000E+00  0.0000E+00  0.1520E+03  0.1520E+03
     -4.735  0.0000E+00  0.0000E+00  0.1520E+03  0.1520E+03
     -4.495  0.0000E+00  0.0000E+00  0.1520E+03  0.1520E+03
     -4.254  0.0000E+00  0.0000E+00  0.1520E+03  0.1520E+03
     -4.013  0.0000E+00  0.0000E+00  0.1520E+03  0.1520E+03
     -3.772  0.0000E+00  0.0000E+00  0.1520E+03  0.1520E+03
     -3.531  0.0000E+00  0.0000E+00  0.1520E+03  0.1520E+03
     -3.291  0.0000E+00  0.0000E+00  0.1520E+03  0.1520E+03
     -3.050  0.0000E+00  0.0000E+00  0.1520E+03  0.1520E+03
     -2.809  0.0000E+00  0.0000E+00  0.1520E+03  0.1520E+03
     -2.568  0.0000E+00  0.0000E+00  0.1520E+03  0.1520E+03
     -2.327  0.0000E+00  0.0000E+00  0.1520E+03  0.1520E+03
     -2.087  0.1332E-04  0.0000E+00  0.1520E+03  0.1520E+03
     -1.846  0.1540E+02  0.0000E+00  0.1557E+03  0.1520E+03
     -1.605  0.1976E+02  0.0000E+00  0.1605E+03  0.1520E+03
     -1.364  0.1498E+02  0.0000E+00  0.1641E+03  0.1520E+03
     -1.123  0.1700E+02  0.0000E+00  0.1682E+03  0.1520E+03
     -0.883  0.4520E+02  0.0000E+00  0.1790E+03  0.1520E+03
     -0.642  0.5891E+02  0.4566E-06  0.1932E+03  0.1520E+03
     -0.401  0.3871E+02  0.3810E+01  0.2026E+03  0.1529E+03
     -0.160  0.6737E+02  0.2035E+02  0.2188E+03  0.1578E+03
      0.081  0.7399E+02  0.1225E+02  0.2366E+03  0.1608E+03
      0.321  0.7749E+02  0.1832E+02  0.2553E+03  0.1652E+03
      0.562  0.6974E+02  0.2942E+02  0.2720E+03  0.1723E+03
      0.803  0.5649E+02  0.3905E+02  0.2856E+03  0.1817E+03
      1.044  0.3649E+02  0.3732E+02  0.2944E+03  0.1907E+03
      1.285  0.3043E+02  0.3157E+02  0.3018E+03  0.1983E+03
      1.525  0.4503E+02  0.2063E+02  0.3126E+03  0.2032E+03
      1.766  0.4168E+02  0.2912E+02  0.3226E+03  0.2102E+03
      2.007  0.6869E+02  0.3648E+02  0.3392E+03  0.2190E+03
      2.248  0.5898E+02  0.2812E+02  0.3534E+03  0.2258E+03
      2.489  0.2664E+02  0.2694E+02  0.3598E+03  0.2323E+03
      2.729  0.4249E+02  0.3022E+02  0.3700E+03  0.2396E+03
      2.970  0.3099E+02  0.4410E+02  0.3775E+03  0.2502E+03
      3.211  0.8613E+01  0.4565E+02  0.3796E+03  0.2612E+03
      3.452  0.2727E+02  0.3291E+02  0.3861E+03  0.2691E+03
      3.693  0.2761E+02  0.1270E+02  0.3928E+03  0.2722E+03
      3.933  0.3067E+02  0.1709E+02  0.4002E+03  0.2763E+03
      4.174  0.3593E+02  0.5285E+02  0.4088E+03  0.2890E+03
      4.415  0.3635E+02  0.4438E+02  0.4176E+03  0.2997E+03
      4.656  0.3048E+02  0.1793E+02  0.4249E+03  0.3040E+03
      4.896  0.2591E+02  0.8281E-02  0.4311E+03  0.3040E+03
      5.137  0.3531E+01  0.0000E+00  0.4320E+03  0.3040E+03
      5.378  0.0000E+00  0.0000E+00  0.4320E+03  0.3040E+03
      5.619  0.0000E+00  0.0000E+00  0.4320E+03  0.3040E+03
      5.860  0.0000E+00  0.0000E+00  0.4320E+03  0.3040E+03
      6.100  0.0000E+00  0.1348E-09  0.4320E+03  0.3040E+03
      6.341  0.0000E+00  0.3632E+00  0.4320E+03  0.3041E+03
      6.582  0.0000E+00  0.4180E+01  0.4320E+03  0.3051E+03
      6.823  0.0000E+00  0.7716E+01  0.4320E+03  0.3070E+03
      7.064  0.1878E-15  0.1873E+02  0.4320E+03  0.3115E+03
      7.304  0.2068E-01  0.4374E+02  0.4320E+03  0.3220E+03
      7.545  0.1331E+00  0.5293E+02  0.4320E+03  0.3347E+03
      7.786  0.2115E+00  0.6360E+02  0.4321E+03  0.3501E+03
      8.027  0.7529E+00  0.6548E+02  0.4323E+03  0.3658E+03
      8.268  0.2021E+01  0.6984E+02  0.4328E+03  0.3826E+03
      8.508  0.2637E+01  0.5980E+02  0.4334E+03  0.3970E+03
      8.749  0.8811E+01  0.5851E+02  0.4355E+03  0.4111E+03
      8.990  0.1231E+02  0.4858E+02  0.4385E+03  0.4228E+03
      9.231  0.1309E+02  0.3053E+02  0.4416E+03  0.4302E+03
      9.472  0.1800E+02  0.9175E+01  0.4460E+03  0.4324E+03
      9.712  0.1636E+02  0.2906E+01  0.4499E+03  0.4331E+03
      9.953  0.1563E+02  0.8253E+01  0.4537E+03  0.4351E+03
     10.194  0.2250E+02  0.1848E+02  0.4591E+03  0.4395E+03
     10.435  0.1482E+02  0.1798E+02  0.4627E+03  0.4439E+03
     10.676  0.1543E+02  0.1708E+02  0.4664E+03  0.4480E+03
     10.916  0.1307E+02  0.2757E+02  0.4695E+03  0.4546E+03
     11.157  0.2054E+02  0.1902E+02  0.4745E+03  0.4592E+03
     11.398  0.2448E+02  0.2383E+02  0.4804E+03  0.4649E+03
     11.639  0.2750E+02  0.1519E+02  0.4870E+03  0.4686E+03
     11.880  0.2428E+02  0.1371E+02  0.4928E+03  0.4719E+03
     12.120  0.3383E+02  0.1581E+02  0.5010E+03  0.4757E+03
     12.361  0.1998E+02  0.3622E+02  0.5058E+03  0.4844E+03
     12.602  0.2301E+02  0.3282E+02  0.5113E+03  0.4923E+03
     12.843  0.2136E+02  0.3033E+02  0.5165E+03  0.4996E+03
     13.083  0.2053E+02  0.2035E+02  0.5214E+03  0.5045E+03
     13.324  0.2346E+02  0.2186E+02  0.5271E+03  0.5098E+03
     13.565  0.2474E+02  0.2721E+02  0.5330E+03  0.5163E+03
     13.806  0.1366E+02  0.2373E+02  0.5363E+03  0.5220E+03
     14.047  0.7031E+01  0.2641E+02  0.5380E+03  0.5284E+03
     14.287  0.4584E-02  0.1941E+02  0.5380E+03  0.5331E+03
     14.528  0.0000E+00  0.1706E+02  0.5380E+03  0.5372E+03
     14.769  0.0000E+00  0.3389E+01  0.5380E+03  0.5380E+03
     15.010  0.0000E+00  0.2251E-05  0.5380E+03  0.5380E+03
     15.251  0.0000E+00  0.0000E+00  0.5380E+03  0.5380E+03
     15.491  0.0000E+00  0.0000E+00  0.5380E+03  0.5380E+03
     15.732  0.0000E+00  0.0000E+00  0.5380E+03  0.5380E+03
     15.973  0.0000E+00  0.0000E+00  0.5380E+03  0.5380E+03
     16.214  0.0000E+00  0.0000E+00  0.5380E+03  0.5380E+03
     16.455  0.0000E+00  0.0000E+00  0.5380E+03  0.5380E+03
     16.695  0.0000E+00  0.0000E+00  0.5380E+03  0.5380E+03
     16.936  0.0000E+00  0.0000E+00  0.5380E+03  0.5380E+03
     17.177  0.0000E+00  0.0000E+00  0.5380E+03  0.5380E+03
     17.418  0.0000E+00  0.0000E+00  0.5380E+03  0.5380E+03
     17.659  0.0000E+00  0.0000E+00  0.5380E+03  0.5380E+03
     17.899  0.0000E+00  0.0000E+00  0.5380E+03  0.5380E+03
