 vasp.5.4.4.18Apr17-6-g9f103f2a35 (build Oct 25 2017 14:42:18) complex          
  
 executed on             LinuxIFC date 2021.06.02  14:18:28
 running on   24 total cores
 distrk:  each k-point on   12 cores,    2 groups
 distr:  one band on NCORES_PER_BAND=   6 cores,    2 groups


--------------------------------------------------------------------------------------------------------


 INCAR:
 POTCAR:    PAW_PBE Li_sv 10Sep2004               
 POTCAR:    PAW_PBE O 08Apr2002                   
 POTCAR:    PAW_PBE S 06Sep2000                   
 POTCAR:    PAW_PBE Fe_pv 02Aug2007               

 ----------------------------------------------------------------------------- 
|                                                                             |
|           W    W    AA    RRRRR   N    N  II  N    N   GGGG   !!!           |
|           W    W   A  A   R    R  NN   N  II  NN   N  G    G  !!!           |
|           W    W  A    A  R    R  N N  N  II  N N  N  G       !!!           |
|           W WW W  AAAAAA  RRRRR   N  N N  II  N  N N  G  GGG   !            |
|           WW  WW  A    A  R   R   N   NN  II  N   NN  G    G                |
|           W    W  A    A  R    R  N    N  II  N    N   GGGG   !!!           |
|                                                                             |
|      You have enabled k-point parallelism (KPAR>1).                         |
|      This developmental code was originally  written by Paul Kent at ORNL,  |
|      and carefully double checked in Vienna.                                |
|      GW as well as linear response parallelism added by Martijn Marsman     |
|      and Georg Kresse.                                                      |
|      Carefully verify results versus KPAR=1.                                |
|      Report problems to Paul Kent and Vienna.                               |
|                                                                             |
 ----------------------------------------------------------------------------- 

 POTCAR:    PAW_PBE Li_sv 10Sep2004               
  local pseudopotential read in
  atomic valenz-charges read in
  non local Contribution for L=           0  read in
    real space projection operators read in
  non local Contribution for L=           0  read in
    real space projection operators read in
  non local Contribution for L=           1  read in
    real space projection operators read in
    PAW grid and wavefunctions read in
 
   number of l-projection  operators is LMAX  =           3
   number of lm-projection operators is LMMAX =           5
 
 POTCAR:    PAW_PBE O 08Apr2002                   
  local pseudopotential read in
  partial core-charges read in
  partial kinetic energy density read in
  kinetic energy density of atom read in
  atomic valenz-charges read in
  non local Contribution for L=           0  read in
    real space projection operators read in
  non local Contribution for L=           0  read in
    real space projection operators read in
  non local Contribution for L=           1  read in
    real space projection operators read in
  non local Contribution for L=           1  read in
    real space projection operators read in
    PAW grid and wavefunctions read in
 
   number of l-projection  operators is LMAX  =           4
   number of lm-projection operators is LMMAX =           8
 
 POTCAR:    PAW_PBE S 06Sep2000                   
  local pseudopotential read in
  partial core-charges read in
  partial kinetic energy density read in
  atomic valenz-charges read in
  non local Contribution for L=           0  read in
    real space projection operators read in
  non local Contribution for L=           0  read in
    real space projection operators read in
  non local Contribution for L=           1  read in
    real space projection operators read in
  non local Contribution for L=           1  read in
    real space projection operators read in
    PAW grid and wavefunctions read in
 
   number of l-projection  operators is LMAX  =           4
   number of lm-projection operators is LMMAX =           8
 
 POTCAR:    PAW_PBE Fe_pv 02Aug2007               
  local pseudopotential read in
  partial core-charges read in
  partial kinetic energy density read in
  atomic valenz-charges read in
  non local Contribution for L=           1  read in
    real space projection operators read in
  non local Contribution for L=           1  read in
    real space projection operators read in
  non local Contribution for L=           2  read in
    real space projection operators read in
  non local Contribution for L=           2  read in
    real space projection operators read in
  non local Contribution for L=           0  read in
    real space projection operators read in
  non local Contribution for L=           0  read in
    real space projection operators read in
    PAW grid and wavefunctions read in
 
   number of l-projection  operators is LMAX  =           6
   number of lm-projection operators is LMMAX =          18
 

 ----------------------------------------------------------------------------- 
|                                                                             |
|  ADVICE TO THIS USER RUNNING 'VASP/VAMP'   (HEAR YOUR MASTER'S VOICE ...):  |
|                                                                             |
|      You have a (more or less) 'large supercell' and for larger cells       |
|      it might be more efficient to use real space projection opertators     |
|      So try LREAL= Auto  in the INCAR   file.                               |
|      Mind:          For very  accurate calculation you might also keep the  |
|      reciprocal projection scheme          (i.e. LREAL=.FALSE.)             |
|                                                                             |
 ----------------------------------------------------------------------------- 

  PAW_PBE Li_sv 10Sep2004               :
 energy of atom  1       EATOM= -202.7858
 kinetic energy error for atom=    0.0072 (will be added to EATOM!!)
  PAW_PBE O 08Apr2002                   :
 energy of atom  2       EATOM= -432.3788
 kinetic energy error for atom=    0.0129 (will be added to EATOM!!)
  PAW_PBE S 06Sep2000                   :
 energy of atom  3       EATOM= -276.8230
 kinetic energy error for atom=    0.0008 (will be added to EATOM!!)
  PAW_PBE Fe_pv 02Aug2007               :
 energy of atom  4       EATOM=-2457.4239
 kinetic energy error for atom=    0.0041 (will be added to EATOM!!)
 
 
 POSCAR: # Compound: Li16O16S24Fe32. Old comment:
  positions in direct lattice
  No initial velocities read in
 exchange correlation table for  LEXCH =        8
   RHO(1)=    0.500       N(1)  =     2000
   RHO(2)=  100.500       N(2)  =     4000
 


--------------------------------------------------------------------------------------------------------


 ion  position               nearest neighbor table
   1  0.289  0.469  0.156-  27 2.00  29 2.00  55 2.53  49 2.53
   2  0.789  0.469  0.156-  28 2.00  30 2.00  56 2.53  50 2.53
   3  0.289  0.969  0.156-  25 2.00  31 2.00  53 2.53  51 2.53
   4  0.789  0.969  0.156-  26 2.00  32 2.00  54 2.53  52 2.53
   5  0.046  0.219  0.187-  30 1.98  25 1.98
   6  0.546  0.219  0.186-  29 1.98  26 1.98
   7  0.046  0.719  0.186-  32 1.98  27 1.98
   8  0.546  0.719  0.186-  31 1.98  28 1.98
   9  0.454  0.469  0.814-  20 1.98  21 1.98
  10  0.954  0.469  0.814-  19 1.98  22 1.98
  11  0.454  0.969  0.814-  18 1.98  23 1.98
  12  0.954  0.969  0.814-  17 1.98  24 1.98
  13  0.211  0.219  0.844-  21 2.00  17 2.00  49 2.53  53 2.53
  14  0.711  0.219  0.844-  22 2.00  18 2.00  50 2.53  54 2.53
  15  0.211  0.719  0.844-  23 2.00  19 2.00  51 2.53  55 2.53
  16  0.711  0.719  0.844-  24 2.00  20 2.00  52 2.53  56 2.53
  17  0.077  0.095  0.803-  12 1.98  13 2.00  57 2.01  83 2.01  86 2.01
  18  0.577  0.095  0.803-  11 1.98  14 2.00  58 2.01  84 2.01  85 2.01
  19  0.077  0.595  0.803-  10 1.98  15 2.00  59 2.01  81 2.01  88 2.01
  20  0.577  0.595  0.803-   9 1.98  16 2.00  60 2.01  82 2.01  87 2.01
  21  0.325  0.343  0.803-   9 1.98  13 2.00  61 2.01  81 2.01  85 2.01
  22  0.825  0.343  0.803-  10 1.98  14 2.00  62 2.01  82 2.01  86 2.01
  23  0.325  0.843  0.803-  11 1.98  15 2.00  63 2.01  83 2.01  87 2.01
  24  0.825  0.843  0.803-  12 1.98  16 2.00  64 2.01  84 2.01  88 2.01
  25  0.175  0.093  0.197-   5 1.98   3 2.00  65 2.01  77 2.01  75 2.01
  26  0.675  0.093  0.197-   6 1.98   4 2.00  66 2.01  78 2.01  76 2.01
  27  0.175  0.593  0.197-   7 1.98   1 2.00  67 2.01  79 2.01  73 2.01
  28  0.675  0.593  0.197-   8 1.98   2 2.00  68 2.01  80 2.01  74 2.01
  29  0.423  0.345  0.197-   6 1.98   1 2.00  69 2.01  77 2.01  74 2.01
  30  0.923  0.345  0.197-   5 1.98   2 2.00  70 2.01  78 2.01  73 2.01
  31  0.423  0.845  0.197-   8 1.98   3 2.00  71 2.01  79 2.01  76 2.01
  32  0.923  0.845  0.197-   7 1.98   4 2.00  72 2.01  80 2.01  75 2.01
  33  0.219  0.345  0.371-  61 2.41  67 2.65  69 2.65
  34  0.719  0.345  0.371-  62 2.41  68 2.65  70 2.65
  35  0.219  0.845  0.371-  63 2.41  65 2.65  71 2.65
  36  0.719  0.845  0.371-  64 2.41  66 2.65  72 2.65
  37  0.467  0.093  0.371-  58 2.41  71 2.65  65 2.65
  38  0.967  0.093  0.371-  57 2.41  72 2.65  66 2.65
  39  0.467  0.593  0.371-  60 2.41  69 2.65  67 2.65
  40  0.967  0.593  0.371-  59 2.41  70 2.65  68 2.65
  41  0.033  0.343  0.629-  70 2.41  57 2.65  61 2.65
  42  0.533  0.343  0.629-  69 2.41  58 2.65  62 2.65
  43  0.033  0.843  0.629-  72 2.41  59 2.65  63 2.65
  44  0.533  0.843  0.629-  71 2.41  60 2.65  64 2.65
  45  0.281  0.095  0.629-  65 2.41  61 2.65  57 2.65
  46  0.781  0.095  0.629-  66 2.41  62 2.65  58 2.65
  47  0.281  0.595  0.629-  67 2.41  63 2.65  59 2.65
  48  0.781  0.595  0.629-  68 2.41  64 2.65  60 2.65
  49  0.124  0.344  0.000-  73 2.51  86 2.51  81 2.52  77 2.52  13 2.53   1 2.53
  50  0.624  0.344  0.000-  74 2.51  85 2.51  82 2.52  78 2.52  14 2.53   2 2.53
  51  0.124  0.844  0.000-  75 2.51  88 2.51  83 2.52  79 2.52  15 2.53   3 2.53
  52  0.624  0.844  0.000-  76 2.51  87 2.51  84 2.52  80 2.52  16 2.53   4 2.53
  53  0.376  0.094  1.000-  85 2.51  76 2.51  77 2.52  83 2.52   3 2.53  13 2.53
  54  0.876  0.094  1.000-  86 2.51  75 2.51  78 2.52  84 2.52   4 2.53  14 2.53
  55  0.376  0.594  1.000-  87 2.51  74 2.51  79 2.52  81 2.52   1 2.53  15 2.53
  56  0.876  0.594  1.000-  88 2.51  73 2.51  80 2.52  82 2.52   2 2.53  16 2.53
  57  0.038  0.106  0.606-  17 2.01  38 2.41  41 2.65  45 2.65
  58  0.538  0.106  0.606-  18 2.01  37 2.41  42 2.65  46 2.65
  59  0.038  0.606  0.606-  19 2.01  40 2.41  43 2.65  47 2.65
  60  0.538  0.606  0.606-  20 2.01  39 2.41  44 2.65  48 2.65
  61  0.265  0.332  0.606-  21 2.01  33 2.41  45 2.65  41 2.65
  62  0.765  0.332  0.606-  22 2.01  34 2.41  46 2.65  42 2.65
  63  0.265  0.832  0.606-  23 2.01  35 2.41  47 2.65  43 2.65
  64  0.765  0.832  0.606-  24 2.01  36 2.41  48 2.65  44 2.65
  65  0.235  0.082  0.394-  25 2.01  45 2.41  35 2.65  37 2.65
  66  0.735  0.082  0.394-  26 2.01  46 2.41  36 2.65  38 2.65
  67  0.235  0.582  0.394-  27 2.01  47 2.41  33 2.65  39 2.65
  68  0.735  0.582  0.394-  28 2.01  48 2.41  34 2.65  40 2.65
  69  0.462  0.356  0.394-  29 2.01  42 2.41  39 2.65  33 2.65
  70  0.962  0.356  0.394-  30 2.01  41 2.41  40 2.65  34 2.65
  71  0.462  0.856  0.394-  31 2.01  44 2.41  37 2.65  35 2.65
  72  0.962  0.856  0.394-  32 2.01  43 2.41  38 2.65  36 2.65
  73  0.038  0.469  0.154-  30 2.01  27 2.01  49 2.51  56 2.51
  74  0.538  0.469  0.154-  29 2.01  28 2.01  50 2.51  55 2.51
  75  0.038  0.969  0.154-  32 2.01  25 2.01  51 2.51  54 2.51
  76  0.538  0.969  0.154-  31 2.01  26 2.01  52 2.51  53 2.51
  77  0.289  0.219  0.154-  25 2.01  29 2.01  53 2.52  49 2.52
  78  0.789  0.219  0.154-  26 2.01  30 2.01  54 2.52  50 2.52
  79  0.289  0.719  0.154-  27 2.01  31 2.01  55 2.52  51 2.52
  80  0.789  0.719  0.154-  28 2.01  32 2.01  56 2.52  52 2.52
  81  0.211  0.469  0.846-  21 2.01  19 2.01  49 2.52  55 2.52
  82  0.711  0.469  0.846-  22 2.01  20 2.01  50 2.52  56 2.52
  83  0.211  0.969  0.846-  23 2.01  17 2.01  51 2.52  53 2.52
  84  0.711  0.969  0.846-  24 2.01  18 2.01  52 2.52  54 2.52
  85  0.462  0.219  0.846-  18 2.01  21 2.01  53 2.51  50 2.51
  86  0.962  0.219  0.846-  17 2.01  22 2.01  54 2.51  49 2.51
  87  0.462  0.719  0.846-  20 2.01  23 2.01  55 2.51  52 2.51
  88  0.962  0.719  0.846-  19 2.01  24 2.01  56 2.51  51 2.51
 

IMPORTANT INFORMATION: All symmetrisations will be switched off!
NOSYMM: (Re-)initialisation of all symmetry stuff for point group C_1.

 
 
 KPOINTS: # No comment                            

Automatic generation of k-mesh.
Space group operators:
 irot       det(A)        alpha          n_x          n_y          n_z        tau_x        tau_y        tau_z
    1     1.000000     0.000000     1.000000     0.000000     0.000000     0.000000     0.000000     0.000000
 
 Subroutine IBZKPT returns following result:
 ===========================================
 
 Found     14 irreducible k-points:
 
 Following reciprocal coordinates:
            Coordinates               Weight
  0.000000  0.000000  0.000000      1.000000
  0.333333  0.000000  0.000000      2.000000
  0.000000  0.333333  0.000000      2.000000
  0.333333  0.333333  0.000000      2.000000
 -0.333333  0.333333 -0.000000      2.000000
  0.000000  0.000000  0.333333      2.000000
  0.333333  0.000000  0.333333      2.000000
 -0.333333  0.000000  0.333333      2.000000
  0.000000  0.333333  0.333333      2.000000
  0.333333  0.333333  0.333333      2.000000
 -0.333333  0.333333  0.333333      2.000000
  0.000000 -0.333333  0.333333      2.000000
  0.333333 -0.333333  0.333333      2.000000
 -0.333333 -0.333333  0.333333      2.000000
 
 Following cartesian coordinates:
            Coordinates               Weight
  0.000000  0.000000  0.000000      1.000000
  0.029997  0.000000  0.008162      2.000000
  0.000000  0.029983  0.000000      2.000000
  0.029997  0.029983  0.008162      2.000000
 -0.029997  0.029983 -0.008162      2.000000
  0.000001  0.000000  0.032684      2.000000
  0.029998  0.000000  0.040846      2.000000
 -0.029996  0.000000  0.024522      2.000000
  0.000001  0.029983  0.032684      2.000000
  0.029998  0.029983  0.040846      2.000000
 -0.029996  0.029983  0.024522      2.000000
  0.000001 -0.029983  0.032684      2.000000
  0.029998 -0.029983  0.040846      2.000000
 -0.029996 -0.029983  0.024522      2.000000
 


--------------------------------------------------------------------------------------------------------




 Dimension of arrays:
   k-points           NKPTS =     14   k-points in BZ     NKDIM =     14   number of bands    NBANDS=    538
   number of dos      NEDOS =    301   number of ions     NIONS =     88
   non local maximal  LDIM  =      6   non local SUM 2l+1 LMDIM =     18
   total plane-waves  NPLWV = 829440
   max r-space proj   IRMAX =      1   max aug-charges    IRDMAX= 166102
   dimension x,y,z NGX =    96 NGY =   96 NGZ =   90
   dimension x,y,z NGXF=   192 NGYF=  192 NGZF=  180
   support grid    NGXF=   384 NGYF=  384 NGZF=  360
   ions per type =              16  16  24  32
   NGX,Y,Z   is equivalent  to a cutoff of  14.36, 14.36, 14.16 a.u.
   NGXF,Y,Z  is equivalent  to a cutoff of  28.72, 28.71, 28.31 a.u.

 SYSTEM =  unknown system                          
 POSCAR =  # Compound: Li16O16S24Fe32. Old comment:

 Startparameter for this run:
   NWRITE =      1    write-flag & timer
   PREC   = accura    normal or accurate (medium, high low for compatibility)
   ISTART =      0    job   : 0-new  1-cont  2-samecut
   ICHARG =      1    charge: 1-file 2-atom 10-const
   ISPIN  =      2    spin polarized calculation?
   LNONCOLLINEAR =      F non collinear calculations
   LSORBIT =      F    spin-orbit coupling
   INIWAV =      1    electr: 0-lowe 1-rand  2-diag
   LASPH  =      T    aspherical Exc in radial PAW
   METAGGA=      F    non-selfconsistent MetaGGA calc.

 Electronic Relaxation 1
   ENCUT  =  650.0 eV  47.77 Ry    6.91 a.u.  23.10 23.11 21.97*2*pi/ulx,y,z
   ENINI  =  650.0     initial cutoff
   ENAUG  =  628.9 eV  augmentation charge cutoff
   NELM   =    200;   NELMIN=  8; NELMDL=  0     # of ELM steps 
   EDIFF  = 0.1E-05   stopping-criterion for ELM
   LREAL  =      F    real-space projection
   NLSPLINE    = F    spline interpolate recip. space projectors
   LCOMPAT=      F    compatible to vasp.4.4
   GGA_COMPAT  = T    GGA compatible to vasp.4.4-vasp.4.6
   LMAXPAW     = -100 max onsite density
   LMAXMIX     =    4 max onsite mixed and CHGCAR
   VOSKOWN=      0    Vosko Wilk Nusair interpolation
   ROPT   =    0.00000   0.00000   0.00000   0.00000
 Ionic relaxation
   EDIFFG = 0.1E-04   stopping-criterion for IOM
   NSW    =      0    number of steps for IOM
   NBLOCK =      1;   KBLOCK =      1    inner block; outer block 
   IBRION =     -1    ionic relax: 0-MD 1-quasi-New 2-CG
   NFREE  =      0    steps in history (QN), initial steepest desc. (CG)
   ISIF   =      2    stress and relaxation
   IWAVPR =     10    prediction:  0-non 1-charg 2-wave 3-comb
   ISYM   =      0    0-nonsym 1-usesym 2-fastsym
   LCORR  =      T    Harris-Foulkes like correction to forces

   POTIM  = 0.5000    time-step for ionic-motion
   TEIN   =    0.0    initial temperature
   TEBEG  =    0.0;   TEEND  =   0.0 temperature during run
   SMASS  =  -3.00    Nose mass-parameter (am)
   estimated Nose-frequenzy (Omega)   =  0.10E-29 period in steps =****** mass=  -0.282E-26a.u.
   SCALEE = 1.0000    scale energy and forces
   NPACO  =    256;   APACO  = 16.0  distance and # of slots for P.C.
   PSTRESS=    0.0 pullay stress

  Mass of Ions in am
   POMASS =   7.01 16.00 32.07 55.85
  Ionic Valenz
   ZVAL   =   3.00  6.00  6.00 14.00
  Atomic Wigner-Seitz radii
   RWIGS  =  -1.00 -1.00 -1.00 -1.00
  virtual crystal weights 
   VCA    =   1.00  1.00  1.00  1.00
   NELECT =     736.0000    total number of electrons
   NUPDOWN=      -1.0000    fix difference up-down

 DOS related values:
   EMIN   =  10.00;   EMAX   =-10.00  energy-range for DOS
   EFERMI =   0.00
   ISMEAR =     0;   SIGMA  =   0.05  broadening in eV -4-tet -1-fermi 0-gaus

 Electronic relaxation 2 (details)
   IALGO  =     38    algorithm
   LDIAG  =      T    sub-space diagonalisation (order eigenvalues)
   LSUBROT=      F    optimize rotation matrix (better conditioning)
   TURBO    =      0    0=normal 1=particle mesh
   IRESTART =      0    0=no restart 2=restart with 2 vectors
   NREBOOT  =      0    no. of reboots
   NMIN     =      0    reboot dimension
   EREF     =   0.00    reference energy to select bands
   IMIX   =      4    mixing-type and parameters
     AMIX     =   0.40;   BMIX     =  1.00
     AMIX_MAG =   1.60;   BMIX_MAG =  1.00
     AMIN     =   0.10
     WC   =   100.;   INIMIX=   1;  MIXPRE=   1;  MAXMIX= -45

 Intra band minimization:
   WEIMIN = 0.0000     energy-eigenvalue tresh-hold
   EBREAK =  0.46E-09  absolut break condition
   DEPER  =   0.30     relativ break condition  

   TIME   =   0.40     timestep for ELM

  volume/ion in A,a.u.               =      14.32        96.62
  Fermi-wavevector in a.u.,A,eV,Ry     =   1.368520  2.586127 25.481613  1.872846
  Thomas-Fermi vector in A             =   2.494476
 
 Write flags
   LWAVE        =      F    write WAVECAR
   LDOWNSAMPLE  =      F    k-point downsampling of WAVECAR
   LCHARG       =      T    write CHGCAR
   LVTOT        =      F    write LOCPOT, total local potential
   LVHAR        =      F    write LOCPOT, Hartree potential only
   LELF         =      F    write electronic localiz. function (ELF)
   LORBIT       =      0    0 simple, 1 ext, 2 COOP (PROOUT), +10 PAW based schemes


 Dipole corrections
   LMONO  =      F    monopole corrections only (constant potential shift)
   LDIPOL =      F    correct potential (dipole corrections)
   IDIPOL =      0    1-x, 2-y, 3-z, 4-all directions 
   EPSILON=  1.0000000 bulk dielectric constant

 LDA+U is selected, type is set to LDAUTYPE =  2
   angular momentum for each species LDAUL =    -1   -1   -1    2
   U (eV)           for each species LDAUU =   0.0  0.0  0.0  4.0
   J (eV)           for each species LDAUJ =   0.0  0.0  0.0  0.0
 Exchange correlation treatment:
   GGA     =    PE    GGA type
   LEXCH   =     8    internal setting for exchange type
   VOSKOWN=      0    Vosko Wilk Nusair interpolation
   LHFCALC =     F    Hartree Fock is set to
   LHFONE  =     F    Hartree Fock one center treatment
   AEXX    =    0.0000 exact exchange contribution

 Linear response parameters
   LEPSILON=     F    determine dielectric tensor
   LRPA    =     F    only Hartree local field effects (RPA)
   LNABLA  =     F    use nabla operator in PAW spheres
   LVEL    =     F    velocity operator in full k-point grid
   LINTERFAST=   F  fast interpolation
   KINTER  =     0    interpolate to denser k-point grid
   CSHIFT  =0.1000    complex shift for real part using Kramers Kronig
   OMEGAMAX=  -1.0    maximum frequency
   DEG_THRESHOLD= 0.2000000E-02 threshold for treating states as degnerate
   RTIME   =   -0.100 relaxation time in fs
  (WPLASMAI=    0.000 imaginary part of plasma frequency in eV, 0.658/RTIME)
   DFIELD  = 0.0000000 0.0000000 0.0000000 field for delta impulse in time
 
 Orbital magnetization related:
   ORBITALMAG=     F  switch on orbital magnetization
   LCHIMAG   =     F  perturbation theory with respect to B field
   DQ        =  0.001000  dq finite difference perturbation B field
   LLRAUG    =     F  two centre corrections for induced B field



--------------------------------------------------------------------------------------------------------


 Static calculation
 charge density and potential will be updated during run
 spin polarized calculation
 Variant of blocked Davidson
 Davidson routine will perform the subspace rotation
 perform sub-space diagonalisation
    after iterative eigenvector-optimisation
 modified Broyden-mixing scheme, WC =      100.0
 initial mixing is a Kerker type mixing with AMIX =  0.4000 and BMIX =      1.0000
 Hartree-type preconditioning will be used
 using additional bands          170
 reciprocal scheme for non local part
 use partial core corrections
 calculate Harris-corrections to forces 
   (improved forces if not selfconsistent)
 use gradient corrections 
 use of overlap-Matrix (Vanderbilt PP)
 Gauss-broadening in eV      SIGMA  =   0.05


--------------------------------------------------------------------------------------------------------


  energy-cutoff  :      650.00
  volume of cell :     1259.94
      direct lattice vectors                 reciprocal lattice vectors
    11.112233740  0.000000000 -0.000290340     0.089991547  0.000000000  0.024487024
     0.000000000 11.117451940  0.000000000     0.000000000  0.089948669  0.000000000
    -2.775108980  0.000000000 10.198722210     0.000002562  0.000000000  0.098052196

  length of vectors
    11.112233744 11.117451940 10.569539468     0.093263567  0.089948669  0.098052196


 
 k-points in units of 2pi/SCALE and weight: # No comment                            
   0.00000000  0.00000000  0.00000000       0.037
   0.02999718  0.00000000  0.00816234       0.074
   0.00000000  0.02998289  0.00000000       0.074
   0.02999718  0.02998289  0.00816234       0.074
  -0.02999718  0.02998289 -0.00816234       0.074
   0.00000085  0.00000000  0.03268407       0.074
   0.02999804  0.00000000  0.04084641       0.074
  -0.02999633  0.00000000  0.02452172       0.074
   0.00000085  0.02998289  0.03268407       0.074
   0.02999804  0.02998289  0.04084641       0.074
  -0.02999633  0.02998289  0.02452172       0.074
   0.00000085 -0.02998289  0.03268407       0.074
   0.02999804 -0.02998289  0.04084641       0.074
  -0.02999633 -0.02998289  0.02452172       0.074
 
 k-points in reciprocal lattice and weights: # No comment                            
   0.00000000  0.00000000  0.00000000       0.037
   0.33333333  0.00000000  0.00000000       0.074
   0.00000000  0.33333333  0.00000000       0.074
   0.33333333  0.33333333  0.00000000       0.074
  -0.33333333  0.33333333 -0.00000000       0.074
   0.00000000  0.00000000  0.33333333       0.074
   0.33333333  0.00000000  0.33333333       0.074
  -0.33333333  0.00000000  0.33333333       0.074
   0.00000000  0.33333333  0.33333333       0.074
   0.33333333  0.33333333  0.33333333       0.074
  -0.33333333  0.33333333  0.33333333       0.074
   0.00000000 -0.33333333  0.33333333       0.074
   0.33333333 -0.33333333  0.33333333       0.074
  -0.33333333 -0.33333333  0.33333333       0.074
 
 position of ions in fractional coordinates (direct lattice) 
   0.28894969  0.46933910  0.15583616
   0.78894969  0.46933910  0.15583616
   0.28894969  0.96933910  0.15583616
   0.78894969  0.96933910  0.15583616
   0.04646972  0.21934976  0.18681382
   0.54646972  0.21934976  0.18586770
   0.04646972  0.71934976  0.18586770
   0.54646972  0.71934976  0.18586770
   0.45353028  0.46934976  0.81413230
   0.95353028  0.46934976  0.81413230
   0.45353028  0.96934976  0.81413230
   0.95353028  0.96934976  0.81413230
   0.21105031  0.21933910  0.84416384
   0.71105031  0.21933910  0.84416384
   0.21105031  0.71933910  0.84416384
   0.71105031  0.71933910  0.84416384
   0.07654971  0.09530995  0.80250593
   0.57654971  0.09530995  0.80250593
   0.07654971  0.59530995  0.80250593
   0.57654971  0.59530995  0.80250593
   0.32470466  0.34338175  0.80250383
   0.82470466  0.34338175  0.80250383
   0.32470466  0.84338175  0.80250383
   0.82470466  0.84338175  0.80250383
   0.17529534  0.09338175  0.19749617
   0.67529534  0.09338175  0.19749617
   0.17529534  0.59338175  0.19749617
   0.67529534  0.59338175  0.19749617
   0.42345029  0.34530995  0.19749407
   0.92345029  0.34530995  0.19749407
   0.42345029  0.84530995  0.19749407
   0.92345029  0.84530995  0.19749407
   0.21868463  0.34523395  0.37102476
   0.71868463  0.34523395  0.37102476
   0.21868463  0.84523395  0.37102476
   0.71868463  0.84523395  0.37102476
   0.46681660  0.09344897  0.37102399
   0.96681660  0.09344897  0.37102399
   0.46681660  0.59344897  0.37102399
   0.96681660  0.59344897  0.37102399
   0.03318340  0.34344897  0.62897601
   0.53318340  0.34344897  0.62897601
   0.03318340  0.84344897  0.62897601
   0.53318340  0.84344897  0.62897601
   0.28131537  0.09523395  0.62897524
   0.78131537  0.09523395  0.62897524
   0.28131537  0.59523395  0.62897524
   0.78131537  0.59523395  0.62897524
   0.12439279  0.34434306  0.00000412
   0.62439279  0.34434306  0.00000412
   0.12439279  0.84434306  0.00000412
   0.62439279  0.84434306  0.00000412
   0.37560721  0.09434306  0.99999588
   0.87560721  0.09434306  0.99999588
   0.37560721  0.59434306  0.99999588
   0.87560721  0.59434306  0.99999588
   0.03824426  0.10634799  0.60632306
   0.53824426  0.10634799  0.60632306
   0.03824426  0.60634799  0.60632306
   0.53824426  0.60634799  0.60632306
   0.26492712  0.33232651  0.60632763
   0.76492712  0.33232651  0.60632763
   0.26492712  0.83232651  0.60632763
   0.76492712  0.83232651  0.60632763
   0.23507288  0.08232651  0.39367237
   0.73507288  0.08232651  0.39367237
   0.23507288  0.58232651  0.39367237
   0.73507288  0.58232651  0.39367237
   0.46175574  0.35634799  0.39367694
   0.96175574  0.35634799  0.39367694
   0.46175574  0.85634799  0.39367694
   0.96175574  0.85634799  0.39367694
   0.03848398  0.46936404  0.15397331
   0.53848398  0.46936404  0.15397331
   0.03848398  0.96936404  0.15397331
   0.53848398  0.96936404  0.15397331
   0.28861657  0.21935690  0.15447525
   0.78861657  0.21935690  0.15447525
   0.28861657  0.71935690  0.15447525
   0.78861657  0.71935690  0.15447525
   0.21138343  0.46935690  0.84552475
   0.71138343  0.46935690  0.84552475
   0.21138343  0.96935690  0.84552475
   0.71138343  0.96935690  0.84552475
   0.46151602  0.21936404  0.84602669
   0.96151602  0.21936404  0.84602669
   0.46151602  0.71936404  0.84602669
   0.96151602  0.71936404  0.84602669
 
 position of ions in cartesian coordinates  (Angst):
   2.77841422  5.21785483  1.58924581
   8.33453109  5.21785483  1.58910064
   2.77841422 10.77658080  1.58924581
   8.33453109 10.77658080  1.58910064
  -0.00204636  2.43861041  1.90524871
   5.55669608  2.43861041  1.89545438
   0.00057921  7.99733638  1.89559955
   5.55669608  7.99733638  1.89545438
   2.78042868  5.21797340  8.30297749
   8.33654555  5.21797340  8.30283232
   2.78042868 10.77669937  8.30297749
   8.33654555 10.77669937  8.30283232
   0.00259367  2.43849185  8.60933123
   5.55871054  2.43849185  8.60918606
   0.00259367  7.99721782  8.60933123
   5.55871054  7.99721782  8.60918606
  -1.37640314  1.05960384  8.18451283
   4.17971373  1.05960384  8.18436766
  -1.37640314  6.61832981  8.18451283
   4.17971373  6.61832981  8.18436766
   1.38115855  3.81753010  8.18441936
   6.93727542  3.81753010  8.18427419
   1.38115855  9.37625607  8.18441936
   6.93727542  9.37625607  8.18427419
   1.39984934  1.03816712  2.01415768
   6.95596621  1.03816712  2.01401251
   1.39984934  6.59689309  2.01415768
   6.95596621  6.59689309  2.01401251
   4.15741103  3.83896683  2.01406421
   9.71352790  3.83896683  2.01391904
   4.15741103  9.39769280  2.01406421
   9.71352790  9.39769280  2.01391904
   1.40044058  3.83812185  3.78391497
   6.95655745  3.83812185  3.78376980
   1.40044058  9.39684782  3.78391497
   6.95655745  9.39684782  3.78376980
   4.15774317  1.03891443  3.78383507
   9.71386004  1.03891443  3.78368990
   4.15774317  6.59764040  3.78383507
   9.71386004  6.59764040  3.78368990
  -1.37673528  3.81827742  6.41474197
   4.17938159  3.81827742  6.41459680
  -1.37673528  9.37700339  6.41474197
   4.17938159  9.37700339  6.41459680
   1.38056731  1.05875886  6.41466207
   6.93668418  1.05875886  6.41451690
   1.38056731  6.61748483  6.41466207
   6.93668418  6.61748483  6.41451690
   1.38227032  3.82821742  0.00000590
   6.93838719  3.82821742 -0.00013927
   1.38227032  9.38694339  0.00000590
   6.93838719  9.38694339 -0.00013927
   1.39873757  1.04885444 10.19857114
   6.95485444  1.04885444 10.19842597
   1.39873757  6.60758041 10.19857114
   6.95485444  6.60758041 10.19842597
  -1.25763347  1.18231867  6.18370935
   4.29848340  1.18231867  6.18356418
  -1.25763347  6.74104464  6.18370935
   4.29848340  6.74104464  6.18356418
   1.26130689  3.69462400  6.18369015
   6.81742376  3.69462400  6.18354498
   1.26130689  9.25334997  6.18369015
   6.81742376  9.25334997  6.18354498
   1.51970100  0.91526102  4.01488689
   7.07581787  0.91526102  4.01474172
   1.51970100  6.47398699  4.01488689
   7.07581787  6.47398699  4.01474172
   4.03864136  3.96168165  4.01486769
   9.59475823  3.96168165  4.01472252
   4.03864136  9.52040762  4.01486769
   9.59475823  9.52040762  4.01472252
   0.00035027  5.21813216  1.57031984
   5.55646714  5.21813216  1.57017467
   0.00035027 10.77685813  1.57031984
   5.55646714 10.77685813  1.57017467
   2.77848919  2.43868979  1.57536637
   8.33460606  2.43868979  1.57522120
   2.77848919  7.99741576  1.57536637
   8.33460606  7.99741576  1.57522120
   0.00251870  5.21805278  8.62321067
   5.55863557  5.21805278  8.62306550
   0.00251870 10.77677875  8.62321067
   5.55863557 10.77677875  8.62306550
   2.78065762  2.43876917  8.62825720
   8.33677449  2.43876917  8.62811203
   2.78065762  7.99749514  8.62825720
   8.33677449  7.99749514  8.62811203
 


--------------------------------------------------------------------------------------------------------


 k-point  1 :   0.0000 0.0000 0.0000  plane waves:   47369
 k-point  2 :   0.3333 0.0000 0.0000  plane waves:   47373
 k-point  3 :   0.0000 0.3333 0.0000  plane waves:   47370
 k-point  4 :   0.3333 0.3333 0.0000  plane waves:   47404
 k-point  5 :  -0.3333 0.3333-0.0000  plane waves:   47404
 k-point  6 :   0.0000 0.0000 0.3333  plane waves:   47419
 k-point  7 :   0.3333 0.0000 0.3333  plane waves:   47399
 k-point  8 :  -0.3333 0.0000 0.3333  plane waves:   47417
 k-point  9 :   0.0000 0.3333 0.3333  plane waves:   47409
 k-point 10 :   0.3333 0.3333 0.3333  plane waves:   47422
 k-point 11 :  -0.3333 0.3333 0.3333  plane waves:   47440
 k-point 12 :   0.0000-0.3333 0.3333  plane waves:   47409
 k-point 13 :   0.3333-0.3333 0.3333  plane waves:   47422
 k-point 14 :  -0.3333-0.3333 0.3333  plane waves:   47440

 maximum and minimum number of plane-waves per node :      7942     7858

 maximum number of plane-waves:     47440
 maximum index in each direction: 
   IXMAX=   23   IYMAX=   23   IZMAX=   21
   IXMIN=  -23   IYMIN=  -23   IZMIN=  -22


 parallel 3D FFT for wavefunctions:
    minimum data exchange during FFTs selected (reduces bandwidth)
 parallel 3D FFT for charge:
    minimum data exchange during FFTs selected (reduces bandwidth)


 total amount of memory used by VASP MPI-rank0  1233264. kBytes
=======================================================================

   base      :      30000. kBytes
   nonl-proj :      75226. kBytes
   fftplans  :      85054. kBytes
   grid      :      64684. kBytes
   one-center:        466. kBytes
   wavefun   :     977834. kBytes
 
     INWAV:  cpu time    0.0000: real time    0.0000
 Broyden mixing: mesh for mixing (old mesh)
   NGX = 47   NGY = 47   NGZ = 43
  (NGX  =192   NGY  =192   NGZ  =180)
  gives a total of  94987 points

 initial charge density was supplied:
 number of electron     736.0000016 magnetization     127.9999885
 keeping initial charge density in first step


--------------------------------------------------------------------------------------------------------


 Maximum index for augmentation-charges        13229 (set IRDMAX)


--------------------------------------------------------------------------------------------------------


 First call to EWALD:  gamma=   0.164
 Maximum number of real-space cells 3x 3x 3
 Maximum number of reciprocal cells 3x 3x 3

    FEWALD:  cpu time    0.0047: real time    0.0049


--------------------------------------- Iteration      1(   1)  ---------------------------------------


    POTLOK:  cpu time    1.0394: real time    1.2648
    SETDIJ:  cpu time    2.2894: real time    2.2934
     EDDAV:  cpu time  316.9334: real time  319.8124
       DOS:  cpu time    0.0079: real time    0.0079
    --------------------------------------------
      LOOP:  cpu time  320.2702: real time  323.3785

 eigenvalue-minimisations  : 30944
 total energy-change (2. order) : 0.1040965E+05  (-0.4118849E+05)
 number of electron     736.0000016 magnetization     127.9999885
 augmentation part      736.0000016 magnetization     127.9999885

 Free energy of the ion-electron system (eV)
  ---------------------------------------------------
  alpha Z        PSCENC =      2314.49656628
  Ewald energy   TEWEN  =    -57722.79605251
  -Hartree energ DENC   =    -30349.10307340
  -exchange      EXHF   =         0.00000000
  -V(xc)+E(xc)   XCENC  =      3229.30015349
  PAW double counting   =     92679.89207989   -95535.38516353
  entropy T*S    EENTRO =        -0.01838049
  eigenvalues    EBANDS =       349.78278335
  atomic energy  EATOM  =     95443.47970955
  Solvation  Ediel_sol  =         0.00000000
  ---------------------------------------------------
  free energy    TOTEN  =     10409.64862262 eV

  energy without entropy =    10409.66700311  energy(sigma->0) =    10409.65781287


--------------------------------------------------------------------------------------------------------




--------------------------------------- Iteration      1(   2)  ---------------------------------------


     EDDAV:  cpu time  310.2091: real time  313.0378
       DOS:  cpu time    0.0083: real time    0.0083
    --------------------------------------------
      LOOP:  cpu time  310.2175: real time  313.0461

 eigenvalue-minimisations  : 30128
 total energy-change (2. order) :-0.9232171E+04  (-0.8658372E+04)
 number of electron     736.0000016 magnetization     127.9999885
 augmentation part      736.0000016 magnetization     127.9999885

 Free energy of the ion-electron system (eV)
  ---------------------------------------------------
  alpha Z        PSCENC =      2314.49656628
  Ewald energy   TEWEN  =    -57722.79605251
  -Hartree energ DENC   =    -30349.10307340
  -exchange      EXHF   =         0.00000000
  -V(xc)+E(xc)   XCENC  =      3229.30015349
  PAW double counting   =     92679.89207989   -95535.38516353
  entropy T*S    EENTRO =        -0.06575623
  eigenvalues    EBANDS =     -8882.34064486
  atomic energy  EATOM  =     95443.47970955
  Solvation  Ediel_sol  =         0.00000000
  ---------------------------------------------------
  free energy    TOTEN  =      1177.47781867 eV

  energy without entropy =     1177.54357491  energy(sigma->0) =     1177.51069679


--------------------------------------------------------------------------------------------------------




--------------------------------------- Iteration      1(   3)  ---------------------------------------


     EDDAV:  cpu time  328.2653: real time  331.4386
       DOS:  cpu time    0.0024: real time    0.0024
    --------------------------------------------
      LOOP:  cpu time  328.2677: real time  331.4410

 eigenvalue-minimisations  : 32368
 total energy-change (2. order) :-0.1485596E+04  (-0.1278914E+04)
 number of electron     736.0000016 magnetization     127.9999885
 augmentation part      736.0000016 magnetization     127.9999885

 Free energy of the ion-electron system (eV)
  ---------------------------------------------------
  alpha Z        PSCENC =      2314.49656628
  Ewald energy   TEWEN  =    -57722.79605251
  -Hartree energ DENC   =    -30349.10307340
  -exchange      EXHF   =         0.00000000
  -V(xc)+E(xc)   XCENC  =      3229.30015349
  PAW double counting   =     92679.89207989   -95535.38516353
  entropy T*S    EENTRO =        -0.00000000
  eigenvalues    EBANDS =    -10368.00239865
  atomic energy  EATOM  =     95443.47970955
  Solvation  Ediel_sol  =         0.00000000
  ---------------------------------------------------
  free energy    TOTEN  =      -308.11817889 eV

  energy without entropy =     -308.11817889  energy(sigma->0) =     -308.11817889


--------------------------------------------------------------------------------------------------------




--------------------------------------- Iteration      1(   4)  ---------------------------------------


     EDDAV:  cpu time  348.9279: real time  352.3915
       DOS:  cpu time    0.0025: real time    0.0025
    --------------------------------------------
      LOOP:  cpu time  348.9305: real time  352.3941

 eigenvalue-minimisations  : 34984
 total energy-change (2. order) :-0.1681823E+03  (-0.1654282E+03)
 number of electron     736.0000016 magnetization     127.9999885
 augmentation part      736.0000016 magnetization     127.9999885

 Free energy of the ion-electron system (eV)
  ---------------------------------------------------
  alpha Z        PSCENC =      2314.49656628
  Ewald energy   TEWEN  =    -57722.79605251
  -Hartree energ DENC   =    -30349.10307340
  -exchange      EXHF   =         0.00000000
  -V(xc)+E(xc)   XCENC  =      3229.30015349
  PAW double counting   =     92679.89207989   -95535.38516353
  entropy T*S    EENTRO =        -0.00000000
  eigenvalues    EBANDS =    -10536.18465710
  atomic energy  EATOM  =     95443.47970955
  Solvation  Ediel_sol  =         0.00000000
  ---------------------------------------------------
  free energy    TOTEN  =      -476.30043733 eV

  energy without entropy =     -476.30043733  energy(sigma->0) =     -476.30043733


--------------------------------------------------------------------------------------------------------




--------------------------------------- Iteration      1(   5)  ---------------------------------------


     EDDAV:  cpu time  462.2319: real time  466.9851
       DOS:  cpu time    0.0025: real time    0.0026
    CHARGE:  cpu time    9.2547: real time    9.3134
    MIXING:  cpu time    0.0718: real time    0.0724
    --------------------------------------------
      LOOP:  cpu time  471.5609: real time  476.3735

 eigenvalue-minimisations  : 49824
 total energy-change (2. order) :-0.1243384E+02  (-0.1231051E+02)
 number of electron     736.0000016 magnetization     127.9999932
 augmentation part      278.4629237 magnetization      84.1338190

 Broyden mixing:
  rms(total) = 0.20679E+00    rms(broyden)= 0.20663E+00
  rms(prec ) = 0.21021E+00
  weight for this iteration     100.00

 Free energy of the ion-electron system (eV)
  ---------------------------------------------------
  alpha Z        PSCENC =      2314.49656628
  Ewald energy   TEWEN  =    -57722.79605251
  -Hartree energ DENC   =    -30349.10307340
  -exchange      EXHF   =         0.00000000
  -V(xc)+E(xc)   XCENC  =      3229.30015349
  PAW double counting   =     92679.89207989   -95535.38516353
  entropy T*S    EENTRO =        -0.00000000
  eigenvalues    EBANDS =    -10548.61849950
  atomic energy  EATOM  =     95443.47970955
  Solvation  Ediel_sol  =         0.00000000
  ---------------------------------------------------
  free energy    TOTEN  =      -488.73427974 eV

  energy without entropy =     -488.73427974  energy(sigma->0) =     -488.73427974


--------------------------------------------------------------------------------------------------------




--------------------------------------- Iteration      1(   6)  ---------------------------------------


    POTLOK:  cpu time    1.0029: real time    1.0748
    SETDIJ:  cpu time    2.2833: real time    2.2976
     EDDAV:  cpu time  403.4825: real time  407.4141
       DOS:  cpu time    0.0027: real time    0.0028
    CHARGE:  cpu time    9.3452: real time    9.4171
    MIXING:  cpu time    0.0281: real time    0.0289
    --------------------------------------------
      LOOP:  cpu time  416.1447: real time  420.2352

 eigenvalue-minimisations  : 42024
 total energy-change (2. order) :-0.4664668E+00  (-0.4805426E+00)
 number of electron     736.0000016 magnetization     127.9999951
 augmentation part      277.9607500 magnetization      84.1626745

 Broyden mixing:
  rms(total) = 0.10178E+00    rms(broyden)= 0.10162E+00
  rms(prec ) = 0.10246E+00
  weight for this iteration     100.00

 eigenvalues of (default mixing * dielectric matrix)
  average eigenvalue GAMMA=   0.6597
  0.6597

 Free energy of the ion-electron system (eV)
  ---------------------------------------------------
  alpha Z        PSCENC =      2314.49656628
  Ewald energy   TEWEN  =    -57722.79605251
  -Hartree energ DENC   =    -30347.26847571
  -exchange      EXHF   =         0.00000000
  -V(xc)+E(xc)   XCENC  =      3228.99966484
  PAW double counting   =     92523.43930167   -95377.27761163
  entropy T*S    EENTRO =        -0.00000000
  eigenvalues    EBANDS =    -10552.27384905
  atomic energy  EATOM  =     95443.47970955
  Solvation  Ediel_sol  =         0.00000000
  ---------------------------------------------------
  free energy    TOTEN  =      -489.20074657 eV

  energy without entropy =     -489.20074657  energy(sigma->0) =     -489.20074657


--------------------------------------------------------------------------------------------------------




--------------------------------------- Iteration      1(   7)  ---------------------------------------


    POTLOK:  cpu time    1.0517: real time    1.0543
    SETDIJ:  cpu time    2.2976: real time    2.3094
     EDDAV:  cpu time  434.0682: real time  438.0931
       DOS:  cpu time    0.0027: real time    0.0027
    CHARGE:  cpu time    9.3402: real time    9.3962
    MIXING:  cpu time    0.0391: real time    0.0408
    --------------------------------------------
      LOOP:  cpu time  446.7994: real time  450.8964

 eigenvalue-minimisations  : 46360
 total energy-change (2. order) :-0.1666247E-01  (-0.1751482E-01)
 number of electron     736.0000016 magnetization     127.9999959
 augmentation part      277.8798060 magnetization      84.1542859

 Broyden mixing:
  rms(total) = 0.58713E-01    rms(broyden)= 0.58671E-01
  rms(prec ) = 0.60123E-01
  weight for this iteration     100.00

 eigenvalues of (default mixing * dielectric matrix)
  average eigenvalue GAMMA=   0.5812
  0.5812  0.5812

 Free energy of the ion-electron system (eV)
  ---------------------------------------------------
  alpha Z        PSCENC =      2314.49656628
  Ewald energy   TEWEN  =    -57722.79605251
  -Hartree energ DENC   =    -30348.21329423
  -exchange      EXHF   =         0.00000000
  -V(xc)+E(xc)   XCENC  =      3229.08562737
  PAW double counting   =     92580.89034459   -95435.30705992
  entropy T*S    EENTRO =        -0.00000000
  eigenvalues    EBANDS =    -10550.85325016
  atomic energy  EATOM  =     95443.47970955
  Solvation  Ediel_sol  =         0.00000000
  ---------------------------------------------------
  free energy    TOTEN  =      -489.21740904 eV

  energy without entropy =     -489.21740904  energy(sigma->0) =     -489.21740904


--------------------------------------------------------------------------------------------------------




--------------------------------------- Iteration      1(   8)  ---------------------------------------


    POTLOK:  cpu time    1.0449: real time    1.0598
    SETDIJ:  cpu time    2.2554: real time    2.3005
     EDDAV:  cpu time  405.0918: real time  409.3666
       DOS:  cpu time    0.0030: real time    0.0030
    CHARGE:  cpu time    9.2272: real time    9.3850
    MIXING:  cpu time    0.0377: real time    0.0385
    --------------------------------------------
      LOOP:  cpu time  417.6600: real time  422.1534

 eigenvalue-minimisations  : 42648
 total energy-change (2. order) : 0.4692875E-03  (-0.3750075E-03)
 number of electron     736.0000016 magnetization     127.9999962
 augmentation part      277.8713572 magnetization      84.1566232

 Broyden mixing:
  rms(total) = 0.52437E-01    rms(broyden)= 0.52433E-01
  rms(prec ) = 0.53675E-01
  weight for this iteration     100.00

 eigenvalues of (default mixing * dielectric matrix)
  average eigenvalue GAMMA=   0.5437
  0.6023  0.6023  0.4265

 Free energy of the ion-electron system (eV)
  ---------------------------------------------------
  alpha Z        PSCENC =      2314.49656628
  Ewald energy   TEWEN  =    -57722.79605251
  -Hartree energ DENC   =    -30348.17078534
  -exchange      EXHF   =         0.00000000
  -V(xc)+E(xc)   XCENC  =      3229.11468759
  PAW double counting   =     92594.60726237   -95449.15824379
  entropy T*S    EENTRO =        -0.00000000
  eigenvalues    EBANDS =    -10550.79008390
  atomic energy  EATOM  =     95443.47970955
  Solvation  Ediel_sol  =         0.00000000
  ---------------------------------------------------
  free energy    TOTEN  =      -489.21693975 eV

  energy without entropy =     -489.21693975  energy(sigma->0) =     -489.21693975


--------------------------------------------------------------------------------------------------------




--------------------------------------- Iteration      1(   9)  ---------------------------------------


    POTLOK:  cpu time    1.0436: real time    1.0562
    SETDIJ:  cpu time    2.2971: real time    2.3146
     EDDAV:  cpu time  438.6007: real time  442.7636
       DOS:  cpu time    0.0029: real time    0.0029
    CHARGE:  cpu time    9.4329: real time    9.4437
    MIXING:  cpu time    0.0417: real time    0.0417
    --------------------------------------------
      LOOP:  cpu time  451.4189: real time  455.6227

 eigenvalue-minimisations  : 46880
 total energy-change (2. order) : 0.3470430E-03  (-0.2123299E-04)
 number of electron     736.0000016 magnetization     127.9999969
 augmentation part      277.8734160 magnetization      84.1565786

 Broyden mixing:
  rms(total) = 0.47336E-01    rms(broyden)= 0.47336E-01
  rms(prec ) = 0.48429E-01
  weight for this iteration     100.00

 eigenvalues of (default mixing * dielectric matrix)
  average eigenvalue GAMMA=   0.5608
  0.6544  0.6544  0.4672  0.4672

 Free energy of the ion-electron system (eV)
  ---------------------------------------------------
  alpha Z        PSCENC =      2314.49656628
  Ewald energy   TEWEN  =    -57722.79605251
  -Hartree energ DENC   =    -30348.23230260
  -exchange      EXHF   =         0.00000000
  -V(xc)+E(xc)   XCENC  =      3229.13319794
  PAW double counting   =     92600.89906423   -95455.53537166
  entropy T*S    EENTRO =        -0.00000000
  eigenvalues    EBANDS =    -10550.66140394
  atomic energy  EATOM  =     95443.47970955
  Solvation  Ediel_sol  =         0.00000000
  ---------------------------------------------------
  free energy    TOTEN  =      -489.21659271 eV

  energy without entropy =     -489.21659271  energy(sigma->0) =     -489.21659271


--------------------------------------------------------------------------------------------------------




--------------------------------------- Iteration      1(  10)  ---------------------------------------


    POTLOK:  cpu time    1.0471: real time    1.0496
    SETDIJ:  cpu time    2.2643: real time    2.2942
     EDDAV:  cpu time  411.7210: real time  418.4953
       DOS:  cpu time    0.0030: real time    0.0031
    CHARGE:  cpu time    9.2756: real time    9.4103
    MIXING:  cpu time    0.0394: real time    0.0395
    --------------------------------------------
      LOOP:  cpu time  424.3505: real time  431.2920

 eigenvalue-minimisations  : 43048
 total energy-change (2. order) : 0.4347349E-03  (-0.1106101E-04)
 number of electron     736.0000016 magnetization     127.9999985
 augmentation part      277.8775709 magnetization      84.1571153

 Broyden mixing:
  rms(total) = 0.39675E-01    rms(broyden)= 0.39675E-01
  rms(prec ) = 0.40521E-01
  weight for this iteration     100.00

 eigenvalues of (default mixing * dielectric matrix)
  average eigenvalue GAMMA=   0.8270
  1.2347  1.2347  0.5900  0.5900  0.4857

 Free energy of the ion-electron system (eV)
  ---------------------------------------------------
  alpha Z        PSCENC =      2314.49656628
  Ewald energy   TEWEN  =    -57722.79605251
  -Hartree energ DENC   =    -30348.38372695
  -exchange      EXHF   =         0.00000000
  -V(xc)+E(xc)   XCENC  =      3229.16467310
  PAW double counting   =     92612.17304955   -95466.96012164
  entropy T*S    EENTRO =        -0.00000000
  eigenvalues    EBANDS =    -10550.39025536
  atomic energy  EATOM  =     95443.47970955
  Solvation  Ediel_sol  =         0.00000000
  ---------------------------------------------------
  free energy    TOTEN  =      -489.21615798 eV

  energy without entropy =     -489.21615798  energy(sigma->0) =     -489.21615798


--------------------------------------------------------------------------------------------------------




--------------------------------------- Iteration      1(  11)  ---------------------------------------


    POTLOK:  cpu time    1.0339: real time    1.0621
    SETDIJ:  cpu time    2.2746: real time    2.2997
     EDDAV:  cpu time  412.9817: real time  417.2482
       DOS:  cpu time    0.0025: real time    0.0025
    CHARGE:  cpu time    9.2931: real time    9.3675
    MIXING:  cpu time    0.0354: real time    0.0401
    --------------------------------------------
      LOOP:  cpu time  425.6213: real time  430.0202

 eigenvalue-minimisations  : 43440
 total energy-change (2. order) : 0.6408859E-03  (-0.3599415E-04)
 number of electron     736.0000016 magnetization     127.9999990
 augmentation part      277.8842762 magnetization      84.1579574

 Broyden mixing:
  rms(total) = 0.21446E-01    rms(broyden)= 0.21445E-01
  rms(prec ) = 0.21768E-01
  weight for this iteration     100.00

 eigenvalues of (default mixing * dielectric matrix)
  average eigenvalue GAMMA=   0.8538
  1.3907  1.3907  0.6590  0.6590  0.5116  0.5116

 Free energy of the ion-electron system (eV)
  ---------------------------------------------------
  alpha Z        PSCENC =      2314.49656628
  Ewald energy   TEWEN  =    -57722.79605251
  -Hartree energ DENC   =    -30348.73833700
  -exchange      EXHF   =         0.00000000
  -V(xc)+E(xc)   XCENC  =      3229.23702224
  PAW double counting   =     92640.95384351   -95496.09779015
  entropy T*S    EENTRO =        -0.00000000
  eigenvalues    EBANDS =    -10549.75047901
  atomic energy  EATOM  =     95443.47970955
  Solvation  Ediel_sol  =         0.00000000
  ---------------------------------------------------
  free energy    TOTEN  =      -489.21551709 eV

  energy without entropy =     -489.21551709  energy(sigma->0) =     -489.21551709


--------------------------------------------------------------------------------------------------------




--------------------------------------- Iteration      1(  12)  ---------------------------------------


    POTLOK:  cpu time    1.0458: real time    1.0605
    SETDIJ:  cpu time    2.2727: real time    2.3258
     EDDAV:  cpu time  367.0808: real time  370.6830
       DOS:  cpu time    0.0026: real time    0.0026
    CHARGE:  cpu time    9.3319: real time    9.3784
    MIXING:  cpu time    0.0370: real time    0.0403
    --------------------------------------------
      LOOP:  cpu time  379.7709: real time  383.4906

 eigenvalue-minimisations  : 37424
 total energy-change (2. order) : 0.7185373E-04  (-0.2131084E-04)
 number of electron     736.0000016 magnetization     127.9999990
 augmentation part      277.8874819 magnetization      84.1578343

 Broyden mixing:
  rms(total) = 0.15360E-01    rms(broyden)= 0.15359E-01
  rms(prec ) = 0.15544E-01
  weight for this iteration     100.00

 eigenvalues of (default mixing * dielectric matrix)
  average eigenvalue GAMMA=   0.8218
  1.4513  1.4513  0.7038  0.7038  0.5118  0.5118  0.4191

 Free energy of the ion-electron system (eV)
  ---------------------------------------------------
  alpha Z        PSCENC =      2314.49656628
  Ewald energy   TEWEN  =    -57722.79605251
  -Hartree energ DENC   =    -30348.84021496
  -exchange      EXHF   =         0.00000000
  -V(xc)+E(xc)   XCENC  =      3229.25764183
  PAW double counting   =     92650.91553561   -95506.16359107
  entropy T*S    EENTRO =        -0.00000000
  eigenvalues    EBANDS =    -10549.56503996
  atomic energy  EATOM  =     95443.47970955
  Solvation  Ediel_sol  =         0.00000000
  ---------------------------------------------------
  free energy    TOTEN  =      -489.21544524 eV

  energy without entropy =     -489.21544524  energy(sigma->0) =     -489.21544524


--------------------------------------------------------------------------------------------------------




--------------------------------------- Iteration      1(  13)  ---------------------------------------


    POTLOK:  cpu time    1.0518: real time    1.0628
    SETDIJ:  cpu time    2.2774: real time    2.2976
     EDDAV:  cpu time  380.9260: real time  384.8256
       DOS:  cpu time    0.0026: real time    0.0026
    CHARGE:  cpu time    9.3700: real time    9.4190
    MIXING:  cpu time    0.0372: real time    0.0379
    --------------------------------------------
      LOOP:  cpu time  393.6650: real time  397.6454

 eigenvalue-minimisations  : 39384
 total energy-change (2. order) :-0.8134535E-05  (-0.3642523E-05)
 number of electron     736.0000016 magnetization     127.9999992
 augmentation part      277.8892746 magnetization      84.1578384

 Broyden mixing:
  rms(total) = 0.14844E-01    rms(broyden)= 0.14843E-01
  rms(prec ) = 0.15017E-01
  weight for this iteration     100.00

 eigenvalues of (default mixing * dielectric matrix)
  average eigenvalue GAMMA=   0.8756
  1.6500  1.6500  0.8457  0.8457  0.5473  0.5473  0.4593  0.4593

 Free energy of the ion-electron system (eV)
  ---------------------------------------------------
  alpha Z        PSCENC =      2314.49656628
  Ewald energy   TEWEN  =    -57722.79605251
  -Hartree energ DENC   =    -30348.84724704
  -exchange      EXHF   =         0.00000000
  -V(xc)+E(xc)   XCENC  =      3229.25805102
  PAW double counting   =     92651.83831916   -95507.08830408
  entropy T*S    EENTRO =        -0.00000000
  eigenvalues    EBANDS =    -10549.55649575
  atomic energy  EATOM  =     95443.47970955
  Solvation  Ediel_sol  =         0.00000000
  ---------------------------------------------------
  free energy    TOTEN  =      -489.21545337 eV

  energy without entropy =     -489.21545337  energy(sigma->0) =     -489.21545337


--------------------------------------------------------------------------------------------------------




--------------------------------------- Iteration      1(  14)  ---------------------------------------


    POTLOK:  cpu time    1.0476: real time    1.0518
    SETDIJ:  cpu time    2.2945: real time    2.3028
     EDDAV:  cpu time  251.7822: real time  254.3179
       DOS:  cpu time    0.0026: real time    0.0026
    CHARGE:  cpu time    9.3083: real time    9.3929
    MIXING:  cpu time    0.0439: real time    0.0439
    --------------------------------------------
      LOOP:  cpu time  264.4791: real time  267.1118

 eigenvalue-minimisations  : 22392
 total energy-change (2. order) : 0.2150511E-05  (-0.6001665E-07)
 number of electron     736.0000016 magnetization     128.0000003
 augmentation part      277.8893055 magnetization      84.1578300

 Broyden mixing:
  rms(total) = 0.13304E-01    rms(broyden)= 0.13304E-01
  rms(prec ) = 0.13487E-01
  weight for this iteration     100.00

 eigenvalues of (default mixing * dielectric matrix)
  average eigenvalue GAMMA=   1.0982
  2.4119  2.4119  1.0552  1.0552  0.6775  0.6775  0.5604  0.5604  0.4737

 Free energy of the ion-electron system (eV)
  ---------------------------------------------------
  alpha Z        PSCENC =      2314.49656628
  Ewald energy   TEWEN  =    -57722.79605251
  -Hartree energ DENC   =    -30348.86609013
  -exchange      EXHF   =         0.00000000
  -V(xc)+E(xc)   XCENC  =      3229.26055969
  PAW double counting   =     92655.17878675   -95510.44770749
  entropy T*S    EENTRO =        -0.00000000
  eigenvalues    EBANDS =    -10549.52122336
  atomic energy  EATOM  =     95443.47970955
  Solvation  Ediel_sol  =         0.00000000
  ---------------------------------------------------
  free energy    TOTEN  =      -489.21545122 eV

  energy without entropy =     -489.21545122  energy(sigma->0) =     -489.21545122


--------------------------------------------------------------------------------------------------------




--------------------------------------- Iteration      1(  15)  ---------------------------------------


    POTLOK:  cpu time    1.0513: real time    1.0521
    SETDIJ:  cpu time    2.2923: real time    2.2934
     EDDAV:  cpu time  388.4977: real time  392.1430
       DOS:  cpu time    0.0025: real time    0.0025
    CHARGE:  cpu time    9.2839: real time    9.3797
    MIXING:  cpu time    0.0395: real time    0.0395
    --------------------------------------------
      LOOP:  cpu time  401.1673: real time  404.9103

 eigenvalue-minimisations  : 40328
 total energy-change (2. order) : 0.6126855E-04  (-0.4538639E-05)
 number of electron     736.0000016 magnetization     128.0000004
 augmentation part      277.8908065 magnetization      84.1584389

 Broyden mixing:
  rms(total) = 0.25262E-02    rms(broyden)= 0.25236E-02
  rms(prec ) = 0.25684E-02
  weight for this iteration     100.00

 eigenvalues of (default mixing * dielectric matrix)
  average eigenvalue GAMMA=   1.0586
  2.3661  2.3661  1.1219  1.1219  0.7388  0.7388  0.5881  0.5881  0.4546  0.5016

 Free energy of the ion-electron system (eV)
  ---------------------------------------------------
  alpha Z        PSCENC =      2314.49656628
  Ewald energy   TEWEN  =    -57722.79605251
  -Hartree energ DENC   =    -30349.06362103
  -exchange      EXHF   =         0.00000000
  -V(xc)+E(xc)   XCENC  =      3229.29396876
  PAW double counting   =     92675.55047316   -95531.00528113
  entropy T*S    EENTRO =        -0.00000000
  eigenvalues    EBANDS =    -10549.17115303
  atomic energy  EATOM  =     95443.47970955
  Solvation  Ediel_sol  =         0.00000000
  ---------------------------------------------------
  free energy    TOTEN  =      -489.21538995 eV

  energy without entropy =     -489.21538995  energy(sigma->0) =     -489.21538995


--------------------------------------------------------------------------------------------------------




--------------------------------------- Iteration      1(  16)  ---------------------------------------


    POTLOK:  cpu time    1.0492: real time    1.0505
    SETDIJ:  cpu time    2.2912: real time    2.3019
     EDDAV:  cpu time  321.7878: real time  325.2095
       DOS:  cpu time    0.0027: real time    0.0027
    CHARGE:  cpu time    9.2769: real time    9.4362
    MIXING:  cpu time    0.0426: real time    0.0489
    --------------------------------------------
      LOOP:  cpu time  334.4504: real time  338.0497

 eigenvalue-minimisations  : 31592
 total energy-change (2. order) :-0.1120075E-05  (-0.3648749E-05)
 number of electron     736.0000016 magnetization     128.0000004
 augmentation part      277.8922656 magnetization      84.1580102

 Broyden mixing:
  rms(total) = 0.12459E-02    rms(broyden)= 0.12406E-02
  rms(prec ) = 0.12513E-02
  weight for this iteration     100.00

 eigenvalues of (default mixing * dielectric matrix)
  average eigenvalue GAMMA=   1.0189
  2.3979  2.3979  1.1431  1.1431  0.7500  0.7500  0.5848  0.5848  0.4814  0.4874
  0.4874

 Free energy of the ion-electron system (eV)
  ---------------------------------------------------
  alpha Z        PSCENC =      2314.49656628
  Ewald energy   TEWEN  =    -57722.79605251
  -Hartree energ DENC   =    -30349.08797204
  -exchange      EXHF   =         0.00000000
  -V(xc)+E(xc)   XCENC  =      3229.29804023
  PAW double counting   =     92677.67162079   -95533.14764287
  entropy T*S    EENTRO =        -0.00000000
  eigenvalues    EBANDS =    -10549.12966049
  atomic energy  EATOM  =     95443.47970955
  Solvation  Ediel_sol  =         0.00000000
  ---------------------------------------------------
  free energy    TOTEN  =      -489.21539107 eV

  energy without entropy =     -489.21539107  energy(sigma->0) =     -489.21539107


--------------------------------------------------------------------------------------------------------




--------------------------------------- Iteration      1(  17)  ---------------------------------------


    POTLOK:  cpu time    1.0477: real time    1.0497
    SETDIJ:  cpu time    2.2728: real time    2.2831
     EDDAV:  cpu time  260.4137: real time  263.0150
       DOS:  cpu time    0.0024: real time    0.0024
    --------------------------------------------
      LOOP:  cpu time  263.7366: real time  266.3502

 eigenvalue-minimisations  : 23816
 total energy-change (2. order) :-0.4506874E-06  (-0.1452978E-06)
 number of electron     736.0000016 magnetization     128.0000004
 augmentation part      277.8922656 magnetization      84.1580102

 Free energy of the ion-electron system (eV)
  ---------------------------------------------------
  alpha Z        PSCENC =      2314.49656628
  Ewald energy   TEWEN  =    -57722.79605251
  -Hartree energ DENC   =    -30349.08805229
  -exchange      EXHF   =         0.00000000
  -V(xc)+E(xc)   XCENC  =      3229.29826117
  PAW double counting   =     92678.35322449   -95533.83192576
  entropy T*S    EENTRO =        -0.00000000
  eigenvalues    EBANDS =    -10549.12712245
  atomic energy  EATOM  =     95443.47970955
  Solvation  Ediel_sol  =         0.00000000
  ---------------------------------------------------
  free energy    TOTEN  =      -489.21539152 eV

  energy without entropy =     -489.21539152  energy(sigma->0) =     -489.21539152


--------------------------------------------------------------------------------------------------------




 average (electrostatic) potential at core
  the test charge radii are     0.7079  0.7215  0.9698  0.9500
  (the norm of the test charge is              1.0000)
       1 -58.9484       2 -58.9497       3 -58.9492       4 -58.9491       5 -58.9468
       6 -58.9482       7 -58.9485       8 -58.9482       9 -58.9484      10 -58.9476
      11 -58.9482      12 -58.9480      13 -58.9482      14 -58.9485      15 -58.9492
      16 -58.9490      17 -69.8158      18 -69.8160      19 -69.8159      20 -69.8163
      21 -69.8160      22 -69.8158      23 -69.8164      24 -69.8160      25 -69.8154
      26 -69.8166      27 -69.8163      28 -69.8165      29 -69.8162      30 -69.8180
      31 -69.8164      32 -69.8165      33 -85.5819      34 -85.5802      35 -85.5800
      36 -85.5802      37 -85.5800      38 -85.5830      39 -85.5802      40 -85.5802
      41 -85.5800      42 -85.5801      43 -85.5802      44 -85.5799      45 -85.5802
      46 -85.5799      47 -85.5800      48 -85.5799      49 -85.6349      50 -85.6388
      51 -85.6386      52 -85.6385      53 -85.6385      54 -85.6361      55 -85.6384
      56 -85.6387      57 -78.5750      58 -78.5742      59 -78.5743      60 -78.5743
      61 -78.5746      62 -78.5741      63 -78.5743      64 -78.5742      65 -78.5748
      66 -78.5749      67 -78.5747      68 -78.5744      69 -78.5748      70 -78.5756
      71 -78.5744      72 -78.5751      73 -78.5817      74 -78.5820      75 -78.5815
      76 -78.5820      77 -78.5903      78 -78.5919      79 -78.5915      80 -78.5916
      81 -78.5902      82 -78.5915      83 -78.5914      84 -78.5906      85 -78.5819
      86 -78.5801      87 -78.5819      88 -78.5819
 
 
 
 E-fermi :   5.1975     XC(G=0): -10.4849     alpha+bet :-11.8156


 spin component 1

 k-point     1 :       0.0000    0.0000    0.0000
  band No.  band energies     occupation 
      1     -51.0554      1.00000
      2     -51.0551      1.00000
      3     -51.0549      1.00000
      4     -51.0547      1.00000
      5     -51.0543      1.00000
      6     -51.0542      1.00000
      7     -51.0541      1.00000
      8     -51.0538      1.00000
      9     -51.0532      1.00000
     10     -51.0529      1.00000
     11     -51.0529      1.00000
     12     -51.0527      1.00000
     13     -51.0527      1.00000
     14     -51.0519      1.00000
     15     -51.0515      1.00000
     16     -51.0507      1.00000
     17     -51.0446      1.00000
     18     -51.0442      1.00000
     19     -51.0441      1.00000
     20     -51.0440      1.00000
     21     -51.0439      1.00000
     22     -51.0434      1.00000
     23     -51.0431      1.00000
     24     -51.0430      1.00000
     25     -51.0395      1.00000
     26     -51.0394      1.00000
     27     -51.0393      1.00000
     28     -51.0393      1.00000
     29     -51.0393      1.00000
     30     -51.0392      1.00000
     31     -51.0390      1.00000
     32     -51.0379      1.00000
     33     -49.7020      1.00000
     34     -49.7017      1.00000
     35     -49.7016      1.00000
     36     -49.7015      1.00000
     37     -49.7015      1.00000
     38     -49.7006      1.00000
     39     -49.7005      1.00000
     40     -49.7003      1.00000
     41     -49.6941      1.00000
     42     -49.6940      1.00000
     43     -49.6940      1.00000
     44     -49.6939      1.00000
     45     -49.6939      1.00000
     46     -49.6938      1.00000
     47     -49.6936      1.00000
     48     -49.6922      1.00000
     49     -49.5992      1.00000
     50     -49.5985      1.00000
     51     -49.5980      1.00000
     52     -49.5980      1.00000
     53     -49.5979      1.00000
     54     -49.5977      1.00000
     55     -49.5976      1.00000
     56     -49.5971      1.00000
     57     -49.5969      1.00000
     58     -49.5968      1.00000
     59     -49.5967      1.00000
     60     -49.5965      1.00000
     61     -49.5964      1.00000
     62     -49.5964      1.00000
     63     -49.5963      1.00000
     64     -49.5962      1.00000
     65     -49.5678      1.00000
     66     -49.5670      1.00000
     67     -49.5669      1.00000
     68     -49.5666      1.00000
     69     -49.5666      1.00000
     70     -49.5664      1.00000
     71     -49.5662      1.00000
     72     -49.5654      1.00000
     73     -49.5651      1.00000
     74     -49.5649      1.00000
     75     -49.5648      1.00000
     76     -49.5648      1.00000
     77     -49.5646      1.00000
     78     -49.5644      1.00000
     79     -49.5643      1.00000
     80     -49.5643      1.00000
     81     -49.5545      1.00000
     82     -49.5542      1.00000
     83     -49.5541      1.00000
     84     -49.5541      1.00000
     85     -49.5540      1.00000
     86     -49.5532      1.00000
     87     -49.5528      1.00000
     88     -49.5527      1.00000
     89     -49.5395      1.00000
     90     -49.5394      1.00000
     91     -49.5393      1.00000
     92     -49.5393      1.00000
     93     -49.5393      1.00000
     94     -49.5390      1.00000
     95     -49.5389      1.00000
     96     -49.5373      1.00000
     97     -39.8662      1.00000
     98     -39.8659      1.00000
     99     -39.8658      1.00000
    100     -39.8656      1.00000
    101     -39.8655      1.00000
    102     -39.8654      1.00000
    103     -39.8652      1.00000
    104     -39.8651      1.00000
    105     -39.8651      1.00000
    106     -39.8650      1.00000
    107     -39.8649      1.00000
    108     -39.8648      1.00000
    109     -39.8645      1.00000
    110     -39.8644      1.00000
    111     -39.8643      1.00000
    112     -39.8637      1.00000
    113     -13.2251      1.00000
    114     -13.2245      1.00000
    115     -13.2104      1.00000
    116     -13.1835      1.00000
    117     -13.1010      1.00000
    118     -13.0992      1.00000
    119     -13.0987      1.00000
    120     -13.0931      1.00000
    121     -13.0860      1.00000
    122     -13.0802      1.00000
    123     -13.0798      1.00000
    124     -13.0777      1.00000
    125     -12.9881      1.00000
    126     -12.9774      1.00000
    127     -12.9421      1.00000
    128     -12.9416      1.00000
    129      -7.6457      1.00000
    130      -7.4060      1.00000
    131      -7.3259      1.00000
    132      -7.3257      1.00000
    133      -7.3089      1.00000
    134      -7.3087      1.00000
    135      -7.3077      1.00000
    136      -7.3067      1.00000
    137      -7.1698      1.00000
    138      -7.1572      1.00000
    139      -7.1238      1.00000
    140      -7.1236      1.00000
    141      -7.0357      1.00000
    142      -7.0226      1.00000
    143      -7.0030      1.00000
    144      -7.0025      1.00000
    145      -6.9414      1.00000
    146      -6.9410      1.00000
    147      -6.8880      1.00000
    148      -6.8878      1.00000
    149      -6.8662      1.00000
    150      -6.8621      1.00000
    151      -6.8352      1.00000
    152      -6.8042      1.00000
    153      -1.9356      1.00000
    154      -1.9352      1.00000
    155      -1.9103      1.00000
    156      -1.8934      1.00000
    157      -1.6664      1.00000
    158      -1.6663      1.00000
    159      -1.6586      1.00000
    160      -1.6571      1.00000
    161      -1.5996      1.00000
    162      -1.5978      1.00000
    163      -1.5861      1.00000
    164      -1.5861      1.00000
    165      -1.2983      1.00000
    166      -1.1748      1.00000
    167      -1.1746      1.00000
    168      -1.1133      1.00000
    169      -1.1132      1.00000
    170      -1.1070      1.00000
    171      -1.0492      1.00000
    172      -0.9809      1.00000
    173      -0.9647      1.00000
    174      -0.9596      1.00000
    175      -0.9579      1.00000
    176      -0.9578      1.00000
    177      -0.9471      1.00000
    178      -0.9455      1.00000
    179      -0.9228      1.00000
    180      -0.8714      1.00000
    181      -0.8710      1.00000
    182      -0.8036      1.00000
    183      -0.8028      1.00000
    184      -0.8023      1.00000
    185      -0.7753      1.00000
    186      -0.7741      1.00000
    187      -0.7741      1.00000
    188      -0.7610      1.00000
    189      -0.7166      1.00000
    190      -0.7165      1.00000
    191      -0.7067      1.00000
    192      -0.7048      1.00000
    193      -0.6995      1.00000
    194      -0.6992      1.00000
    195      -0.6092      1.00000
    196      -0.6091      1.00000
    197      -0.5618      1.00000
    198      -0.5617      1.00000
    199      -0.5498      1.00000
    200      -0.5483      1.00000
    201      -0.4081      1.00000
    202      -0.4080      1.00000
    203      -0.3574      1.00000
    204      -0.3480      1.00000
    205      -0.3295      1.00000
    206      -0.3294      1.00000
    207      -0.2987      1.00000
    208      -0.2985      1.00000
    209      -0.2812      1.00000
    210      -0.2694      1.00000
    211      -0.2631      1.00000
    212      -0.2559      1.00000
    213      -0.2554      1.00000
    214      -0.2090      1.00000
    215      -0.2089      1.00000
    216      -0.1886      1.00000
    217      -0.1865      1.00000
    218      -0.1864      1.00000
    219      -0.1759      1.00000
    220      -0.1581      1.00000
    221      -0.1256      1.00000
    222      -0.1254      1.00000
    223      -0.1091      1.00000
    224      -0.0710      1.00000
    225      -0.0699      1.00000
    226      -0.0608      1.00000
    227      -0.0436      1.00000
    228      -0.0178      1.00000
    229      -0.0177      1.00000
    230      -0.0111      1.00000
    231       0.0017      1.00000
    232       0.0018      1.00000
    233       0.0464      1.00000
    234       0.0494      1.00000
    235       0.0496      1.00000
    236       0.0914      1.00000
    237       0.0937      1.00000
    238       0.1183      1.00000
    239       0.1184      1.00000
    240       0.1581      1.00000
    241       0.1625      1.00000
    242       0.1771      1.00000
    243       0.1791      1.00000
    244       0.1820      1.00000
    245       0.1820      1.00000
    246       0.1851      1.00000
    247       0.1889      1.00000
    248       0.1936      1.00000
    249       0.1946      1.00000
    250       0.2012      1.00000
    251       0.2013      1.00000
    252       0.2391      1.00000
    253       0.2510      1.00000
    254       0.2567      1.00000
    255       0.2569      1.00000
    256       0.2766      1.00000
    257       0.3371      1.00000
    258       0.3472      1.00000
    259       0.3591      1.00000
    260       0.3592      1.00000
    261       0.3606      1.00000
    262       0.3606      1.00000
    263       0.3885      1.00000
    264       0.4020      1.00000
    265       0.4523      1.00000
    266       0.4523      1.00000
    267       0.5791      1.00000
    268       0.5791      1.00000
    269       0.5846      1.00000
    270       0.6017      1.00000
    271       0.6018      1.00000
    272       0.6067      1.00000
    273       0.6074      1.00000
    274       0.6402      1.00000
    275       0.6514      1.00000
    276       0.6514      1.00000
    277       0.6623      1.00000
    278       0.6623      1.00000
    279       0.6651      1.00000
    280       0.6729      1.00000
    281       0.6747      1.00000
    282       0.6748      1.00000
    283       0.6970      1.00000
    284       0.7228      1.00000
    285       0.7828      1.00000
    286       0.8194      1.00000
    287       0.8293      1.00000
    288       0.8318      1.00000
    289       0.8318      1.00000
    290       0.8611      1.00000
    291       0.8612      1.00000
    292       0.9089      1.00000
    293       0.9403      1.00000
    294       0.9482      1.00000
    295       0.9484      1.00000
    296       0.9835      1.00000
    297       1.0255      1.00000
    298       1.0701      1.00000
    299       1.2692      1.00000
    300       1.2981      1.00000
    301       1.2982      1.00000
    302       1.3115      1.00000
    303       1.3329      1.00000
    304       1.3331      1.00000
    305       1.3377      1.00000
    306       1.3842      1.00000
    307       1.4049      1.00000
    308       1.4282      1.00000
    309       1.4669      1.00000
    310       1.4679      1.00000
    311       1.4681      1.00000
    312       1.4813      1.00000
    313       1.5110      1.00000
    314       1.5113      1.00000
    315       1.5410      1.00000
    316       1.5615      1.00000
    317       1.5774      1.00000
    318       1.6458      1.00000
    319       1.6555      1.00000
    320       1.7558      1.00000
    321       1.7559      1.00000
    322       1.7627      1.00000
    323       1.7779      1.00000
    324       1.8031      1.00000
    325       1.8033      1.00000
    326       1.8112      1.00000
    327       1.8231      1.00000
    328       1.8366      1.00000
    329       1.8368      1.00000
    330       1.8461      1.00000
    331       1.8469      1.00000
    332       1.8788      1.00000
    333       1.8900      1.00000
    334       1.9468      1.00000
    335       1.9934      1.00000
    336       1.9936      1.00000
    337       2.0063      1.00000
    338       2.0064      1.00000
    339       2.0097      1.00000
    340       2.0184      1.00000
    341       2.0199      1.00000
    342       2.0200      1.00000
    343       2.0396      1.00000
    344       2.0461      1.00000
    345       2.0466      1.00000
    346       2.0569      1.00000
    347       2.0684      1.00000
    348       2.0687      1.00000
    349       2.0916      1.00000
    350       2.1130      1.00000
    351       2.1908      1.00000
    352       2.1911      1.00000
    353       2.2471      1.00000
    354       2.2472      1.00000
    355       2.2706      1.00000
    356       2.2732      1.00000
    357       2.2844      1.00000
    358       2.4278      1.00000
    359       2.4663      1.00000
    360       2.4665      1.00000
    361       2.4776      1.00000
    362       2.5039      1.00000
    363       2.5275      1.00000
    364       2.5545      1.00000
    365       2.5923      1.00000
    366       2.6269      1.00000
    367       2.6271      1.00000
    368       2.6562      1.00000
    369       2.7380      1.00000
    370       2.7386      1.00000
    371       2.7608      1.00000
    372       2.7611      1.00000
    373       2.8335      1.00000
    374       2.8724      1.00000
    375       2.9263      1.00000
    376       2.9342      1.00000
    377       2.9343      1.00000
    378       2.9688      1.00000
    379       3.0272      1.00000
    380       3.0273      1.00000
    381       3.0615      1.00000
    382       3.0964      1.00000
    383       3.3080      1.00000
    384       3.3105      1.00000
    385       3.3479      1.00000
    386       3.3752      1.00000
    387       3.4218      1.00000
    388       3.4219      1.00000
    389       3.4399      1.00000
    390       3.4582      1.00000
    391       3.4585      1.00000
    392       3.5311      1.00000
    393       3.7479      1.00000
    394       3.8083      1.00000
    395       3.8094      1.00000
    396       3.8153      1.00000
    397       3.8156      1.00000
    398       3.8828      1.00000
    399       3.8829      1.00000
    400       3.9325      1.00000
    401       3.9355      1.00000
    402       3.9411      1.00000
    403       3.9415      1.00000
    404       4.0395      1.00000
    405       4.0397      1.00000
    406       4.0706      1.00000
    407       4.1387      1.00000
    408       4.1488      1.00000
    409       4.1510      1.00000
    410       4.3150      1.00000
    411       4.3182      1.00000
    412       4.3381      1.00000
    413       4.3586      1.00000
    414       4.3588      1.00000
    415       4.4286      1.00000
    416       4.4449      1.00000
    417       4.4467      1.00000
    418       4.4536      1.00000
[...]
   -.743E-03 0.144E-01 -.259E+02   0.173E-02 -.148E-01 0.257E+02   -.534E-03 -.237E-04 0.250E+00   0.613E-05 0.100E-04 0.376E-04
   -.736E-03 0.947E-03 -.259E+02   0.115E-02 -.341E-03 0.257E+02   -.245E-03 -.595E-03 0.250E+00   -.501E-05 0.429E-05 0.400E-04
   -.206E-02 -.112E-01 -.259E+02   0.173E-02 0.124E-01 0.257E+02   0.136E-03 -.886E-03 0.250E+00   -.447E-05 0.738E-05 0.375E-04
   0.248E-01 0.143E-01 -.421E+02   -.258E-01 -.119E-01 0.421E+02   0.380E-03 -.186E-02 0.994E-02   0.452E-05 -.493E-05 -.246E-04
   -.995E-02 0.123E-01 -.421E+02   0.113E-01 -.119E-01 0.421E+02   -.967E-03 -.692E-03 0.102E-01   0.845E-05 -.206E-05 -.235E-04
   0.811E-02 0.128E-01 -.421E+02   -.797E-02 -.119E-01 0.421E+02   -.234E-03 -.101E-02 0.106E-01   -.201E-05 -.230E-05 -.200E-04
   0.365E-02 0.133E-01 -.421E+02   -.326E-02 -.119E-01 0.420E+02   -.421E-03 -.128E-02 0.107E-01   -.237E-05 0.459E-05 -.209E-04
   0.159E+02 0.149E+02 -.126E+03   -.163E+02 -.153E+02 0.131E+03   0.389E+00 0.378E+00 -.463E+01   0.503E-05 0.108E-03 0.277E-04
   0.159E+02 0.149E+02 -.126E+03   -.163E+02 -.153E+02 0.131E+03   0.385E+00 0.381E+00 -.463E+01   -.700E-05 0.609E-04 0.206E-04
   0.159E+02 0.149E+02 -.126E+03   -.163E+02 -.153E+02 0.131E+03   0.386E+00 0.383E+00 -.463E+01   -.399E-04 0.217E-04 -.158E-04
   0.159E+02 0.149E+02 -.126E+03   -.163E+02 -.153E+02 0.131E+03   0.387E+00 0.380E+00 -.463E+01   -.870E-05 0.120E-03 0.237E-04
   -.159E+02 -.149E+02 -.126E+03   0.163E+02 0.153E+02 0.131E+03   -.386E+00 -.380E+00 -.463E+01   -.184E-04 -.556E-04 0.173E-04
   -.159E+02 -.149E+02 -.126E+03   0.163E+02 0.152E+02 0.131E+03   -.392E+00 -.378E+00 -.463E+01   -.114E-04 -.694E-04 0.288E-04
   -.159E+02 -.149E+02 -.126E+03   0.163E+02 0.153E+02 0.131E+03   -.390E+00 -.379E+00 -.463E+01   0.335E-04 -.331E-04 0.123E-04
   -.159E+02 -.149E+02 -.126E+03   0.163E+02 0.153E+02 0.131E+03   -.389E+00 -.381E+00 -.463E+01   -.652E-04 -.134E-03 0.651E-05
   0.159E+02 -.150E+02 0.126E+03   -.163E+02 0.154E+02 -.131E+03   0.391E+00 -.390E+00 0.466E+01   -.114E-04 -.380E-04 -.107E-03
   0.159E+02 -.149E+02 0.126E+03   -.163E+02 0.153E+02 -.131E+03   0.390E+00 -.379E+00 0.463E+01   -.595E-04 -.117E-04 -.519E-04
   0.159E+02 -.149E+02 0.126E+03   -.163E+02 0.153E+02 -.131E+03   0.389E+00 -.379E+00 0.463E+01   0.101E-04 -.906E-04 -.375E-04
   0.159E+02 -.149E+02 0.126E+03   -.163E+02 0.153E+02 -.131E+03   0.390E+00 -.380E+00 0.463E+01   -.170E-04 -.781E-04 -.391E-04
   -.159E+02 0.149E+02 0.126E+03   0.163E+02 -.153E+02 -.131E+03   -.385E+00 0.381E+00 0.463E+01   0.100E-03 0.629E-04 -.392E-04
   -.158E+02 0.148E+02 0.126E+03   0.162E+02 -.151E+02 -.131E+03   -.380E+00 0.365E+00 0.466E+01   -.101E-03 0.219E-03 -.109E-03
   -.159E+02 0.149E+02 0.126E+03   0.163E+02 -.153E+02 -.131E+03   -.386E+00 0.380E+00 0.463E+01   0.603E-04 0.324E-04 -.133E-04
   -.159E+02 0.149E+02 0.126E+03   0.163E+02 -.153E+02 -.131E+03   -.387E+00 0.380E+00 0.463E+01   0.519E-04 0.566E-04 -.229E-04
   0.279E+02 0.281E+02 0.333E+02   -.282E+02 -.284E+02 -.338E+02   0.346E+00 0.350E+00 0.519E+00   0.101E-04 0.504E-04 0.575E-04
   0.280E+02 0.282E+02 0.333E+02   -.284E+02 -.285E+02 -.339E+02   0.351E+00 0.353E+00 0.519E+00   -.106E-04 0.193E-04 -.150E-04
   0.280E+02 0.282E+02 0.334E+02   -.283E+02 -.286E+02 -.339E+02   0.350E+00 0.353E+00 0.519E+00   -.115E-04 0.162E-04 0.273E-05
   0.280E+02 0.282E+02 0.333E+02   -.284E+02 -.285E+02 -.339E+02   0.351E+00 0.354E+00 0.519E+00   -.384E-04 -.110E-04 0.233E-04
   -.279E+02 -.282E+02 0.333E+02   0.283E+02 0.286E+02 -.339E+02   -.349E+00 -.354E+00 0.519E+00   0.958E-06 -.326E-04 0.230E-04
   -.278E+02 -.281E+02 0.332E+02   0.281E+02 0.284E+02 -.337E+02   -.346E+00 -.349E+00 0.517E+00   -.115E-04 -.810E-04 0.794E-04
   -.279E+02 -.282E+02 0.333E+02   0.283E+02 0.286E+02 -.338E+02   -.350E+00 -.354E+00 0.519E+00   0.183E-04 -.258E-04 -.127E-05
   -.279E+02 -.282E+02 0.333E+02   0.283E+02 0.286E+02 -.338E+02   -.349E+00 -.354E+00 0.519E+00   0.744E-05 -.484E-04 0.906E-05
   0.279E+02 -.282E+02 -.334E+02   -.283E+02 0.286E+02 0.339E+02   0.350E+00 -.354E+00 -.522E+00   0.255E-04 -.259E-04 -.358E-05
   0.279E+02 -.282E+02 -.333E+02   -.283E+02 0.286E+02 0.339E+02   0.348E+00 -.354E+00 -.520E+00   -.141E-04 -.328E-04 0.243E-04
   0.279E+02 -.282E+02 -.333E+02   -.283E+02 0.286E+02 0.339E+02   0.349E+00 -.353E+00 -.520E+00   -.175E-06 -.565E-04 0.150E-04
   0.279E+02 -.282E+02 -.333E+02   -.283E+02 0.286E+02 0.338E+02   0.349E+00 -.354E+00 -.519E+00   -.969E-05 -.289E-04 0.160E-04
   -.280E+02 0.282E+02 -.334E+02   0.284E+02 -.286E+02 0.339E+02   -.351E+00 0.353E+00 -.520E+00   0.202E-04 0.188E-04 0.100E-04
   -.280E+02 0.282E+02 -.334E+02   0.283E+02 -.285E+02 0.339E+02   -.349E+00 0.353E+00 -.521E+00   0.367E-05 0.239E-04 0.305E-04
   -.280E+02 0.282E+02 -.334E+02   0.284E+02 -.285E+02 0.339E+02   -.350E+00 0.353E+00 -.520E+00   0.104E-04 0.231E-04 0.251E-04
   -.280E+02 0.282E+02 -.334E+02   0.284E+02 -.285E+02 0.339E+02   -.350E+00 0.353E+00 -.519E+00   0.214E-04 0.252E-04 0.357E-04
   0.100E+02 0.198E+00 -.111E+00   -.101E+02 -.202E+00 0.111E+00   0.118E+00 0.486E-02 -.639E-03   -.640E-04 -.174E-04 0.201E-04
   0.989E+01 0.506E-01 0.188E-02   -.100E+02 -.511E-01 -.187E-02   0.115E+00 0.641E-03 0.338E-03   -.162E-04 0.232E-04 -.539E-05
   0.990E+01 0.255E-01 -.537E-02   -.100E+02 -.256E-01 0.559E-02   0.115E+00 -.180E-03 -.137E-03   -.436E-04 -.493E-05 -.243E-05
   0.990E+01 0.452E-01 -.438E-02   -.100E+02 -.453E-01 0.421E-02   0.114E+00 -.289E-03 0.485E-03   -.604E-04 -.832E-05 -.567E-04
   -.987E+01 0.369E-01 0.721E-02   0.998E+01 -.369E-01 -.701E-02   -.114E+00 -.296E-03 -.257E-03   0.426E-04 0.116E-04 -.403E-04
   -.100E+02 -.546E-01 -.228E-01   0.101E+02 0.562E-01 0.213E-01   -.119E+00 -.214E-02 0.186E-02   0.842E-04 0.784E-04 -.310E-04
   -.989E+01 0.521E-01 0.937E-02   0.100E+02 -.531E-01 -.976E-02   -.114E+00 0.135E-02 0.459E-03   0.259E-04 0.818E-05 -.162E-04
   -.991E+01 0.618E-01 0.173E-01   0.100E+02 -.624E-01 -.175E-01   -.115E+00 0.638E-03 0.403E-03   0.345E-04 0.433E-05 -.120E-04
   0.191E+02 0.190E+02 0.185E+03   -.180E+02 -.179E+02 -.183E+03   -.106E+01 -.109E+01 -.242E+01   0.835E-04 0.693E-04 0.733E-05
   0.190E+02 0.189E+02 0.185E+03   -.179E+02 -.179E+02 -.183E+03   -.106E+01 -.108E+01 -.241E+01   0.501E-04 0.432E-04 -.322E-05
   0.190E+02 0.189E+02 0.185E+03   -.180E+02 -.178E+02 -.183E+03   -.106E+01 -.108E+01 -.241E+01   0.631E-04 0.668E-04 0.553E-04
   0.190E+02 0.189E+02 0.185E+03   -.180E+02 -.179E+02 -.183E+03   -.106E+01 -.108E+01 -.241E+01   0.599E-04 0.872E-04 0.993E-05
   -.189E+02 -.189E+02 0.185E+03   0.179E+02 0.178E+02 -.183E+03   0.107E+01 0.109E+01 -.241E+01   -.356E-04 -.903E-04 -.647E-04
   -.189E+02 -.189E+02 0.185E+03   0.178E+02 0.178E+02 -.183E+03   0.106E+01 0.108E+01 -.241E+01   -.349E-04 -.771E-04 -.207E-04
   -.189E+02 -.189E+02 0.185E+03   0.178E+02 0.178E+02 -.183E+03   0.106E+01 0.109E+01 -.241E+01   -.573E-05 -.717E-04 -.620E-07
   -.189E+02 -.189E+02 0.185E+03   0.178E+02 0.178E+02 -.183E+03   0.106E+01 0.109E+01 -.241E+01   -.673E-04 -.115E-03 -.753E-04
   0.187E+02 -.187E+02 -.185E+03   -.176E+02 0.176E+02 0.183E+03   -.107E+01 0.109E+01 0.241E+01   0.895E-04 -.128E-03 0.183E-03
   0.190E+02 -.188E+02 -.185E+03   -.179E+02 0.178E+02 0.183E+03   -.106E+01 0.108E+01 0.241E+01   -.437E-04 -.817E-04 0.221E-03
   0.189E+02 -.189E+02 -.185E+03   -.178E+02 0.178E+02 0.183E+03   -.106E+01 0.108E+01 0.241E+01   0.245E-04 -.695E-04 0.542E-04
   0.189E+02 -.189E+02 -.185E+03   -.179E+02 0.178E+02 0.183E+03   -.106E+01 0.109E+01 0.241E+01   0.184E-05 -.666E-04 0.106E-03
   -.190E+02 0.189E+02 -.185E+03   0.180E+02 -.178E+02 0.183E+03   0.106E+01 -.108E+01 0.241E+01   -.254E-04 0.810E-04 0.345E-04
   -.188E+02 0.187E+02 -.185E+03   0.177E+02 -.176E+02 0.183E+03   0.107E+01 -.109E+01 0.240E+01   -.126E-03 0.192E-03 0.715E-04
   -.190E+02 0.189E+02 -.185E+03   0.180E+02 -.179E+02 0.183E+03   0.106E+01 -.108E+01 0.241E+01   -.239E-04 0.499E-04 0.469E-04
   -.190E+02 0.190E+02 -.185E+03   0.179E+02 -.179E+02 0.183E+03   0.106E+01 -.108E+01 0.241E+01   -.597E-04 0.215E-04 0.341E-04
   -.384E-01 0.177E-01 0.209E+03   0.466E-01 -.236E-01 -.211E+03   -.643E-02 0.461E-02 0.207E+01   -.435E-04 -.154E-04 -.340E-03
   0.371E-01 -.685E-01 0.209E+03   -.388E-01 0.662E-01 -.211E+03   0.150E-02 0.228E-02 0.206E+01   -.460E-05 -.493E-04 -.303E-03
   -.455E-01 -.155E+00 0.209E+03   0.466E-01 0.161E+00 -.211E+03   -.438E-03 -.320E-02 0.207E+01   0.367E-04 -.517E-04 -.345E-03
   0.375E-01 -.735E-01 0.209E+03   -.388E-01 0.708E-01 -.211E+03   0.132E-02 0.271E-02 0.207E+01   -.990E-04 -.113E-03 -.354E-03
   0.248E+00 -.513E-01 0.199E+03   -.263E+00 0.512E-01 -.201E+03   0.991E-02 0.428E-03 0.207E+01   -.104E-03 -.123E-04 -.355E-03
   0.775E-01 -.584E-01 0.199E+03   -.814E-01 0.512E-01 -.201E+03   0.223E-02 0.636E-02 0.207E+01   0.242E-05 0.187E-03 -.390E-03
   0.267E-01 -.533E-01 0.199E+03   -.266E-01 0.512E-01 -.201E+03   -.320E-04 0.204E-02 0.206E+01   -.152E-04 -.560E-04 -.312E-03
   0.211E-01 -.530E-01 0.199E+03   -.215E-01 0.512E-01 -.201E+03   0.386E-03 0.183E-02 0.206E+01   -.129E-04 -.300E-04 -.310E-03
   0.651E-02 -.270E-01 -.199E+03   -.155E-01 0.166E-01 0.201E+03   0.783E-02 0.931E-02 -.207E+01   -.101E-05 -.238E-05 0.267E-03
   -.545E-01 -.281E-01 -.199E+03   0.560E-01 0.252E-01 0.201E+03   -.127E-02 0.263E-02 -.206E+01   0.399E-04 -.353E-04 0.293E-03
   0.144E-01 -.864E-01 -.199E+03   -.155E-01 0.858E-01 0.201E+03   0.781E-03 0.860E-03 -.206E+01   0.100E-03 0.259E-04 0.274E-03
   -.502E-01 -.732E-01 -.199E+03   0.560E-01 0.772E-01 0.201E+03   -.515E-02 -.334E-02 -.207E+01   -.596E-04 -.114E-04 0.259E-03
   -.154E-01 -.711E-01 -.209E+03   0.155E-01 0.685E-01 0.211E+03   -.130E-03 0.257E-02 -.206E+01   -.282E-04 -.154E-04 0.241E-03
   -.403E-01 -.690E-01 -.209E+03   0.427E-01 0.685E-01 0.211E+03   -.199E-02 0.810E-03 -.207E+01   -.380E-04 -.368E-04 0.332E-03
   -.185E-01 -.710E-01 -.209E+03   0.192E-01 0.685E-01 0.211E+03   -.669E-03 0.243E-02 -.207E+01   0.340E-04 0.148E-04 0.288E-03
   -.203E-01 -.711E-01 -.209E+03   0.213E-01 0.685E-01 0.211E+03   -.919E-03 0.251E-02 -.206E+01   0.329E-04 -.859E-04 0.269E-03
 -----------------------------------------------------------------------------------------------
   -.334E-01 0.443E-02 -.212E-01   -.412E-13 0.888E-15 0.284E-12   0.336E-01 -.538E-02 0.213E-01   -.237E-03 -.277E-03 -.965E-04
 
 
 POSITION                                       TOTAL-FORCE (eV/Angst)
 -----------------------------------------------------------------------------------
      2.77841      5.21785      1.58925        -0.000280     -0.000397     -0.001145
      8.33453      5.21785      1.58910        -0.000046      0.000194     -0.000196
      2.77841     10.77658      1.58925        -0.000144      0.000294     -0.000147
      8.33453     10.77658      1.58910         0.000197      0.000090     -0.001101
     -0.00205      2.43861      1.90525         0.010710     -0.004719     -0.007493
      5.55670      2.43861      1.89545        -0.000143      0.000037     -0.000134
      0.00058      7.99734      1.89560         0.000005      0.000021     -0.000140
      5.55670      7.99734      1.89545        -0.000086      0.000008     -0.000294
      2.78043      5.21797      8.30298        -0.000070      0.000015      0.000126
      8.33655      5.21797      8.30283         0.000461     -0.000387      0.000700
      2.78043     10.77670      8.30298         0.000163      0.000030      0.000190
      8.33655     10.77670      8.30283        -0.000195      0.000327      0.000520
      0.00259      2.43849      8.60933        -0.000598      0.000520      0.000801
      5.55871      2.43849      8.60919         0.000357     -0.000314      0.000537
      0.00259      7.99722      8.60933        -0.000096     -0.000109      0.000241
      5.55871      7.99722      8.60919        -0.000041      0.000112      0.000121
     -1.37640      1.05960      8.18451         0.000859     -0.000843     -0.001491
      4.17971      1.05960      8.18437        -0.000454      0.000288     -0.000818
     -1.37640      6.61833      8.18451        -0.000140      0.000970     -0.001051
      4.17971      6.61833      8.18437         0.000185     -0.000104     -0.000276
      1.38116      3.81753      8.18442         0.000786     -0.000339     -0.001115
      6.93728      3.81753      8.18427        -0.000969      0.000646     -0.001103
      1.38116      9.37626      8.18442        -0.000208      0.000049     -0.000403
      6.93728      9.37626      8.18427         0.000103     -0.000521     -0.000667
      1.39985      1.03817      2.01416        -0.001910      0.000523      0.004820
      6.95597      1.03817      2.01401         0.000549      0.000163      0.000950
      1.39985      6.59689      2.01416         0.000114      0.000177      0.001029
      6.95597      6.59689      2.01401         0.000233      0.000001      0.000394
      4.15741      3.83897      2.01406         0.000315      0.000235      0.001154
      9.71353      3.83897      2.01392        -0.003358      0.001643      0.004298
      4.15741      9.39769      2.01406        -0.000123     -0.000009      0.000418
      9.71353      9.39769      2.01392        -0.000321      0.000021      0.001112
      1.40044      3.83812      3.78391        -0.001106     -0.000636      0.000612
      6.95656      3.83812      3.78377         0.000302     -0.000306      0.000058
      1.40044      9.39685      3.78391        -0.000301     -0.000112      0.000377
      6.95656      9.39685      3.78377         0.000383      0.000216      0.000154
      4.15774      1.03891      3.78384         0.000135      0.000255      0.000449
      9.71386      1.03891      3.78369         0.000397      0.000976      0.000014
      4.15774      6.59764      3.78384        -0.000159     -0.000144      0.000307
      9.71386      6.59764      3.78369         0.000175     -0.000126      0.000182
     -1.37674      3.81828      6.41474         0.000147     -0.000203     -0.001747
      4.17938      3.81828      6.41460        -0.000413      0.000171     -0.000780
     -1.37674      9.37700      6.41474        -0.000041      0.000659     -0.001000
      4.17938      9.37700      6.41460        -0.000125      0.000089     -0.000451
      1.38057      1.05876      6.41466        -0.000291      0.000035     -0.000867
      6.93668      1.05876      6.41452         0.000513     -0.000154     -0.001165
      1.38057      6.61748      6.41466         0.000073     -0.000337     -0.000671
      6.93668      6.61748      6.41452         0.000028     -0.000101     -0.000400
      1.38227      3.82822      0.00001         0.000615      0.000998     -0.000106
      6.93839      3.82822     -0.00014         0.000051      0.000093      0.000342
      1.38227      9.38694      0.00001         0.000105     -0.000248      0.000084
      6.93839      9.38694     -0.00014        -0.000263     -0.000312      0.000257
      1.39874      1.04885     10.19857         0.000406     -0.000272     -0.000100
      6.95485      1.04885     10.19843        -0.001022     -0.000498      0.000335
      1.39874      6.60758     10.19857         0.000440      0.000374      0.000049
      6.95485      6.60758     10.19843        -0.000220      0.000054      0.000197
     -1.25763      1.18232      6.18371        -0.000136      0.000404      0.002589
      4.29848      1.18232      6.18356        -0.000194     -0.000117      0.000306
     -1.25763      6.74104      6.18371        -0.000290     -0.000127      0.000555
      4.29848      6.74104      6.18356        -0.000235      0.000113      0.000276
      1.26131      3.69462      6.18369         0.000033     -0.000026      0.001715
      6.81742      3.69462      6.18354         0.000291     -0.000001      0.000706
      1.26131      9.25335      6.18369         0.000354     -0.000078      0.000182
      6.81742      9.25335      6.18354         0.000100     -0.000052      0.000535
      1.51970      0.91526      4.01489         0.002938     -0.002675      0.000704
      7.07582      0.91526      4.01474        -0.001729      0.000149     -0.000068
      1.51970      6.47399      4.01489        -0.000375      0.000965     -0.000273
      7.07582      6.47399      4.01474        -0.000222     -0.000048     -0.000065
      4.03864      3.96168      4.01487         0.001274     -0.000203     -0.000441
      9.59476      3.96168      4.01472        -0.003161      0.003887      0.003534
      4.03864      9.52041      4.01487         0.000177      0.000091     -0.000075
      9.59476      9.52041      4.01472         0.000488     -0.001489     -0.000364
      0.00035      5.21813      1.57032         0.001688     -0.001313     -0.003196
      5.55647      5.21813      1.57017        -0.000282     -0.000010     -0.000260
      0.00035     10.77686      1.57032         0.000691      0.002235     -0.002700
      5.55647     10.77686      1.57017        -0.000158     -0.000110     -0.000358
      2.77849      2.43869      1.57537        -0.005125      0.000327     -0.002814
      8.33461      2.43869      1.57522        -0.001662     -0.000637     -0.003312
      2.77849      7.99742      1.57537         0.000061     -0.000105     -0.000432
      8.33461      7.99742      1.57522        -0.000054      0.000010     -0.000446
      0.00252      5.21805      8.62321        -0.001197     -0.001071      0.002005
      5.55864      5.21805      8.62307         0.000308     -0.000251      0.000144
      0.00252     10.77678      8.62321        -0.000290      0.000253      0.000406
      5.55864     10.77678      8.62307         0.000633      0.000675      0.001484
      2.78066      2.43877      8.62826        -0.000056     -0.000046      0.000138
      8.33677      2.43877      8.62811         0.000303      0.000263      0.003173
      2.78066      7.99750      8.62826         0.000075     -0.000013      0.000285
      8.33677      7.99750      8.62811         0.000065     -0.000095      0.000103
 -----------------------------------------------------------------------------------
    total drift:                               -0.000041     -0.001227      0.000042


--------------------------------------------------------------------------------------------------------



  FREE ENERGIE OF THE ION-ELECTRON SYSTEM (eV)
  ---------------------------------------------------
  free  energy   TOTEN  =      -489.21539152 eV

  energy  without entropy=     -489.21539152  energy(sigma->0) =     -489.21539152
 


--------------------------------------------------------------------------------------------------------


    POTLOK:  cpu time    3.3456: real time    3.3489


--------------------------------------------------------------------------------------------------------


     LOOP+:  cpu time 6931.0508: real time 7013.5649
    4ORBIT:  cpu time    0.0000: real time    0.0000

 total amount of memory used by VASP MPI-rank0  1233264. kBytes
=======================================================================

   base      :      30000. kBytes
   nonl-proj :      75226. kBytes
   fftplans  :      85054. kBytes
   grid      :      64684. kBytes
   one-center:        466. kBytes
   wavefun   :     977834. kBytes
 
  
  
 General timing and accounting informations for this job:
 ========================================================
  
                  Total CPU time used (sec):     7028.188
                            User time (sec):     6952.017
                          System time (sec):       76.170
                         Elapsed time (sec):     7113.962
  
                   Maximum memory used (kb):     1435184.
                   Average memory used (kb):           0.
  
                          Minor page faults:       715257
                          Major page faults:           23
                 Voluntary context switches:        69679
