<?xml version="1.0" encoding="ISO-8859-1"?>
<modeling>
 <generator>
  <i name="program" type="string">vasp </i>
  <i name="version" type="string">5.4.4.18Apr17-6-g9f103f2a35  </i>
  <i name="subversion" type="string">(build Oct 25 2017 14:42:18) complex            parallel </i>
  <i name="platform" type="string">LinuxIFC </i>
  <i name="date" type="string">2021 06 02 </i>
  <i name="time" type="string">14:18:28 </i>
 </generator>
 <incar>
  <i type="string" name="PREC">accurate</i>
  <i type="string" name="ALGO"> normal</i>
  <i type="logical" name="ADDGRID"> T  </i>
  <i type="int" name="ISPIN">     2</i>
  <i type="int" name="ICHARG">     1</i>
  <i type="int" name="NELM">   200</i>
  <i type="int" name="NELMIN">     8</i>
  <i name="EDIFF">      0.00000100</i>
  <i type="int" name="ISYM">     0</i>
  <i name="ENCUT">    650.00000000</i>
  <v name="MAGMOM">      0.60000000      0.60000000      0.60000000      0.60000000      0.60000000      0.60000000      0.60000000      0.60000000      0.60000000      0.60000000      0.60000000      0.60000000      0.60000000      0.60000000      0.60000000      0.60000000      0.60000000      0.60000000      0.60000000      0.60000000
      0.60000000      0.60000000      0.60000000      0.60000000      0.60000000      0.60000000      0.60000000      0.60000000      0.60000000      0.60000000      0.60000000      0.60000000      0.60000000      0.60000000      0.60000000      0.60000000      0.60000000      0.60000000      0.60000000      0.60000000
      0.60000000      0.60000000      0.60000000      0.60000000      0.60000000      0.60000000      0.60000000      0.60000000      0.60000000      0.60000000      0.60000000      0.60000000      0.60000000      0.60000000      0.60000000      0.60000000      5.00000000      5.00000000      5.00000000      5.00000000
      5.00000000      5.00000000      5.00000000      5.00000000      5.00000000      5.00000000      5.00000000      5.00000000      5.00000000      5.00000000      5.00000000      5.00000000      5.00000000      5.00000000      5.00000000      5.00000000      5.00000000      5.00000000      5.00000000      5.00000000
      5.00000000      5.00000000      5.00000000      5.00000000      5.00000000      5.00000000      5.00000000      5.00000000</v>
  <i type="logical" name="LREAL"> F  </i>
  <i type="int" name="ISMEAR">     0</i>
  <i name="SIGMA">      0.05000000</i>
  <i type="int" name="NWRITE">     1</i>
  <i type="int" name="LMAXMIX">     4</i>
  <i type="logical" name="LWAVE"> F  </i>
  <i type="logical" name="LASPH"> T  </i>
  <v type="int" name="KPOINT_BSE">    -1     0     0     0</v>
  <i type="int" name="NELM">   200</i>
  <i type="string" name="GGA"> pe</i>
  <i type="logical" name="LDAU"> T  </i>
  <v type="int" name="LDAUTYPE">     2</v>
  <v type="int" name="LDAUL">    -1    -1    -1     2</v>
  <v name="LDAUU">      0.00000000      0.00000000      0.00000000      4.00000000</v>
  <v name="LDAUJ">      0.00000000      0.00000000      0.00000000      0.00000000</v>
  <i type="logical" name="LASPH"> T  </i>
 </incar>
 <structure name="primitive_cell" >
  <crystal>
   <varray name="basis" >
    <v>      11.11223374       0.00000000      -0.00029034 </v>
    <v>       0.00000000      11.11745194       0.00000000 </v>
    <v>      -2.77510898       0.00000000      10.19872221 </v>
   </varray>
   <i name="volume">   1259.93837498 </i>
   <varray name="rec_basis" >
    <v>       0.08999155       0.00000000       0.02448702 </v>
    <v>       0.00000000       0.08994867       0.00000000 </v>
    <v>       0.00000256       0.00000000       0.09805220 </v>
   </varray>
  </crystal>
  <varray name="positions" >
   <v>       0.28894970       0.46933910       0.15583616 </v>
   <v>       0.17529533      -0.40661825       0.19749617 </v>
   <v>       0.42345029       0.34530995       0.19749407 </v>
   <v>       0.37560721      -0.40565694      -0.00000412 </v>
   <v>       0.12439279       0.34434306       0.00000412 </v>
   <v>      -0.46151602       0.46936404       0.15397331 </v>
   <v>       0.03848398       0.46936404       0.15397331 </v>
   <v>       0.28861657       0.21935690       0.15447525 </v>
   <v>       0.28861657      -0.28064310       0.15447525 </v>
   <v>       0.21868463       0.34523395       0.37102476 </v>
   <v>       0.46681660      -0.40655103       0.37102399 </v>
   <v>       0.23507288      -0.41767349       0.39367237 </v>
   <v>       0.46175575       0.35634799       0.39367694 </v>
   <v>       0.21138343       0.46935690      -0.15447525 </v>
   <v>       0.04646972      -0.28065024       0.18586770 </v>
   <v>      -0.45353028       0.21934976       0.18586770 </v>
   <v>      -0.45353028      -0.28065024       0.18586770 </v>
   <v>       0.04646972       0.21934976       0.18681382 </v>
   <v>       0.32470467       0.34338175      -0.19749617 </v>
   <v>       0.07654971      -0.40469005      -0.19749407 </v>
   <v>       0.21105030       0.21933910      -0.15583616 </v>
   <v>       0.21105030      -0.28066090      -0.15583616 </v>
   <v>      -0.07654971       0.34530995       0.19749407 </v>
   <v>      -0.32470467      -0.40661825       0.19749617 </v>
   <v>       0.17529533       0.09338175       0.19749617 </v>
   <v>       0.42345029      -0.15469005       0.19749407 </v>
   <v>       0.45353028       0.46934976      -0.18586770 </v>
   <v>      -0.04646972       0.46934976      -0.18586770 </v>
   <v>      -0.37560721       0.34434306       0.00000412 </v>
   <v>      -0.12439279      -0.40565694      -0.00000412 </v>
   <v>       0.37560721       0.09434306      -0.00000412 </v>
   <v>       0.12439279      -0.15565694       0.00000412 </v>
   <v>      -0.03318340      -0.40655103       0.37102399 </v>
   <v>      -0.28131537       0.34523395       0.37102476 </v>
   <v>       0.21868463      -0.15476605       0.37102476 </v>
   <v>       0.46681660       0.09344897       0.37102399 </v>
   <v>       0.46151602       0.21936404      -0.15397331 </v>
   <v>       0.46151602      -0.28063596      -0.15397331 </v>
   <v>      -0.03848398       0.21936404      -0.15397331 </v>
   <v>      -0.03848398      -0.28063596      -0.15397331 </v>
   <v>       0.26492712       0.33232651      -0.39367237 </v>
   <v>      -0.46175575      -0.39365201      -0.39367694 </v>
   <v>      -0.03824425       0.35634799       0.39367694 </v>
   <v>      -0.26492712      -0.41767349       0.39367237 </v>
   <v>       0.23507288       0.08232651       0.39367237 </v>
   <v>       0.46175575      -0.14365201       0.39367694 </v>
   <v>       0.28131537      -0.40476605      -0.37102476 </v>
   <v>      -0.46681660       0.34344897      -0.37102399 </v>
   <v>      -0.21105030       0.46933910       0.15583616 </v>
   <v>       0.28894970      -0.03066090       0.15583616 </v>
   <v>       0.32470467      -0.15661825      -0.19749617 </v>
   <v>       0.07654971       0.09530995      -0.19749407 </v>
   <v>      -0.42345029      -0.40469005      -0.19749407 </v>
   <v>      -0.17529533       0.34338175      -0.19749617 </v>
   <v>       0.03318340       0.34344897      -0.37102399 </v>
   <v>      -0.07654971      -0.15469005       0.19749407 </v>
   <v>      -0.32470467       0.09338175       0.19749617 </v>
   <v>       0.03824425      -0.39365201      -0.39367694 </v>
   <v>      -0.37560721      -0.15565694       0.00000412 </v>
   <v>      -0.12439279       0.09434306      -0.00000412 </v>
   <v>      -0.21138343       0.21935690       0.15447525 </v>
   <v>      -0.21138343      -0.28064310       0.15447525 </v>
   <v>      -0.46151602      -0.03063596       0.15397331 </v>
   <v>       0.03848398      -0.03063596       0.15397331 </v>
   <v>       0.26492712      -0.16767349      -0.39367237 </v>
   <v>      -0.46175575       0.10634799      -0.39367694 </v>
   <v>      -0.03318340       0.09344897       0.37102399 </v>
   <v>      -0.28131537      -0.15476605       0.37102476 </v>
   <v>      -0.23507288       0.33232651      -0.39367237 </v>
   <v>      -0.28861657       0.46935690      -0.15447525 </v>
   <v>       0.21138343      -0.03064310      -0.15447525 </v>
   <v>      -0.21868463      -0.40476605      -0.37102476 </v>
   <v>       0.28131537       0.09523395      -0.37102476 </v>
   <v>      -0.46681660      -0.15655103      -0.37102399 </v>
   <v>      -0.03824425      -0.14365201       0.39367694 </v>
   <v>      -0.26492712       0.08232651       0.39367237 </v>
   <v>      -0.42345029       0.09530995      -0.19749407 </v>
   <v>      -0.17529533      -0.15661825      -0.19749617 </v>
   <v>       0.03318340      -0.15655103      -0.37102399 </v>
   <v>      -0.28894970       0.21933910      -0.15583616 </v>
   <v>      -0.28894970      -0.28066090      -0.15583616 </v>
   <v>       0.03824425       0.10634799      -0.39367694 </v>
   <v>       0.45353028      -0.03065024      -0.18586770 </v>
   <v>      -0.04646972      -0.03065024      -0.18586770 </v>
   <v>      -0.23507288      -0.16767349      -0.39367237 </v>
   <v>      -0.21868463       0.09523395      -0.37102476 </v>
   <v>      -0.21105030      -0.03066090       0.15583616 </v>
   <v>      -0.28861657      -0.03064310      -0.15447525 </v>
  </varray>
 </structure>
 <varray name="primitive_index" >
  <v type="int" >        1 </v>
  <v type="int" >       27 </v>
  <v type="int" >       29 </v>
  <v type="int" >       55 </v>
  <v type="int" >       49 </v>
  <v type="int" >       74 </v>
  <v type="int" >       73 </v>
  <v type="int" >       77 </v>
  <v type="int" >       79 </v>
  <v type="int" >       33 </v>
  <v type="int" >       39 </v>
  <v type="int" >       67 </v>
  <v type="int" >       69 </v>
  <v type="int" >       81 </v>
  <v type="int" >        7 </v>
  <v type="int" >        6 </v>
  <v type="int" >        8 </v>
  <v type="int" >        5 </v>
  <v type="int" >       21 </v>
  <v type="int" >       19 </v>
  <v type="int" >       13 </v>
  <v type="int" >       15 </v>
  <v type="int" >       30 </v>
  <v type="int" >       28 </v>
  <v type="int" >       25 </v>
  <v type="int" >       31 </v>
  <v type="int" >        9 </v>
  <v type="int" >       10 </v>
  <v type="int" >       50 </v>
  <v type="int" >       56 </v>
  <v type="int" >       53 </v>
  <v type="int" >       51 </v>
  <v type="int" >       40 </v>
  <v type="int" >       34 </v>
  <v type="int" >       35 </v>
  <v type="int" >       37 </v>
  <v type="int" >       85 </v>
  <v type="int" >       87 </v>
  <v type="int" >       86 </v>
  <v type="int" >       88 </v>
  <v type="int" >       61 </v>
  <v type="int" >       60 </v>
  <v type="int" >       70 </v>
  <v type="int" >       68 </v>
  <v type="int" >       65 </v>
  <v type="int" >       71 </v>
  <v type="int" >       47 </v>
  <v type="int" >       42 </v>
  <v type="int" >        2 </v>
  <v type="int" >        3 </v>
  <v type="int" >       23 </v>
  <v type="int" >       17 </v>
  <v type="int" >       20 </v>
  <v type="int" >       22 </v>
  <v type="int" >       41 </v>
  <v type="int" >       32 </v>
  <v type="int" >       26 </v>
  <v type="int" >       59 </v>
  <v type="int" >       52 </v>
  <v type="int" >       54 </v>
  <v type="int" >       78 </v>
  <v type="int" >       80 </v>
  <v type="int" >       76 </v>
  <v type="int" >       75 </v>
  <v type="int" >       63 </v>
  <v type="int" >       58 </v>
  <v type="int" >       38 </v>
  <v type="int" >       36 </v>
  <v type="int" >       62 </v>
  <v type="int" >       82 </v>
  <v type="int" >       83 </v>
  <v type="int" >       48 </v>
  <v type="int" >       45 </v>
  <v type="int" >       44 </v>
  <v type="int" >       72 </v>
  <v type="int" >       66 </v>
  <v type="int" >       18 </v>
  <v type="int" >       24 </v>
  <v type="int" >       43 </v>
  <v type="int" >       14 </v>
  <v type="int" >       16 </v>
  <v type="int" >       57 </v>
  <v type="int" >       11 </v>
  <v type="int" >       12 </v>
  <v type="int" >       64 </v>
  <v type="int" >       46 </v>
  <v type="int" >        4 </v>
  <v type="int" >       84 </v>
 </varray>
 <kpoints>
  <generation param="Gamma">
   <v type="int" name="divisions">       3        3        3 </v>
   <v name="usershift">      0.00000000       0.00000000       0.00000000 </v>
   <v name="genvec1">      0.33333333       0.00000000       0.00000000 </v>
   <v name="genvec2">      0.00000000       0.33333333       0.00000000 </v>
   <v name="genvec3">      0.00000000       0.00000000       0.33333333 </v>
   <v name="shift">      0.00000000       0.00000000       0.00000000 </v>
  </generation>
  <varray name="kpointlist" >
   <v>       0.00000000       0.00000000       0.00000000 </v>
   <v>       0.33333333       0.00000000       0.00000000 </v>
   <v>       0.00000000       0.33333333       0.00000000 </v>
   <v>       0.33333333       0.33333333       0.00000000 </v>
   <v>      -0.33333333       0.33333333      -0.00000000 </v>
   <v>       0.00000000       0.00000000       0.33333333 </v>
   <v>       0.33333333       0.00000000       0.33333333 </v>
   <v>      -0.33333333       0.00000000       0.33333333 </v>
   <v>       0.00000000       0.33333333       0.33333333 </v>
   <v>       0.33333333       0.33333333       0.33333333 </v>
   <v>      -0.33333333       0.33333333       0.33333333 </v>
   <v>       0.00000000      -0.33333333       0.33333333 </v>
   <v>       0.33333333      -0.33333333       0.33333333 </v>
   <v>      -0.33333333      -0.33333333       0.33333333 </v>
  </varray>
  <varray name="weights" >
   <v>       0.03703704 </v>
   <v>       0.07407407 </v>
   <v>       0.07407407 </v>
   <v>       0.07407407 </v>
   <v>       0.07407407 </v>
   <v>       0.07407407 </v>
   <v>       0.07407407 </v>
   <v>       0.07407407 </v>
   <v>       0.07407407 </v>
   <v>       0.07407407 </v>
   <v>       0.07407407 </v>
   <v>       0.07407407 </v>
   <v>       0.07407407 </v>
   <v>       0.07407407 </v>
  </varray>
 </kpoints>
 <parameters>
  <separator name="general" >
   <i type="string" name="SYSTEM">unknown system</i>
   <i type="logical" name="LCOMPAT"> F  </i>
  </separator>
  <separator name="electronic" >
   <i type="string" name="PREC">accura</i>
   <i name="ENMAX">    650.00000000</i>
   <i name="ENAUG">    628.94500000</i>
   <i name="EDIFF">      0.00000100</i>
   <i type="int" name="IALGO">    38</i>
   <i type="int" name="IWAVPR">    10</i>
   <i type="int" name="NBANDS">   538</i>
   <i name="NELECT">    736.00000000</i>
   <i type="int" name="TURBO">     0</i>
   <i type="int" name="IRESTART">     0</i>
   <i type="int" name="NREBOOT">     0</i>
   <i type="int" name="NMIN">     0</i>
   <i name="EREF">      0.00000000</i>
   <separator name="electronic smearing" >
    <i type="int" name="ISMEAR">     0</i>
    <i name="SIGMA">      0.05000000</i>
    <i name="KSPACING">      0.50000000</i>
    <i type="logical" name="KGAMMA"> T  </i>
   </separator>
   <separator name="electronic projectors" >
    <i type="logical" name="LREAL"> F  </i>
    <v name="ROPT">      0.00000000      0.00000000      0.00000000      0.00000000</v>
    <i type="int" name="LMAXPAW">  -100</i>
    <i type="int" name="LMAXMIX">     4</i>
    <i type="logical" name="NLSPLINE"> F  </i>
   </separator>
   <separator name="electronic startup" >
    <i type="int" name="ISTART">     0</i>
    <i type="int" name="ICHARG">     1</i>
    <i type="int" name="INIWAV">     1</i>
   </separator>
   <separator name="electronic spin" >
    <i type="int" name="ISPIN">     2</i>
    <i type="logical" name="LNONCOLLINEAR"> F  </i>
    <v name="MAGMOM">      0.60000000      0.60000000      0.60000000      0.60000000      0.60000000      0.60000000      0.60000000      0.60000000      0.60000000      0.60000000      0.60000000      0.60000000      0.60000000      0.60000000      0.60000000      0.60000000      0.60000000      0.60000000      0.60000000      0.60000000
      0.60000000      0.60000000      0.60000000      0.60000000      0.60000000      0.60000000      0.60000000      0.60000000      0.60000000      0.60000000      0.60000000      0.60000000      0.60000000      0.60000000      0.60000000      0.60000000      0.60000000      0.60000000      0.60000000      0.60000000
      0.60000000      0.60000000      0.60000000      0.60000000      0.60000000      0.60000000      0.60000000      0.60000000      0.60000000      0.60000000      0.60000000      0.60000000      0.60000000      0.60000000      0.60000000      0.60000000      5.00000000      5.00000000      5.00000000      5.00000000
      5.00000000      5.00000000      5.00000000      5.00000000      5.00000000      5.00000000      5.00000000      5.00000000      5.00000000      5.00000000      5.00000000      5.00000000      5.00000000      5.00000000      5.00000000      5.00000000      5.00000000      5.00000000      5.00000000      5.00000000
      5.00000000      5.00000000      5.00000000      5.00000000      5.00000000      5.00000000      5.00000000      5.00000000</v>
    <i name="NUPDOWN">     -1.00000000</i>
    <i type="logical" name="LSORBIT"> F  </i>
    <v name="SAXIS">      0.00000000      0.00000000      1.00000000</v>
    <i type="logical" name="LSPIRAL"> F  </i>
    <v name="QSPIRAL">      0.00000000      0.00000000      0.00000000</v>
    <i type="logical" name="LZEROZ"> F  </i>
   </separator>
   <separator name="electronic exchange-correlation" >
    <i type="logical" name="LASPH"> T  </i>
    <i type="logical" name="LMETAGGA"> F  </i>
   </separator>
   <separator name="electronic convergence" >
    <i type="int" name="NELM">   200</i>
    <i type="int" name="NELMDL">     0</i>
    <i type="int" name="NELMIN">     8</i>
    <i name="ENINI">    650.00000000</i>
    <separator name="electronic convergence detail" >
     <i type="logical" name="LDIAG"> T  </i>
     <i type="logical" name="LSUBROT"> F  </i>
     <i name="WEIMIN">      0.00000000</i>
     <i name="EBREAK">      0.00000000</i>
     <i name="DEPER">      0.30000000</i>
     <i type="int" name="NRMM">     4</i>
     <i name="TIME">      0.40000000</i>
    </separator>
   </separator>
   <separator name="electronic mixer" >
    <i name="AMIX">      0.40000000</i>
    <i name="BMIX">      1.00000000</i>
    <i name="AMIN">      0.10000000</i>
    <i name="AMIX_MAG">      1.60000000</i>
    <i name="BMIX_MAG">      1.00000000</i>
    <separator name="electronic mixer details" >
     <i type="int" name="IMIX">     4</i>
     <i type="logical" name="MIXFIRST"> F  </i>
     <i type="int" name="MAXMIX">   -45</i>
     <i name="WC">    100.00000000</i>
     <i type="int" name="INIMIX">     1</i>
     <i type="int" name="MIXPRE">     1</i>
     <i type="int" name="MREMOVE">     5</i>
    </separator>
   </separator>
   <separator name="electronic dipolcorrection" >
    <i type="logical" name="LDIPOL"> F  </i>
    <i type="logical" name="LMONO"> F  </i>
    <i type="int" name="IDIPOL">     0</i>
    <i name="EPSILON">      1.00000000</i>
    <v name="DIPOL">   -100.00000000   -100.00000000   -100.00000000</v>
    <i name="EFIELD">      0.00000000</i>
   </separator>
  </separator>
  <separator name="grids" >
   <i type="int" name="NGX">    96</i>
   <i type="int" name="NGY">    96</i>
   <i type="int" name="NGZ">    90</i>
   <i type="int" name="NGXF">   192</i>
   <i type="int" name="NGYF">   192</i>
   <i type="int" name="NGZF">   180</i>
   <i type="logical" name="ADDGRID"> T  </i>
  </separator>
  <separator name="ionic" >
   <i type="int" name="NSW">     0</i>
   <i type="int" name="IBRION">    -1</i>
   <i type="int" name="MDALGO">     0</i>
   <i type="int" name="ISIF">     2</i>
   <i name="PSTRESS">      0.00000000</i>
   <i name="EDIFFG">      0.00001000</i>
   <i type="int" name="NFREE">     0</i>
   <i name="POTIM">      0.50000000</i>
   <i name="SMASS">     -3.00000000</i>
   <i name="SCALEE">      1.00000000</i>
  </separator>
  <separator name="ionic md" >
   <i name="TEBEG">      0.00010000</i>
   <i name="TEEND">      0.00010000</i>
   <i type="int" name="NBLOCK">     1</i>
   <i type="int" name="KBLOCK">     1</i>
   <i type="int" name="NPACO">   256</i>
   <i name="APACO">     16.00000000</i>
  </separator>
  <separator name="symmetry" >
   <i type="int" name="ISYM">     0</i>
   <i name="SYMPREC">      0.00001000</i>
  </separator>
  <separator name="dos" >
   <i type="int" name="LORBIT">     0</i>
   <v name="RWIGS">     -1.00000000     -1.00000000     -1.00000000     -1.00000000</v>
   <i type="int" name="NEDOS">   301</i>
   <i name="EMIN">     10.00000000</i>
   <i name="EMAX">    -10.00000000</i>
   <i name="EFERMI">      0.00000000</i>
  </separator>
  <separator name="writing" >
   <i type="int" name="NWRITE">     1</i>
   <i type="logical" name="LWAVE"> F  </i>
   <i type="logical" name="LDOWNSAMPLE"> F  </i>
   <i type="logical" name="LCHARG"> T  </i>
   <i type="logical" name="LPARD"> F  </i>
   <i type="logical" name="LVTOT"> F  </i>
   <i type="logical" name="LVHAR"> F  </i>
   <i type="logical" name="LELF"> F  </i>
   <i type="logical" name="LOPTICS"> F  </i>
   <v name="STM">      0.00000000      0.00000000      0.00000000      0.00000000      0.00000000      0.00000000      0.00000000</v>
  </separator>
  <separator name="performance" >
   <i type="int" name="NPAR">     2</i>
   <i type="int" name="NSIM">     4</i>
   <i type="int" name="NBLK">    -1</i>
   <i type="logical" name="LPLANE"> T  </i>
   <i type="logical" name="LSCALAPACK"> T  </i>
   <i type="logical" name="LSCAAWARE"> F  </i>
   <i type="logical" name="LSCALU"> F  </i>
   <i type="logical" name="LASYNC"> F  </i>
   <i type="logical" name="LORBITALREAL"> F  </i>
  </separator>
  <separator name="miscellaneous" >
   <i type="int" name="IDIOT">     3</i>
   <i type="int" name="ISPECIAL">     0</i>
   <i type="logical" name="LMUSIC"> F  </i>
   <v name="POMASS">      7.01000000     16.00000000     32.06600000     55.84700000</v>
   <v name="DARWINR">      0.00000000      0.00000000      0.00000000      0.00000000</v>
   <v name="DARWINV">      1.00000000      1.00000000      1.00000000      1.00000000</v>
   <i type="logical" name="LCORR"> T  </i>
  </separator>
  <i type="logical" name="GGA_COMPAT"> T  </i>
  <i type="logical" name="LBERRY"> F  </i>
  <i type="int" name="ICORELEVEL">     0</i>
  <i type="logical" name="LDAU"> T  </i>
  <v type="int" name="LDAUTYPE">     2</v>
  <v type="int" name="LDAUL">    -1</v>
  <v name="LDAUU">      0.00000000</v>
  <v name="LDAUJ">      0.00000000</v>
  <i type="int" name="LDAUPRINT">     0</i>
  <i type="int" name="I_CONSTRAINED_M">     0</i>
  <separator name="electronic exchange-correlation" >
   <i type="string" name="GGA">PE</i>
   <i type="int" name="VOSKOWN">     0</i>
   <i type="logical" name="LHFCALC"> F  </i>
   <i type="string" name="PRECFOCK"></i>
   <i type="logical" name="LSYMGRAD"> F  </i>
   <i type="logical" name="LHFONE"> F  </i>
   <i type="logical" name="LRHFCALC"> F  </i>
   <i type="logical" name="LTHOMAS"> F  </i>
   <i type="logical" name="LMODELHF"> F  </i>
   <i name="ENCUT4O">     -1.00000000</i>
   <i type="int" name="EXXOEP">     0</i>
   <i type="int" name="FOURORBIT">     0</i>
   <i name="AEXX">      0.00000000</i>
   <i name="HFALPHA">      0.00000000</i>
   <i name="MCALPHA">      0.00000000</i>
   <i name="ALDAX">      1.00000000</i>
   <i name="AGGAX">      1.00000000</i>
   <i name="ALDAC">      1.00000000</i>
   <i name="AGGAC">      1.00000000</i>
   <i type="int" name="NKREDX">     1</i>
   <i type="int" name="NKREDY">     1</i>
   <i type="int" name="NKREDZ">     1</i>
   <i type="logical" name="SHIFTRED"> F  </i>
   <i type="logical" name="ODDONLY"> F  </i>
   <i type="logical" name="EVENONLY"> F  </i>
   <i type="int" name="LMAXFOCK">     0</i>
   <i type="int" name="NMAXFOCKAE">     0</i>
   <i type="logical" name="LFOCKAEDFT"> F  </i>
   <i name="HFSCREEN">      0.00000000</i>
   <i name="HFSCREENC">      0.00000000</i>
   <i type="int" name="NBANDSGWLOW">     0</i>
  </separator>
  <separator name="vdW DFT" >
   <i type="logical" name="LUSE_VDW"> F  </i>
   <i name="Zab_VDW">     -0.84910000</i>
   <i name="PARAM1">      0.12340000</i>
   <i name="PARAM2">      1.00000000</i>
   <i name="PARAM3">      0.00000000</i>
  </separator>
  <separator name="model GW" >
   <i type="int" name="MODEL_GW">     0</i>
   <i name="MODEL_EPS0">      8.59048892</i>
   <i name="MODEL_ALPHA">      1.00000000</i>
  </separator>
  <separator name="linear response parameters" >
   <i type="logical" name="LEPSILON"> F  </i>
   <i type="logical" name="LRPA"> F  </i>
   <i type="logical" name="LNABLA"> F  </i>
   <i type="logical" name="LVEL"> F  </i>
   <i type="int" name="KINTER">     0</i>
   <i name="CSHIFT">      0.10000000</i>
   <i name="OMEGAMAX">     -1.00000000</i>
   <i name="DEG_THRESHOLD">      0.00200000</i>
   <i name="RTIME">     -0.10000000</i>
   <i name="WPLASMAI">      0.00000000</i>
   <v name="DFIELD">      0.00000000      0.00000000      0.00000000</v>
   <v name="WPLASMA">      0.00000000      0.00000000      0.00000000      0.00000000      0.00000000      0.00000000      0.00000000      0.00000000      0.00000000</v>
  </separator>
  <separator name="orbital magnetization" >
   <i type="logical" name="NUCIND"> F  </i>
   <v name="MAGPOS">      0.00000000      0.00000000      0.00000000</v>
   <i type="logical" name="LNICSALL"> T  </i>
   <i type="logical" name="ORBITALMAG"> F  </i>
   <i type="logical" name="LMAGBLOCH"> F  </i>
   <i type="logical" name="LCHIMAG"> F  </i>
   <i type="logical" name="LGAUGE"> T  </i>
   <i type="int" name="MAGATOM">     0</i>
   <v name="MAGDIPOL">      0.00000000      0.00000000      0.00000000</v>
   <v name="AVECCONST">      0.00000000      0.00000000      0.00000000</v>
  </separator>
  <separator name="response functions" >
   <i type="logical" name="LADDER"> F  </i>
   <i type="logical" name="LRPAFORCE"> F  </i>
   <i type="logical" name="LFXC"> F  </i>
   <i type="logical" name="LHARTREE"> T  </i>
   <i type="int" name="IBSE">     0</i>
   <v type="int" name="KPOINT">    -1     0     0     0</v>
   <i type="logical" name="LTCTE"> F  </i>
   <i type="logical" name="LTETE"> F  </i>
   <i type="logical" name="LTRIPLET"> F  </i>
   <i type="logical" name="LFXCEPS"> F  </i>
   <i type="logical" name="LFXHEG"> F  </i>
   <i type="int" name="NATURALO">     2</i>
   <i type="logical" name="L2ORDER"> F  </i>
   <i type="logical" name="LMP2LT"> F  </i>
   <i type="logical" name="LUSEW"> F  </i>
   <i name="ENCUTGW">     -2.00000000</i>
   <i name="ENCUTGWSOFT">     -2.00000000</i>
   <i name="ENCUTLF">     -1.00000000</i>
   <i type="int" name="LMAXMP2">    -1</i>
   <i name="SCISSOR">      0.00000000</i>
   <i type="int" name="NOMEGA">     0</i>
   <i type="int" name="NOMEGAR">     0</i>
   <i type="int" name="NBANDSGW">    -1</i>
   <i type="int" name="NBANDSO">    -1</i>
   <i type="int" name="NBANDSV">    -1</i>
   <i type="int" name="NELM">   200</i>
   <i type="int" name="NELMHF">     1</i>
   <i type="int" name="DIM">     3</i>
   <i type="int" name="ANTIRES">     0</i>
   <i name="OMEGAMAX">    -30.00000000</i>
   <i name="OMEGAMIN">    -30.00000000</i>
   <i name="OMEGATL">   -200.00000000</i>
   <i type="int" name="OMEGAGRID">   140</i>
   <i name="CSHIFT">     -0.10000000</i>
   <i type="logical" name="SELFENERGY"> F  </i>
   <i type="logical" name="LSPECTRAL"> F  </i>
   <i type="logical" name="LSPECTRALGW"> F  </i>
   <i type="logical" name="LSINGLES"> F  </i>
   <i type="logical" name="LFERMIGW"> F  </i>
   <i type="logical" name="ODDONLYGW"> F  </i>
   <i type="logical" name="EVENONLYGW"> F  </i>
   <i type="int" name="NKREDLFX">     1</i>
   <i type="int" name="NKREDLFY">     1</i>
   <i type="int" name="NKREDLFZ">     1</i>
   <i type="int" name="MAXMEM">  2800</i>
   <i type="int" name="TELESCOPE">     0</i>
   <i type="int" name="TAUPAR">     1</i>
   <i type="int" name="OMEGAPAR">    -1</i>
   <i name="LAMBDA">      1.00000000</i>
  </separator>
  <separator name="External order field" >
   <i name="OFIELD_KAPPA">      0.00000000</i>
   <v name="OFIELD_K">      0.00000000      0.00000000      0.00000000</v>
   <i name="OFIELD_Q6_NEAR">      0.00000000</i>
   <i name="OFIELD_Q6_FAR">      0.00000000</i>
   <i name="OFIELD_A">      0.00000000</i>
  </separator>
 </parameters>
 <atominfo>
  <atoms>      88 </atoms>
  <types>       4 </types>
  <array name="atoms" >
   <dimension dim="1">ion</dimension>
   <field type="string">element</field>
   <field type="int">atomtype</field>
   <set>
    <rc><c>Li</c><c>   1</c></rc>
    <rc><c>Li</c><c>   1</c></rc>
    <rc><c>Li</c><c>   1</c></rc>
    <rc><c>Li</c><c>   1</c></rc>
    <rc><c>Li</c><c>   1</c></rc>
    <rc><c>Li</c><c>   1</c></rc>
    <rc><c>Li</c><c>   1</c></rc>
    <rc><c>Li</c><c>   1</c></rc>
    <rc><c>Li</c><c>   1</c></rc>
    <rc><c>Li</c><c>   1</c></rc>
    <rc><c>Li</c><c>   1</c></rc>
    <rc><c>Li</c><c>   1</c></rc>
    <rc><c>Li</c><c>   1</c></rc>
    <rc><c>Li</c><c>   1</c></rc>
    <rc><c>Li</c><c>   1</c></rc>
    <rc><c>Li</c><c>   1</c></rc>
    <rc><c>O </c><c>   2</c></rc>
    <rc><c>O </c><c>   2</c></rc>
    <rc><c>O </c><c>   2</c></rc>
    <rc><c>O </c><c>   2</c></rc>
    <rc><c>O </c><c>   2</c></rc>
    <rc><c>O </c><c>   2</c></rc>
    <rc><c>O </c><c>   2</c></rc>
    <rc><c>O </c><c>   2</c></rc>
    <rc><c>O </c><c>   2</c></rc>
    <rc><c>O </c><c>   2</c></rc>
    <rc><c>O </c><c>   2</c></rc>
    <rc><c>O </c><c>   2</c></rc>
    <rc><c>O </c><c>   2</c></rc>
    <rc><c>O </c><c>   2</c></rc>
    <rc><c>O </c><c>   2</c></rc>
    <rc><c>O </c><c>   2</c></rc>
    <rc><c>S </c><c>   3</c></rc>
    <rc><c>S </c><c>   3</c></rc>
    <rc><c>S </c><c>   3</c></rc>
    <rc><c>S </c><c>   3</c></rc>
    <rc><c>S </c><c>   3</c></rc>
    <rc><c>S </c><c>   3</c></rc>
    <rc><c>S </c><c>   3</c></rc>
    <rc><c>S </c><c>   3</c></rc>
    <rc><c>S </c><c>   3</c></rc>
    <rc><c>S </c><c>   3</c></rc>
    <rc><c>S </c><c>   3</c></rc>
    <rc><c>S </c><c>   3</c></rc>
    <rc><c>S </c><c>   3</c></rc>
    <rc><c>S </c><c>   3</c></rc>
    <rc><c>S </c><c>   3</c></rc>
    <rc><c>S </c><c>   3</c></rc>
    <rc><c>S </c><c>   3</c></rc>
    <rc><c>S </c><c>   3</c></rc>
    <rc><c>S </c><c>   3</c></rc>
    <rc><c>S </c><c>   3</c></rc>
    <rc><c>S </c><c>   3</c></rc>
    <rc><c>S </c><c>   3</c></rc>
    <rc><c>S </c><c>   3</c></rc>
    <rc><c>S </c><c>   3</c></rc>
    <rc><c>Fe</c><c>   4</c></rc>
    <rc><c>Fe</c><c>   4</c></rc>
    <rc><c>Fe</c><c>   4</c></rc>
    <rc><c>Fe</c><c>   4</c></rc>
    <rc><c>Fe</c><c>   4</c></rc>
    <rc><c>Fe</c><c>   4</c></rc>
    <rc><c>Fe</c><c>   4</c></rc>
    <rc><c>Fe</c><c>   4</c></rc>
    <rc><c>Fe</c><c>   4</c></rc>
    <rc><c>Fe</c><c>   4</c></rc>
    <rc><c>Fe</c><c>   4</c></rc>
    <rc><c>Fe</c><c>   4</c></rc>
    <rc><c>Fe</c><c>   4</c></rc>
    <rc><c>Fe</c><c>   4</c></rc>
    <rc><c>Fe</c><c>   4</c></rc>
    <rc><c>Fe</c><c>   4</c></rc>
    <rc><c>Fe</c><c>   4</c></rc>
    <rc><c>Fe</c><c>   4</c></rc>
    <rc><c>Fe</c><c>   4</c></rc>
    <rc><c>Fe</c><c>   4</c></rc>
    <rc><c>Fe</c><c>   4</c></rc>
    <rc><c>Fe</c><c>   4</c></rc>
    <rc><c>Fe</c><c>   4</c></rc>
    <rc><c>Fe</c><c>   4</c></rc>
    <rc><c>Fe</c><c>   4</c></rc>
    <rc><c>Fe</c><c>   4</c></rc>
    <rc><c>Fe</c><c>   4</c></rc>
    <rc><c>Fe</c><c>   4</c></rc>
    <rc><c>Fe</c><c>   4</c></rc>
    <rc><c>Fe</c><c>   4</c></rc>
    <rc><c>Fe</c><c>   4</c></rc>
    <rc><c>Fe</c><c>   4</c></rc>
   </set>
  </array>
  <array name="atomtypes" >
   <dimension dim="1">type</dimension>
   <field type="int">atomspertype</field>
   <field type="string">element</field>
   <field>mass</field>
   <field>valence</field>
   <field type="string">pseudopotential</field>
   <set>
    <rc><c>  16</c><c>Li</c><c>      7.01000000</c><c>      3.00000000</c><c>  PAW_PBE Li_sv 10Sep2004               </c></rc>
    <rc><c>  16</c><c>O </c><c>     16.00000000</c><c>      6.00000000</c><c>  PAW_PBE O 08Apr2002                   </c></rc>
    <rc><c>  24</c><c>S </c><c>     32.06600000</c><c>      6.00000000</c><c>  PAW_PBE S 06Sep2000                   </c></rc>
    <rc><c>  32</c><c>Fe</c><c>     55.84700000</c><c>     14.00000000</c><c>  PAW_PBE Fe_pv 02Aug2007               </c></rc>
   </set>
  </array>
 </atominfo>
 <structure name="initialpos" >
  <crystal>
   <varray name="basis" >
    <v>      11.11223374       0.00000000      -0.00029034 </v>
    <v>       0.00000000      11.11745194       0.00000000 </v>
    <v>      -2.77510898       0.00000000      10.19872221 </v>
   </varray>
   <i name="volume">   1259.93837498 </i>
   <varray name="rec_basis" >
    <v>       0.08999155       0.00000000       0.02448702 </v>
    <v>       0.00000000       0.08994867       0.00000000 </v>
    <v>       0.00000256       0.00000000       0.09805220 </v>
   </varray>
  </crystal>
  <varray name="positions" >
   <v>       0.28894969       0.46933910       0.15583616 </v>
   <v>       0.78894969       0.46933910       0.15583616 </v>
   <v>       0.28894969       0.96933910       0.15583616 </v>
   <v>       0.78894969       0.96933910       0.15583616 </v>
   <v>       0.04646972       0.21934976       0.18681382 </v>
   <v>       0.54646972       0.21934976       0.18586770 </v>
   <v>       0.04646972       0.71934976       0.18586770 </v>
   <v>       0.54646972       0.71934976       0.18586770 </v>
   <v>       0.45353028       0.46934976       0.81413230 </v>
   <v>       0.95353028       0.46934976       0.81413230 </v>
   <v>       0.45353028       0.96934976       0.81413230 </v>
   <v>       0.95353028       0.96934976       0.81413230 </v>
   <v>       0.21105031       0.21933910       0.84416384 </v>
   <v>       0.71105031       0.21933910       0.84416384 </v>
   <v>       0.21105031       0.71933910       0.84416384 </v>
   <v>       0.71105031       0.71933910       0.84416384 </v>
   <v>       0.07654971       0.09530995       0.80250593 </v>
   <v>       0.57654971       0.09530995       0.80250593 </v>
   <v>       0.07654971       0.59530995       0.80250593 </v>
   <v>       0.57654971       0.59530995       0.80250593 </v>
   <v>       0.32470466       0.34338175       0.80250383 </v>
   <v>       0.82470466       0.34338175       0.80250383 </v>
   <v>       0.32470466       0.84338175       0.80250383 </v>
   <v>       0.82470466       0.84338175       0.80250383 </v>
   <v>       0.17529534       0.09338175       0.19749617 </v>
   <v>       0.67529534       0.09338175       0.19749617 </v>
   <v>       0.17529534       0.59338175       0.19749617 </v>
   <v>       0.67529534       0.59338175       0.19749617 </v>
   <v>       0.42345029       0.34530995       0.19749407 </v>
   <v>       0.92345029       0.34530995       0.19749407 </v>
   <v>       0.42345029       0.84530995       0.19749407 </v>
   <v>       0.92345029       0.84530995       0.19749407 </v>
   <v>       0.21868463       0.34523395       0.37102476 </v>
   <v>       0.71868463       0.34523395       0.37102476 </v>
   <v>       0.21868463       0.84523395       0.37102476 </v>
   <v>       0.71868463       0.84523395       0.37102476 </v>
   <v>       0.46681660       0.09344897       0.37102399 </v>
   <v>       0.96681660       0.09344897       0.37102399 </v>
   <v>       0.46681660       0.59344897       0.37102399 </v>
   <v>       0.96681660       0.59344897       0.37102399 </v>
   <v>       0.03318340       0.34344897       0.62897601 </v>
   <v>       0.53318340       0.34344897       0.62897601 </v>
   <v>       0.03318340       0.84344897       0.62897601 </v>
   <v>       0.53318340       0.84344897       0.62897601 </v>
   <v>       0.28131537       0.09523395       0.62897524 </v>
   <v>       0.78131537       0.09523395       0.62897524 </v>
   <v>       0.28131537       0.59523395       0.62897524 </v>
   <v>       0.78131537       0.59523395       0.62897524 </v>
   <v>       0.12439279       0.34434306       0.00000412 </v>
   <v>       0.62439279       0.34434306       0.00000412 </v>
   <v>       0.12439279       0.84434306       0.00000412 </v>
   <v>       0.62439279       0.84434306       0.00000412 </v>
   <v>       0.37560721       0.09434306       0.99999588 </v>
   <v>       0.87560721       0.09434306       0.99999588 </v>
   <v>       0.37560721       0.59434306       0.99999588 </v>
   <v>       0.87560721       0.59434306       0.99999588 </v>
   <v>       0.03824426       0.10634799       0.60632306 </v>
   <v>       0.53824426       0.10634799       0.60632306 </v>
   <v>       0.03824426       0.60634799       0.60632306 </v>
   <v>       0.53824426       0.60634799       0.60632306 </v>
   <v>       0.26492712       0.33232651       0.60632763 </v>
   <v>       0.76492712       0.33232651       0.60632763 </v>
   <v>       0.26492712       0.83232651       0.60632763 </v>
   <v>       0.76492712       0.83232651       0.60632763 </v>
   <v>       0.23507288       0.08232651       0.39367237 </v>
   <v>       0.73507288       0.08232651       0.39367237 </v>
   <v>       0.23507288       0.58232651       0.39367237 </v>
   <v>       0.73507288       0.58232651       0.39367237 </v>
   <v>       0.46175574       0.35634799       0.39367694 </v>
   <v>       0.96175574       0.35634799       0.39367694 </v>
   <v>       0.46175574       0.85634799       0.39367694 </v>
   <v>       0.96175574       0.85634799       0.39367694 </v>
   <v>       0.03848398       0.46936404       0.15397331 </v>
   <v>       0.53848398       0.46936404       0.15397331 </v>
   <v>       0.03848398       0.96936404       0.15397331 </v>
   <v>       0.53848398       0.96936404       0.15397331 </v>
   <v>       0.28861657       0.21935690       0.15447525 </v>
   <v>       0.78861657       0.21935690       0.15447525 </v>
   <v>       0.28861657       0.71935690       0.15447525 </v>
   <v>       0.78861657       0.71935690       0.15447525 </v>
   <v>       0.21138343       0.46935690       0.84552475 </v>
   <v>       0.71138343       0.46935690       0.84552475 </v>
   <v>       0.21138343       0.96935690       0.84552475 </v>
   <v>       0.71138343       0.96935690       0.84552475 </v>
   <v>       0.46151602       0.21936404       0.84602669 </v>
   <v>       0.96151602       0.21936404       0.84602669 </v>
   <v>       0.46151602       0.71936404       0.84602669 </v>
   <v>       0.96151602       0.71936404       0.84602669 </v>
  </varray>
 </structure>
 <calculation>
  <scstep>
   <time name="dav">  316.93  319.81</time>
   <time name="total">  320.27  323.38</time>
   <energy>
    <i name="alphaZ">   2314.49656628 </i>
    <i name="ewald"> -57722.79605251 </i>
    <i name="hartreedc"> -30349.10307340 </i>
    <i name="XCdc">   3229.30015349 </i>
    <i name="pawpsdc">  92679.89207989 </i>
    <i name="pawaedc"> -95535.38516353 </i>
    <i name="eentropy">     -0.01838049 </i>
    <i name="bandstr">    349.78278335 </i>
    <i name="atom">  95443.47970955 </i>
    <i name="e_fr_energy">  10409.64862262 </i>
    <i name="e_wo_entrp">  10409.66700311 </i>
    <i name="e_0_energy">  10409.65781287 </i>
   </energy>
  </scstep>
  <scstep>
   <time name="dav">  310.21  313.04</time>
   <time name="total">  310.22  313.05</time>
   <energy>
    <i name="e_fr_energy">   1177.47781867 </i>
    <i name="e_wo_entrp">   1177.54357491 </i>
    <i name="e_0_energy">   1177.51069679 </i>
   </energy>
  </scstep>
  <scstep>
   <time name="dav">  328.27  331.44</time>
   <time name="total">  328.27  331.44</time>
   <energy>
    <i name="e_fr_energy">   -308.11817889 </i>
    <i name="e_wo_entrp">   -308.11817889 </i>
    <i name="e_0_energy">   -308.11817889 </i>
   </energy>
  </scstep>
  <scstep>
   <time name="dav">  348.93  352.39</time>
   <time name="total">  348.93  352.39</time>
   <energy>
    <i name="e_fr_energy">   -476.30043733 </i>
    <i name="e_wo_entrp">   -476.30043733 </i>
    <i name="e_0_energy">   -476.30043733 </i>
   </energy>
  </scstep>
  <scstep>
   <time name="dav">  462.23  466.99</time>
   <time name="total">  471.56  476.37</time>
   <energy>
    <i name="e_fr_energy">   -488.73427974 </i>
    <i name="e_wo_entrp">   -488.73427974 </i>
    <i name="e_0_energy">   -488.73427974 </i>
   </energy>
  </scstep>
  <scstep>
   <time name="dav">  403.48  407.41</time>
   <time name="total">  416.14  420.24</time>
   <energy>
    <i name="e_fr_energy">   -489.20074657 </i>
    <i name="e_wo_entrp">   -489.20074657 </i>
    <i name="e_0_energy">   -489.20074657 </i>
   </energy>
  </scstep>
  <scstep>
   <time name="dav">  434.07  438.09</time>
   <time name="total">  446.80  450.90</time>
   <energy>
    <i name="e_fr_energy">   -489.21740904 </i>
    <i name="e_wo_entrp">   -489.21740904 </i>
    <i name="e_0_energy">   -489.21740904 </i>
   </energy>
  </scstep>
  <scstep>
   <time name="dav">  405.09  409.37</time>
   <time name="total">  417.66  422.15</time>
   <energy>
    <i name="e_fr_energy">   -489.21693975 </i>
    <i name="e_wo_entrp">   -489.21693975 </i>
    <i name="e_0_energy">   -489.21693975 </i>
   </energy>
  </scstep>
  <scstep>
   <time name="dav">  438.60  442.76</time>
   <time name="total">  451.42  455.62</time>
   <energy>
    <i name="e_fr_energy">   -489.21659271 </i>
    <i name="e_wo_entrp">   -489.21659271 </i>
    <i name="e_0_energy">   -489.21659271 </i>
   </energy>
  </scstep>
  <scstep>
   <time name="dav">  411.72  418.50</time>
   <time name="total">  424.35  431.29</time>
   <energy>
    <i name="e_fr_energy">   -489.21615798 </i>
    <i name="e_wo_entrp">   -489.21615798 </i>
    <i name="e_0_energy">   -489.21615798 </i>
   </energy>
  </scstep>
  <scstep>
   <time name="dav">  412.98  417.25</time>
   <time name="total">  425.62  430.02</time>
   <energy>
    <i name="e_fr_energy">   -489.21551709 </i>
    <i name="e_wo_entrp">   -489.21551709 </i>
    <i name="e_0_energy">   -489.21551709 </i>
   </energy>
  </scstep>
  <scstep>
   <time name="dav">  367.08  370.68</time>
   <time name="total">  379.77  383.49</time>
   <energy>
    <i name="e_fr_energy">   -489.21544524 </i>
    <i name="e_wo_entrp">   -489.21544524 </i>
    <i name="e_0_energy">   -489.21544524 </i>
   </energy>
  </scstep>
  <scstep>
   <time name="dav">  380.93  384.83</time>
   <time name="total">  393.67  397.65</time>
   <energy>
    <i name="e_fr_energy">   -489.21545337 </i>
    <i name="e_wo_entrp">   -489.21545337 </i>
    <i name="e_0_energy">   -489.21545337 </i>
   </energy>
  </scstep>
  <scstep>
   <time name="dav">  251.78  254.32</time>
   <time name="total">  264.48  267.11</time>
   <energy>
    <i name="e_fr_energy">   -489.21545122 </i>
    <i name="e_wo_entrp">   -489.21545122 </i>
    <i name="e_0_energy">   -489.21545122 </i>
   </energy>
  </scstep>
  <scstep>
   <time name="dav">  388.50  392.14</time>
   <time name="total">  401.17  404.91</time>
   <energy>
    <i name="e_fr_energy">   -489.21538995 </i>
    <i name="e_wo_entrp">   -489.21538995 </i>
    <i name="e_0_energy">   -489.21538995 </i>
   </energy>
  </scstep>
  <scstep>
   <time name="dav">  321.79  325.21</time>
   <time name="total">  334.45  338.05</time>
   <energy>
    <i name="e_fr_energy">   -489.21539107 </i>
    <i name="e_wo_entrp">   -489.21539107 </i>
    <i name="e_0_energy">   -489.21539107 </i>
   </energy>
  </scstep>
  <scstep>
   <time name="dav">  260.41  263.02</time>
   <time name="total">  263.74  266.35</time>
   <energy>
    <i name="alphaZ">   2314.49656628 </i>
    <i name="ewald"> -57722.79605251 </i>
    <i name="hartreedc"> -30349.08805229 </i>
    <i name="XCdc">   3229.29826117 </i>
    <i name="pawpsdc">  92678.35322449 </i>
    <i name="pawaedc"> -95533.83192576 </i>
    <i name="eentropy">     -0.00000000 </i>
    <i name="bandstr"> -10549.12712245 </i>
    <i name="atom">  95443.47970955 </i>
    <i name="e_fr_energy">   -489.21539152 </i>
    <i name="e_wo_entrp">   -489.21539152 </i>
    <i name="e_0_energy">   -489.21539152 </i>
   </energy>
  </scstep>
  <structure>
   <crystal>
    <varray name="basis" >
     <v>      11.11223374       0.00000000      -0.00029034 </v>
     <v>       0.00000000      11.11745194       0.00000000 </v>
     <v>      -2.77510898       0.00000000      10.19872221 </v>
    </varray>
    <i name="volume">   1259.93837498 </i>
    <varray name="rec_basis" >
     <v>       0.08999155       0.00000000       0.02448702 </v>
     <v>       0.00000000       0.08994867       0.00000000 </v>
     <v>       0.00000256       0.00000000       0.09805220 </v>
    </varray>
   </crystal>
   <varray name="positions" >
    <v>       0.28894969       0.46933910       0.15583616 </v>
    <v>       0.78894969       0.46933910       0.15583616 </v>
    <v>       0.28894969       0.96933910       0.15583616 </v>
    <v>       0.78894969       0.96933910       0.15583616 </v>
    <v>       0.04646972       0.21934976       0.18681382 </v>
    <v>       0.54646972       0.21934976       0.18586770 </v>
    <v>       0.04646972       0.71934976       0.18586770 </v>
    <v>       0.54646972       0.71934976       0.18586770 </v>
    <v>       0.45353028       0.46934976       0.81413230 </v>
    <v>       0.95353028       0.46934976       0.81413230 </v>
    <v>       0.45353028       0.96934976       0.81413230 </v>
    <v>       0.95353028       0.96934976       0.81413230 </v>
    <v>       0.21105031       0.21933910       0.84416384 </v>
    <v>       0.71105031       0.21933910       0.84416384 </v>
    <v>       0.21105031       0.71933910       0.84416384 </v>
    <v>       0.71105031       0.71933910       0.84416384 </v>
    <v>       0.07654971       0.09530995       0.80250593 </v>
    <v>       0.57654971       0.09530995       0.80250593 </v>
    <v>       0.07654971       0.59530995       0.80250593 </v>
    <v>       0.57654971       0.59530995       0.80250593 </v>
    <v>       0.32470466       0.34338175       0.80250383 </v>
    <v>       0.82470466       0.34338175       0.80250383 </v>
    <v>       0.32470466       0.84338175       0.80250383 </v>
    <v>       0.82470466       0.84338175       0.80250383 </v>
    <v>       0.17529534       0.09338175       0.19749617 </v>
    <v>       0.67529534       0.09338175       0.19749617 </v>
    <v>       0.17529534       0.59338175       0.19749617 </v>
    <v>       0.67529534       0.59338175       0.19749617 </v>
    <v>       0.42345029       0.34530995       0.19749407 </v>
    <v>       0.92345029       0.34530995       0.19749407 </v>
    <v>       0.42345029       0.84530995       0.19749407 </v>
    <v>       0.92345029       0.84530995       0.19749407 </v>
    <v>       0.21868463       0.34523395       0.37102476 </v>
    <v>       0.71868463       0.34523395       0.37102476 </v>
    <v>       0.21868463       0.84523395       0.37102476 </v>
    <v>       0.71868463       0.84523395       0.37102476 </v>
    <v>       0.46681660       0.09344897       0.37102399 </v>
    <v>       0.96681660       0.09344897       0.37102399 </v>
    <v>       0.46681660       0.59344897       0.37102399 </v>
    <v>       0.96681660       0.59344897       0.37102399 </v>
    <v>       0.03318340       0.34344897       0.62897601 </v>
    <v>       0.53318340       0.34344897       0.62897601 </v>
    <v>       0.03318340       0.84344897       0.62897601 </v>
    <v>       0.53318340       0.84344897       0.62897601 </v>
    <v>       0.28131537       0.09523395       0.62897524 </v>
    <v>       0.78131537       0.09523395       0.62897524 </v>
    <v>       0.28131537       0.59523395       0.62897524 </v>
    <v>       0.78131537       0.59523395       0.62897524 </v>
    <v>       0.12439279       0.34434306       0.00000412 </v>
    <v>       0.62439279       0.34434306       0.00000412 </v>
    <v>       0.12439279       0.84434306       0.00000412 </v>
    <v>       0.62439279       0.84434306       0.00000412 </v>
    <v>       0.37560721       0.09434306       0.99999588 </v>
    <v>       0.87560721       0.09434306       0.99999588 </v>
    <v>       0.37560721       0.59434306       0.99999588 </v>
    <v>       0.87560721       0.59434306       0.99999588 </v>
    <v>       0.03824426       0.10634799       0.60632306 </v>
    <v>       0.53824426       0.10634799       0.60632306 </v>
    <v>       0.03824426       0.60634799       0.60632306 </v>
    <v>       0.53824426       0.60634799       0.60632306 </v>
    <v>       0.26492712       0.33232651       0.60632763 </v>
    <v>       0.76492712       0.33232651       0.60632763 </v>
    <v>       0.26492712       0.83232651       0.60632763 </v>
    <v>       0.76492712       0.83232651       0.60632763 </v>
    <v>       0.23507288       0.08232651       0.39367237 </v>
    <v>       0.73507288       0.08232651       0.39367237 </v>
    <v>       0.23507288       0.58232651       0.39367237 </v>
    <v>       0.73507288       0.58232651       0.39367237 </v>
    <v>       0.46175574       0.35634799       0.39367694 </v>
    <v>       0.96175574       0.35634799       0.39367694 </v>
    <v>       0.46175574       0.85634799       0.39367694 </v>
    <v>       0.96175574       0.85634799       0.39367694 </v>
    <v>       0.03848398       0.46936404       0.15397331 </v>
    <v>       0.53848398       0.46936404       0.15397331 </v>
    <v>       0.03848398       0.96936404       0.15397331 </v>
    <v>       0.53848398       0.96936404       0.15397331 </v>
    <v>       0.28861657       0.21935690       0.15447525 </v>
    <v>       0.78861657       0.21935690       0.15447525 </v>
    <v>       0.28861657       0.71935690       0.15447525 </v>
    <v>       0.78861657       0.71935690       0.15447525 </v>
    <v>       0.21138343       0.46935690       0.84552475 </v>
    <v>       0.71138343       0.46935690       0.84552475 </v>
    <v>       0.21138343       0.96935690       0.84552475 </v>
    <v>       0.71138343       0.96935690       0.84552475 </v>
    <v>       0.46151602       0.21936404       0.84602669 </v>
    <v>       0.96151602       0.21936404       0.84602669 </v>
    <v>       0.46151602       0.71936404       0.84602669 </v>
    <v>       0.96151602       0.71936404       0.84602669 </v>
   </varray>
  </structure>
  <varray name="forces" >
   <v>      -0.00028042      -0.00039657      -0.00114508 </v>
   <v>      -0.00004570       0.00019384      -0.00019560 </v>
   <v>      -0.00014384       0.00029365      -0.00014654 </v>
   <v>       0.00019658       0.00008967      -0.00110135 </v>
   <v>       0.01070999      -0.00471881      -0.00749261 </v>
   <v>      -0.00014299       0.00003699      -0.00013373 </v>
   <v>       0.00000485       0.00002146      -0.00013968 </v>
   <v>      -0.00008599       0.00000770      -0.00029412 </v>
   <v>      -0.00007046       0.00001483       0.00012635 </v>
   <v>       0.00046118      -0.00038734       0.00070019 </v>
   <v>       0.00016256       0.00002991       0.00018990 </v>
   <v>      -0.00019460       0.00032719       0.00052038 </v>
   <v>      -0.00059768       0.00052012       0.00080069 </v>
   <v>       0.00035715      -0.00031429       0.00053714 </v>
   <v>      -0.00009555      -0.00010928       0.00024063 </v>
   <v>      -0.00004086       0.00011215       0.00012051 </v>
   <v>       0.00085897      -0.00084327      -0.00149081 </v>
   <v>      -0.00045355       0.00028782      -0.00081800 </v>
   <v>      -0.00013967       0.00096958      -0.00105101 </v>
   <v>       0.00018456      -0.00010354      -0.00027568 </v>
   <v>       0.00078586      -0.00033852      -0.00111498 </v>
   <v>      -0.00096876       0.00064633      -0.00110301 </v>
   <v>      -0.00020799       0.00004876      -0.00040326 </v>
   <v>       0.00010311      -0.00052067      -0.00066653 </v>
   <v>      -0.00191027       0.00052306       0.00481967 </v>
   <v>       0.00054938       0.00016323       0.00094988 </v>
   <v>       0.00011382       0.00017684       0.00102914 </v>
   <v>       0.00023321       0.00000117       0.00039359 </v>
   <v>       0.00031470       0.00023515       0.00115435 </v>
   <v>      -0.00335765       0.00164270       0.00429755 </v>
   <v>      -0.00012346      -0.00000859       0.00041761 </v>
   <v>      -0.00032136       0.00002142       0.00111243 </v>
   <v>      -0.00110557      -0.00063594       0.00061171 </v>
   <v>       0.00030190      -0.00030575       0.00005753 </v>
   <v>      -0.00030126      -0.00011170       0.00037717 </v>
   <v>       0.00038255       0.00021626       0.00015380 </v>
   <v>       0.00013469       0.00025479       0.00044863 </v>
   <v>       0.00039657       0.00097577       0.00001439 </v>
   <v>      -0.00015902      -0.00014401       0.00030725 </v>
   <v>       0.00017513      -0.00012550       0.00018197 </v>
   <v>       0.00014670      -0.00020308      -0.00174744 </v>
   <v>      -0.00041320       0.00017076      -0.00078012 </v>
   <v>      -0.00004108       0.00065907      -0.00099969 </v>
   <v>      -0.00012474       0.00008943      -0.00045111 </v>
   <v>      -0.00029052       0.00003473      -0.00086743 </v>
   <v>       0.00051285      -0.00015414      -0.00116527 </v>
   <v>       0.00007289      -0.00033654      -0.00067149 </v>
   <v>       0.00002787      -0.00010068      -0.00039983 </v>
   <v>       0.00061465       0.00099848      -0.00010643 </v>
   <v>       0.00005110       0.00009322       0.00034224 </v>
   <v>       0.00010536      -0.00024828       0.00008372 </v>
   <v>      -0.00026259      -0.00031186       0.00025694 </v>
   <v>       0.00040566      -0.00027203      -0.00009971 </v>
   <v>      -0.00102160      -0.00049761       0.00033504 </v>
   <v>       0.00044018       0.00037395       0.00004942 </v>
   <v>      -0.00021974       0.00005422       0.00019673 </v>
   <v>      -0.00013588       0.00040354       0.00258932 </v>
   <v>      -0.00019369      -0.00011671       0.00030611 </v>
   <v>      -0.00029039      -0.00012691       0.00055487 </v>
   <v>      -0.00023532       0.00011328       0.00027610 </v>
   <v>       0.00003315      -0.00002604       0.00171464 </v>
   <v>       0.00029144      -0.00000108       0.00070631 </v>
   <v>       0.00035395      -0.00007797       0.00018198 </v>
   <v>       0.00009983      -0.00005231       0.00053453 </v>
   <v>       0.00293781      -0.00267540       0.00070351 </v>
   <v>      -0.00172931       0.00014929      -0.00006807 </v>
   <v>      -0.00037492       0.00096473      -0.00027312 </v>
   <v>      -0.00022153      -0.00004804      -0.00006469 </v>
   <v>       0.00127436      -0.00020327      -0.00044133 </v>
   <v>      -0.00316054       0.00388670       0.00353355 </v>
   <v>       0.00017665       0.00009133      -0.00007481 </v>
   <v>       0.00048849      -0.00148854      -0.00036448 </v>
   <v>       0.00168792      -0.00131345      -0.00319644 </v>
   <v>      -0.00028217      -0.00001002      -0.00026002 </v>
   <v>       0.00069095       0.00223480      -0.00270040 </v>
   <v>      -0.00015823      -0.00011030      -0.00035832 </v>
   <v>      -0.00512512       0.00032715      -0.00281354 </v>
   <v>      -0.00166171      -0.00063681      -0.00331217 </v>
   <v>       0.00006105      -0.00010517      -0.00043215 </v>
   <v>      -0.00005394       0.00000981      -0.00044629 </v>
   <v>      -0.00119652      -0.00107089       0.00200490 </v>
   <v>       0.00030843      -0.00025085       0.00014441 </v>
   <v>      -0.00028961       0.00025274       0.00040590 </v>
   <v>       0.00063281       0.00067546       0.00148447 </v>
   <v>      -0.00005573      -0.00004619       0.00013821 </v>
   <v>       0.00030331       0.00026255       0.00317268 </v>
   <v>       0.00007529      -0.00001315       0.00028505 </v>
   <v>       0.00006524      -0.00009452       0.00010326 </v>
  </varray>
  <varray name="stress" >
   <v>       2.14535178      -0.01185406      -0.09116966 </v>
   <v>      -0.01185987       1.88610776       0.00263175 </v>
   <v>      -0.09147552       0.00262439       0.50835179 </v>
  </varray>
  <energy>
   <i name="e_fr_energy">   -489.21539152 </i>
   <i name="e_wo_entrp">   -489.21539152 </i>
   <i name="e_0_energy">     -0.00000000 </i>
  </energy>
  <time name="totalsc"> 6931.05 7013.56</time>
  <eigenvalues>
   <array>
    <dimension dim="1">band</dimension>
    <dimension dim="2">kpoint</dimension>
    <dimension dim="3">spin</dimension>
    <field>eigene</field>
    <field>occ</field>
    <set>
     <set comment="spin 1">
      <set comment="kpoint 1">
       <r>  -51.0554    1.0000 </r>
       <r>  -51.0551    1.0000 </r>
       <r>  -51.0549    1.0000 </r>
       <r>  -51.0547    1.0000 </r>
       <r>  -51.0543    1.0000 </r>
       <r>  -51.0542    1.0000 </r>
       <r>  -51.0541    1.0000 </r>
       <r>  -51.0538    1.0000 </r>
       <r>  -51.0532    1.0000 </r>
       <r>  -51.0529    1.0000 </r>
       <r>  -51.0529    1.0000 </r>
       <r>  -51.0527    1.0000 </r>
       <r>  -51.0527    1.0000 </r>
       <r>  -51.0519    1.0000 </r>
       <r>  -51.0515    1.0000 </r>
       <r>  -51.0507    1.0000 </r>
       <r>  -51.0446    1.0000 </r>
       <r>  -51.0442    1.0000 </r>
       <r>  -51.0441    1.0000 </r>
       <r>  -51.0440    1.0000 </r>
       <r>  -51.0439    1.0000 </r>
       <r>  -51.0434    1.0000 </r>
       <r>  -51.0431    1.0000 </r>
       <r>  -51.0430    1.0000 </r>
       <r>  -51.0395    1.0000 </r>
       <r>  -51.0394    1.0000 </r>
       <r>  -51.0393    1.0000 </r>
       <r>  -51.0393    1.0000 </r>
       <r>  -51.0393    1.0000 </r>
       <r>  -51.0392    1.0000 </r>
       <r>  -51.0390    1.0000 </r>
       <r>  -51.0379    1.0000 </r>
       <r>  -49.7020    1.0000 </r>
       <r>  -49.7017    1.0000 </r>
       <r>  -49.7016    1.0000 </r>
       <r>  -49.7015    1.0000 </r>
       <r>  -49.7015    1.0000 </r>
       <r>  -49.7006    1.0000 </r>
       <r>  -49.7005    1.0000 </r>
       <r>  -49.7003    1.0000 </r>
       <r>  -49.6941    1.0000 </r>
       <r>  -49.6940    1.0000 </r>
       <r>  -49.6940    1.0000 </r>
       <r>  -49.6939    1.0000 </r>
       <r>  -49.6939    1.0000 </r>
       <r>  -49.6938    1.0000 </r>
       <r>  -49.6936    1.0000 </r>
       <r>  -49.6922    1.0000 </r>
       <r>  -49.5992    1.0000 </r>
       <r>  -49.5985    1.0000 </r>
       <r>  -49.5980    1.0000 </r>
       <r>  -49.5980    1.0000 </r>
       <r>  -49.5979    1.0000 </r>
       <r>  -49.5977    1.0000 </r>
       <r>  -49.5976    1.0000 </r>
       <r>  -49.5971    1.0000 </r>
       <r>  -49.5969    1.0000 </r>
       <r>  -49.5968    1.0000 </r>
       <r>  -49.5967    1.0000 </r>
       <r>  -49.5965    1.0000 </r>
       <r>  -49.5964    1.0000 </r>
       <r>  -49.5964    1.0000 </r>
       <r>  -49.5963    1.0000 </r>
       <r>  -49.5962    1.0000 </r>
       <r>  -49.5678    1.0000 </r>
       <r>  -49.5670    1.0000 </r>
       <r>  -49.5669    1.0000 </r>
       <r>  -49.5666    1.0000 </r>
       <r>  -49.5666    1.0000 </r>
       <r>  -49.5664    1.0000 </r>
       <r>  -49.5662    1.0000 </r>
       <r>  -49.5654    1.0000 </r>
       <r>  -49.5651    1.0000 </r>
       <r>  -49.5649    1.0000 </r>
       <r>  -49.5648    1.0000 </r>
       <r>  -49.5648    1.0000 </r>
       <r>  -49.5646    1.0000 </r>
       <r>  -49.5644    1.0000 </r>
       <r>  -49.5643    1.0000 </r>
       <r>  -49.5643    1.0000 </r>
       <r>  -49.5545    1.0000 </r>
       <r>  -49.5542    1.0000 </r>
       <r>  -49.5541    1.0000 </r>
       <r>  -49.5541    1.0000 </r>
       <r>  -49.5540    1.0000 </r>
       <r>  -49.5532    1.0000 </r>
       <r>  -49.5528    1.0000 </r>
       <r>  -49.5527    1.0000 </r>
       <r>  -49.5395    1.0000 </r>
       <r>  -49.5394    1.0000 </r>
       <r>  -49.5393    1.0000 </r>
       <r>  -49.5393    1.0000 </r>
       <r>  -49.5393    1.0000 </r>
       <r>  -49.5390    1.0000 </r>
       <r>  -49.5389    1.0000 </r>
       <r>  -49.5373    1.0000 </r>
       <r>  -39.8662    1.0000 </r>
       <r>  -39.8659    1.0000 </r>
       <r>  -39.8658    1.0000 </r>
       <r>  -39.8656    1.0000 </r>
       <r>  -39.8655    1.0000 </r>
       <r>  -39.8654    1.0000 </r>
       <r>  -39.8652    1.0000 </r>
       <r>  -39.8651    1.0000 </r>
       <r>  -39.8651    1.0000 </r>
       <r>  -39.8650    1.0000 </r>
       <r>  -39.8649    1.0000 </r>
       <r>  -39.8648    1.0000 </r>
       <r>  -39.8645    1.0000 </r>
       <r>  -39.8644    1.0000 </r>
       <r>  -39.8643    1.0000 </r>
       <r>  -39.8637    1.0000 </r>
       <r>  -13.2251    1.0000 </r>
       <r>  -13.2245    1.0000 </r>
       <r>  -13.2104    1.0000 </r>
       <r>  -13.1835    1.0000 </r>
       <r>  -13.1010    1.0000 </r>
       <r>  -13.0992    1.0000 </r>
       <r>  -13.0987    1.0000 </r>
       <r>  -13.0931    1.0000 </r>
       <r>  -13.0860    1.0000 </r>
       <r>  -13.0802    1.0000 </r>
       <r>  -13.0798    1.0000 </r>
       <r>  -13.0777    1.0000 </r>
       <r>  -12.9881    1.0000 </r>
       <r>  -12.9774    1.0000 </r>
       <r>  -12.9421    1.0000 </r>
       <r>  -12.9416    1.0000 </r>
       <r>   -7.6457    1.0000 </r>
       <r>   -7.4060    1.0000 </r>
       <r>   -7.3259    1.0000 </r>
       <r>   -7.3257    1.0000 </r>
       <r>   -7.3089    1.0000 </r>
       <r>   -7.3087    1.0000 </r>
       <r>   -7.3077    1.0000 </r>
       <r>   -7.3067    1.0000 </r>
       <r>   -7.1698    1.0000 </r>
       <r>   -7.1572    1.0000 </r>
       <r>   -7.1238    1.0000 </r>
       <r>   -7.1236    1.0000 </r>
       <r>   -7.0357    1.0000 </r>
       <r>   -7.0226    1.0000 </r>
       <r>   -7.0030    1.0000 </r>
       <r>   -7.0025    1.0000 </r>
       <r>   -6.9414    1.0000 </r>
       <r>   -6.9410    1.0000 </r>
       <r>   -6.8880    1.0000 </r>
       <r>   -6.8878    1.0000 </r>
       <r>   -6.8662    1.0000 </r>
       <r>   -6.8621    1.0000 </r>
       <r>   -6.8352    1.0000 </r>
       <r>   -6.8042    1.0000 </r>
       <r>   -1.9356    1.0000 </r>
       <r>   -1.9352    1.0000 </r>
       <r>   -1.9103    1.0000 </r>
       <r>   -1.8934    1.0000 </r>
       <r>   -1.6664    1.0000 </r>
       <r>   -1.6663    1.0000 </r>
       <r>   -1.6586    1.0000 </r>
       <r>   -1.6571    1.0000 </r>
       <r>   -1.5996    1.0000 </r>
       <r>   -1.5978    1.0000 </r>
       <r>   -1.5861    1.0000 </r>
       <r>   -1.5861    1.0000 </r>
       <r>   -1.2983    1.0000 </r>
       <r>   -1.1748    1.0000 </r>
       <r>   -1.1746    1.0000 </r>
       <r>   -1.1133    1.0000 </r>
       <r>   -1.1132    1.0000 </r>
       <r>   -1.1070    1.0000 </r>
       <r>   -1.0492    1.0000 </r>
       <r>   -0.9809    1.0000 </r>
       <r>   -0.9647    1.0000 </r>
       <r>   -0.9596    1.0000 </r>
       <r>   -0.9579    1.0000 </r>
       <r>   -0.9578    1.0000 </r>
       <r>   -0.9471    1.0000 </r>
       <r>   -0.9455    1.0000 </r>
       <r>   -0.9228    1.0000 </r>
       <r>   -0.8714    1.0000 </r>
       <r>   -0.8710    1.0000 </r>
       <r>   -0.8036    1.0000 </r>
       <r>   -0.8028    1.0000 </r>
       <r>   -0.8023    1.0000 </r>
       <r>   -0.7753    1.0000 </r>
       <r>   -0.7741    1.0000 </r>
       <r>   -0.7741    1.0000 </r>
       <r>   -0.7610    1.0000 </r>
       <r>   -0.7166    1.0000 </r>
       <r>   -0.7165    1.0000 </r>
       <r>   -0.7067    1.0000 </r>
       <r>   -0.7048    1.0000 </r>
       <r>   -0.6995    1.0000 </r>
       <r>   -0.6992    1.0000 </r>
       <r>   -0.6092    1.0000 </r>
       <r>   -0.6091    1.0000 </r>
       <r>   -0.5618    1.0000 </r>
       <r>   -0.5617    1.0000 </r>
       <r>   -0.5498    1.0000 </r>
       <r>   -0.5483    1.0000 </r>
       <r>   -0.4081    1.0000 </r>
       <r>   -0.4080    1.0000 </r>
       <r>   -0.3574    1.0000 </r>
       <r>   -0.3480    1.0000 </r>
       <r>   -0.3295    1.0000 </r>
       <r>   -0.3294    1.0000 </r>
       <r>   -0.2987    1.0000 </r>
       <r>   -0.2985    1.0000 </r>
       <r>   -0.2812    1.0000 </r>
       <r>   -0.2694    1.0000 </r>
       <r>   -0.2631    1.0000 </r>
       <r>   -0.2559    1.0000 </r>
       <r>   -0.2554    1.0000 </r>
       <r>   -0.2090    1.0000 </r>
       <r>   -0.2089    1.0000 </r>
       <r>   -0.1886    1.0000 </r>
       <r>   -0.1865    1.0000 </r>
       <r>   -0.1864    1.0000 </r>
       <r>   -0.1759    1.0000 </r>
       <r>   -0.1581    1.0000 </r>
       <r>   -0.1256    1.0000 </r>
       <r>   -0.1254    1.0000 </r>
       <r>   -0.1091    1.0000 </r>
       <r>   -0.0710    1.0000 </r>
       <r>   -0.0699    1.0000 </r>
       <r>   -0.0608    1.0000 </r>
       <r>   -0.0436    1.0000 </r>
       <r>   -0.0178    1.0000 </r>
       <r>   -0.0177    1.0000 </r>
       <r>   -0.0111    1.0000 </r>
       <r>    0.0017    1.0000 </r>
       <r>    0.0018    1.0000 </r>
       <r>    0.0464    1.0000 </r>
       <r>    0.0494    1.0000 </r>
       <r>    0.0496    1.0000 </r>
       <r>    0.0914    1.0000 </r>
       <r>    0.0937    1.0000 </r>
       <r>    0.1183    1.0000 </r>
       <r>    0.1184    1.0000 </r>
       <r>    0.1581    1.0000 </r>
       <r>    0.1625    1.0000 </r>
       <r>    0.1771    1.0000 </r>
       <r>    0.1791    1.0000 </r>
       <r>    0.1820    1.0000 </r>
       <r>    0.1820    1.0000 </r>
       <r>    0.1851    1.0000 </r>
       <r>    0.1889    1.0000 </r>
       <r>    0.1936    1.0000 </r>
       <r>    0.1946    1.0000 </r>
       <r>    0.2012    1.0000 </r>
       <r>    0.2013    1.0000 </r>
       <r>    0.2391    1.0000 </r>
       <r>    0.2510    1.0000 </r>
       <r>    0.2567    1.0000 </r>
       <r>    0.2569    1.0000 </r>
       <r>    0.2766    1.0000 </r>
       <r>    0.3371    1.0000 </r>
       <r>    0.3472    1.0000 </r>
       <r>    0.3591    1.0000 </r>
       <r>    0.3592    1.0000 </r>
       <r>    0.3606    1.0000 </r>
       <r>    0.3606    1.0000 </r>
       <r>    0.3885    1.0000 </r>
       <r>    0.4020    1.0000 </r>
       <r>    0.4523    1.0000 </r>
       <r>    0.4523    1.0000 </r>
       <r>    0.5791    1.0000 </r>
       <r>    0.5791    1.0000 </r>
       <r>    0.5846    1.0000 </r>
       <r>    0.6017    1.0000 </r>
       <r>    0.6018    1.0000 </r>
       <r>    0.6067    1.0000 </r>
       <r>    0.6074    1.0000 </r>
       <r>    0.6402    1.0000 </r>
       <r>    0.6514    1.0000 </r>
       <r>    0.6514    1.0000 </r>
       <r>    0.6623    1.0000 </r>
       <r>    0.6623    1.0000 </r>
       <r>    0.6651    1.0000 </r>
       <r>    0.6729    1.0000 </r>
       <r>    0.6747    1.0000 </r>
       <r>    0.6748    1.0000 </r>
       <r>    0.6970    1.0000 </r>
       <r>    0.7228    1.0000 </r>
       <r>    0.7828    1.0000 </r>
       <r>    0.8194    1.0000 </r>
       <r>    0.8293    1.0000 </r>
       <r>    0.8318    1.0000 </r>
       <r>    0.8318    1.0000 </r>
       <r>    0.8611    1.0000 </r>
       <r>    0.8612    1.0000 </r>
       <r>    0.9089    1.0000 </r>
       <r>    0.9403    1.0000 </r>
       <r>    0.9482    1.0000 </r>
       <r>    0.9484    1.0000 </r>
       <r>    0.9835    1.0000 </r>
       <r>    1.0255    1.0000 </r>
       <r>    1.0701    1.0000 </r>
       <r>    1.2692    1.0000 </r>
       <r>    1.2981    1.0000 </r>
       <r>    1.2982    1.0000 </r>
       <r>    1.3115    1.0000 </r>
       <r>    1.3329    1.0000 </r>
       <r>    1.3331    1.0000 </r>
       <r>    1.3377    1.0000 </r>
       <r>    1.3842    1.0000 </r>
       <r>    1.4049    1.0000 </r>
       <r>    1.4282    1.0000 </r>
       <r>    1.4669    1.0000 </r>
       <r>    1.4679    1.0000 </r>
       <r>    1.4681    1.0000 </r>
       <r>    1.4813    1.0000 </r>
       <r>    1.5110    1.0000 </r>
       <r>    1.5113    1.0000 </r>
       <r>    1.5410    1.0000 </r>
       <r>    1.5615    1.0000 </r>
       <r>    1.5774    1.0000 </r>
       <r>    1.6458    1.0000 </r>
       <r>    1.6555    1.0000 </r>
       <r>    1.7558    1.0000 </r>
       <r>    1.7559    1.0000 </r>
       <r>    1.7627    1.0000 </r>
       <r>    1.7779    1.0000 </r>
       <r>    1.8031    1.0000 </r>
       <r>    1.8033    1.0000 </r>
       <r>    1.8112    1.0000 </r>
       <r>    1.8231    1.0000 </r>
       <r>    1.8366    1.0000 </r>
       <r>    1.8368    1.0000 </r>
       <r>    1.8461    1.0000 </r>
       <r>    1.8469    1.0000 </r>
       <r>    1.8788    1.0000 </r>
       <r>    1.8900    1.0000 </r>
       <r>    1.9468    1.0000 </r>
       <r>    1.9934    1.0000 </r>
       <r>    1.9936    1.0000 </r>
       <r>    2.0063    1.0000 </r>
       <r>    2.0064    1.0000 </r>
       <r>    2.0097    1.0000 </r>
       <r>    2.0184    1.0000 </r>
       <r>    2.0199    1.0000 </r>
       <r>    2.0200    1.0000 </r>
       <r>    2.0396    1.0000 </r>
       <r>    2.0461    1.0000 </r>
       <r>    2.0466    1.0000 </r>
       <r>    2.0569    1.0000 </r>
       <r>    2.0684    1.0000 </r>
       <r>    2.0687    1.0000 </r>
       <r>    2.0916    1.0000 </r>
       <r>    2.1130    1.0000 </r>
       <r>    2.1908    1.0000 </r>
       <r>    2.1911    1.0000 </r>
       <r>    2.2471    1.0000 </r>
       <r>    2.2472    1.0000 </r>
       <r>    2.2706    1.0000 </r>
       <r>    2.2732    1.0000 </r>
       <r>    2.2844    1.0000 </r>
       <r>    2.4278    1.0000 </r>
       <r>    2.4663    1.0000 </r>
       <r>    2.4665    1.0000 </r>
       <r>    2.4776    1.0000 </r>
       <r>    2.5039    1.0000 </r>
       <r>    2.5275    1.0000 </r>
       <r>    2.5545    1.0000 </r>
       <r>    2.5923    1.0000 </r>
       <r>    2.6269    1.0000 </r>
       <r>    2.6271    1.0000 </r>
       <r>    2.6562    1.0000 </r>
       <r>    2.7380    1.0000 </r>
       <r>    2.7386    1.0000 </r>
       <r>    2.7608    1.0000 </r>
       <r>    2.7611    1.0000 </r>
       <r>    2.8335    1.0000 </r>
       <r>    2.8724    1.0000 </r>
       <r>    2.9263    1.0000 </r>
       <r>    2.9342    1.0000 </r>
       <r>    2.9343    1.0000 </r>
       <r>    2.9688    1.0000 </r>
       <r>    3.0272    1.0000 </r>
       <r>    3.0273    1.0000 </r>
       <r>    3.0615    1.0000 </r>
       <r>    3.0964    1.0000 </r>
       <r>    3.3080    1.0000 </r>
       <r>    3.3105    1.0000 </r>
       <r>    3.3479    1.0000 </r>
       <r>    3.3752    1.0000 </r>
       <r>    3.4218    1.0000 </r>
       <r>    3.4219    1.0000 </r>
       <r>    3.4399    1.0000 </r>
       <r>    3.4582    1.0000 </r>
       <r>    3.4585    1.0000 </r>
       <r>    3.5311    1.0000 </r>
       <r>    3.7479    1.0000 </r>
       <r>    3.8083    1.0000 </r>
       <r>    3.8094    1.0000 </r>
       <r>    3.8153    1.0000 </r>
       <r>    3.8156    1.0000 </r>
       <r>    3.8828    1.0000 </r>
       <r>    3.8829    1.0000 </r>
       <r>    3.9325    1.0000 </r>
       <r>    3.9355    1.0000 </r>
       <r>    3.9411    1.0000 </r>
       <r>    3.9415    1.0000 </r>
       <r>    4.0395    1.0000 </r>
       <r>    4.0397    1.0000 </r>
       <r>    4.0706    1.0000 </r>
       <r>    4.1387    1.0000 </r>
       <r>    4.1488    1.0000 </r>
       <r>    4.1510    1.0000 </r>
       <r>    4.3150    1.0000 </r>
       <r>    4.3182    1.0000 </r>
       <r>    4.3381    1.0000 </r>
       <r>    4.3586    1.0000 </r>
       <r>    4.3588    1.0000 </r>
       <r>    4.4286    1.0000 </r>
       <r>    4.4449    1.0000 </r>
       <r>    4.4467    1.0000 </r>
       <r>    4.4536    1.0000 </r>
       <r>    4.4562    1.0000 </r>
       <r>    4.4563    1.0000 </r>
       <r>    4.6353    1.0000 </r>
       <r>    4.6362    1.0000 </r>
       <r>    4.7320    1.0000 </r>
       <r>    4.7323    1.0000 </r>
       <r>    4.7636    1.0000 </r>
       <r>    4.7638    1.0000 </r>
       <r>    4.7690    1.0000 </r>
       <r>    4.7691    1.0000 </r>
       <r>    4.8101    1.0000 </r>
       <r>    4.8528    1.0000 </r>
       <r>    4.8534    1.0000 </r>
       <r>    4.8570    1.0000 </r>
       <r>    7.3435    0.0000 </r>
       <r>    8.1282    0.0000 </r>
       <r>    8.4443    0.0000 </r>
       <r>    8.6424    0.0000 </r>
       <r>    8.6425    0.0000 </r>
       <r>    8.8576    0.0000 </r>
       <r>    9.0844    0.0000 </r>
       <r>    9.0845    0.0000 </r>
       <r>    9.2610    0.0000 </r>
       <r>    9.2734    0.0000 </r>
       <r>    9.2878    0.0000 </r>
       <r>    9.2890    0.0000 </r>
       <r>    9.7265    0.0000 </r>
       <r>    9.7718    0.0000 </r>
       <r>    9.7722    0.0000 </r>
       <r>    9.7900    0.0000 </r>
       <r>    9.8546    0.0000 </r>
       <r>    9.8547    0.0000 </r>
       <r>    9.8599    0.0000 </r>
       <r>    9.8797    0.0000 </r>
       <r>    9.8903    0.0000 </r>
       <r>   10.0603    0.0000 </r>
       <r>   10.0826    0.0000 </r>
       <r>   10.1359    0.0000 </r>
       <r>   10.1360    0.0000 </r>
       <r>   10.3061    0.0000 </r>
       <r>   10.3062    0.0000 </r>
       <r>   10.4159    0.0000 </r>
       <r>   10.5262    0.0000 </r>
       <r>   10.5706    0.0000 </r>
       <r>   10.5721    0.0000 </r>
       <r>   10.5725    0.0000 </r>
       <r>   10.5779    0.0000 </r>
       <r>   10.5782    0.0000 </r>
       <r>   10.6755    0.0000 </r>
       <r>   10.9757    0.0000 </r>
       <r>   11.0186    0.0000 </r>
       <r>   11.0191    0.0000 </r>
       <r>   11.0404    0.0000 </r>
       <r>   11.0405    0.0000 </r>
       <r>   11.0771    0.0000 </r>
       <r>   11.1281    0.0000 </r>
       <r>   11.1786    0.0000 </r>
       <r>   11.1884    0.0000 </r>
       <r>   11.2281    0.0000 </r>
       <r>   11.2491    0.0000 </r>
       <r>   11.2492    0.0000 </r>
       <r>   11.2905    0.0000 </r>
       <r>   11.3064    0.0000 </r>
       <r>   11.4163    0.0000 </r>
       <r>   11.4176    0.0000 </r>
       <r>   11.4591    0.0000 </r>
       <r>   11.5204    0.0000 </r>
       <r>   11.5205    0.0000 </r>
       <r>   11.5304    0.0000 </r>
       <r>   11.5769    0.0000 </r>
       <r>   11.6803    0.0000 </r>
       <r>   11.6805    0.0000 </r>
       <r>   11.7970    0.0000 </r>
       <r>   11.7971    0.0000 </r>
       <r>   11.8160    0.0000 </r>
       <r>   11.8162    0.0000 </r>
       <r>   11.8824    0.0000 </r>
       <r>   11.9415    0.0000 </r>
       <r>   11.9759    0.0000 </r>
       <r>   11.9764    0.0000 </r>
       <r>   11.9820    0.0000 </r>
       <r>   12.0282    0.0000 </r>
       <r>   12.0284    0.0000 </r>
       <r>   12.0579    0.0000 </r>
       <r>   12.1618    0.0000 </r>
       <r>   12.2429    0.0000 </r>
       <r>   12.2572    0.0000 </r>
       <r>   12.2578    0.0000 </r>
       <r>   12.3160    0.0000 </r>
       <r>   12.3163    0.0000 </r>
       <r>   12.3224    0.0000 </r>
       <r>   12.3479    0.0000 </r>
       <r>   12.4616    0.0000 </r>
       <r>   12.4800    0.0000 </r>
       <r>   12.5168    0.0000 </r>
       <r>   12.5170    0.0000 </r>
       <r>   12.6142    0.0000 </r>
       <r>   12.6147    0.0000 </r>
       <r>   12.6606    0.0000 </r>
       <r>   12.6636    0.0000 </r>
       <r>   12.6645    0.0000 </r>
       <r>   12.6902    0.0000 </r>
       <r>   12.7472    0.0000 </r>
       <r>   12.8324    0.0000 </r>
       <r>   12.8723    0.0000 </r>
       <r>   12.8728    0.0000 </r>
       <r>   12.8731    0.0000 </r>
       <r>   13.1201    0.0000 </r>
       <r>   13.1210    0.0000 </r>
       <r>   13.2004    0.0000 </r>
       <r>   13.3795    0.0000 </r>
       <r>   13.4098    0.0000 </r>
       <r>   13.4103    0.0000 </r>
       <r>   13.4329    0.0000 </r>
       <r>   13.4386    0.0000 </r>
       <r>   13.4514    0.0000 </r>
       <r>   13.4875    0.0000 </r>
       <r>   13.5087    0.0000 </r>
       <r>   13.5456    0.0000 </r>
       <r>   13.5477    0.0000 </r>
      </set>
      <set comment="kpoint 2">
       <r>  -51.0553    1.0000 </r>
       <r>  -51.0549    1.0000 </r>
       <r>  -51.0548    1.0000 </r>
       <r>  -51.0546    1.0000 </r>
       <r>  -51.0545    1.0000 </r>
       <r>  -51.0544    1.0000 </r>
       <r>  -51.0543    1.0000 </r>
       <r>  -51.0540    1.0000 </r>
       <r>  -51.0534    1.0000 </r>
       <r>  -51.0530    1.0000 </r>
       <r>  -51.0526    1.0000 </r>
       <r>  -51.0523    1.0000 </r>
       <r>  -51.0521    1.0000 </r>
       <r>  -51.0519    1.0000 </r>
       <r>  -51.0517    1.0000 </r>
       <r>  -51.0510    1.0000 </r>
       <r>  -51.0446    1.0000 </r>
       <r>  -51.0442    1.0000 </r>
       <r>  -51.0441    1.0000 </r>
       <r>  -51.0441    1.0000 </r>
       <r>  -51.0439    1.0000 </r>
       <r>  -51.0434    1.0000 </r>
       <r>  -51.0432    1.0000 </r>
       <r>  -51.0430    1.0000 </r>
       <r>  -51.0395    1.0000 </r>
       <r>  -51.0394    1.0000 </r>
       <r>  -51.0393    1.0000 </r>
       <r>  -51.0393    1.0000 </r>
       <r>  -51.0393    1.0000 </r>
       <r>  -51.0393    1.0000 </r>
       <r>  -51.0390    1.0000 </r>
       <r>  -51.0379    1.0000 </r>
       <r>  -49.7020    1.0000 </r>
       <r>  -49.7016    1.0000 </r>
       <r>  -49.7016    1.0000 </r>
       <r>  -49.7015    1.0000 </r>
       <r>  -49.7015    1.0000 </r>
       <r>  -49.7006    1.0000 </r>
       <r>  -49.7005    1.0000 </r>
       <r>  -49.7003    1.0000 </r>
       <r>  -49.6941    1.0000 </r>
       <r>  -49.6940    1.0000 </r>
       <r>  -49.6939    1.0000 </r>
       <r>  -49.6939    1.0000 </r>
       <r>  -49.6939    1.0000 </r>
       <r>  -49.6938    1.0000 </r>
       <r>  -49.6936    1.0000 </r>
       <r>  -49.6922    1.0000 </r>
       <r>  -49.5991    1.0000 </r>
       <r>  -49.5985    1.0000 </r>
       <r>  -49.5983    1.0000 </r>
       <r>  -49.5980    1.0000 </r>
       <r>  -49.5978    1.0000 </r>
       <r>  -49.5977    1.0000 </r>
       <r>  -49.5975    1.0000 </r>
       <r>  -49.5971    1.0000 </r>
       <r>  -49.5969    1.0000 </r>
       <r>  -49.5968    1.0000 </r>
       <r>  -49.5966    1.0000 </r>
       <r>  -49.5965    1.0000 </r>
       <r>  -49.5964    1.0000 </r>
       <r>  -49.5963    1.0000 </r>
       <r>  -49.5963    1.0000 </r>
       <r>  -49.5962    1.0000 </r>
       <r>  -49.5677    1.0000 </r>
       <r>  -49.5672    1.0000 </r>
       <r>  -49.5670    1.0000 </r>
       <r>  -49.5666    1.0000 </r>
       <r>  -49.5665    1.0000 </r>
       <r>  -49.5662    1.0000 </r>
       <r>  -49.5660    1.0000 </r>
       <r>  -49.5655    1.0000 </r>
       <r>  -49.5651    1.0000 </r>
       <r>  -49.5649    1.0000 </r>
       <r>  -49.5648    1.0000 </r>
       <r>  -49.5648    1.0000 </r>
       <r>  -49.5646    1.0000 </r>
       <r>  -49.5644    1.0000 </r>
       <r>  -49.5643    1.0000 </r>
       <r>  -49.5643    1.0000 </r>
       <r>  -49.5545    1.0000 </r>
       <r>  -49.5542    1.0000 </r>
       <r>  -49.5541    1.0000 </r>
       <r>  -49.5541    1.0000 </r>
       <r>  -49.5540    1.0000 </r>
       <r>  -49.5532    1.0000 </r>
       <r>  -49.5528    1.0000 </r>
       <r>  -49.5527    1.0000 </r>
       <r>  -49.5395    1.0000 </r>
       <r>  -49.5394    1.0000 </r>
       <r>  -49.5393    1.0000 </r>
       <r>  -49.5393    1.0000 </r>
       <r>  -49.5393    1.0000 </r>
       <r>  -49.5390    1.0000 </r>
       <r>  -49.5389    1.0000 </r>
       <r>  -49.5373    1.0000 </r>
       <r>  -39.8662    1.0000 </r>
       <r>  -39.8659    1.0000 </r>
       <r>  -39.8658    1.0000 </r>
       <r>  -39.8657    1.0000 </r>
       <r>  -39.8656    1.0000 </r>
       <r>  -39.8654    1.0000 </r>
       <r>  -39.8653    1.0000 </r>
       <r>  -39.8652    1.0000 </r>
       <r>  -39.8651    1.0000 </r>
       <r>  -39.8650    1.0000 </r>
       <r>  -39.8649    1.0000 </r>
       <r>  -39.8647    1.0000 </r>
       <r>  -39.8645    1.0000 </r>
[...]
       <r>   -49.2823     0.0000     0.0000 </r>
       <r>   -49.0415     0.0000     0.0000 </r>
       <r>   -48.8007     0.0000     0.0000 </r>
       <r>   -48.5599     0.0000     0.0000 </r>
       <r>   -48.3191     0.0000     0.0000 </r>
       <r>   -48.0783     0.0000     0.0000 </r>
       <r>   -47.8375     0.0000     0.0000 </r>
       <r>   -47.5967     0.0000     0.0000 </r>
       <r>   -47.3559     0.0000     0.0000 </r>
       <r>   -47.1151     0.0000     0.0000 </r>
       <r>   -46.8743     0.0000     0.0000 </r>
       <r>   -46.6335     0.0000     0.0000 </r>
       <r>   -46.3927     0.4083     0.0983 </r>
       <r>   -46.1519   132.4436    31.9900 </r>
       <r>   -45.9111    61.1263    46.7089 </r>
       <r>   -45.6703   204.7021    96.0000 </r>
       <r>   -45.4296     0.0000    96.0000 </r>
       <r>   -45.1888     0.0000    96.0000 </r>
       <r>   -44.9480     0.0000    96.0000 </r>
       <r>   -44.7072     0.0000    96.0000 </r>
       <r>   -44.4664     0.0000    96.0000 </r>
       <r>   -44.2256     0.0000    96.0000 </r>
       <r>   -43.9848     0.0000    96.0000 </r>
       <r>   -43.7440     0.0000    96.0000 </r>
       <r>   -43.5032     0.0000    96.0000 </r>
       <r>   -43.2624     0.0000    96.0000 </r>
       <r>   -43.0216     0.0000    96.0000 </r>
       <r>   -42.7808     0.0000    96.0000 </r>
       <r>   -42.5400     0.0000    96.0000 </r>
       <r>   -42.2992     0.0000    96.0000 </r>
       <r>   -42.0584     0.0000    96.0000 </r>
       <r>   -41.8176     0.0000    96.0000 </r>
       <r>   -41.5768     0.0000    96.0000 </r>
       <r>   -41.3360     0.0000    96.0000 </r>
       <r>   -41.0953     0.0000    96.0000 </r>
       <r>   -40.8545     0.0000    96.0000 </r>
       <r>   -40.6137     0.0000    96.0000 </r>
       <r>   -40.3729     0.0000    96.0000 </r>
       <r>   -40.1321     0.0000    96.0000 </r>
       <r>   -39.8913    14.0782    99.3900 </r>
       <r>   -39.6505    52.3685   112.0000 </r>
       <r>   -39.4097     0.0000   112.0000 </r>
       <r>   -39.1689     0.0000   112.0000 </r>
       <r>   -38.9281     0.0000   112.0000 </r>
       <r>   -38.6873     0.0000   112.0000 </r>
       <r>   -38.4465     0.0000   112.0000 </r>
       <r>   -38.2057     0.0000   112.0000 </r>
       <r>   -37.9649     0.0000   112.0000 </r>
       <r>   -37.7241     0.0000   112.0000 </r>
       <r>   -37.4833     0.0000   112.0000 </r>
       <r>   -37.2425     0.0000   112.0000 </r>
       <r>   -37.0017     0.0000   112.0000 </r>
       <r>   -36.7610     0.0000   112.0000 </r>
       <r>   -36.5202     0.0000   112.0000 </r>
       <r>   -36.2794     0.0000   112.0000 </r>
       <r>   -36.0386     0.0000   112.0000 </r>
       <r>   -35.7978     0.0000   112.0000 </r>
       <r>   -35.5570     0.0000   112.0000 </r>
       <r>   -35.3162     0.0000   112.0000 </r>
       <r>   -35.0754     0.0000   112.0000 </r>
       <r>   -34.8346     0.0000   112.0000 </r>
       <r>   -34.5938     0.0000   112.0000 </r>
       <r>   -34.3530     0.0000   112.0000 </r>
       <r>   -34.1122     0.0000   112.0000 </r>
       <r>   -33.8714     0.0000   112.0000 </r>
       <r>   -33.6306     0.0000   112.0000 </r>
       <r>   -33.3898     0.0000   112.0000 </r>
       <r>   -33.1490     0.0000   112.0000 </r>
       <r>   -32.9082     0.0000   112.0000 </r>
       <r>   -32.6674     0.0000   112.0000 </r>
       <r>   -32.4267     0.0000   112.0000 </r>
       <r>   -32.1859     0.0000   112.0000 </r>
       <r>   -31.9451     0.0000   112.0000 </r>
       <r>   -31.7043     0.0000   112.0000 </r>
       <r>   -31.4635     0.0000   112.0000 </r>
       <r>   -31.2227     0.0000   112.0000 </r>
       <r>   -30.9819     0.0000   112.0000 </r>
       <r>   -30.7411     0.0000   112.0000 </r>
       <r>   -30.5003     0.0000   112.0000 </r>
       <r>   -30.2595     0.0000   112.0000 </r>
       <r>   -30.0187     0.0000   112.0000 </r>
       <r>   -29.7779     0.0000   112.0000 </r>
       <r>   -29.5371     0.0000   112.0000 </r>
       <r>   -29.2963     0.0000   112.0000 </r>
       <r>   -29.0555     0.0000   112.0000 </r>
       <r>   -28.8147     0.0000   112.0000 </r>
       <r>   -28.5739     0.0000   112.0000 </r>
       <r>   -28.3331     0.0000   112.0000 </r>
       <r>   -28.0924     0.0000   112.0000 </r>
       <r>   -27.8516     0.0000   112.0000 </r>
       <r>   -27.6108     0.0000   112.0000 </r>
       <r>   -27.3700     0.0000   112.0000 </r>
       <r>   -27.1292     0.0000   112.0000 </r>
       <r>   -26.8884     0.0000   112.0000 </r>
       <r>   -26.6476     0.0000   112.0000 </r>
       <r>   -26.4068     0.0000   112.0000 </r>
       <r>   -26.1660     0.0000   112.0000 </r>
       <r>   -25.9252     0.0000   112.0000 </r>
       <r>   -25.6844     0.0000   112.0000 </r>
       <r>   -25.4436     0.0000   112.0000 </r>
       <r>   -25.2028     0.0000   112.0000 </r>
       <r>   -24.9620     0.0000   112.0000 </r>
       <r>   -24.7212     0.0000   112.0000 </r>
       <r>   -24.4804     0.0000   112.0000 </r>
       <r>   -24.2396     0.0000   112.0000 </r>
       <r>   -23.9988     0.0000   112.0000 </r>
       <r>   -23.7581     0.0000   112.0000 </r>
       <r>   -23.5173     0.0000   112.0000 </r>
       <r>   -23.2765     0.0000   112.0000 </r>
       <r>   -23.0357     0.0000   112.0000 </r>
       <r>   -22.7949     0.0000   112.0000 </r>
       <r>   -22.5541     0.0000   112.0000 </r>
       <r>   -22.3133     0.0000   112.0000 </r>
       <r>   -22.0725     0.0000   112.0000 </r>
       <r>   -21.8317     0.0000   112.0000 </r>
       <r>   -21.5909     0.0000   112.0000 </r>
       <r>   -21.3501     0.0000   112.0000 </r>
       <r>   -21.1093     0.0000   112.0000 </r>
       <r>   -20.8685     0.0000   112.0000 </r>
       <r>   -20.6277     0.0000   112.0000 </r>
       <r>   -20.3869     0.0000   112.0000 </r>
       <r>   -20.1461     0.0000   112.0000 </r>
       <r>   -19.9053     0.0000   112.0000 </r>
       <r>   -19.6646     0.0000   112.0000 </r>
       <r>   -19.4238     0.0000   112.0000 </r>
       <r>   -19.1830     0.0000   112.0000 </r>
       <r>   -18.9422     0.0000   112.0000 </r>
       <r>   -18.7014     0.0000   112.0000 </r>
       <r>   -18.4606     0.0000   112.0000 </r>
       <r>   -18.2198     0.0000   112.0000 </r>
       <r>   -17.9790     0.0000   112.0000 </r>
       <r>   -17.7382     0.0000   112.0000 </r>
       <r>   -17.4974     0.0000   112.0000 </r>
       <r>   -17.2566     0.0000   112.0000 </r>
       <r>   -17.0158     0.0000   112.0000 </r>
       <r>   -16.7750     0.0000   112.0000 </r>
       <r>   -16.5342     0.0000   112.0000 </r>
       <r>   -16.2934     0.0000   112.0000 </r>
       <r>   -16.0526     0.0000   112.0000 </r>
       <r>   -15.8118     0.0000   112.0000 </r>
       <r>   -15.5710     0.0000   112.0000 </r>
       <r>   -15.3303     0.0000   112.0000 </r>
       <r>   -15.0895     0.0000   112.0000 </r>
       <r>   -14.8487     0.0000   112.0000 </r>
       <r>   -14.6079     0.0000   112.0000 </r>
       <r>   -14.3671     0.0000   112.0000 </r>
       <r>   -14.1263     0.0000   112.0000 </r>
       <r>   -13.8855     0.0000   112.0000 </r>
       <r>   -13.6447     0.0000   112.0000 </r>
       <r>   -13.4039     0.0000   112.0000 </r>
       <r>   -13.1631     0.0000   112.0000 </r>
       <r>   -12.9223     0.0058   112.0014 </r>
       <r>   -12.6815    41.5691   122.0110 </r>
       <r>   -12.4407    24.8718   128.0000 </r>
       <r>   -12.1999     0.0000   128.0000 </r>
       <r>   -11.9591     0.0000   128.0000 </r>
       <r>   -11.7183     0.0000   128.0000 </r>
       <r>   -11.4775     0.0000   128.0000 </r>
       <r>   -11.2367     0.0000   128.0000 </r>
       <r>   -10.9960     0.0000   128.0000 </r>
       <r>   -10.7552     0.0000   128.0000 </r>
       <r>   -10.5144     0.0000   128.0000 </r>
       <r>   -10.2736     0.0000   128.0000 </r>
       <r>   -10.0328     0.0000   128.0000 </r>
       <r>    -9.7920     0.0000   128.0000 </r>
       <r>    -9.5512     0.0000   128.0000 </r>
       <r>    -9.3104     0.0000   128.0000 </r>
       <r>    -9.0696     0.0000   128.0000 </r>
       <r>    -8.8288     0.0000   128.0000 </r>
       <r>    -8.5880     0.0000   128.0000 </r>
       <r>    -8.3472     0.0000   128.0000 </r>
       <r>    -8.1064     0.0000   128.0000 </r>
       <r>    -7.8656     0.0000   128.0000 </r>
       <r>    -7.6248     0.0000   128.0000 </r>
       <r>    -7.3840     0.4506   128.1085 </r>
       <r>    -7.1432    13.4193   131.3398 </r>
       <r>    -6.9024    29.5547   138.4564 </r>
       <r>    -6.6617    25.8215   144.6741 </r>
       <r>    -6.4209    30.3540   151.9832 </r>
       <r>    -6.1801     0.0699   152.0000 </r>
       <r>    -5.9393     0.0000   152.0000 </r>
       <r>    -5.6985     0.0000   152.0000 </r>
       <r>    -5.4577     0.0000   152.0000 </r>
       <r>    -5.2169     0.0000   152.0000 </r>
       <r>    -4.9761     0.0000   152.0000 </r>
       <r>    -4.7353     0.0000   152.0000 </r>
       <r>    -4.4945     0.0000   152.0000 </r>
       <r>    -4.2537     0.0000   152.0000 </r>
       <r>    -4.0129     0.0000   152.0000 </r>
       <r>    -3.7721     0.0000   152.0000 </r>
       <r>    -3.5313     0.0000   152.0000 </r>
       <r>    -3.2905     0.0000   152.0000 </r>
       <r>    -3.0497     0.0000   152.0000 </r>
       <r>    -2.8089     0.0000   152.0000 </r>
       <r>    -2.5681     0.0000   152.0000 </r>
       <r>    -2.3274     0.0000   152.0000 </r>
       <r>    -2.0866     0.0000   152.0000 </r>
       <r>    -1.8458     0.0000   152.0000 </r>
       <r>    -1.6050     0.0000   152.0000 </r>
       <r>    -1.3642     0.0000   152.0000 </r>
       <r>    -1.1234     0.0000   152.0000 </r>
       <r>    -0.8826     0.0000   152.0000 </r>
       <r>    -0.6418     0.0000   152.0000 </r>
       <r>    -0.4010     3.8097   152.9174 </r>
       <r>    -0.1602    20.3459   157.8165 </r>
       <r>     0.0806    12.2483   160.7659 </r>
       <r>     0.3214    18.3187   165.1769 </r>
       <r>     0.5622    29.4249   172.2623 </r>
       <r>     0.8030    39.0455   181.6642 </r>
       <r>     1.0438    37.3250   190.6518 </r>
       <r>     1.2846    31.5723   198.2543 </r>
       <r>     1.5254    20.6316   203.2222 </r>
       <r>     1.7662    29.1182   210.2337 </r>
       <r>     2.0069    36.4826   219.0185 </r>
       <r>     2.2477    28.1237   225.7906 </r>
       <r>     2.4885    26.9418   232.2780 </r>
       <r>     2.7293    30.2238   239.5557 </r>
       <r>     2.9701    44.1016   250.1751 </r>
       <r>     3.2109    45.6487   261.1671 </r>
       <r>     3.4517    32.9146   269.0927 </r>
       <r>     3.6925    12.7003   272.1509 </r>
       <r>     3.9333    17.0914   276.2664 </r>
       <r>     4.1741    52.8522   288.9929 </r>
       <r>     4.4149    44.3843   299.6804 </r>
       <r>     4.6557    17.9305   303.9980 </r>
       <r>     4.8965     0.0083   304.0000 </r>
       <r>     5.1373     0.0000   304.0000 </r>
       <r>     5.3781     0.0000   304.0000 </r>
       <r>     5.6189     0.0000   304.0000 </r>
       <r>     5.8597     0.0000   304.0000 </r>
       <r>     6.1005     0.0000   304.0000 </r>
       <r>     6.3412     0.3632   304.0875 </r>
       <r>     6.5820     4.1795   305.0939 </r>
       <r>     6.8228     7.7156   306.9517 </r>
       <r>     7.0636    18.7319   311.4623 </r>
       <r>     7.3044    43.7376   321.9940 </r>
       <r>     7.5452    52.9284   334.7389 </r>
       <r>     7.7860    63.5955   350.0523 </r>
       <r>     8.0268    65.4839   365.8205 </r>
       <r>     8.2676    69.8368   382.6368 </r>
       <r>     8.5084    59.8021   397.0368 </r>
       <r>     8.7492    58.5090   411.1255 </r>
       <r>     8.9900    48.5777   422.8227 </r>
       <r>     9.2308    30.5324   430.1747 </r>
       <r>     9.4716     9.1748   432.3840 </r>
       <r>     9.7124     2.9056   433.0836 </r>
       <r>     9.9532     8.2530   435.0709 </r>
       <r>    10.1940    18.4761   439.5198 </r>
       <r>    10.4348    17.9848   443.8505 </r>
       <r>    10.6755    17.0796   447.9631 </r>
       <r>    10.9163    27.5707   454.6020 </r>
       <r>    11.1571    19.0230   459.1826 </r>
       <r>    11.3979    23.8273   464.9201 </r>
       <r>    11.6387    15.1907   468.5780 </r>
       <r>    11.8795    13.7060   471.8783 </r>
       <r>    12.1203    15.8085   475.6849 </r>
       <r>    12.3611    36.2244   484.4075 </r>
       <r>    12.6019    32.8241   492.3114 </r>
       <r>    12.8427    30.3319   499.6151 </r>
       <r>    13.0835    20.3524   504.5159 </r>
       <r>    13.3243    21.8579   509.7791 </r>
       <r>    13.5651    27.2109   516.3314 </r>
       <r>    13.8059    23.7251   522.0442 </r>
       <r>    14.0467    26.4129   528.4043 </r>
       <r>    14.2875    19.4056   533.0771 </r>
       <r>    14.5283    17.0559   537.1840 </r>
       <r>    14.7691     3.3887   538.0000 </r>
       <r>    15.0098     0.0000   538.0000 </r>
       <r>    15.2506     0.0000   538.0000 </r>
       <r>    15.4914     0.0000   538.0000 </r>
       <r>    15.7322     0.0000   538.0000 </r>
       <r>    15.9730     0.0000   538.0000 </r>
       <r>    16.2138     0.0000   538.0000 </r>
       <r>    16.4546     0.0000   538.0000 </r>
       <r>    16.6954     0.0000   538.0000 </r>
       <r>    16.9362     0.0000   538.0000 </r>
       <r>    17.1770     0.0000   538.0000 </r>
       <r>    17.4178     0.0000   538.0000 </r>
       <r>    17.6586     0.0000   538.0000 </r>
       <r>    17.8994     0.0000   538.0000 </r>
      </set>
     </set>
    </array>
   </total>
  </dos>
 </calculation>
 <structure name="finalpos" >
  <crystal>
   <varray name="basis" >
    <v>      11.11223374       0.00000000      -0.00029034 </v>
    <v>       0.00000000      11.11745194       0.00000000 </v>
    <v>      -2.77510898       0.00000000      10.19872221 </v>
   </varray>
   <i name="volume">   1259.93837498 </i>
   <varray name="rec_basis" >
    <v>       0.08999155       0.00000000       0.02448702 </v>
    <v>       0.00000000       0.08994867       0.00000000 </v>
    <v>       0.00000256       0.00000000       0.09805220 </v>
   </varray>
  </crystal>
  <varray name="positions" >
   <v>       0.28894969       0.46933910       0.15583616 </v>
   <v>       0.78894969       0.46933910       0.15583616 </v>
   <v>       0.28894969       0.96933910       0.15583616 </v>
   <v>       0.78894969       0.96933910       0.15583616 </v>
   <v>       0.04646972       0.21934976       0.18681382 </v>
   <v>       0.54646972       0.21934976       0.18586770 </v>
   <v>       0.04646972       0.71934976       0.18586770 </v>
   <v>       0.54646972       0.71934976       0.18586770 </v>
   <v>       0.45353028       0.46934976       0.81413230 </v>
   <v>       0.95353028       0.46934976       0.81413230 </v>
   <v>       0.45353028       0.96934976       0.81413230 </v>
   <v>       0.95353028       0.96934976       0.81413230 </v>
   <v>       0.21105031       0.21933910       0.84416384 </v>
   <v>       0.71105031       0.21933910       0.84416384 </v>
   <v>       0.21105031       0.71933910       0.84416384 </v>
   <v>       0.71105031       0.71933910       0.84416384 </v>
   <v>       0.07654971       0.09530995       0.80250593 </v>
   <v>       0.57654971       0.09530995       0.80250593 </v>
   <v>       0.07654971       0.59530995       0.80250593 </v>
   <v>       0.57654971       0.59530995       0.80250593 </v>
   <v>       0.32470466       0.34338175       0.80250383 </v>
   <v>       0.82470466       0.34338175       0.80250383 </v>
   <v>       0.32470466       0.84338175       0.80250383 </v>
   <v>       0.82470466       0.84338175       0.80250383 </v>
   <v>       0.17529534       0.09338175       0.19749617 </v>
   <v>       0.67529534       0.09338175       0.19749617 </v>
   <v>       0.17529534       0.59338175       0.19749617 </v>
   <v>       0.67529534       0.59338175       0.19749617 </v>
   <v>       0.42345029       0.34530995       0.19749407 </v>
   <v>       0.92345029       0.34530995       0.19749407 </v>
   <v>       0.42345029       0.84530995       0.19749407 </v>
   <v>       0.92345029       0.84530995       0.19749407 </v>
   <v>       0.21868463       0.34523395       0.37102476 </v>
   <v>       0.71868463       0.34523395       0.37102476 </v>
   <v>       0.21868463       0.84523395       0.37102476 </v>
   <v>       0.71868463       0.84523395       0.37102476 </v>
   <v>       0.46681660       0.09344897       0.37102399 </v>
   <v>       0.96681660       0.09344897       0.37102399 </v>
   <v>       0.46681660       0.59344897       0.37102399 </v>
   <v>       0.96681660       0.59344897       0.37102399 </v>
   <v>       0.03318340       0.34344897       0.62897601 </v>
   <v>       0.53318340       0.34344897       0.62897601 </v>
   <v>       0.03318340       0.84344897       0.62897601 </v>
   <v>       0.53318340       0.84344897       0.62897601 </v>
   <v>       0.28131537       0.09523395       0.62897524 </v>
   <v>       0.78131537       0.09523395       0.62897524 </v>
   <v>       0.28131537       0.59523395       0.62897524 </v>
   <v>       0.78131537       0.59523395       0.62897524 </v>
   <v>       0.12439279       0.34434306       0.00000412 </v>
   <v>       0.62439279       0.34434306       0.00000412 </v>
   <v>       0.12439279       0.84434306       0.00000412 </v>
   <v>       0.62439279       0.84434306       0.00000412 </v>
   <v>       0.37560721       0.09434306       0.99999588 </v>
   <v>       0.87560721       0.09434306       0.99999588 </v>
   <v>       0.37560721       0.59434306       0.99999588 </v>
   <v>       0.87560721       0.59434306       0.99999588 </v>
   <v>       0.03824426       0.10634799       0.60632306 </v>
   <v>       0.53824426       0.10634799       0.60632306 </v>
   <v>       0.03824426       0.60634799       0.60632306 </v>
   <v>       0.53824426       0.60634799       0.60632306 </v>
   <v>       0.26492712       0.33232651       0.60632763 </v>
   <v>       0.76492712       0.33232651       0.60632763 </v>
   <v>       0.26492712       0.83232651       0.60632763 </v>
   <v>       0.76492712       0.83232651       0.60632763 </v>
   <v>       0.23507288       0.08232651       0.39367237 </v>
   <v>       0.73507288       0.08232651       0.39367237 </v>
   <v>       0.23507288       0.58232651       0.39367237 </v>
   <v>       0.73507288       0.58232651       0.39367237 </v>
   <v>       0.46175574       0.35634799       0.39367694 </v>
   <v>       0.96175574       0.35634799       0.39367694 </v>
   <v>       0.46175574       0.85634799       0.39367694 </v>
   <v>       0.96175574       0.85634799       0.39367694 </v>
   <v>       0.03848398       0.46936404       0.15397331 </v>
   <v>       0.53848398       0.46936404       0.15397331 </v>
   <v>       0.03848398       0.96936404       0.15397331 </v>
   <v>       0.53848398       0.96936404       0.15397331 </v>
   <v>       0.28861657       0.21935690       0.15447525 </v>
   <v>       0.78861657       0.21935690       0.15447525 </v>
   <v>       0.28861657       0.71935690       0.15447525 </v>
   <v>       0.78861657       0.71935690       0.15447525 </v>
   <v>       0.21138343       0.46935690       0.84552475 </v>
   <v>       0.71138343       0.46935690       0.84552475 </v>
   <v>       0.21138343       0.96935690       0.84552475 </v>
   <v>       0.71138343       0.96935690       0.84552475 </v>
   <v>       0.46151602       0.21936404       0.84602669 </v>
   <v>       0.96151602       0.21936404       0.84602669 </v>
   <v>       0.46151602       0.71936404       0.84602669 </v>
   <v>       0.96151602       0.71936404       0.84602669 </v>
  </varray>
 </structure>
</modeling>
