    9    9   60    2
  0.1323389E+02  0.3782572E-09  0.5611659E-09  0.5611659E-09  0.5000000E-15
  1.000000000000000E-004
  CAR 
 unknown system                          
     72     28     52
 
  0.0000000E+00  0.0000000E+00  0.0000000E+00  0.1041667E-01
    1      -56.034732    -49.458481   1.000000   1.000000
    2      -56.032456    -49.454654   1.000000   1.000000
    3      -55.728279    -49.421335   1.000000   1.000000
    4      -54.758869    -49.382602   1.000000   1.000000
    5      -54.756543    -49.379611   1.000000   1.000000
    6      -54.442898    -49.376349   1.000000   1.000000
    7      -54.413147    -49.062087   1.000000   1.000000
    8      -54.303663    -49.031299   1.000000   1.000000
    9      -54.158904    -49.022420   1.000000   1.000000
   10      -43.494074    -43.500702   1.000000   1.000000
   11      -43.493022    -43.499564   1.000000   1.000000
   12      -16.168097    -15.665757   1.000000   1.000000
   13      -16.043879    -15.545863   1.000000   1.000000
   14       -9.238094     -8.879726   1.000000   1.000000
   15       -8.684654     -8.339396   1.000000   1.000000
   16       -2.783193     -1.659935   1.000000   1.000000
   17       -2.246342     -0.861990   1.000000   1.000000
   18       -2.076602     -0.471724   1.000000   1.000000
   19       -1.929188     -0.376179   1.000000   1.000000
   20       -1.650288     -0.314900   1.000000   1.000000
   21       -1.223497     -0.167749   1.000000   1.000000
   22       -0.707537      1.011353   1.000000   1.000000
   23       -0.627118      2.541077   1.000000   1.000000
   24       -0.580479      2.679007   1.000000   1.000000
   25       -0.269671      2.739362   1.000000   1.000000
   26       -0.203713      2.784074   1.000000   1.000000
   27        0.034226      3.141046   1.000000   1.000000
   28        0.103847      3.360700   1.000000   1.000000
   29        0.123330      3.834972   1.000000   1.000000
   30        0.292666      4.892614   1.000000   1.000000
   31        0.611498      7.269253   1.000000   0.000000
   32        0.724782      7.494196   1.000000   0.000000
   33        0.841029      7.557506   1.000000   0.000000
   34        1.254301      7.563239   1.000000   0.000000
   35        2.031095      8.354838   1.000000   0.000000
   36        2.109846      8.360756   1.000000   0.000000
   37        2.420646      8.692236   1.000000   0.000000
   38        3.402947      8.781071   1.000000   0.000000
   39        3.568427      9.209763   1.000000   0.000000
   40        3.579679      9.269073   1.000000   0.000000
   41        4.353459      9.372827   1.000000   0.000000
   42        4.409256      9.541514   1.000000   0.000000
   43        7.772467      9.904003   0.000000   0.000000
   44        8.239782     10.426959   0.000000   0.000000
   45        9.834220     10.498440   0.000000   0.000000
   46       10.268932     11.303316   0.000000   0.000000
   47       11.668553     12.427114   0.000000   0.000000
   48       12.604266     13.623513   0.000000   0.000000
   49       13.270196     14.518687   0.000000   0.000000
   50       15.199451     15.902521   0.000000   0.000000
   51       15.261701     16.051731   0.000000   0.000000
   52       16.734845     17.138726   0.000000   0.000000
 
  0.1666667E+00  0.0000000E+00  0.0000000E+00  0.2083333E-01
    1      -56.035358    -49.458269   1.000000   1.000000
    2      -56.033084    -49.454392   1.000000   1.000000
    3      -55.728169    -49.421446   1.000000   1.000000
    4      -54.758862    -49.382570   1.000000   1.000000
    5      -54.756535    -49.380648   1.000000   1.000000
    6      -54.442913    -49.377441   1.000000   1.000000
    7      -54.413156    -49.062013   1.000000   1.000000
    8      -54.303629    -49.031656   1.000000   1.000000
    9      -54.159211    -49.022351   1.000000   1.000000
   10      -43.493884    -43.500483   1.000000   1.000000
   11      -43.492806    -43.499371   1.000000   1.000000
   12      -16.107949    -15.605513   1.000000   1.000000
   13      -15.988956    -15.492026   1.000000   1.000000
   14       -9.179565     -8.827799   1.000000   1.000000
   15       -8.619378     -8.263609   1.000000   1.000000
   16       -2.907693     -1.495619   1.000000   1.000000
   17       -2.558228     -0.723240   1.000000   1.000000
   18       -1.957722     -0.684645   1.000000   1.000000
   19       -1.904152     -0.676419   1.000000   1.000000
   20       -1.325237     -0.159793   1.000000   1.000000
   21       -1.294775     -0.140707   1.000000   1.000000
   22       -1.082334      1.016621   1.000000   1.000000
   23       -0.534510      2.334464   1.000000   1.000000
   24       -0.493291      2.368029   1.000000   1.000000
   25       -0.084441      2.481287   1.000000   1.000000
   26       -0.065843      2.512035   1.000000   1.000000
   27        0.012544      2.649908   1.000000   1.000000
   28        0.097923      2.729381   1.000000   1.000000
   29        0.100947      4.131750   1.000000   1.000000
   30        0.235069      4.928798   1.000000   1.000000
   31        0.490335      7.285379   1.000000   0.000000
   32        0.753094      7.471205   1.000000   0.000000
   33        0.886193      7.570802   1.000000   0.000000
   34        1.321196      7.792187   1.000000   0.000000
   35        1.332688      7.801058   1.000000   0.000000
   36        2.292754      8.453973   1.000000   0.000000
   37        2.344357      8.698688   1.000000   0.000000
   38        2.720304      8.870211   1.000000   0.000000
   39        3.237349      9.010798   1.000000   0.000000
   40        3.590275      9.209616   1.000000   0.000000
   41        3.719051      9.565306   1.000000   0.000000
   42        4.227580      9.646132   1.000000   0.000000
   43        8.486594     10.206865   0.000000   0.000000
   44        8.999704     11.190066   0.000000   0.000000
   45       10.222358     11.471209   0.000000   0.000000
   46       11.651804     12.041139   0.000000   0.000000
   47       12.313278     13.112632   0.000000   0.000000
   48       12.576418     13.588086   0.000000   0.000000
   49       12.701866     14.016273   0.000000   0.000000
   50       14.560209     14.928851   0.000000   0.000000
   51       15.241892     15.710546   0.000000   0.000000
   52       15.410245     16.076488   0.000000   0.000000
 
  0.3333333E+00  0.0000000E+00  0.0000000E+00  0.2083333E-01
    1      -56.036594    -49.457824   1.000000   1.000000
    2      -56.034369    -49.453858   1.000000   1.000000
    3      -55.727974    -49.421666   1.000000   1.000000
    4      -54.758847    -49.382707   1.000000   1.000000
    5      -54.756507    -49.382486   1.000000   1.000000
    6      -54.442958    -49.379641   1.000000   1.000000
    7      -54.413181    -49.061825   1.000000   1.000000
    8      -54.303550    -49.032403   1.000000   1.000000
    9      -54.159815    -49.022228   1.000000   1.000000
   10      -43.493508    -43.500051   1.000000   1.000000
   11      -43.492367    -43.498980   1.000000   1.000000
   12      -15.984101    -15.481635   1.000000   1.000000
   13      -15.876300    -15.381869   1.000000   1.000000
   14       -9.061526     -8.724635   1.000000   1.000000
   15       -8.482395     -8.102648   1.000000   1.000000
   16       -2.953145     -1.212021   1.000000   1.000000
   17       -2.905226     -1.199396   1.000000   1.000000
   18       -2.022859     -0.823213   1.000000   1.000000
   19       -2.001139     -0.333989   1.000000   1.000000
   20       -1.755714     -0.081085   1.000000   1.000000
   21       -0.934065      0.219486   1.000000   1.000000
   22       -0.752057      0.784613   1.000000   1.000000
   23       -0.643235      1.137106   1.000000   1.000000
   24       -0.390208      1.495515   1.000000   1.000000
   25       -0.369368      1.508117   1.000000   1.000000
   26       -0.311869      2.273360   1.000000   1.000000
   27        0.074159      2.300940   1.000000   1.000000
   28        0.224353      2.799203   1.000000   1.000000
   29        0.461419      4.260665   1.000000   1.000000
   30        0.501065      5.004364   1.000000   1.000000
   31        0.614795      6.842947   1.000000   0.000000
   32        0.633523      7.143829   1.000000   0.000000
   33        0.745575      7.336129   1.000000   0.000000
   34        0.764284      8.013127   1.000000   0.000000
   35        1.215824      8.311137   1.000000   0.000000
   36        2.000733      8.520257   1.000000   0.000000
   37        2.066738      8.747580   1.000000   0.000000
   38        2.209780      8.754614   1.000000   0.000000
   39        2.210348      9.073747   1.000000   0.000000
   40        3.460362      9.382853   1.000000   0.000000
   41        3.609683      9.594605   1.000000   0.000000
   42        3.680392      9.904915   1.000000   0.000000
   43        9.757574     11.283082   0.000000   0.000000
   44       10.562992     11.623698   0.000000   0.000000
   45       10.605469     12.495231   0.000000   0.000000
   46       11.901010     13.353165   0.000000   0.000000
   47       12.687803     13.503950   0.000000   0.000000
   48       13.053687     13.604448   0.000000   0.000000
   49       13.709992     14.515137   0.000000   0.000000
   50       14.039390     14.525825   0.000000   0.000000
   51       14.710783     15.203216   0.000000   0.000000
   52       14.716227     15.408227   0.000000   0.000000
 
  0.5000000E+00  0.0000000E+00  0.0000000E+00  0.1041667E-01
    1      -56.037163    -49.457585   1.000000   1.000000
    2      -56.034998    -49.453598   1.000000   1.000000
    3      -55.727860    -49.421769   1.000000   1.000000
    4      -54.758820    -49.383715   1.000000   1.000000
    5      -54.756499    -49.382410   1.000000   1.000000
    6      -54.442975    -49.380746   1.000000   1.000000
    7      -54.413173    -49.061723   1.000000   1.000000
    8      -54.303502    -49.032776   1.000000   1.000000
    9      -54.160109    -49.022159   1.000000   1.000000
   10      -43.493280    -43.499795   1.000000   1.000000
   11      -43.492147    -43.498785   1.000000   1.000000
   12      -15.920184    -15.417798   1.000000   1.000000
   13      -15.818489    -15.325496   1.000000   1.000000
   14       -9.002286     -8.673766   1.000000   1.000000
   15       -8.410289     -8.016756   1.000000   1.000000
   16       -3.039875     -1.438140   1.000000   1.000000
   17       -2.855696     -1.203808   1.000000   1.000000
   18       -2.286840     -0.567631   1.000000   1.000000
   19       -2.058132     -0.049023   1.000000   1.000000
   20       -1.904819      0.033514   1.000000   1.000000
   21       -0.805666      0.422177   1.000000   1.000000
   22       -0.671221      0.492600   1.000000   1.000000
   23       -0.564095      0.680520   1.000000   1.000000
   24       -0.523537      0.953691   1.000000   1.000000
   25       -0.372810      1.062530   1.000000   1.000000
   26       -0.210779      2.028589   1.000000   1.000000
   27        0.015264      2.144873   1.000000   1.000000
   28        0.187603      2.824431   1.000000   1.000000
   29        0.454141      4.294104   1.000000   1.000000
   30        0.485324      5.041460   1.000000   1.000000
   31        0.515288      6.688097   1.000000   0.000000
   32        0.651419      7.059089   1.000000   0.000000
   33        0.699921      7.104473   1.000000   0.000000
   34        0.817933      8.189073   1.000000   0.000000
   35        1.494208      8.408480   1.000000   0.000000
   36        1.687417      8.738027   1.000000   0.000000
   37        1.784055      8.775601   1.000000   0.000000
   38        1.927437      8.802921   1.000000   0.000000
   39        2.155702      8.953675   1.000000   0.000000
   40        2.966874      9.545471   1.000000   0.000000
   41        3.627736      9.574572   1.000000   0.000000
   42        3.702527     10.113745   1.000000   0.000000
   43       10.422704     11.355903   0.000000   0.000000
   44       10.728776     12.275938   0.000000   0.000000
   45       11.661277     12.731475   0.000000   0.000000
   46       11.689949     13.352000   0.000000   0.000000
   47       12.506677     13.574989   0.000000   0.000000
   48       12.870646     13.683722   0.000000   0.000000
   49       13.465625     14.293639   0.000000   0.000000
   50       13.829396     14.586725   0.000000   0.000000
   51       14.323442     14.856948   0.000000   0.000000
   52       15.445351     15.922995   0.000000   0.000000
 
  0.0000000E+00  0.2500000E+00  0.3401495E-14  0.4166667E-01
    1      -56.034722    -49.458517   1.000000   1.000000
    2      -56.032437    -49.454495   1.000000   1.000000
    3      -55.728253    -49.421492   1.000000   1.000000
    4      -54.758960    -49.382241   1.000000   1.000000
    5      -54.756476    -49.379534   1.000000   1.000000
    6      -54.442894    -49.376409   1.000000   1.000000
    7      -54.413162    -49.062107   1.000000   1.000000
    8      -54.303668    -49.031308   1.000000   1.000000
    9      -54.158898    -49.022443   1.000000   1.000000
   10      -43.493868    -43.500467   1.000000   1.000000
   11      -43.493101    -43.499640   1.000000   1.000000
   12      -16.165937    -15.662587   1.000000   1.000000
   13      -16.042305    -15.544682   1.000000   1.000000
   14       -9.170879     -8.822102   1.000000   1.000000
   15       -8.768351     -8.433722   1.000000   1.000000
   16       -2.706091     -1.421080   1.000000   1.000000
   17       -2.288670     -0.644195   1.000000   1.000000
   18       -2.030327     -0.443090   1.000000   1.000000
   19       -1.892899     -0.439857   1.000000   1.000000
   20       -1.732369     -0.320881   1.000000   1.000000
   21       -1.289187     -0.064660   1.000000   1.000000
   22       -0.842006      0.897628   1.000000   1.000000
   23       -0.668973      1.866454   1.000000   1.000000
   24       -0.569869      2.157500   1.000000   1.000000
   25       -0.238584      2.539291   1.000000   1.000000
   26       -0.223528      3.016409   1.000000   1.000000
   27       -0.060891      3.144276   1.000000   1.000000
   28        0.061926      3.346814   1.000000   1.000000
   29        0.126030      3.820414   1.000000   1.000000
   30        0.423848      4.793715   1.000000   1.000000
   31        0.656812      7.427627   1.000000   0.000000
   32        0.917461      7.662303   1.000000   0.000000
   33        1.122341      7.947963   1.000000   0.000000
   34        1.222761      8.100098   1.000000   0.000000
   35        1.930456      8.295191   1.000000   0.000000
   36        2.161626      8.590332   1.000000   0.000000
   37        2.278397      8.710571   1.000000   0.000000
   38        3.168596      8.822195   1.000000   0.000000
   39        3.353188      8.951233   1.000000   0.000000
   40        3.470602      9.261806   1.000000   0.000000
   41        4.241805      9.662535   1.000000   0.000000
   42        4.326225      9.903773   1.000000   0.000000
   43        8.700883      9.946989   0.000000   0.000000
   44        8.902971     10.479991   0.000000   0.000000
   45       10.369556     11.002107   0.000000   0.000000
   46       10.584203     11.689742   0.000000   0.000000
   47       11.787217     12.504017   0.000000   0.000000
   48       12.913680     13.753602   0.000000   0.000000
   49       13.630193     14.713712   0.000000   0.000000
   50       14.014790     14.731449   0.000000   0.000000
   51       14.478842     15.152009   0.000000   0.000000
   52       15.122804     15.718662   0.000000   0.000000
 
  0.1666667E+00  0.2500000E+00  0.3401495E-14  0.8333333E-01
    1      -56.035378    -49.458284   1.000000   1.000000
    2      -56.033082    -49.454232   1.000000   1.000000
    3      -55.728165    -49.421535   1.000000   1.000000
    4      -54.758948    -49.382324   1.000000   1.000000
    5      -54.756466    -49.380619   1.000000   1.000000
    6      -54.442911    -49.377448   1.000000   1.000000
    7      -54.413183    -49.062016   1.000000   1.000000
    8      -54.303629    -49.031665   1.000000   1.000000
    9      -54.159205    -49.022379   1.000000   1.000000
   10      -43.493691    -43.500270   1.000000   1.000000
   11      -43.492934    -43.499488   1.000000   1.000000
   12      -16.108081    -15.604785   1.000000   1.000000
   13      -15.985865    -15.489278   1.000000   1.000000
   14       -9.103011     -8.758804   1.000000   1.000000
   15       -8.699226     -8.355343   1.000000   1.000000
   16       -2.853468     -1.311700   1.000000   1.000000
   17       -2.596497     -0.800067   1.000000   1.000000
   18       -1.937871     -0.721278   1.000000   1.000000
   19       -1.879775     -0.482846   1.000000   1.000000
   20       -1.442136     -0.254378   1.000000   1.000000
   21       -1.316707      0.004378   1.000000   1.000000
   22       -1.146443      0.987062   1.000000   1.000000
   23       -0.754974      1.771193   1.000000   1.000000
   24       -0.533701      1.927001   1.000000   1.000000
   25       -0.211751      2.311125   1.000000   1.000000
   26       -0.069856      2.517782   1.000000   1.000000
   27       -0.021727      2.664672   1.000000   1.000000
   28        0.168539      3.107597   1.000000   1.000000
   29        0.229239      4.152716   1.000000   1.000000
   30        0.383976      4.790257   1.000000   1.000000
   31        0.585439      7.576130   1.000000   0.000000
   32        0.798388      7.626560   1.000000   0.000000
   33        1.030936      7.861206   1.000000   0.000000
   34        1.224957      7.883760   1.000000   0.000000
   35        1.349908      8.050607   1.000000   0.000000
   36        2.079467      8.559797   1.000000   0.000000
   37        2.464622      8.743439   1.000000   0.000000
   38        2.760483      8.929678   1.000000   0.000000
   39        3.265559      8.985265   1.000000   0.000000
   40        3.510797      9.164445   1.000000   0.000000
   41        3.631498      9.510675   1.000000   0.000000
   42        4.273122      9.833818   1.000000   0.000000
   43        9.209977     10.669187   0.000000   0.000000
   44        9.461179     11.178297   0.000000   0.000000
   45       10.819926     11.917684   0.000000   0.000000
   46       11.703656     12.179072   0.000000   0.000000
   47       12.361311     13.145588   0.000000   0.000000
   48       12.802899     13.647207   0.000000   0.000000
   49       12.897571     14.097193   0.000000   0.000000
   50       13.843559     14.306213   0.000000   0.000000
   51       14.086331     14.696545   0.000000   0.000000
   52       14.503551     15.170593   0.000000   0.000000
 
  0.3333333E+00  0.2500000E+00  0.3401495E-14  0.8333333E-01
    1      -56.036648    -49.457824   1.000000   1.000000
    2      -56.034317    -49.453701   1.000000   1.000000
    3      -55.727976    -49.421594   1.000000   1.000000
    4      -54.758923    -49.382839   1.000000   1.000000
    5      -54.756438    -49.382372   1.000000   1.000000
    6      -54.442936    -49.379514   1.000000   1.000000
    7      -54.413225    -49.061820   1.000000   1.000000
    8      -54.303546    -49.032394   1.000000   1.000000
    9      -54.159803    -49.022245   1.000000   1.000000
   10      -43.493296    -43.499834   1.000000   1.000000
   11      -43.492518    -43.499104   1.000000   1.000000
   12      -15.989206    -15.486261   1.000000   1.000000
   13      -15.869647    -15.375434   1.000000   1.000000
   14       -8.965545     -8.630853   1.000000   1.000000
   15       -8.550953     -8.186989   1.000000   1.000000
   16       -2.980490     -1.379258   1.000000   1.000000
   17       -2.899390     -1.278835   1.000000   1.000000
   18       -2.082256     -0.751611   1.000000   1.000000
   19       -1.940587     -0.302263   1.000000   1.000000
   20       -1.730639     -0.146427   1.000000   1.000000
   21       -1.210037      0.035807   1.000000   1.000000
   22       -0.962827      0.992225   1.000000   1.000000
   23       -0.936367      1.212798   1.000000   1.000000
   24       -0.567183      1.332183   1.000000   1.000000
   25       -0.251802      1.789959   1.000000   1.000000
   26       -0.224999      2.042325   1.000000   1.000000
   27        0.023026      2.210966   1.000000   1.000000
   28        0.201361      3.034690   1.000000   1.000000
   29        0.391767      4.278164   1.000000   1.000000
   30        0.460645      4.787377   1.000000   1.000000
   31        0.532032      7.188395   1.000000   0.000000
   32        0.639444      7.417622   1.000000   0.000000
   33        0.841282      7.763912   1.000000   0.000000
   34        1.085634      8.027131   1.000000   0.000000
   35        1.495533      8.306432   1.000000   0.000000
   36        1.852156      8.537010   1.000000   0.000000
   37        2.169170      8.694201   1.000000   0.000000
   38        2.319859      8.821615   1.000000   0.000000
   39        2.735623      8.963022   1.000000   0.000000
   40        3.369891      9.432741   1.000000   0.000000
   41        3.488995      9.668880   1.000000   0.000000
   42        4.070327      9.757845   1.000000   0.000000
   43       10.114294     11.591975   0.000000   0.000000
   44       10.553787     11.989205   0.000000   0.000000
   45       11.138690     12.104590   0.000000   0.000000
   46       11.908131     12.973609   0.000000   0.000000
   47       12.416508     13.451798   0.000000   0.000000
   48       12.504567     13.520275   0.000000   0.000000
   49       13.096011     14.047549   0.000000   0.000000
   50       13.617805     14.280292   0.000000   0.000000
   51       14.204518     14.902983   0.000000   0.000000
   52       14.629524     15.364456   0.000000   0.000000
 
  0.5000000E+00  0.2500000E+00  0.3401495E-14  0.4166667E-01
    1      -56.037264    -49.457591   1.000000   1.000000
    2      -56.034931    -49.453440   1.000000   1.000000
    3      -55.727887    -49.421623   1.000000   1.000000
    4      -54.758908    -49.383883   1.000000   1.000000
    5      -54.756425    -49.382401   1.000000   1.000000
    6      -54.442953    -49.380594   1.000000   1.000000
    7      -54.413250    -49.061719   1.000000   1.000000
    8      -54.303505    -49.032766   1.000000   1.000000
    9      -54.160103    -49.022185   1.000000   1.000000
   10      -43.493069    -43.499587   1.000000   1.000000
   11      -43.492305    -43.498907   1.000000   1.000000
   12      -15.928119    -15.425491   1.000000   1.000000
   13      -15.809831    -15.316955   1.000000   1.000000
   14       -8.896157     -8.566363   1.000000   1.000000
   15       -8.471185     -8.096242   1.000000   1.000000
   16       -3.084951     -1.605320   1.000000   1.000000
   17       -2.853579     -1.350636   1.000000   1.000000
   18       -2.192573     -0.690398   1.000000   1.000000
   19       -2.177439     -0.359169   1.000000   1.000000
   20       -1.883148     -0.117595   1.000000   1.000000
   21       -1.218183      0.199147   1.000000   1.000000
   22       -0.964009      0.842208   1.000000   1.000000
   23       -0.905769      1.052121   1.000000   1.000000
   24       -0.622499      1.153855   1.000000   1.000000
   25       -0.254565      1.551875   1.000000   1.000000
   26       -0.208418      1.783931   1.000000   1.000000
   27       -0.014665      2.009481   1.000000   1.000000
   28       -0.003694      3.005566   1.000000   1.000000
   29        0.201616      4.297249   1.000000   1.000000
   30        0.568963      4.788918   1.000000   1.000000
   31        0.646624      7.042552   1.000000   0.000000
   32        0.826199      7.309894   1.000000   0.000000
   33        0.974370      7.683552   1.000000   0.000000
   34        1.160649      8.049646   1.000000   0.000000
   35        1.479292      8.596765   1.000000   0.000000
   36        1.690455      8.630486   1.000000   0.000000
   37        1.955258      8.682655   1.000000   0.000000
   38        2.135392      8.686496   1.000000   0.000000
   39        2.657311      8.968315   1.000000   0.000000
   40        3.281931      9.541299   1.000000   0.000000
   41        3.294055      9.643868   1.000000   0.000000
   42        4.071331      9.865177   1.000000   0.000000
   43       10.658623     12.077647   0.000000   0.000000
   44       11.114825     12.158970   0.000000   0.000000
   45       11.310840     12.294451   0.000000   0.000000
   46       11.601083     12.564538   0.000000   0.000000
   47       11.769078     13.335429   0.000000   0.000000
   48       12.462778     13.372685   0.000000   0.000000
   49       12.658024     13.503532   0.000000   0.000000
   50       13.425236     14.195394   0.000000   0.000000
   51       14.253634     15.046194   0.000000   0.000000
   52       15.023630     15.962545   0.000000   0.000000
 
  0.0000000E+00  0.5000000E+00 -0.3045030E-15  0.2083333E-01
    1      -56.034718    -49.458539   1.000000   1.000000
    2      -56.032458    -49.454330   1.000000   1.000000
    3      -55.728261    -49.421661   1.000000   1.000000
    4      -54.759042    -49.381885   1.000000   1.000000
    5      -54.756410    -49.379453   1.000000   1.000000
    6      -54.442900    -49.376494   1.000000   1.000000
    7      -54.413184    -49.062118   1.000000   1.000000
    8      -54.303664    -49.031321   1.000000   1.000000
    9      -54.158898    -49.022485   1.000000   1.000000
   10      -43.493464    -43.500047   1.000000   1.000000
   11      -43.493415    -43.499938   1.000000   1.000000
   12      -16.163812    -15.659424   1.000000   1.000000
   13      -16.040763    -15.543540   1.000000   1.000000
   14       -9.047980     -8.707290   1.000000   1.000000
   15       -8.907547     -8.584406   1.000000   1.000000
   16       -2.624625     -1.142757   1.000000   1.000000
   17       -2.319149     -0.602775   1.000000   1.000000
   18       -1.996229     -0.395180   1.000000   1.000000
   19       -1.831767     -0.339653   1.000000   1.000000
   20       -1.830972     -0.200744   1.000000   1.000000
   21       -1.365588      0.241583   1.000000   1.000000
   22       -0.944487      0.654015   1.000000   1.000000
   23       -0.685260      0.957079   1.000000   1.000000
   24       -0.594760      1.833438   1.000000   1.000000
   25       -0.251758      2.414556   1.000000   1.000000
   26       -0.241430      2.913782   1.000000   1.000000
   27        0.025652      3.315150   1.000000   1.000000
   28        0.079033      3.344194   1.000000   1.000000
   29        0.131868      3.794799   1.000000   1.000000
   30        0.333478      4.754287   1.000000   1.000000
   31        0.686111      7.597468   1.000000   0.000000
   32        1.157467      7.815950   1.000000   0.000000
   33        1.202316      8.092577   1.000000   0.000000
   34        1.541813      8.158028   1.000000   0.000000
   35        1.668910      8.320081   1.000000   0.000000
   36        2.107930      8.573895   1.000000   0.000000
   37        2.165209      8.730787   1.000000   0.000000
   38        3.075838      9.157112   1.000000   0.000000
   39        3.160071      9.255287   1.000000   0.000000
   40        3.354903      9.276363   1.000000   0.000000
   41        4.062277      9.611295   1.000000   0.000000
   42        4.309537      9.910224   1.000000   0.000000
   43        9.676968     10.475832   0.000000   0.000000
   44       10.019542     11.156915   0.000000   0.000000
   45       11.001161     11.722888   0.000000   0.000000
   46       11.255973     12.379959   0.000000   0.000000
   47       11.801862     12.406161   0.000000   0.000000
   48       12.758310     13.454663   0.000000   0.000000
   49       13.120809     14.038242   0.000000   0.000000
   50       13.424048     14.108424   0.000000   0.000000
   51       13.501299     14.349899   0.000000   0.000000
   52       14.033358     14.702881   0.000000   0.000000
 
  0.1666667E+00  0.5000000E+00 -0.3045030E-15  0.4166667E-01
    1      -56.035386    -49.458302   1.000000   1.000000
    2      -56.033079    -49.454074   1.000000   1.000000
    3      -55.728183    -49.421625   1.000000   1.000000
    4      -54.759031    -49.382070   1.000000   1.000000
    5      -54.756404    -49.380605   1.000000   1.000000
    6      -54.442910    -49.377445   1.000000   1.000000
    7      -54.413219    -49.062024   1.000000   1.000000
    8      -54.303631    -49.031672   1.000000   1.000000
    9      -54.159200    -49.022421   1.000000   1.000000
   10      -43.493299    -43.499880   1.000000   1.000000
   11      -43.493248    -43.499768   1.000000   1.000000
   12      -16.108174    -15.604043   1.000000   1.000000
   13      -15.982763    -15.486492   1.000000   1.000000
   14       -8.957088     -8.619387   1.000000   1.000000
   15       -8.848537     -8.517126   1.000000   1.000000
   16       -2.776628     -1.085493   1.000000   1.000000
   17       -2.656653     -0.860553   1.000000   1.000000
   18       -1.909415     -0.693922   1.000000   1.000000
   19       -1.851276     -0.422509   1.000000   1.000000
   20       -1.536669     -0.206804   1.000000   1.000000
   21       -1.302979      0.113823   1.000000   1.000000
   22       -1.287328      0.996139   1.000000   1.000000
   23       -0.801026      1.136954   1.000000   1.000000
   24       -0.724094      1.649915   1.000000   1.000000
   25       -0.238087      2.283353   1.000000   1.000000
   26       -0.142548      2.446860   1.000000   1.000000
   27        0.007974      2.634107   1.000000   1.000000
   28        0.245880      3.290038   1.000000   1.000000
   29        0.336616      4.154875   1.000000   1.000000
   30        0.558167      4.734513   1.000000   1.000000
   31        0.653650      7.632790   1.000000   0.000000
   32        0.870894      7.765347   1.000000   0.000000
   33        0.918265      7.905721   1.000000   0.000000
   34        1.143504      8.177539   1.000000   0.000000
   35        1.442868      8.251964   1.000000   0.000000