  88  88   0   0
  0.1431748E+02  0.1111223E-08  0.1111745E-08  0.1056954E-08  0.5000000E-15
  1.000000000000000E-004
  CAR 
 unknown system                          
     17.92020011    -54.34256938  301      5.21399647      1.00000000
    -54.343  0.0000E+00  0.0000E+00  0.0000E+00  0.0000E+00
    -54.102  0.0000E+00  0.0000E+00  0.0000E+00  0.0000E+00
    -53.861  0.0000E+00  0.0000E+00  0.0000E+00  0.0000E+00
    -53.620  0.0000E+00  0.0000E+00  0.0000E+00  0.0000E+00
    -53.379  0.0000E+00  0.0000E+00  0.0000E+00  0.0000E+00
    -53.138  0.0000E+00  0.0000E+00  0.0000E+00  0.0000E+00
    -52.897  0.0000E+00  0.0000E+00  0.0000E+00  0.0000E+00
    -52.656  0.0000E+00  0.0000E+00  0.0000E+00  0.0000E+00
    -52.416  0.0000E+00  0.0000E+00  0.0000E+00  0.0000E+00
    -52.175  0.0000E+00  0.0000E+00  0.0000E+00  0.0000E+00
    -51.934  0.0000E+00  0.0000E+00  0.0000E+00  0.0000E+00
    -51.693  0.0000E+00  0.0000E+00  0.0000E+00  0.0000E+00
    -51.452  0.0000E+00  0.0000E+00  0.0000E+00  0.0000E+00
    -51.211  0.3279E-03  0.0000E+00  0.7899E-04  0.0000E+00
    -50.970  0.1307E+03  0.0000E+00  0.3149E+02  0.0000E+00
    -50.729  0.2117E+01  0.0000E+00  0.3200E+02  0.0000E+00
    -50.489  0.0000E+00  0.0000E+00  0.3200E+02  0.0000E+00
    -50.248  0.0000E+00  0.0000E+00  0.3200E+02  0.0000E+00
    -50.007  0.0000E+00  0.0000E+00  0.3200E+02  0.0000E+00
    -49.766  0.1845E+01  0.0000E+00  0.3244E+02  0.0000E+00
    -49.525  0.2357E+03  0.0000E+00  0.8921E+02  0.0000E+00
    -49.284  0.2819E+02  0.0000E+00  0.9600E+02  0.0000E+00
    -49.043  0.0000E+00  0.0000E+00  0.9600E+02  0.0000E+00
    -48.802  0.0000E+00  0.0000E+00  0.9600E+02  0.0000E+00
    -48.562  0.0000E+00  0.0000E+00  0.9600E+02  0.0000E+00
    -48.321  0.0000E+00  0.0000E+00  0.9600E+02  0.0000E+00
    -48.080  0.0000E+00  0.0000E+00  0.9600E+02  0.0000E+00
    -47.839  0.0000E+00  0.0000E+00  0.9600E+02  0.0000E+00
    -47.598  0.0000E+00  0.0000E+00  0.9600E+02  0.0000E+00
    -47.357  0.0000E+00  0.0000E+00  0.9600E+02  0.0000E+00
    -47.116  0.0000E+00  0.0000E+00  0.9600E+02  0.0000E+00
    -46.875  0.0000E+00  0.0000E+00  0.9600E+02  0.0000E+00
    -46.635  0.0000E+00  0.0000E+00  0.9600E+02  0.0000E+00
    -46.394  0.0000E+00  0.3682E+00  0.9600E+02  0.8868E-01
    -46.153  0.0000E+00  0.1324E+03  0.9600E+02  0.3199E+02
    -45.912  0.0000E+00  0.6014E+02  0.9600E+02  0.4648E+02
    -45.671  0.0000E+00  0.2056E+03  0.9600E+02  0.9600E+02
    -45.430  0.0000E+00  0.0000E+00  0.9600E+02  0.9600E+02
    -45.189  0.0000E+00  0.0000E+00  0.9600E+02  0.9600E+02
    -44.948  0.0000E+00  0.0000E+00  0.9600E+02  0.9600E+02
    -44.708  0.0000E+00  0.0000E+00  0.9600E+02  0.9600E+02
    -44.467  0.0000E+00  0.0000E+00  0.9600E+02  0.9600E+02
    -44.226  0.0000E+00  0.0000E+00  0.9600E+02  0.9600E+02
    -43.985  0.0000E+00  0.0000E+00  0.9600E+02  0.9600E+02
    -43.744  0.0000E+00  0.0000E+00  0.9600E+02  0.9600E+02
    -43.503  0.0000E+00  0.0000E+00  0.9600E+02  0.9600E+02
    -43.262  0.0000E+00  0.0000E+00  0.9600E+02  0.9600E+02
    -43.021  0.0000E+00  0.0000E+00  0.9600E+02  0.9600E+02
    -42.781  0.0000E+00  0.0000E+00  0.9600E+02  0.9600E+02
    -42.540  0.0000E+00  0.0000E+00  0.9600E+02  0.9600E+02
    -42.299  0.0000E+00  0.0000E+00  0.9600E+02  0.9600E+02
    -42.058  0.0000E+00  0.0000E+00  0.9600E+02  0.9600E+02
    -41.817  0.0000E+00  0.0000E+00  0.9600E+02  0.9600E+02
    -41.576  0.0000E+00  0.0000E+00  0.9600E+02  0.9600E+02
    -41.335  0.0000E+00  0.0000E+00  0.9600E+02  0.9600E+02
    -41.094  0.0000E+00  0.0000E+00  0.9600E+02  0.9600E+02
    -40.854  0.0000E+00  0.0000E+00  0.9600E+02  0.9600E+02
    -40.613  0.0000E+00  0.0000E+00  0.9600E+02  0.9600E+02
    -40.372  0.0000E+00  0.0000E+00  0.9600E+02  0.9600E+02
    -40.131  0.2268E-11  0.1470E-11  0.9600E+02  0.9600E+02
    -39.890  0.1591E+02  0.1474E+02  0.9983E+02  0.9955E+02
    -39.649  0.5051E+02  0.5169E+02  0.1120E+03  0.1120E+03
    -39.408  0.0000E+00  0.0000E+00  0.1120E+03  0.1120E+03
    -39.167  0.0000E+00  0.0000E+00  0.1120E+03  0.1120E+03
    -38.927  0.0000E+00  0.0000E+00  0.1120E+03  0.1120E+03
    -38.686  0.0000E+00  0.0000E+00  0.1120E+03  0.1120E+03
    -38.445  0.0000E+00  0.0000E+00  0.1120E+03  0.1120E+03
    -38.204  0.0000E+00  0.0000E+00  0.1120E+03  0.1120E+03
    -37.963  0.0000E+00  0.0000E+00  0.1120E+03  0.1120E+03
    -37.722  0.0000E+00  0.0000E+00  0.1120E+03  0.1120E+03
    -37.481  0.0000E+00  0.0000E+00  0.1120E+03  0.1120E+03
    -37.240  0.0000E+00  0.0000E+00  0.1120E+03  0.1120E+03
    -37.000  0.0000E+00  0.0000E+00  0.1120E+03  0.1120E+03
    -36.759  0.0000E+00  0.0000E+00  0.1120E+03  0.1120E+03
    -36.518  0.0000E+00  0.0000E+00  0.1120E+03  0.1120E+03
    -36.277  0.0000E+00  0.0000E+00  0.1120E+03  0.1120E+03
    -36.036  0.0000E+00  0.0000E+00  0.1120E+03  0.1120E+03
    -35.795  0.0000E+00  0.0000E+00  0.1120E+03  0.1120E+03
    -35.554  0.0000E+00  0.0000E+00  0.1120E+03  0.1120E+03
    -35.313  0.0000E+00  0.0000E+00  0.1120E+03  0.1120E+03
    -35.072  0.0000E+00  0.0000E+00  0.1120E+03  0.1120E+03
    -34.832  0.0000E+00  0.0000E+00  0.1120E+03  0.1120E+03
    -34.591  0.0000E+00  0.0000E+00  0.1120E+03  0.1120E+03
    -34.350  0.0000E+00  0.0000E+00  0.1120E+03  0.1120E+03
    -34.109  0.0000E+00  0.0000E+00  0.1120E+03  0.1120E+03
    -33.868  0.0000E+00  0.0000E+00  0.1120E+03  0.1120E+03
    -33.627  0.0000E+00  0.0000E+00  0.1120E+03  0.1120E+03
    -33.386  0.0000E+00  0.0000E+00  0.1120E+03  0.1120E+03
    -33.145  0.0000E+00  0.0000E+00  0.1120E+03  0.1120E+03
    -32.905  0.0000E+00  0.0000E+00  0.1120E+03  0.1120E+03
    -32.664  0.0000E+00  0.0000E+00  0.1120E+03  0.1120E+03
    -32.423  0.0000E+00  0.0000E+00  0.1120E+03  0.1120E+03
    -32.182  0.0000E+00  0.0000E+00  0.1120E+03  0.1120E+03
    -31.941  0.0000E+00  0.0000E+00  0.1120E+03  0.1120E+03
    -31.700  0.0000E+00  0.0000E+00  0.1120E+03  0.1120E+03
    -31.459  0.0000E+00  0.0000E+00  0.1120E+03  0.1120E+03
    -31.218  0.0000E+00  0.0000E+00  0.1120E+03  0.1120E+03
    -30.978  0.0000E+00  0.0000E+00  0.1120E+03  0.1120E+03
    -30.737  0.0000E+00  0.0000E+00  0.1120E+03  0.1120E+03
    -30.496  0.0000E+00  0.0000E+00  0.1120E+03  0.1120E+03
    -30.255  0.0000E+00  0.0000E+00  0.1120E+03  0.1120E+03
    -30.014  0.0000E+00  0.0000E+00  0.1120E+03  0.1120E+03
    -29.773  0.0000E+00  0.0000E+00  0.1120E+03  0.1120E+03
    -29.532  0.0000E+00  0.0000E+00  0.1120E+03  0.1120E+03
    -29.291  0.0000E+00  0.0000E+00  0.1120E+03  0.1120E+03
    -29.051  0.0000E+00  0.0000E+00  0.1120E+03  0.1120E+03
    -28.810  0.0000E+00  0.0000E+00  0.1120E+03  0.1120E+03
    -28.569  0.0000E+00  0.0000E+00  0.1120E+03  0.1120E+03
    -28.328  0.0000E+00  0.0000E+00  0.1120E+03  0.1120E+03
    -28.087  0.0000E+00  0.0000E+00  0.1120E+03  0.1120E+03
    -27.846  0.0000E+00  0.0000E+00  0.1120E+03  0.1120E+03
    -27.605  0.0000E+00  0.0000E+00  0.1120E+03  0.1120E+03
    -27.364  0.0000E+00  0.0000E+00  0.1120E+03  0.1120E+03
    -27.124  0.0000E+00  0.0000E+00  0.1120E+03  0.1120E+03
    -26.883  0.0000E+00  0.0000E+00  0.1120E+03  0.1120E+03
    -26.642  0.0000E+00  0.0000E+00  0.1120E+03  0.1120E+03
    -26.401  0.0000E+00  0.0000E+00  0.1120E+03  0.1120E+03
    -26.160  0.0000E+00  0.0000E+00  0.1120E+03  0.1120E+03
    -25.919  0.0000E+00  0.0000E+00  0.1120E+03  0.1120E+03
    -25.678  0.0000E+00  0.0000E+00  0.1120E+03  0.1120E+03
    -25.437  0.0000E+00  0.0000E+00  0.1120E+03  0.1120E+03
    -25.197  0.0000E+00  0.0000E+00  0.1120E+03  0.1120E+03
    -24.956  0.0000E+00  0.0000E+00  0.1120E+03  0.1120E+03
    -24.715  0.0000E+00  0.0000E+00  0.1120E+03  0.1120E+03
    -24.474  0.0000E+00  0.0000E+00  0.1120E+03  0.1120E+03
    -24.233  0.0000E+00  0.0000E+00  0.1120E+03  0.1120E+03
    -23.992  0.0000E+00  0.0000E+00  0.1120E+03  0.1120E+03
    -23.751  0.0000E+00  0.0000E+00  0.1120E+03  0.1120E+03
    -23.510  0.0000E+00  0.0000E+00  0.1120E+03  0.1120E+03
    -23.270  0.0000E+00  0.0000E+00  0.1120E+03  0.1120E+03
    -23.029  0.0000E+00  0.0000E+00  0.1120E+03  0.1120E+03
    -22.788  0.0000E+00  0.0000E+00  0.1120E+03  0.1120E+03
    -22.547  0.0000E+00  0.0000E+00  0.1120E+03  0.1120E+03
    -22.306  0.0000E+00  0.0000E+00  0.1120E+03  0.1120E+03
    -22.065  0.0000E+00  0.0000E+00  0.1120E+03  0.1120E+03
    -21.824  0.0000E+00  0.0000E+00  0.1120E+03  0.1120E+03
    -21.583  0.0000E+00  0.0000E+00  0.1120E+03  0.1120E+03
    -21.343  0.0000E+00  0.0000E+00  0.1120E+03  0.1120E+03
    -21.102  0.0000E+00  0.0000E+00  0.1120E+03  0.1120E+03
    -20.861  0.0000E+00  0.0000E+00  0.1120E+03  0.1120E+03
    -20.620  0.0000E+00  0.0000E+00  0.1120E+03  0.1120E+03
    -20.379  0.0000E+00  0.0000E+00  0.1120E+03  0.1120E+03
    -20.138  0.0000E+00  0.0000E+00  0.1120E+03  0.1120E+03
    -19.897  0.0000E+00  0.0000E+00  0.1120E+03  0.1120E+03
    -19.656  0.0000E+00  0.0000E+00  0.1120E+03  0.1120E+03
    -19.416  0.0000E+00  0.0000E+00  0.1120E+03  0.1120E+03
    -19.175  0.0000E+00  0.0000E+00  0.1120E+03  0.1120E+03
    -18.934  0.0000E+00  0.0000E+00  0.1120E+03  0.1120E+03
    -18.693  0.0000E+00  0.0000E+00  0.1120E+03  0.1120E+03
    -18.452  0.0000E+00  0.0000E+00  0.1120E+03  0.1120E+03
    -18.211  0.0000E+00  0.0000E+00  0.1120E+03  0.1120E+03
    -17.970  0.0000E+00  0.0000E+00  0.1120E+03  0.1120E+03
    -17.729  0.0000E+00  0.0000E+00  0.1120E+03  0.1120E+03
    -17.489  0.0000E+00  0.0000E+00  0.1120E+03  0.1120E+03
    -17.248  0.0000E+00  0.0000E+00  0.1120E+03  0.1120E+03
    -17.007  0.0000E+00  0.0000E+00  0.1120E+03  0.1120E+03
    -16.766  0.0000E+00  0.0000E+00  0.1120E+03  0.1120E+03
    -16.525  0.0000E+00  0.0000E+00  0.1120E+03  0.1120E+03
    -16.284  0.0000E+00  0.0000E+00  0.1120E+03  0.1120E+03
    -16.043  0.0000E+00  0.0000E+00  0.1120E+03  0.1120E+03
    -15.802  0.0000E+00  0.0000E+00  0.1120E+03  0.1120E+03
    -15.562  0.0000E+00  0.0000E+00  0.1120E+03  0.1120E+03
    -15.321  0.0000E+00  0.0000E+00  0.1120E+03  0.1120E+03
    -15.080  0.0000E+00  0.0000E+00  0.1120E+03  0.1120E+03
    -14.839  0.0000E+00  0.0000E+00  0.1120E+03  0.1120E+03
    -14.598  0.0000E+00  0.0000E+00  0.1120E+03  0.1120E+03
    -14.357  0.0000E+00  0.0000E+00  0.1120E+03  0.1120E+03
    -14.116  0.0000E+00  0.0000E+00  0.1120E+03  0.1120E+03
    -13.875  0.0000E+00  0.0000E+00  0.1120E+03  0.1120E+03
    -13.635  0.0000E+00  0.0000E+00  0.1120E+03  0.1120E+03
    -13.394  0.1997E-05  0.0000E+00  0.1120E+03  0.1120E+03
    -13.153  0.2076E+02  0.0000E+00  0.1170E+03  0.1120E+03
    -12.912  0.4469E+02  0.1669E-01  0.1278E+03  0.1120E+03
    -12.671  0.9798E+00  0.4435E+02  0.1280E+03  0.1227E+03
    -12.430  0.0000E+00  0.2206E+02  0.1280E+03  0.1280E+03
    -12.189  0.0000E+00  0.0000E+00  0.1280E+03  0.1280E+03
    -11.948  0.0000E+00  0.0000E+00  0.1280E+03  0.1280E+03
    -11.708  0.0000E+00  0.0000E+00  0.1280E+03  0.1280E+03
    -11.467  0.0000E+00  0.0000E+00  0.1280E+03  0.1280E+03
    -11.226  0.0000E+00  0.0000E+00  0.1280E+03  0.1280E+03
    -10.985  0.0000E+00  0.0000E+00  0.1280E+03  0.1280E+03
    -10.744  0.0000E+00  0.0000E+00  0.1280E+03  0.1280E+03
    -10.503  0.0000E+00  0.0000E+00  0.1280E+03  0.1280E+03
    -10.262  0.0000E+00  0.0000E+00  0.1280E+03  0.1280E+03
    -10.021  0.0000E+00  0.0000E+00  0.1280E+03  0.1280E+03
     -9.781  0.0000E+00  0.0000E+00  0.1280E+03  0.1280E+03
     -9.540  0.0000E+00  0.0000E+00  0.1280E+03  0.1280E+03
     -9.299  0.0000E+00  0.0000E+00  0.1280E+03  0.1280E+03
     -9.058  0.0000E+00  0.0000E+00  0.1280E+03  0.1280E+03
     -8.817  0.0000E+00  0.0000E+00  0.1280E+03  0.1280E+03
     -8.576  0.0000E+00  0.0000E+00  0.1280E+03  0.1280E+03
     -8.335  0.0000E+00  0.0000E+00  0.1280E+03  0.1280E+03
     -8.094  0.0000E+00  0.0000E+00  0.1280E+03  0.1280E+03
     -7.854  0.3119E-09  0.0000E+00  0.1280E+03  0.1280E+03
     -7.613  0.7355E+00  0.6037E-10  0.1282E+03  0.1280E+03
     -7.372  0.1333E+02  0.6624E+00  0.1314E+03  0.1282E+03
     -7.131  0.3022E+02  0.1466E+02  0.1387E+03  0.1317E+03
     -6.890  0.3539E+02  0.2932E+02  0.1472E+03  0.1388E+03
     -6.649  0.1996E+02  0.2711E+02  0.1520E+03  0.1453E+03
     -6.408  0.6949E-05  0.2784E+02  0.1520E+03  0.1520E+03
     -6.167  0.0000E+00  0.3102E-01  0.1520E+03  0.1520E+03
     -5.927  0.0000E+00  0.0000E+00  0.1520E+03  0.1520E+03
     -5.686  0.0000E+00  0.0000E+00  0.1520E+03  0.1520E+03
     -5.445  0.0000E+00  0.0000E+00  0.1520E+03  0.1520E+03
     -5.204  0.0000E+00  0.0000E+00  0.1520E+03  0.1520E+03
     -4.963  0.0000E+00  0.0000E+00  0.1520E+03  0.1520E+03
     -4.722  0.0000E+00  0.0000E+00  0.1520E+03  0.1520E+03
     -4.481  0.0000E+00  0.0000E+00  0.1520E+03  0.1520E+03
     -4.240  0.0000E+00  0.0000E+00  0.1520E+03  0.1520E+03
     -4.000  0.0000E+00  0.0000E+00  0.1520E+03  0.1520E+03
     -3.759  0.0000E+00  0.0000E+00  0.1520E+03  0.1520E+03
     -3.518  0.0000E+00  0.0000E+00  0.1520E+03  0.1520E+03
     -3.277  0.0000E+00  0.0000E+00  0.1520E+03  0.1520E+03
     -3.036  0.0000E+00  0.0000E+00  0.1520E+03  0.1520E+03
     -2.795  0.0000E+00  0.0000E+00  0.1520E+03  0.1520E+03
     -2.554  0.0000E+00  0.0000E+00  0.1520E+03  0.1520E+03
     -2.313  0.0000E+00  0.0000E+00  0.1520E+03  0.1520E+03
     -2.072  0.8015E-04  0.0000E+00  0.1520E+03  0.1520E+03
     -1.832  0.1707E+02  0.0000E+00  0.1561E+03  0.1520E+03
     -1.591  0.1916E+02  0.0000E+00  0.1607E+03  0.1520E+03
     -1.350  0.1449E+02  0.0000E+00  0.1642E+03  0.1520E+03
     -1.109  0.1748E+02  0.0000E+00  0.1684E+03  0.1520E+03
     -0.868  0.4709E+02  0.0000E+00  0.1798E+03  0.1520E+03
     -0.627  0.5918E+02  0.3429E-05  0.1940E+03  0.1520E+03
     -0.386  0.3881E+02  0.4911E+01  0.2034E+03  0.1532E+03
     -0.145  0.6888E+02  0.2025E+02  0.2200E+03  0.1581E+03
      0.095  0.7329E+02  0.1231E+02  0.2376E+03  0.1610E+03
      0.336  0.7768E+02  0.1898E+02  0.2563E+03  0.1656E+03
      0.577  0.7020E+02  0.2975E+02  0.2732E+03  0.1728E+03
      0.818  0.5388E+02  0.3958E+02  0.2862E+03  0.1823E+03
      1.059  0.3620E+02  0.3725E+02  0.2949E+03  0.1913E+03
      1.300  0.3090E+02  0.3052E+02  0.3024E+03  0.1986E+03
      1.541  0.4496E+02  0.2094E+02  0.3132E+03  0.2037E+03
      1.782  0.4345E+02  0.2869E+02  0.3237E+03  0.2106E+03
      2.022  0.6932E+02  0.3765E+02  0.3404E+03  0.2196E+03
      2.263  0.5583E+02  0.2661E+02  0.3538E+03  0.2261E+03
      2.504  0.2729E+02  0.2716E+02  0.3604E+03  0.2326E+03
      2.745  0.4291E+02  0.3184E+02  0.3707E+03  0.2403E+03
      2.986  0.2853E+02  0.4481E+02  0.3776E+03  0.2511E+03
      3.227  0.8821E+01  0.4537E+02  0.3797E+03  0.2620E+03
      3.468  0.2901E+02  0.3071E+02  0.3867E+03  0.2694E+03
      3.709  0.2654E+02  0.1191E+02  0.3931E+03  0.2723E+03
      3.949  0.3132E+02  0.1897E+02  0.4007E+03  0.2768E+03
      4.190  0.3589E+02  0.5171E+02  0.4093E+03  0.2893E+03
      4.431  0.3642E+02  0.4576E+02  0.4181E+03  0.3003E+03
      4.672  0.2990E+02  0.1536E+02  0.4253E+03  0.3040E+03
      4.913  0.2545E+02  0.1858E-02  0.4314E+03  0.3040E+03
      5.154  0.2491E+01  0.0000E+00  0.4320E+03  0.3040E+03
      5.395  0.0000E+00  0.0000E+00  0.4320E+03  0.3040E+03
      5.636  0.0000E+00  0.0000E+00  0.4320E+03  0.3040E+03
      5.876  0.0000E+00  0.0000E+00  0.4320E+03  0.3040E+03
      6.117  0.0000E+00  0.2371E-08  0.4320E+03  0.3040E+03
      6.358  0.0000E+00  0.4718E+00  0.4320E+03  0.3041E+03
      6.599  0.0000E+00  0.4224E+01  0.4320E+03  0.3051E+03
      6.840  0.0000E+00  0.8137E+01  0.4320E+03  0.3071E+03
      7.081  0.8126E-14  0.2041E+02  0.4320E+03  0.3120E+03
      7.322  0.4112E-01  0.4491E+02  0.4320E+03  0.3228E+03
      7.563  0.1126E+00  0.5428E+02  0.4320E+03  0.3359E+03
      7.803  0.3161E+00  0.6277E+02  0.4321E+03  0.3510E+03
      8.044  0.6917E+00  0.6647E+02  0.4323E+03  0.3670E+03
      8.285  0.2309E+01  0.7069E+02  0.4328E+03  0.3841E+03
      8.526  0.2677E+01  0.5826E+02  0.4335E+03  0.3981E+03
      8.767  0.9032E+01  0.5891E+02  0.4357E+03  0.4123E+03
      9.008  0.1275E+02  0.4642E+02  0.4387E+03  0.4235E+03
      9.249  0.1325E+02  0.2876E+02  0.4419E+03  0.4304E+03
      9.490  0.1818E+02  0.8429E+01  0.4463E+03  0.4324E+03
      9.730  0.1601E+02  0.3293E+01  0.4502E+03  0.4332E+03
      9.971  0.1575E+02  0.8552E+01  0.4539E+03  0.4353E+03
     10.212  0.2249E+02  0.1894E+02  0.4594E+03  0.4398E+03
     10.453  0.1487E+02  0.1798E+02  0.4629E+03  0.4442E+03
     10.694  0.1516E+02  0.1749E+02  0.4666E+03  0.4484E+03
     10.935  0.1348E+02  0.2743E+02  0.4698E+03  0.4550E+03
     11.176  0.2074E+02  0.1896E+02  0.4748E+03  0.4596E+03
     11.417  0.2527E+02  0.2413E+02  0.4809E+03  0.4654E+03
     11.657  0.2679E+02  0.1422E+02  0.4874E+03  0.4688E+03
     11.898  0.2526E+02  0.1397E+02  0.4935E+03  0.4722E+03
     12.139  0.3284E+02  0.1653E+02  0.5014E+03  0.4761E+03
     12.380  0.1979E+02  0.3757E+02  0.5061E+03  0.4852E+03
     12.621  0.2311E+02  0.3234E+02  0.5117E+03  0.4930E+03
     12.862  0.2166E+02  0.2899E+02  0.5169E+03  0.5000E+03
     13.103  0.1977E+02  0.2018E+02  0.5217E+03  0.5048E+03
     13.344  0.2480E+02  0.2273E+02  0.5277E+03  0.5103E+03
     13.584  0.2346E+02  0.2732E+02  0.5333E+03  0.5169E+03
     13.825  0.1317E+02  0.2372E+02  0.5365E+03  0.5226E+03
     14.066  0.6294E+01  0.2604E+02  0.5380E+03  0.5289E+03
     14.307  0.1797E-02  0.1888E+02  0.5380E+03  0.5334E+03
     14.548  0.0000E+00  0.1608E+02  0.5380E+03  0.5373E+03
     14.789  0.0000E+00  0.2957E+01  0.5380E+03  0.5380E+03
     15.030  0.0000E+00  0.2236E-05  0.5380E+03  0.5380E+03
     15.271  0.0000E+00  0.0000E+00  0.5380E+03  0.5380E+03
     15.511  0.0000E+00  0.0000E+00  0.5380E+03  0.5380E+03
     15.752  0.0000E+00  0.0000E+00  0.5380E+03  0.5380E+03
     15.993  0.0000E+00  0.0000E+00  0.5380E+03  0.5380E+03
     16.234  0.0000E+00  0.0000E+00  0.5380E+03  0.5380E+03
     16.475  0.0000E+00  0.0000E+00  0.5380E+03  0.5380E+03
     16.716  0.0000E+00  0.0000E+00  0.5380E+03  0.5380E+03
     16.957  0.0000E+00  0.0000E+00  0.5380E+03  0.5380E+03
     17.198  0.0000E+00  0.0000E+00  0.5380E+03  0.5380E+03
     17.438  0.0000E+00  0.0000E+00  0.5380E+03  0.5380E+03
     17.679  0.0000E+00  0.0000E+00  0.5380E+03  0.5380E+03
     17.920  0.0000E+00  0.0000E+00  0.5380E+03  0.5380E+03
