 144 144   0   0
  0.1325381E+02  0.1546422E-08  0.1214491E-08  0.1054520E-08  0.5000000E-15
  1.000000000000000E-004
  CAR 
 unknown system                          
     17.00934288    -54.87044517  301      5.08927803      1.00000000
    -54.870  0.0000E+00  0.0000E+00  0.0000E+00  0.0000E+00
    -54.631  0.0000E+00  0.0000E+00  0.0000E+00  0.0000E+00
    -54.391  0.0000E+00  0.0000E+00  0.0000E+00  0.0000E+00
    -54.152  0.0000E+00  0.0000E+00  0.0000E+00  0.0000E+00
    -53.912  0.0000E+00  0.0000E+00  0.0000E+00  0.0000E+00
    -53.672  0.0000E+00  0.0000E+00  0.0000E+00  0.0000E+00
    -53.433  0.0000E+00  0.0000E+00  0.0000E+00  0.0000E+00
    -53.193  0.0000E+00  0.0000E+00  0.0000E+00  0.0000E+00
    -52.954  0.0000E+00  0.0000E+00  0.0000E+00  0.0000E+00
    -52.714  0.0000E+00  0.0000E+00  0.0000E+00  0.0000E+00
    -52.474  0.0000E+00  0.0000E+00  0.0000E+00  0.0000E+00
    -52.235  0.0000E+00  0.0000E+00  0.0000E+00  0.0000E+00
    -51.995  0.0000E+00  0.0000E+00  0.0000E+00  0.0000E+00
    -51.756  0.3623E-03  0.0000E+00  0.8681E-04  0.0000E+00
    -51.516  0.4986E+02  0.0000E+00  0.1195E+02  0.0000E+00
    -51.276  0.8650E+02  0.0000E+00  0.3267E+02  0.0000E+00
    -51.037  0.1390E+02  0.0000E+00  0.3600E+02  0.0000E+00
    -50.797  0.0000E+00  0.0000E+00  0.3600E+02  0.0000E+00
    -50.558  0.0000E+00  0.0000E+00  0.3600E+02  0.0000E+00
    -50.318  0.1298E-03  0.0000E+00  0.3600E+02  0.0000E+00
    -50.078  0.6738E+02  0.0000E+00  0.5214E+02  0.0000E+00
    -49.839  0.2084E+03  0.0000E+00  0.1021E+03  0.0000E+00
    -49.599  0.2471E+02  0.0000E+00  0.1080E+03  0.0000E+00
    -49.360  0.0000E+00  0.0000E+00  0.1080E+03  0.0000E+00
    -49.120  0.0000E+00  0.0000E+00  0.1080E+03  0.0000E+00
    -48.880  0.0000E+00  0.0000E+00  0.1080E+03  0.0000E+00
    -48.641  0.0000E+00  0.0000E+00  0.1080E+03  0.0000E+00
    -48.401  0.0000E+00  0.0000E+00  0.1080E+03  0.0000E+00
    -48.162  0.0000E+00  0.0000E+00  0.1080E+03  0.0000E+00
    -47.922  0.0000E+00  0.0000E+00  0.1080E+03  0.0000E+00
    -47.682  0.0000E+00  0.0000E+00  0.1080E+03  0.0000E+00
    -47.443  0.0000E+00  0.0000E+00  0.1080E+03  0.0000E+00
    -47.203  0.0000E+00  0.0000E+00  0.1080E+03  0.0000E+00
    -46.964  0.0000E+00  0.6608E-01  0.1080E+03  0.1583E-01
    -46.724  0.0000E+00  0.5102E+02  0.1080E+03  0.1224E+02
    -46.484  0.0000E+00  0.9546E+02  0.1080E+03  0.3511E+02
    -46.245  0.0000E+00  0.1470E+03  0.1080E+03  0.7033E+02
    -46.005  0.0000E+00  0.1572E+03  0.1080E+03  0.1080E+03
    -45.766  0.0000E+00  0.4414E-02  0.1080E+03  0.1080E+03
    -45.526  0.0000E+00  0.0000E+00  0.1080E+03  0.1080E+03
    -45.286  0.0000E+00  0.0000E+00  0.1080E+03  0.1080E+03
    -45.047  0.0000E+00  0.0000E+00  0.1080E+03  0.1080E+03
    -44.807  0.0000E+00  0.0000E+00  0.1080E+03  0.1080E+03
    -44.568  0.0000E+00  0.0000E+00  0.1080E+03  0.1080E+03
    -44.328  0.0000E+00  0.0000E+00  0.1080E+03  0.1080E+03
    -44.088  0.0000E+00  0.0000E+00  0.1080E+03  0.1080E+03
    -43.849  0.0000E+00  0.0000E+00  0.1080E+03  0.1080E+03
    -43.609  0.0000E+00  0.0000E+00  0.1080E+03  0.1080E+03
    -43.370  0.0000E+00  0.0000E+00  0.1080E+03  0.1080E+03
    -43.130  0.0000E+00  0.0000E+00  0.1080E+03  0.1080E+03
    -42.890  0.0000E+00  0.0000E+00  0.1080E+03  0.1080E+03
    -42.651  0.0000E+00  0.0000E+00  0.1080E+03  0.1080E+03
    -42.411  0.0000E+00  0.0000E+00  0.1080E+03  0.1080E+03
    -42.172  0.0000E+00  0.0000E+00  0.1080E+03  0.1080E+03
    -41.932  0.0000E+00  0.0000E+00  0.1080E+03  0.1080E+03
    -41.692  0.0000E+00  0.0000E+00  0.1080E+03  0.1080E+03
    -41.453  0.0000E+00  0.0000E+00  0.1080E+03  0.1080E+03
    -41.213  0.0000E+00  0.0000E+00  0.1080E+03  0.1080E+03
    -40.974  0.0000E+00  0.0000E+00  0.1080E+03  0.1080E+03
    -40.734  0.1347E-08  0.4368E-09  0.1080E+03  0.1080E+03
    -40.494  0.2923E+02  0.2595E+02  0.1150E+03  0.1142E+03
    -40.255  0.4659E+02  0.5016E+02  0.1262E+03  0.1262E+03
    -40.015  0.1001E+03  0.1001E+03  0.1501E+03  0.1502E+03
    -39.776  0.2444E+02  0.2417E+02  0.1560E+03  0.1560E+03
    -39.536  0.0000E+00  0.0000E+00  0.1560E+03  0.1560E+03
    -39.296  0.0000E+00  0.0000E+00  0.1560E+03  0.1560E+03
    -39.057  0.0000E+00  0.0000E+00  0.1560E+03  0.1560E+03
    -38.817  0.0000E+00  0.0000E+00  0.1560E+03  0.1560E+03
    -38.578  0.0000E+00  0.0000E+00  0.1560E+03  0.1560E+03
    -38.338  0.0000E+00  0.0000E+00  0.1560E+03  0.1560E+03
    -38.098  0.0000E+00  0.0000E+00  0.1560E+03  0.1560E+03
    -37.859  0.0000E+00  0.0000E+00  0.1560E+03  0.1560E+03
    -37.619  0.0000E+00  0.0000E+00  0.1560E+03  0.1560E+03
    -37.380  0.0000E+00  0.0000E+00  0.1560E+03  0.1560E+03
    -37.140  0.0000E+00  0.0000E+00  0.1560E+03  0.1560E+03
    -36.900  0.0000E+00  0.0000E+00  0.1560E+03  0.1560E+03
    -36.661  0.0000E+00  0.0000E+00  0.1560E+03  0.1560E+03
    -36.421  0.0000E+00  0.0000E+00  0.1560E+03  0.1560E+03
    -36.182  0.0000E+00  0.0000E+00  0.1560E+03  0.1560E+03
    -35.942  0.0000E+00  0.0000E+00  0.1560E+03  0.1560E+03
    -35.703  0.0000E+00  0.0000E+00  0.1560E+03  0.1560E+03
    -35.463  0.0000E+00  0.0000E+00  0.1560E+03  0.1560E+03
    -35.223  0.0000E+00  0.0000E+00  0.1560E+03  0.1560E+03
    -34.984  0.0000E+00  0.0000E+00  0.1560E+03  0.1560E+03
    -34.744  0.0000E+00  0.0000E+00  0.1560E+03  0.1560E+03
    -34.505  0.0000E+00  0.0000E+00  0.1560E+03  0.1560E+03
    -34.265  0.0000E+00  0.0000E+00  0.1560E+03  0.1560E+03
    -34.025  0.0000E+00  0.0000E+00  0.1560E+03  0.1560E+03
    -33.786  0.0000E+00  0.0000E+00  0.1560E+03  0.1560E+03
    -33.546  0.0000E+00  0.0000E+00  0.1560E+03  0.1560E+03
    -33.307  0.0000E+00  0.0000E+00  0.1560E+03  0.1560E+03
    -33.067  0.0000E+00  0.0000E+00  0.1560E+03  0.1560E+03
    -32.827  0.0000E+00  0.0000E+00  0.1560E+03  0.1560E+03
    -32.588  0.0000E+00  0.0000E+00  0.1560E+03  0.1560E+03
    -32.348  0.0000E+00  0.0000E+00  0.1560E+03  0.1560E+03
    -32.109  0.0000E+00  0.0000E+00  0.1560E+03  0.1560E+03
    -31.869  0.0000E+00  0.0000E+00  0.1560E+03  0.1560E+03
    -31.629  0.0000E+00  0.0000E+00  0.1560E+03  0.1560E+03
    -31.390  0.0000E+00  0.0000E+00  0.1560E+03  0.1560E+03
    -31.150  0.0000E+00  0.0000E+00  0.1560E+03  0.1560E+03
    -30.911  0.0000E+00  0.0000E+00  0.1560E+03  0.1560E+03
    -30.671  0.0000E+00  0.0000E+00  0.1560E+03  0.1560E+03
    -30.431  0.0000E+00  0.0000E+00  0.1560E+03  0.1560E+03
    -30.192  0.0000E+00  0.0000E+00  0.1560E+03  0.1560E+03
    -29.952  0.0000E+00  0.0000E+00  0.1560E+03  0.1560E+03
    -29.713  0.0000E+00  0.0000E+00  0.1560E+03  0.1560E+03
    -29.473  0.0000E+00  0.0000E+00  0.1560E+03  0.1560E+03
    -29.233  0.0000E+00  0.0000E+00  0.1560E+03  0.1560E+03
    -28.994  0.0000E+00  0.0000E+00  0.1560E+03  0.1560E+03
    -28.754  0.0000E+00  0.0000E+00  0.1560E+03  0.1560E+03
    -28.515  0.0000E+00  0.0000E+00  0.1560E+03  0.1560E+03
    -28.275  0.0000E+00  0.0000E+00  0.1560E+03  0.1560E+03
    -28.035  0.0000E+00  0.0000E+00  0.1560E+03  0.1560E+03
    -27.796  0.0000E+00  0.0000E+00  0.1560E+03  0.1560E+03
    -27.556  0.0000E+00  0.0000E+00  0.1560E+03  0.1560E+03
    -27.317  0.0000E+00  0.0000E+00  0.1560E+03  0.1560E+03
    -27.077  0.0000E+00  0.0000E+00  0.1560E+03  0.1560E+03
    -26.837  0.0000E+00  0.0000E+00  0.1560E+03  0.1560E+03
    -26.598  0.0000E+00  0.0000E+00  0.1560E+03  0.1560E+03
    -26.358  0.0000E+00  0.0000E+00  0.1560E+03  0.1560E+03
    -26.119  0.0000E+00  0.0000E+00  0.1560E+03  0.1560E+03
    -25.879  0.0000E+00  0.0000E+00  0.1560E+03  0.1560E+03
    -25.639  0.0000E+00  0.0000E+00  0.1560E+03  0.1560E+03
    -25.400  0.0000E+00  0.0000E+00  0.1560E+03  0.1560E+03
    -25.160  0.0000E+00  0.0000E+00  0.1560E+03  0.1560E+03
    -24.921  0.0000E+00  0.0000E+00  0.1560E+03  0.1560E+03
    -24.681  0.0000E+00  0.0000E+00  0.1560E+03  0.1560E+03
    -24.441  0.0000E+00  0.0000E+00  0.1560E+03  0.1560E+03
    -24.202  0.0000E+00  0.0000E+00  0.1560E+03  0.1560E+03
    -23.962  0.0000E+00  0.0000E+00  0.1560E+03  0.1560E+03
    -23.723  0.0000E+00  0.0000E+00  0.1560E+03  0.1560E+03
    -23.483  0.0000E+00  0.0000E+00  0.1560E+03  0.1560E+03
    -23.243  0.0000E+00  0.0000E+00  0.1560E+03  0.1560E+03
    -23.004  0.0000E+00  0.0000E+00  0.1560E+03  0.1560E+03
    -22.764  0.0000E+00  0.0000E+00  0.1560E+03  0.1560E+03
    -22.525  0.0000E+00  0.0000E+00  0.1560E+03  0.1560E+03
    -22.285  0.0000E+00  0.0000E+00  0.1560E+03  0.1560E+03
    -22.045  0.0000E+00  0.0000E+00  0.1560E+03  0.1560E+03
    -21.806  0.0000E+00  0.0000E+00  0.1560E+03  0.1560E+03
    -21.566  0.0000E+00  0.0000E+00  0.1560E+03  0.1560E+03
    -21.327  0.0000E+00  0.0000E+00  0.1560E+03  0.1560E+03
    -21.087  0.0000E+00  0.0000E+00  0.1560E+03  0.1560E+03
    -20.847  0.0000E+00  0.0000E+00  0.1560E+03  0.1560E+03
    -20.608  0.0000E+00  0.0000E+00  0.1560E+03  0.1560E+03
    -20.368  0.0000E+00  0.0000E+00  0.1560E+03  0.1560E+03
    -20.129  0.0000E+00  0.0000E+00  0.1560E+03  0.1560E+03
    -19.889  0.0000E+00  0.0000E+00  0.1560E+03  0.1560E+03
    -19.649  0.0000E+00  0.0000E+00  0.1560E+03  0.1560E+03
    -19.410  0.0000E+00  0.0000E+00  0.1560E+03  0.1560E+03
    -19.170  0.0000E+00  0.0000E+00  0.1560E+03  0.1560E+03
    -18.931  0.0000E+00  0.0000E+00  0.1560E+03  0.1560E+03
    -18.691  0.0000E+00  0.0000E+00  0.1560E+03  0.1560E+03
    -18.451  0.0000E+00  0.0000E+00  0.1560E+03  0.1560E+03
    -18.212  0.0000E+00  0.0000E+00  0.1560E+03  0.1560E+03
    -17.972  0.0000E+00  0.0000E+00  0.1560E+03  0.1560E+03
    -17.733  0.0000E+00  0.0000E+00  0.1560E+03  0.1560E+03
    -17.493  0.0000E+00  0.0000E+00  0.1560E+03  0.1560E+03
    -17.253  0.0000E+00  0.0000E+00  0.1560E+03  0.1560E+03
    -17.014  0.0000E+00  0.0000E+00  0.1560E+03  0.1560E+03
    -16.774  0.0000E+00  0.0000E+00  0.1560E+03  0.1560E+03
    -16.535  0.0000E+00  0.0000E+00  0.1560E+03  0.1560E+03
    -16.295  0.0000E+00  0.0000E+00  0.1560E+03  0.1560E+03
    -16.055  0.0000E+00  0.0000E+00  0.1560E+03  0.1560E+03
    -15.816  0.0000E+00  0.0000E+00  0.1560E+03  0.1560E+03
    -15.576  0.0000E+00  0.0000E+00  0.1560E+03  0.1560E+03
    -15.337  0.0000E+00  0.0000E+00  0.1560E+03  0.1560E+03
    -15.097  0.0000E+00  0.0000E+00  0.1560E+03  0.1560E+03
    -14.857  0.0000E+00  0.0000E+00  0.1560E+03  0.1560E+03
    -14.618  0.0000E+00  0.0000E+00  0.1560E+03  0.1560E+03
    -14.378  0.0000E+00  0.0000E+00  0.1560E+03  0.1560E+03
    -14.139  0.0000E+00  0.0000E+00  0.1560E+03  0.1560E+03
    -13.899  0.1848E-02  0.0000E+00  0.1560E+03  0.1560E+03
    -13.659  0.2249E+02  0.1621E-12  0.1614E+03  0.1560E+03
    -13.420  0.2743E+02  0.2045E+01  0.1680E+03  0.1565E+03
    -13.180  0.8974E+01  0.4446E+02  0.1701E+03  0.1671E+03
    -12.941  0.3147E+02  0.4300E+01  0.1777E+03  0.1682E+03
    -12.701  0.9801E+01  0.4214E+02  0.1800E+03  0.1783E+03
    -12.461  0.0000E+00  0.7218E+01  0.1800E+03  0.1800E+03
    -12.222  0.0000E+00  0.0000E+00  0.1800E+03  0.1800E+03
    -11.982  0.0000E+00  0.0000E+00  0.1800E+03  0.1800E+03
    -11.743  0.0000E+00  0.0000E+00  0.1800E+03  0.1800E+03
    -11.503  0.0000E+00  0.0000E+00  0.1800E+03  0.1800E+03
    -11.263  0.0000E+00  0.0000E+00  0.1800E+03  0.1800E+03
    -11.024  0.0000E+00  0.0000E+00  0.1800E+03  0.1800E+03
    -10.784  0.0000E+00  0.0000E+00  0.1800E+03  0.1800E+03
    -10.545  0.0000E+00  0.0000E+00  0.1800E+03  0.1800E+03
    -10.305  0.0000E+00  0.0000E+00  0.1800E+03  0.1800E+03
    -10.065  0.0000E+00  0.0000E+00  0.1800E+03  0.1800E+03
     -9.826  0.0000E+00  0.0000E+00  0.1800E+03  0.1800E+03
     -9.586  0.0000E+00  0.0000E+00  0.1800E+03  0.1800E+03
     -9.347  0.0000E+00  0.0000E+00  0.1800E+03  0.1800E+03
     -9.107  0.0000E+00  0.0000E+00  0.1800E+03  0.1800E+03
     -8.867  0.0000E+00  0.0000E+00  0.1800E+03  0.1800E+03
     -8.628  0.0000E+00  0.0000E+00  0.1800E+03  0.1800E+03
     -8.388  0.0000E+00  0.0000E+00  0.1800E+03  0.1800E+03
     -8.149  0.0000E+00  0.0000E+00  0.1800E+03  0.1800E+03
     -7.909  0.2249E-02  0.0000E+00  0.1800E+03  0.1800E+03
     -7.669  0.9398E+01  0.1685E-01  0.1823E+03  0.1800E+03
     -7.430  0.2315E+02  0.1198E+02  0.1878E+03  0.1829E+03
     -7.190  0.5577E+02  0.2865E+02  0.2012E+03  0.1897E+03
     -6.951  0.5801E+02  0.5987E+02  0.2151E+03  0.2041E+03
     -6.711  0.3931E+01  0.4644E+02  0.2160E+03  0.2152E+03
     -6.471  0.0000E+00  0.3294E+01  0.2160E+03  0.2160E+03
     -6.232  0.0000E+00  0.0000E+00  0.2160E+03  0.2160E+03
     -5.992  0.0000E+00  0.0000E+00  0.2160E+03  0.2160E+03
     -5.753  0.0000E+00  0.0000E+00  0.2160E+03  0.2160E+03
     -5.513  0.0000E+00  0.0000E+00  0.2160E+03  0.2160E+03
     -5.273  0.0000E+00  0.0000E+00  0.2160E+03  0.2160E+03
     -5.034  0.0000E+00  0.0000E+00  0.2160E+03  0.2160E+03
     -4.794  0.0000E+00  0.0000E+00  0.2160E+03  0.2160E+03
     -4.555  0.0000E+00  0.0000E+00  0.2160E+03  0.2160E+03
     -4.315  0.0000E+00  0.0000E+00  0.2160E+03  0.2160E+03
     -4.075  0.0000E+00  0.0000E+00  0.2160E+03  0.2160E+03
     -3.836  0.0000E+00  0.0000E+00  0.2160E+03  0.2160E+03
     -3.596  0.0000E+00  0.0000E+00  0.2160E+03  0.2160E+03
     -3.357  0.0000E+00  0.0000E+00  0.2160E+03  0.2160E+03
     -3.117  0.0000E+00  0.0000E+00  0.2160E+03  0.2160E+03
     -2.877  0.2798E-13  0.0000E+00  0.2160E+03  0.2160E+03
     -2.638  0.9370E+00  0.0000E+00  0.2162E+03  0.2160E+03
     -2.398  0.1020E+02  0.0000E+00  0.2187E+03  0.2160E+03
     -2.159  0.2050E+02  0.0000E+00  0.2236E+03  0.2160E+03
     -1.919  0.1836E+01  0.0000E+00  0.2240E+03  0.2160E+03
     -1.679  0.3475E+02  0.0000E+00  0.2323E+03  0.2160E+03
     -1.440  0.1965E+02  0.6178E-15  0.2371E+03  0.2160E+03
     -1.200  0.4400E+02  0.9426E-01  0.2476E+03  0.2160E+03
     -0.961  0.4971E+02  0.4427E+01  0.2595E+03  0.2171E+03
     -0.721  0.7497E+02  0.1411E+02  0.2775E+03  0.2205E+03
     -0.481  0.1034E+03  0.1533E+02  0.3022E+03  0.2241E+03
     -0.242  0.8550E+02  0.1970E+02  0.3227E+03  0.2289E+03
     -0.002  0.1104E+03  0.4126E+02  0.3492E+03  0.2387E+03
      0.237  0.6968E+02  0.3393E+02  0.3659E+03  0.2469E+03
      0.477  0.3821E+02  0.4223E+02  0.3750E+03  0.2570E+03
      0.717  0.4572E+02  0.3354E+02  0.3860E+03  0.2650E+03
      0.956  0.4870E+02  0.5305E+02  0.3977E+03  0.2777E+03
      1.196  0.5557E+02  0.6037E+02  0.4110E+03  0.2922E+03
      1.435  0.6436E+02  0.4442E+02  0.4264E+03  0.3028E+03
      1.675  0.1009E+03  0.4003E+02  0.4506E+03  0.3124E+03
      1.915  0.5232E+02  0.3844E+02  0.4631E+03  0.3216E+03
      2.154  0.3880E+02  0.3739E+02  0.4724E+03  0.3306E+03
      2.394  0.4655E+02  0.3829E+02  0.4835E+03  0.3398E+03
      2.633  0.4782E+02  0.4946E+02  0.4950E+03  0.3516E+03
      2.873  0.4351E+02  0.6286E+02  0.5054E+03  0.3667E+03
      3.113  0.4014E+02  0.5877E+02  0.5150E+03  0.3808E+03
      3.352  0.4752E+02  0.4792E+02  0.5264E+03  0.3923E+03
      3.592  0.5246E+02  0.2998E+02  0.5390E+03  0.3994E+03
      3.831  0.4536E+02  0.6142E+02  0.5499E+03  0.4142E+03
      4.071  0.3199E+02  0.7313E+02  0.5575E+03  0.4317E+03
      4.311  0.4242E+02  0.1359E+01  0.5677E+03  0.4320E+03
      4.550  0.2360E+02  0.0000E+00  0.5733E+03  0.4320E+03
      4.790  0.1019E+02  0.0000E+00  0.5758E+03  0.4320E+03
      5.029  0.8896E+00  0.0000E+00  0.5760E+03  0.4320E+03
      5.269  0.0000E+00  0.0000E+00  0.5760E+03  0.4320E+03
      5.509  0.0000E+00  0.0000E+00  0.5760E+03  0.4320E+03
      5.748  0.0000E+00  0.0000E+00  0.5760E+03  0.4320E+03
      5.988  0.0000E+00  0.6099E-11  0.5760E+03  0.4320E+03
      6.227  0.0000E+00  0.1478E+00  0.5760E+03  0.4320E+03
      6.467  0.0000E+00  0.8183E+01  0.5760E+03  0.4340E+03
      6.707  0.0000E+00  0.3026E+02  0.5760E+03  0.4412E+03
      6.946  0.8145E-12  0.4338E+02  0.5760E+03  0.4516E+03
      7.186  0.1085E+00  0.7333E+02  0.5760E+03  0.4692E+03
      7.425  0.1300E+00  0.8083E+02  0.5761E+03  0.4886E+03
      7.665  0.9002E+00  0.6539E+02  0.5763E+03  0.5042E+03
      7.905  0.3507E+01  0.8790E+02  0.5771E+03  0.5253E+03
      8.144  0.4266E+01  0.7123E+02  0.5781E+03  0.5424E+03
      8.384  0.7043E+01  0.5441E+02  0.5798E+03  0.5554E+03
      8.623  0.1639E+02  0.3724E+02  0.5837E+03  0.5643E+03
      8.863  0.2527E+02  0.3911E+02  0.5898E+03  0.5737E+03
      9.103  0.1923E+02  0.1933E+02  0.5944E+03  0.5783E+03
      9.342  0.2540E+02  0.1392E+02  0.6005E+03  0.5817E+03
      9.582  0.3126E+02  0.2058E+02  0.6080E+03  0.5866E+03
      9.821  0.2660E+02  0.3001E+02  0.6144E+03  0.5938E+03
     10.061  0.2964E+02  0.2656E+02  0.6215E+03  0.6002E+03
     10.301  0.2277E+02  0.3478E+02  0.6269E+03  0.6085E+03
     10.540  0.2039E+02  0.3540E+02  0.6318E+03  0.6170E+03
     10.780  0.2855E+02  0.2797E+02  0.6386E+03  0.6237E+03
     11.019  0.3896E+02  0.2240E+02  0.6480E+03  0.6290E+03
     11.259  0.3942E+02  0.2161E+02  0.6574E+03  0.6342E+03
     11.499  0.3726E+02  0.3229E+02  0.6664E+03  0.6420E+03
     11.738  0.4486E+02  0.3874E+02  0.6771E+03  0.6512E+03
     11.978  0.3850E+02  0.4262E+02  0.6863E+03  0.6614E+03
     12.217  0.3856E+02  0.5198E+02  0.6956E+03  0.6739E+03
     12.457  0.3990E+02  0.4678E+02  0.7051E+03  0.6851E+03
     12.697  0.3650E+02  0.3597E+02  0.7139E+03  0.6937E+03
     12.936  0.3430E+02  0.4127E+02  0.7221E+03  0.7036E+03
     13.176  0.2279E+02  0.3972E+02  0.7275E+03  0.7131E+03
     13.415  0.1889E+01  0.3415E+02  0.7280E+03  0.7213E+03
     13.655  0.0000E+00  0.2391E+02  0.7280E+03  0.7270E+03
     13.895  0.0000E+00  0.3993E+01  0.7280E+03  0.7280E+03
     14.134  0.0000E+00  0.3742E-05  0.7280E+03  0.7280E+03
     14.374  0.0000E+00  0.0000E+00  0.7280E+03  0.7280E+03
     14.613  0.0000E+00  0.0000E+00  0.7280E+03  0.7280E+03
     14.853  0.0000E+00  0.0000E+00  0.7280E+03  0.7280E+03
     15.093  0.0000E+00  0.0000E+00  0.7280E+03  0.7280E+03
     15.332  0.0000E+00  0.0000E+00  0.7280E+03  0.7280E+03
     15.572  0.0000E+00  0.0000E+00  0.7280E+03  0.7280E+03
     15.811  0.0000E+00  0.0000E+00  0.7280E+03  0.7280E+03
     16.051  0.0000E+00  0.0000E+00  0.7280E+03  0.7280E+03
     16.291  0.0000E+00  0.0000E+00  0.7280E+03  0.7280E+03
     16.530  0.0000E+00  0.0000E+00  0.7280E+03  0.7280E+03
     16.770  0.0000E+00  0.0000E+00  0.7280E+03  0.7280E+03
     17.009  0.0000E+00  0.0000E+00  0.7280E+03  0.7280E+03
