  88  88   0   0
  0.1431748E+02  0.1111223E-08  0.1111745E-08  0.1056954E-08  0.5000000E-15
  1.000000000000000E-004
  CAR 
 unknown system                          
     17.91219740    -54.33956503  301      5.20792917      1.00000000
    -54.340  0.0000E+00  0.0000E+00  0.0000E+00  0.0000E+00
    -54.099  0.0000E+00  0.0000E+00  0.0000E+00  0.0000E+00
    -53.858  0.0000E+00  0.0000E+00  0.0000E+00  0.0000E+00
    -53.617  0.0000E+00  0.0000E+00  0.0000E+00  0.0000E+00
    -53.376  0.0000E+00  0.0000E+00  0.0000E+00  0.0000E+00
    -53.135  0.0000E+00  0.0000E+00  0.0000E+00  0.0000E+00
    -52.895  0.0000E+00  0.0000E+00  0.0000E+00  0.0000E+00
    -52.654  0.0000E+00  0.0000E+00  0.0000E+00  0.0000E+00
    -52.413  0.0000E+00  0.0000E+00  0.0000E+00  0.0000E+00
    -52.172  0.0000E+00  0.0000E+00  0.0000E+00  0.0000E+00
    -51.931  0.0000E+00  0.0000E+00  0.0000E+00  0.0000E+00
    -51.690  0.0000E+00  0.0000E+00  0.0000E+00  0.0000E+00
    -51.449  0.0000E+00  0.0000E+00  0.0000E+00  0.0000E+00
    -51.209  0.4469E-03  0.0000E+00  0.1076E-03  0.0000E+00
    -50.968  0.1311E+03  0.0000E+00  0.3158E+02  0.0000E+00
    -50.727  0.1764E+01  0.0000E+00  0.3200E+02  0.0000E+00
    -50.486  0.0000E+00  0.0000E+00  0.3200E+02  0.0000E+00
    -50.245  0.0000E+00  0.0000E+00  0.3200E+02  0.0000E+00
    -50.004  0.0000E+00  0.0000E+00  0.3200E+02  0.0000E+00
    -49.764  0.2137E+01  0.0000E+00  0.3251E+02  0.0000E+00
    -49.523  0.2379E+03  0.0000E+00  0.8981E+02  0.0000E+00
    -49.282  0.2570E+02  0.0000E+00  0.9600E+02  0.0000E+00
    -49.041  0.0000E+00  0.0000E+00  0.9600E+02  0.0000E+00
    -48.800  0.0000E+00  0.0000E+00  0.9600E+02  0.0000E+00
    -48.559  0.0000E+00  0.0000E+00  0.9600E+02  0.0000E+00
    -48.319  0.0000E+00  0.0000E+00  0.9600E+02  0.0000E+00
    -48.078  0.0000E+00  0.0000E+00  0.9600E+02  0.0000E+00
    -47.837  0.0000E+00  0.0000E+00  0.9600E+02  0.0000E+00
    -47.596  0.0000E+00  0.0000E+00  0.9600E+02  0.0000E+00
    -47.355  0.0000E+00  0.0000E+00  0.9600E+02  0.0000E+00
    -47.114  0.0000E+00  0.0000E+00  0.9600E+02  0.0000E+00
    -46.874  0.0000E+00  0.0000E+00  0.9600E+02  0.0000E+00
    -46.633  0.0000E+00  0.0000E+00  0.9600E+02  0.0000E+00
    -46.392  0.0000E+00  0.4214E+00  0.9600E+02  0.1015E+00
    -46.151  0.0000E+00  0.1324E+03  0.9600E+02  0.3199E+02
    -45.910  0.0000E+00  0.6230E+02  0.9600E+02  0.4699E+02
    -45.669  0.0000E+00  0.2035E+03  0.9600E+02  0.9600E+02
    -45.429  0.0000E+00  0.0000E+00  0.9600E+02  0.9600E+02
    -45.188  0.0000E+00  0.0000E+00  0.9600E+02  0.9600E+02
    -44.947  0.0000E+00  0.0000E+00  0.9600E+02  0.9600E+02
    -44.706  0.0000E+00  0.0000E+00  0.9600E+02  0.9600E+02
    -44.465  0.0000E+00  0.0000E+00  0.9600E+02  0.9600E+02
    -44.224  0.0000E+00  0.0000E+00  0.9600E+02  0.9600E+02
    -43.983  0.0000E+00  0.0000E+00  0.9600E+02  0.9600E+02
    -43.743  0.0000E+00  0.0000E+00  0.9600E+02  0.9600E+02
    -43.502  0.0000E+00  0.0000E+00  0.9600E+02  0.9600E+02
    -43.261  0.0000E+00  0.0000E+00  0.9600E+02  0.9600E+02
    -43.020  0.0000E+00  0.0000E+00  0.9600E+02  0.9600E+02
    -42.779  0.0000E+00  0.0000E+00  0.9600E+02  0.9600E+02
    -42.538  0.0000E+00  0.0000E+00  0.9600E+02  0.9600E+02
    -42.298  0.0000E+00  0.0000E+00  0.9600E+02  0.9600E+02
    -42.057  0.0000E+00  0.0000E+00  0.9600E+02  0.9600E+02
    -41.816  0.0000E+00  0.0000E+00  0.9600E+02  0.9600E+02
    -41.575  0.0000E+00  0.0000E+00  0.9600E+02  0.9600E+02
    -41.334  0.0000E+00  0.0000E+00  0.9600E+02  0.9600E+02
    -41.093  0.0000E+00  0.0000E+00  0.9600E+02  0.9600E+02
    -40.853  0.0000E+00  0.0000E+00  0.9600E+02  0.9600E+02
    -40.612  0.0000E+00  0.0000E+00  0.9600E+02  0.9600E+02
    -40.371  0.0000E+00  0.0000E+00  0.9600E+02  0.9600E+02
    -40.130  0.2286E-11  0.1461E-11  0.9600E+02  0.9600E+02
    -39.889  0.1649E+02  0.1528E+02  0.9997E+02  0.9968E+02
    -39.648  0.4994E+02  0.5116E+02  0.1120E+03  0.1120E+03
    -39.408  0.0000E+00  0.0000E+00  0.1120E+03  0.1120E+03
    -39.167  0.0000E+00  0.0000E+00  0.1120E+03  0.1120E+03
    -38.926  0.0000E+00  0.0000E+00  0.1120E+03  0.1120E+03
    -38.685  0.0000E+00  0.0000E+00  0.1120E+03  0.1120E+03
    -38.444  0.0000E+00  0.0000E+00  0.1120E+03  0.1120E+03
    -38.203  0.0000E+00  0.0000E+00  0.1120E+03  0.1120E+03
    -37.962  0.0000E+00  0.0000E+00  0.1120E+03  0.1120E+03
    -37.722  0.0000E+00  0.0000E+00  0.1120E+03  0.1120E+03
    -37.481  0.0000E+00  0.0000E+00  0.1120E+03  0.1120E+03
    -37.240  0.0000E+00  0.0000E+00  0.1120E+03  0.1120E+03
    -36.999  0.0000E+00  0.0000E+00  0.1120E+03  0.1120E+03
    -36.758  0.0000E+00  0.0000E+00  0.1120E+03  0.1120E+03
    -36.517  0.0000E+00  0.0000E+00  0.1120E+03  0.1120E+03
    -36.277  0.0000E+00  0.0000E+00  0.1120E+03  0.1120E+03
    -36.036  0.0000E+00  0.0000E+00  0.1120E+03  0.1120E+03
    -35.795  0.0000E+00  0.0000E+00  0.1120E+03  0.1120E+03
    -35.554  0.0000E+00  0.0000E+00  0.1120E+03  0.1120E+03
    -35.313  0.0000E+00  0.0000E+00  0.1120E+03  0.1120E+03
    -35.072  0.0000E+00  0.0000E+00  0.1120E+03  0.1120E+03
    -34.832  0.0000E+00  0.0000E+00  0.1120E+03  0.1120E+03
    -34.591  0.0000E+00  0.0000E+00  0.1120E+03  0.1120E+03
    -34.350  0.0000E+00  0.0000E+00  0.1120E+03  0.1120E+03
    -34.109  0.0000E+00  0.0000E+00  0.1120E+03  0.1120E+03
    -33.868  0.0000E+00  0.0000E+00  0.1120E+03  0.1120E+03
    -33.627  0.0000E+00  0.0000E+00  0.1120E+03  0.1120E+03
    -33.387  0.0000E+00  0.0000E+00  0.1120E+03  0.1120E+03
    -33.146  0.0000E+00  0.0000E+00  0.1120E+03  0.1120E+03
    -32.905  0.0000E+00  0.0000E+00  0.1120E+03  0.1120E+03
    -32.664  0.0000E+00  0.0000E+00  0.1120E+03  0.1120E+03
    -32.423  0.0000E+00  0.0000E+00  0.1120E+03  0.1120E+03
    -32.182  0.0000E+00  0.0000E+00  0.1120E+03  0.1120E+03
    -31.942  0.0000E+00  0.0000E+00  0.1120E+03  0.1120E+03
    -31.701  0.0000E+00  0.0000E+00  0.1120E+03  0.1120E+03
    -31.460  0.0000E+00  0.0000E+00  0.1120E+03  0.1120E+03
    -31.219  0.0000E+00  0.0000E+00  0.1120E+03  0.1120E+03
    -30.978  0.0000E+00  0.0000E+00  0.1120E+03  0.1120E+03
    -30.737  0.0000E+00  0.0000E+00  0.1120E+03  0.1120E+03
    -30.496  0.0000E+00  0.0000E+00  0.1120E+03  0.1120E+03
    -30.256  0.0000E+00  0.0000E+00  0.1120E+03  0.1120E+03
    -30.015  0.0000E+00  0.0000E+00  0.1120E+03  0.1120E+03
    -29.774  0.0000E+00  0.0000E+00  0.1120E+03  0.1120E+03
    -29.533  0.0000E+00  0.0000E+00  0.1120E+03  0.1120E+03
    -29.292  0.0000E+00  0.0000E+00  0.1120E+03  0.1120E+03
    -29.051  0.0000E+00  0.0000E+00  0.1120E+03  0.1120E+03
    -28.811  0.0000E+00  0.0000E+00  0.1120E+03  0.1120E+03
    -28.570  0.0000E+00  0.0000E+00  0.1120E+03  0.1120E+03
    -28.329  0.0000E+00  0.0000E+00  0.1120E+03  0.1120E+03
    -28.088  0.0000E+00  0.0000E+00  0.1120E+03  0.1120E+03
    -27.847  0.0000E+00  0.0000E+00  0.1120E+03  0.1120E+03
    -27.606  0.0000E+00  0.0000E+00  0.1120E+03  0.1120E+03
    -27.366  0.0000E+00  0.0000E+00  0.1120E+03  0.1120E+03
    -27.125  0.0000E+00  0.0000E+00  0.1120E+03  0.1120E+03
    -26.884  0.0000E+00  0.0000E+00  0.1120E+03  0.1120E+03
    -26.643  0.0000E+00  0.0000E+00  0.1120E+03  0.1120E+03
    -26.402  0.0000E+00  0.0000E+00  0.1120E+03  0.1120E+03
    -26.161  0.0000E+00  0.0000E+00  0.1120E+03  0.1120E+03
    -25.921  0.0000E+00  0.0000E+00  0.1120E+03  0.1120E+03
    -25.680  0.0000E+00  0.0000E+00  0.1120E+03  0.1120E+03
    -25.439  0.0000E+00  0.0000E+00  0.1120E+03  0.1120E+03
    -25.198  0.0000E+00  0.0000E+00  0.1120E+03  0.1120E+03
    -24.957  0.0000E+00  0.0000E+00  0.1120E+03  0.1120E+03
    -24.716  0.0000E+00  0.0000E+00  0.1120E+03  0.1120E+03
    -24.476  0.0000E+00  0.0000E+00  0.1120E+03  0.1120E+03
    -24.235  0.0000E+00  0.0000E+00  0.1120E+03  0.1120E+03
    -23.994  0.0000E+00  0.0000E+00  0.1120E+03  0.1120E+03
    -23.753  0.0000E+00  0.0000E+00  0.1120E+03  0.1120E+03
    -23.512  0.0000E+00  0.0000E+00  0.1120E+03  0.1120E+03
    -23.271  0.0000E+00  0.0000E+00  0.1120E+03  0.1120E+03
    -23.030  0.0000E+00  0.0000E+00  0.1120E+03  0.1120E+03
    -22.790  0.0000E+00  0.0000E+00  0.1120E+03  0.1120E+03
    -22.549  0.0000E+00  0.0000E+00  0.1120E+03  0.1120E+03
    -22.308  0.0000E+00  0.0000E+00  0.1120E+03  0.1120E+03
    -22.067  0.0000E+00  0.0000E+00  0.1120E+03  0.1120E+03
    -21.826  0.0000E+00  0.0000E+00  0.1120E+03  0.1120E+03
    -21.585  0.0000E+00  0.0000E+00  0.1120E+03  0.1120E+03
    -21.345  0.0000E+00  0.0000E+00  0.1120E+03  0.1120E+03
    -21.104  0.0000E+00  0.0000E+00  0.1120E+03  0.1120E+03
    -20.863  0.0000E+00  0.0000E+00  0.1120E+03  0.1120E+03
    -20.622  0.0000E+00  0.0000E+00  0.1120E+03  0.1120E+03
    -20.381  0.0000E+00  0.0000E+00  0.1120E+03  0.1120E+03
    -20.140  0.0000E+00  0.0000E+00  0.1120E+03  0.1120E+03
    -19.900  0.0000E+00  0.0000E+00  0.1120E+03  0.1120E+03
    -19.659  0.0000E+00  0.0000E+00  0.1120E+03  0.1120E+03
    -19.418  0.0000E+00  0.0000E+00  0.1120E+03  0.1120E+03
    -19.177  0.0000E+00  0.0000E+00  0.1120E+03  0.1120E+03
    -18.936  0.0000E+00  0.0000E+00  0.1120E+03  0.1120E+03
    -18.695  0.0000E+00  0.0000E+00  0.1120E+03  0.1120E+03
    -18.455  0.0000E+00  0.0000E+00  0.1120E+03  0.1120E+03
    -18.214  0.0000E+00  0.0000E+00  0.1120E+03  0.1120E+03
    -17.973  0.0000E+00  0.0000E+00  0.1120E+03  0.1120E+03
    -17.732  0.0000E+00  0.0000E+00  0.1120E+03  0.1120E+03
    -17.491  0.0000E+00  0.0000E+00  0.1120E+03  0.1120E+03
    -17.250  0.0000E+00  0.0000E+00  0.1120E+03  0.1120E+03
    -17.009  0.0000E+00  0.0000E+00  0.1120E+03  0.1120E+03
    -16.769  0.0000E+00  0.0000E+00  0.1120E+03  0.1120E+03
    -16.528  0.0000E+00  0.0000E+00  0.1120E+03  0.1120E+03
    -16.287  0.0000E+00  0.0000E+00  0.1120E+03  0.1120E+03
    -16.046  0.0000E+00  0.0000E+00  0.1120E+03  0.1120E+03
    -15.805  0.0000E+00  0.0000E+00  0.1120E+03  0.1120E+03
    -15.564  0.0000E+00  0.0000E+00  0.1120E+03  0.1120E+03
    -15.324  0.0000E+00  0.0000E+00  0.1120E+03  0.1120E+03
    -15.083  0.0000E+00  0.0000E+00  0.1120E+03  0.1120E+03
    -14.842  0.0000E+00  0.0000E+00  0.1120E+03  0.1120E+03
    -14.601  0.0000E+00  0.0000E+00  0.1120E+03  0.1120E+03
    -14.360  0.0000E+00  0.0000E+00  0.1120E+03  0.1120E+03
    -14.119  0.0000E+00  0.0000E+00  0.1120E+03  0.1120E+03
    -13.879  0.0000E+00  0.0000E+00  0.1120E+03  0.1120E+03
    -13.638  0.0000E+00  0.0000E+00  0.1120E+03  0.1120E+03
    -13.397  0.1187E-05  0.0000E+00  0.1120E+03  0.1120E+03
    -13.156  0.1999E+02  0.0000E+00  0.1168E+03  0.1120E+03
    -12.915  0.4531E+02  0.1177E-01  0.1277E+03  0.1120E+03
    -12.674  0.1128E+01  0.4354E+02  0.1280E+03  0.1225E+03
    -12.434  0.0000E+00  0.2289E+02  0.1280E+03  0.1280E+03
    -12.193  0.0000E+00  0.0000E+00  0.1280E+03  0.1280E+03
    -11.952  0.0000E+00  0.0000E+00  0.1280E+03  0.1280E+03
    -11.711  0.0000E+00  0.0000E+00  0.1280E+03  0.1280E+03
    -11.470  0.0000E+00  0.0000E+00  0.1280E+03  0.1280E+03
    -11.229  0.0000E+00  0.0000E+00  0.1280E+03  0.1280E+03
    -10.989  0.0000E+00  0.0000E+00  0.1280E+03  0.1280E+03
    -10.748  0.0000E+00  0.0000E+00  0.1280E+03  0.1280E+03
    -10.507  0.0000E+00  0.0000E+00  0.1280E+03  0.1280E+03
    -10.266  0.0000E+00  0.0000E+00  0.1280E+03  0.1280E+03
    -10.025  0.0000E+00  0.0000E+00  0.1280E+03  0.1280E+03
     -9.784  0.0000E+00  0.0000E+00  0.1280E+03  0.1280E+03
     -9.543  0.0000E+00  0.0000E+00  0.1280E+03  0.1280E+03
     -9.303  0.0000E+00  0.0000E+00  0.1280E+03  0.1280E+03
     -9.062  0.0000E+00  0.0000E+00  0.1280E+03  0.1280E+03
     -8.821  0.0000E+00  0.0000E+00  0.1280E+03  0.1280E+03
     -8.580  0.0000E+00  0.0000E+00  0.1280E+03  0.1280E+03
     -8.339  0.0000E+00  0.0000E+00  0.1280E+03  0.1280E+03
     -8.098  0.0000E+00  0.0000E+00  0.1280E+03  0.1280E+03
     -7.858  0.1513E-09  0.0000E+00  0.1280E+03  0.1280E+03
     -7.617  0.6507E+00  0.2808E-10  0.1282E+03  0.1280E+03
     -7.376  0.1297E+02  0.5797E+00  0.1313E+03  0.1281E+03
     -7.135  0.3025E+02  0.1426E+02  0.1386E+03  0.1316E+03
     -6.894  0.3469E+02  0.2941E+02  0.1469E+03  0.1387E+03
     -6.653  0.2110E+02  0.2659E+02  0.1520E+03  0.1451E+03
     -6.413  0.1233E-04  0.2878E+02  0.1520E+03  0.1520E+03
     -6.172  0.0000E+00  0.4224E-01  0.1520E+03  0.1520E+03
     -5.931  0.0000E+00  0.0000E+00  0.1520E+03  0.1520E+03
     -5.690  0.0000E+00  0.0000E+00  0.1520E+03  0.1520E+03
     -5.449  0.0000E+00  0.0000E+00  0.1520E+03  0.1520E+03
     -5.208  0.0000E+00  0.0000E+00  0.1520E+03  0.1520E+03
     -4.968  0.0000E+00  0.0000E+00  0.1520E+03  0.1520E+03
     -4.727  0.0000E+00  0.0000E+00  0.1520E+03  0.1520E+03
     -4.486  0.0000E+00  0.0000E+00  0.1520E+03  0.1520E+03
     -4.245  0.0000E+00  0.0000E+00  0.1520E+03  0.1520E+03
     -4.004  0.0000E+00  0.0000E+00  0.1520E+03  0.1520E+03
     -3.763  0.0000E+00  0.0000E+00  0.1520E+03  0.1520E+03
     -3.522  0.0000E+00  0.0000E+00  0.1520E+03  0.1520E+03
     -3.282  0.0000E+00  0.0000E+00  0.1520E+03  0.1520E+03
     -3.041  0.0000E+00  0.0000E+00  0.1520E+03  0.1520E+03
     -2.800  0.0000E+00  0.0000E+00  0.1520E+03  0.1520E+03
     -2.559  0.0000E+00  0.0000E+00  0.1520E+03  0.1520E+03
     -2.318  0.0000E+00  0.0000E+00  0.1520E+03  0.1520E+03
     -2.077  0.4352E-04  0.0000E+00  0.1520E+03  0.1520E+03
     -1.837  0.1650E+02  0.0000E+00  0.1560E+03  0.1520E+03
     -1.596  0.1937E+02  0.0000E+00  0.1606E+03  0.1520E+03
     -1.355  0.1465E+02  0.0000E+00  0.1642E+03  0.1520E+03
     -1.114  0.1728E+02  0.0000E+00  0.1683E+03  0.1520E+03
     -0.873  0.4645E+02  0.0000E+00  0.1795E+03  0.1520E+03
     -0.632  0.5909E+02  0.1713E-05  0.1937E+03  0.1520E+03
     -0.392  0.3870E+02  0.4507E+01  0.2031E+03  0.1531E+03
     -0.151  0.6839E+02  0.2032E+02  0.2195E+03  0.1580E+03
      0.090  0.7352E+02  0.1225E+02  0.2372E+03  0.1609E+03
      0.331  0.7763E+02  0.1875E+02  0.2559E+03  0.1654E+03
      0.572  0.6999E+02  0.2965E+02  0.2728E+03  0.1726E+03
      0.813  0.5480E+02  0.3938E+02  0.2860E+03  0.1821E+03
      1.053  0.3633E+02  0.3729E+02  0.2947E+03  0.1911E+03
      1.294  0.3072E+02  0.3089E+02  0.3021E+03  0.1985E+03
      1.535  0.4505E+02  0.2081E+02  0.3130E+03  0.2035E+03
      1.776  0.4276E+02  0.2882E+02  0.3233E+03  0.2104E+03
      2.017  0.6908E+02  0.3726E+02  0.3399E+03  0.2194E+03
      2.258  0.5704E+02  0.2717E+02  0.3537E+03  0.2260E+03
      2.498  0.2701E+02  0.2708E+02  0.3602E+03  0.2325E+03
      2.739  0.4279E+02  0.3119E+02  0.3705E+03  0.2400E+03
      2.980  0.2943E+02  0.4457E+02  0.3776E+03  0.2507E+03
      3.221  0.8718E+01  0.4545E+02  0.3797E+03  0.2617E+03
      3.462  0.2843E+02  0.3154E+02  0.3865E+03  0.2693E+03
      3.703  0.2690E+02  0.1223E+02  0.3930E+03  0.2722E+03
      3.944  0.3110E+02  0.1822E+02  0.4005E+03  0.2766E+03
      4.184  0.3590E+02  0.5221E+02  0.4091E+03  0.2892E+03
      4.425  0.3638E+02  0.4531E+02  0.4179E+03  0.3001E+03
      4.666  0.3008E+02  0.1622E+02  0.4251E+03  0.3040E+03
      4.907  0.2566E+02  0.3206E-02  0.4313E+03  0.3040E+03
      5.148  0.2857E+01  0.0000E+00  0.4320E+03  0.3040E+03
      5.389  0.0000E+00  0.0000E+00  0.4320E+03  0.3040E+03
      5.629  0.0000E+00  0.0000E+00  0.4320E+03  0.3040E+03
      5.870  0.0000E+00  0.0000E+00  0.4320E+03  0.3040E+03
      6.111  0.0000E+00  0.8321E-09  0.4320E+03  0.3040E+03
      6.352  0.0000E+00  0.4289E+00  0.4320E+03  0.3041E+03
      6.593  0.0000E+00  0.4211E+01  0.4320E+03  0.3051E+03
      6.834  0.0000E+00  0.7991E+01  0.4320E+03  0.3070E+03
      7.074  0.2032E-14  0.1974E+02  0.4320E+03  0.3118E+03
      7.315  0.3245E-01  0.4451E+02  0.4320E+03  0.3225E+03
      7.556  0.1213E+00  0.5376E+02  0.4320E+03  0.3355E+03
      7.797  0.2759E+00  0.6305E+02  0.4321E+03  0.3507E+03
      8.038  0.7133E+00  0.6617E+02  0.4323E+03  0.3666E+03
      8.279  0.2206E+01  0.7035E+02  0.4328E+03  0.3835E+03
      8.519  0.2654E+01  0.5878E+02  0.4334E+03  0.3977E+03
      8.760  0.8959E+01  0.5880E+02  0.4356E+03  0.4118E+03
      9.001  0.1259E+02  0.4725E+02  0.4386E+03  0.4232E+03
      9.242  0.1314E+02  0.2943E+02  0.4418E+03  0.4303E+03
      9.483  0.1811E+02  0.8692E+01  0.4462E+03  0.4324E+03
      9.724  0.1617E+02  0.3134E+01  0.4501E+03  0.4332E+03
      9.965  0.1574E+02  0.8428E+01  0.4538E+03  0.4352E+03
     10.205  0.2248E+02  0.1880E+02  0.4593E+03  0.4397E+03
     10.446  0.1486E+02  0.1796E+02  0.4628E+03  0.4440E+03
     10.687  0.1525E+02  0.1728E+02  0.4665E+03  0.4482E+03
     10.928  0.1330E+02  0.2756E+02  0.4697E+03  0.4548E+03
     11.169  0.2068E+02  0.1894E+02  0.4747E+03  0.4594E+03
     11.410  0.2496E+02  0.2407E+02  0.4807E+03  0.4652E+03
     11.650  0.2706E+02  0.1455E+02  0.4872E+03  0.4687E+03
     11.891  0.2490E+02  0.1388E+02  0.4932E+03  0.4721E+03
     12.132  0.3324E+02  0.1625E+02  0.5012E+03  0.4760E+03
     12.373  0.1983E+02  0.3710E+02  0.5060E+03  0.4849E+03
     12.614  0.2310E+02  0.3253E+02  0.5116E+03  0.4927E+03
     12.855  0.2151E+02  0.2951E+02  0.5167E+03  0.4998E+03
     13.095  0.2007E+02  0.2020E+02  0.5216E+03  0.5047E+03
     13.336  0.2429E+02  0.2243E+02  0.5274E+03  0.5101E+03
     13.577  0.2395E+02  0.2725E+02  0.5332E+03  0.5167E+03
     13.818  0.1335E+02  0.2372E+02  0.5364E+03  0.5224E+03
     14.059  0.6579E+01  0.2619E+02  0.5380E+03  0.5287E+03
     14.300  0.1114E-02  0.1918E+02  0.5380E+03  0.5333E+03
     14.540  0.0000E+00  0.1645E+02  0.5380E+03  0.5373E+03
     14.781  0.0000E+00  0.3012E+01  0.5380E+03  0.5380E+03
     15.022  0.0000E+00  0.2243E-05  0.5380E+03  0.5380E+03
     15.263  0.0000E+00  0.0000E+00  0.5380E+03  0.5380E+03
     15.504  0.0000E+00  0.0000E+00  0.5380E+03  0.5380E+03
     15.745  0.0000E+00  0.0000E+00  0.5380E+03  0.5380E+03
     15.985  0.0000E+00  0.0000E+00  0.5380E+03  0.5380E+03
     16.226  0.0000E+00  0.0000E+00  0.5380E+03  0.5380E+03
     16.467  0.0000E+00  0.0000E+00  0.5380E+03  0.5380E+03
     16.708  0.0000E+00  0.0000E+00  0.5380E+03  0.5380E+03
     16.949  0.0000E+00  0.0000E+00  0.5380E+03  0.5380E+03
     17.190  0.0000E+00  0.0000E+00  0.5380E+03  0.5380E+03
     17.431  0.0000E+00  0.0000E+00  0.5380E+03  0.5380E+03
     17.671  0.0000E+00  0.0000E+00  0.5380E+03  0.5380E+03
     17.912  0.0000E+00  0.0000E+00  0.5380E+03  0.5380E+03
