 vasp.5.4.4.18Apr17-6-g9f103f2a35 (build Oct 25 2017 14:42:18) complex          
  
 executed on             LinuxIFC date 2021.06.02  18:13:14
 running on   24 total cores
 distrk:  each k-point on   12 cores,    2 groups
 distr:  one band on NCORES_PER_BAND=   6 cores,    2 groups


--------------------------------------------------------------------------------------------------------


 INCAR:
 POTCAR:    PAW_PBE Li_sv 10Sep2004               
 POTCAR:    PAW_PBE O 08Apr2002                   
 POTCAR:    PAW_PBE S 06Sep2000                   
 POTCAR:    PAW_PBE Fe_pv 02Aug2007               

 ----------------------------------------------------------------------------- 
|                                                                             |
|           W    W    AA    RRRRR   N    N  II  N    N   GGGG   !!!           |
|           W    W   A  A   R    R  NN   N  II  NN   N  G    G  !!!           |
|           W    W  A    A  R    R  N N  N  II  N N  N  G       !!!           |
|           W WW W  AAAAAA  RRRRR   N  N N  II  N  N N  G  GGG   !            |
|           WW  WW  A    A  R   R   N   NN  II  N   NN  G    G                |
|           W    W  A    A  R    R  N    N  II  N    N   GGGG   !!!           |
|                                                                             |
|      You have enabled k-point parallelism (KPAR>1).                         |
|      This developmental code was originally  written by Paul Kent at ORNL,  |
|      and carefully double checked in Vienna.                                |
|      GW as well as linear response parallelism added by Martijn Marsman     |
|      and Georg Kresse.                                                      |
|      Carefully verify results versus KPAR=1.                                |
|      Report problems to Paul Kent and Vienna.                               |
|                                                                             |
 ----------------------------------------------------------------------------- 

 POTCAR:    PAW_PBE Li_sv 10Sep2004               
  local pseudopotential read in
  atomic valenz-charges read in
  non local Contribution for L=           0  read in
    real space projection operators read in
  non local Contribution for L=           0  read in
    real space projection operators read in
  non local Contribution for L=           1  read in
    real space projection operators read in
    PAW grid and wavefunctions read in
 
   number of l-projection  operators is LMAX  =           3
   number of lm-projection operators is LMMAX =           5
 
 POTCAR:    PAW_PBE O 08Apr2002                   
  local pseudopotential read in
  partial core-charges read in
  partial kinetic energy density read in
  kinetic energy density of atom read in
  atomic valenz-charges read in
  non local Contribution for L=           0  read in
    real space projection operators read in
  non local Contribution for L=           0  read in
    real space projection operators read in
  non local Contribution for L=           1  read in
    real space projection operators read in
  non local Contribution for L=           1  read in
    real space projection operators read in
    PAW grid and wavefunctions read in
 
   number of l-projection  operators is LMAX  =           4
   number of lm-projection operators is LMMAX =           8
 
 POTCAR:    PAW_PBE S 06Sep2000                   
  local pseudopotential read in
  partial core-charges read in
  partial kinetic energy density read in
  atomic valenz-charges read in
  non local Contribution for L=           0  read in
    real space projection operators read in
  non local Contribution for L=           0  read in
    real space projection operators read in
  non local Contribution for L=           1  read in
    real space projection operators read in
  non local Contribution for L=           1  read in
    real space projection operators read in
    PAW grid and wavefunctions read in
 
   number of l-projection  operators is LMAX  =           4
   number of lm-projection operators is LMMAX =           8
 
 POTCAR:    PAW_PBE Fe_pv 02Aug2007               
  local pseudopotential read in
  partial core-charges read in
  partial kinetic energy density read in
  atomic valenz-charges read in
  non local Contribution for L=           1  read in
    real space projection operators read in
  non local Contribution for L=           1  read in
    real space projection operators read in
  non local Contribution for L=           2  read in
    real space projection operators read in
  non local Contribution for L=           2  read in
    real space projection operators read in
  non local Contribution for L=           0  read in
    real space projection operators read in
  non local Contribution for L=           0  read in
    real space projection operators read in
    PAW grid and wavefunctions read in
 
   number of l-projection  operators is LMAX  =           6
   number of lm-projection operators is LMMAX =          18
 

 ----------------------------------------------------------------------------- 
|                                                                             |
|  ADVICE TO THIS USER RUNNING 'VASP/VAMP'   (HEAR YOUR MASTER'S VOICE ...):  |
|                                                                             |
|      You have a (more or less) 'large supercell' and for larger cells       |
|      it might be more efficient to use real space projection opertators     |
|      So try LREAL= Auto  in the INCAR   file.                               |
|      Mind:          For very  accurate calculation you might also keep the  |
|      reciprocal projection scheme          (i.e. LREAL=.FALSE.)             |
|                                                                             |
 ----------------------------------------------------------------------------- 

  PAW_PBE Li_sv 10Sep2004               :
 energy of atom  1       EATOM= -202.7858
 kinetic energy error for atom=    0.0072 (will be added to EATOM!!)
  PAW_PBE O 08Apr2002                   :
 energy of atom  2       EATOM= -432.3788
 kinetic energy error for atom=    0.0129 (will be added to EATOM!!)
  PAW_PBE S 06Sep2000                   :
 energy of atom  3       EATOM= -276.8230
 kinetic energy error for atom=    0.0008 (will be added to EATOM!!)
  PAW_PBE Fe_pv 02Aug2007               :
 energy of atom  4       EATOM=-2457.4239
 kinetic energy error for atom=    0.0041 (will be added to EATOM!!)
 
 
 POSCAR: # Compound: Li16O16S24Fe32. Old comment:
  positions in direct lattice
  No initial velocities read in
 exchange correlation table for  LEXCH =        8
   RHO(1)=    0.500       N(1)  =     2000
   RHO(2)=  100.500       N(2)  =     4000
 


--------------------------------------------------------------------------------------------------------


 ion  position               nearest neighbor table
   1  0.289  0.469  0.156-  27 2.00  29 2.00  55 2.53  49 2.53
   2  0.789  0.469  0.156-  28 2.00  30 2.00  56 2.53  50 2.53
   3  0.289  0.969  0.156-  25 2.00  31 2.00  53 2.53  51 2.53
   4  0.789  0.969  0.156-  26 2.00  32 2.00  54 2.53  52 2.53
   5  0.046  0.219  0.186-  30 1.98  25 1.98
   6  0.546  0.219  0.186-  29 1.98  26 1.98
   7  0.046  0.719  0.186-  32 1.98  27 1.98
   8  0.546  0.719  0.186-  31 1.98  28 1.98
   9  0.454  0.469  0.814-  20 1.98  21 1.98
  10  0.954  0.469  0.814-  19 1.98  22 1.98
  11  0.454  0.969  0.814-  18 1.98  23 1.98
  12  0.954  0.969  0.814-  17 1.98  24 1.98
  13  0.211  0.219  0.844-  21 2.00  17 2.00  49 2.53  53 2.53
  14  0.711  0.219  0.844-  22 2.00  18 2.00  50 2.53  54 2.53
  15  0.211  0.719  0.844-  23 2.00  19 2.00  51 2.53  55 2.53
  16  0.711  0.719  0.844-  24 2.00  20 2.00  52 2.53  56 2.53
  17  0.077  0.095  0.803-  12 1.98  13 2.00  57 2.01  83 2.01  86 2.01
  18  0.577  0.095  0.803-  11 1.98  14 2.00  58 2.01  84 2.01  85 2.01
  19  0.077  0.595  0.803-  10 1.98  15 2.00  59 2.01  81 2.01  88 2.01
  20  0.577  0.595  0.803-   9 1.98  16 2.00  60 2.01  82 2.01  87 2.01
  21  0.325  0.343  0.803-   9 1.98  13 2.00  61 2.01  81 2.01  85 2.01
  22  0.825  0.343  0.803-  10 1.98  14 2.00  62 2.01  82 2.01  86 2.01
  23  0.325  0.843  0.803-  11 1.98  15 2.00  63 2.01  83 2.01  87 2.01
  24  0.825  0.843  0.803-  12 1.98  16 2.00  64 2.01  84 2.01  88 2.01
  25  0.175  0.093  0.197-   5 1.98   3 2.00  65 2.01  77 2.01  75 2.01
  26  0.675  0.093  0.197-   6 1.98   4 2.00  66 2.01  78 2.01  76 2.01
  27  0.175  0.593  0.197-   7 1.98   1 2.00  67 2.01  79 2.01  73 2.01
  28  0.675  0.593  0.197-   8 1.98   2 2.00  68 2.01  80 2.01  74 2.01
  29  0.423  0.345  0.197-   6 1.98   1 2.00  69 2.01  77 2.01  74 2.01
  30  0.923  0.345  0.197-   5 1.98   2 2.00  70 2.01  78 2.01  73 2.01
  31  0.423  0.845  0.197-   8 1.98   3 2.00  71 2.01  79 2.01  76 2.01
  32  0.923  0.845  0.197-   7 1.98   4 2.00  72 2.01  80 2.01  75 2.01
  33  0.219  0.345  0.371-  61 2.41  67 2.65  69 2.65
  34  0.719  0.345  0.371-  62 2.41  68 2.65  70 2.65
  35  0.219  0.845  0.371-  63 2.41  65 2.65  71 2.65
  36  0.719  0.845  0.371-  64 2.41  66 2.65  72 2.65
  37  0.467  0.093  0.371-  58 2.41  71 2.65  65 2.65
  38  0.967  0.093  0.371-  57 2.41  72 2.65  66 2.65
  39  0.467  0.593  0.371-  60 2.41  69 2.65  67 2.65
  40  0.967  0.593  0.371-  59 2.41  70 2.65  68 2.65
  41  0.033  0.343  0.629-  70 2.41  61 2.65  57 2.66
  42  0.533  0.343  0.629-  69 2.41  58 2.65  62 2.65
  43  0.033  0.843  0.629-  72 2.41  59 2.65  63 2.65
  44  0.533  0.843  0.629-  71 2.41  60 2.65  64 2.65
  45  0.281  0.095  0.629-  65 2.41  61 2.65  57 2.65
  46  0.781  0.095  0.629-  66 2.41  62 2.65  58 2.65
  47  0.281  0.595  0.629-  67 2.41  63 2.65  59 2.65
  48  0.781  0.595  0.629-  68 2.41  64 2.65  60 2.65
  49  0.124  0.344  0.000-  73 2.51  86 2.51  81 2.52  77 2.52  13 2.53   1 2.53
  50  0.624  0.344  0.000-  74 2.51  85 2.51  82 2.52  78 2.52  14 2.53   2 2.53
  51  0.124  0.844  0.000-  75 2.51  88 2.51  83 2.52  79 2.52  15 2.53   3 2.53
  52  0.624  0.844  0.000-  76 2.51  87 2.51  84 2.52  80 2.52  16 2.53   4 2.53
  53  0.376  0.094  1.000-  85 2.51  76 2.51  77 2.52  83 2.52   3 2.53  13 2.53
  54  0.876  0.094  1.000-  86 2.51  75 2.51  78 2.52  84 2.52   4 2.53  14 2.53
  55  0.376  0.594  1.000-  87 2.51  74 2.51  79 2.52  81 2.52   1 2.53  15 2.53
  56  0.876  0.594  1.000-  88 2.51  73 2.51  80 2.52  82 2.52   2 2.53  16 2.53
  57  0.038  0.105  0.606-  17 2.01  38 2.41  45 2.65  41 2.66
  58  0.538  0.106  0.606-  18 2.01  37 2.41  42 2.65  46 2.65
  59  0.038  0.606  0.606-  19 2.01  40 2.41  43 2.65  47 2.65
  60  0.538  0.606  0.606-  20 2.01  39 2.41  44 2.65  48 2.65
  61  0.265  0.332  0.606-  21 2.01  33 2.41  45 2.65  41 2.65
  62  0.765  0.332  0.606-  22 2.01  34 2.41  46 2.65  42 2.65
  63  0.265  0.832  0.606-  23 2.01  35 2.41  47 2.65  43 2.65
  64  0.765  0.832  0.606-  24 2.01  36 2.41  48 2.65  44 2.65
  65  0.235  0.082  0.394-  25 2.01  45 2.41  35 2.65  37 2.65
  66  0.735  0.082  0.394-  26 2.01  46 2.41  36 2.65  38 2.65
  67  0.235  0.582  0.394-  27 2.01  47 2.41  33 2.65  39 2.65
  68  0.735  0.582  0.394-  28 2.01  48 2.41  34 2.65  40 2.65
  69  0.462  0.356  0.394-  29 2.01  42 2.41  39 2.65  33 2.65
  70  0.962  0.356  0.394-  30 2.01  41 2.41  40 2.65  34 2.65
  71  0.462  0.856  0.394-  31 2.01  44 2.41  37 2.65  35 2.65
  72  0.962  0.856  0.394-  32 2.01  43 2.41  38 2.65  36 2.65
  73  0.038  0.469  0.154-  30 2.01  27 2.01  49 2.51  56 2.51
  74  0.538  0.469  0.154-  29 2.01  28 2.01  50 2.51  55 2.51
  75  0.038  0.969  0.154-  32 2.01  25 2.01  51 2.51  54 2.51
  76  0.538  0.969  0.154-  31 2.01  26 2.01  52 2.51  53 2.51
  77  0.289  0.219  0.154-  25 2.01  29 2.01  53 2.52  49 2.52
  78  0.789  0.219  0.154-  26 2.01  30 2.01  54 2.52  50 2.52
  79  0.289  0.719  0.154-  27 2.01  31 2.01  55 2.52  51 2.52
  80  0.789  0.719  0.154-  28 2.01  32 2.01  56 2.52  52 2.52
  81  0.211  0.469  0.846-  21 2.01  19 2.01  49 2.52  55 2.52
  82  0.711  0.469  0.846-  22 2.01  20 2.01  50 2.52  56 2.52
  83  0.211  0.969  0.846-  23 2.01  17 2.01  51 2.52  53 2.52
  84  0.711  0.969  0.846-  24 2.01  18 2.01  52 2.52  54 2.52
  85  0.462  0.219  0.846-  18 2.01  21 2.01  53 2.51  50 2.51
  86  0.962  0.219  0.846-  17 2.01  22 2.01  54 2.51  49 2.51
  87  0.462  0.719  0.846-  20 2.01  23 2.01  55 2.51  52 2.51
  88  0.962  0.719  0.846-  19 2.01  24 2.01  56 2.51  51 2.51
 

IMPORTANT INFORMATION: All symmetrisations will be switched off!
NOSYMM: (Re-)initialisation of all symmetry stuff for point group C_1.

 
 
 KPOINTS: # No comment                            

Automatic generation of k-mesh.
Space group operators:
 irot       det(A)        alpha          n_x          n_y          n_z        tau_x        tau_y        tau_z
    1     1.000000     0.000000     1.000000     0.000000     0.000000     0.000000     0.000000     0.000000
 
 Subroutine IBZKPT returns following result:
 ===========================================
 
 Found     14 irreducible k-points:
 
 Following reciprocal coordinates:
            Coordinates               Weight
  0.000000  0.000000  0.000000      1.000000
  0.333333  0.000000  0.000000      2.000000
  0.000000  0.333333  0.000000      2.000000
  0.333333  0.333333  0.000000      2.000000
 -0.333333  0.333333 -0.000000      2.000000
  0.000000  0.000000  0.333333      2.000000
  0.333333  0.000000  0.333333      2.000000
 -0.333333  0.000000  0.333333      2.000000
  0.000000  0.333333  0.333333      2.000000
  0.333333  0.333333  0.333333      2.000000
 -0.333333  0.333333  0.333333      2.000000
  0.000000 -0.333333  0.333333      2.000000
  0.333333 -0.333333  0.333333      2.000000
 -0.333333 -0.333333  0.333333      2.000000
 
 Following cartesian coordinates:
            Coordinates               Weight
  0.000000  0.000000  0.000000      1.000000
  0.029997  0.000000  0.008162      2.000000
  0.000000  0.029983  0.000000      2.000000
  0.029997  0.029983  0.008162      2.000000
 -0.029997  0.029983 -0.008162      2.000000
  0.000001  0.000000  0.032684      2.000000
  0.029998  0.000000  0.040846      2.000000
 -0.029996  0.000000  0.024522      2.000000
  0.000001  0.029983  0.032684      2.000000
  0.029998  0.029983  0.040846      2.000000
 -0.029996  0.029983  0.024522      2.000000
  0.000001 -0.029983  0.032684      2.000000
  0.029998 -0.029983  0.040846      2.000000
 -0.029996 -0.029983  0.024522      2.000000
 


--------------------------------------------------------------------------------------------------------




 Dimension of arrays:
   k-points           NKPTS =     14   k-points in BZ     NKDIM =     14   number of bands    NBANDS=    538
   number of dos      NEDOS =    301   number of ions     NIONS =     88
   non local maximal  LDIM  =      6   non local SUM 2l+1 LMDIM =     18
   total plane-waves  NPLWV = 829440
   max r-space proj   IRMAX =      1   max aug-charges    IRDMAX= 166102
   dimension x,y,z NGX =    96 NGY =   96 NGZ =   90
   dimension x,y,z NGXF=   192 NGYF=  192 NGZF=  180
   support grid    NGXF=   384 NGYF=  384 NGZF=  360
   ions per type =              16  16  24  32
   NGX,Y,Z   is equivalent  to a cutoff of  14.36, 14.36, 14.16 a.u.
   NGXF,Y,Z  is equivalent  to a cutoff of  28.72, 28.71, 28.31 a.u.

 SYSTEM =  unknown system                          
 POSCAR =  # Compound: Li16O16S24Fe32. Old comment:

 Startparameter for this run:
   NWRITE =      1    write-flag & timer
   PREC   = accura    normal or accurate (medium, high low for compatibility)
   ISTART =      0    job   : 0-new  1-cont  2-samecut
   ICHARG =      1    charge: 1-file 2-atom 10-const
   ISPIN  =      2    spin polarized calculation?
   LNONCOLLINEAR =      F non collinear calculations
   LSORBIT =      F    spin-orbit coupling
   INIWAV =      1    electr: 0-lowe 1-rand  2-diag
   LASPH  =      T    aspherical Exc in radial PAW
   METAGGA=      F    non-selfconsistent MetaGGA calc.

 Electronic Relaxation 1
   ENCUT  =  650.0 eV  47.77 Ry    6.91 a.u.  23.10 23.11 21.97*2*pi/ulx,y,z
   ENINI  =  650.0     initial cutoff
   ENAUG  =  628.9 eV  augmentation charge cutoff
   NELM   =    200;   NELMIN=  8; NELMDL=  0     # of ELM steps 
   EDIFF  = 0.1E-05   stopping-criterion for ELM
   LREAL  =      F    real-space projection
   NLSPLINE    = F    spline interpolate recip. space projectors
   LCOMPAT=      F    compatible to vasp.4.4
   GGA_COMPAT  = T    GGA compatible to vasp.4.4-vasp.4.6
   LMAXPAW     = -100 max onsite density
   LMAXMIX     =    4 max onsite mixed and CHGCAR
   VOSKOWN=      0    Vosko Wilk Nusair interpolation
   ROPT   =    0.00000   0.00000   0.00000   0.00000
 Ionic relaxation
   EDIFFG = 0.1E-04   stopping-criterion for IOM
   NSW    =      0    number of steps for IOM
   NBLOCK =      1;   KBLOCK =      1    inner block; outer block 
   IBRION =     -1    ionic relax: 0-MD 1-quasi-New 2-CG
   NFREE  =      0    steps in history (QN), initial steepest desc. (CG)
   ISIF   =      2    stress and relaxation
   IWAVPR =     10    prediction:  0-non 1-charg 2-wave 3-comb
   ISYM   =      0    0-nonsym 1-usesym 2-fastsym
   LCORR  =      T    Harris-Foulkes like correction to forces

   POTIM  = 0.5000    time-step for ionic-motion
   TEIN   =    0.0    initial temperature
   TEBEG  =    0.0;   TEEND  =   0.0 temperature during run
   SMASS  =  -3.00    Nose mass-parameter (am)
   estimated Nose-frequenzy (Omega)   =  0.10E-29 period in steps =****** mass=  -0.282E-26a.u.
   SCALEE = 1.0000    scale energy and forces
   NPACO  =    256;   APACO  = 16.0  distance and # of slots for P.C.
   PSTRESS=    0.0 pullay stress

  Mass of Ions in am
   POMASS =   7.01 16.00 32.07 55.85
  Ionic Valenz
   ZVAL   =   3.00  6.00  6.00 14.00
  Atomic Wigner-Seitz radii
   RWIGS  =  -1.00 -1.00 -1.00 -1.00
  virtual crystal weights 
   VCA    =   1.00  1.00  1.00  1.00
   NELECT =     736.0000    total number of electrons
   NUPDOWN=      -1.0000    fix difference up-down

 DOS related values:
   EMIN   =  10.00;   EMAX   =-10.00  energy-range for DOS
   EFERMI =   0.00
   ISMEAR =     0;   SIGMA  =   0.05  broadening in eV -4-tet -1-fermi 0-gaus

 Electronic relaxation 2 (details)
   IALGO  =     38    algorithm
   LDIAG  =      T    sub-space diagonalisation (order eigenvalues)
   LSUBROT=      F    optimize rotation matrix (better conditioning)
   TURBO    =      0    0=normal 1=particle mesh
   IRESTART =      0    0=no restart 2=restart with 2 vectors
   NREBOOT  =      0    no. of reboots
   NMIN     =      0    reboot dimension
   EREF     =   0.00    reference energy to select bands
   IMIX   =      4    mixing-type and parameters
     AMIX     =   0.40;   BMIX     =  1.00
     AMIX_MAG =   1.60;   BMIX_MAG =  1.00
     AMIN     =   0.10
     WC   =   100.;   INIMIX=   1;  MIXPRE=   1;  MAXMIX= -45

 Intra band minimization:
   WEIMIN = 0.0000     energy-eigenvalue tresh-hold
   EBREAK =  0.46E-09  absolut break condition
   DEPER  =   0.30     relativ break condition  

   TIME   =   0.40     timestep for ELM

  volume/ion in A,a.u.               =      14.32        96.62
  Fermi-wavevector in a.u.,A,eV,Ry     =   1.368520  2.586127 25.481613  1.872846
  Thomas-Fermi vector in A             =   2.494476
 
 Write flags
   LWAVE        =      F    write WAVECAR
   LDOWNSAMPLE  =      F    k-point downsampling of WAVECAR
   LCHARG       =      T    write CHGCAR
   LVTOT        =      F    write LOCPOT, total local potential
   LVHAR        =      F    write LOCPOT, Hartree potential only
   LELF         =      F    write electronic localiz. function (ELF)
   LORBIT       =      0    0 simple, 1 ext, 2 COOP (PROOUT), +10 PAW based schemes


 Dipole corrections
   LMONO  =      F    monopole corrections only (constant potential shift)
   LDIPOL =      F    correct potential (dipole corrections)
   IDIPOL =      0    1-x, 2-y, 3-z, 4-all directions 
   EPSILON=  1.0000000 bulk dielectric constant

 LDA+U is selected, type is set to LDAUTYPE =  2
   angular momentum for each species LDAUL =    -1   -1   -1    2
   U (eV)           for each species LDAUU =   0.0  0.0  0.0  4.0
   J (eV)           for each species LDAUJ =   0.0  0.0  0.0  0.0
 Exchange correlation treatment:
   GGA     =    PE    GGA type
   LEXCH   =     8    internal setting for exchange type
   VOSKOWN=      0    Vosko Wilk Nusair interpolation
   LHFCALC =     F    Hartree Fock is set to
   LHFONE  =     F    Hartree Fock one center treatment
   AEXX    =    0.0000 exact exchange contribution

 Linear response parameters
   LEPSILON=     F    determine dielectric tensor
   LRPA    =     F    only Hartree local field effects (RPA)
   LNABLA  =     F    use nabla operator in PAW spheres
   LVEL    =     F    velocity operator in full k-point grid
   LINTERFAST=   F  fast interpolation
   KINTER  =     0    interpolate to denser k-point grid
   CSHIFT  =0.1000    complex shift for real part using Kramers Kronig
   OMEGAMAX=  -1.0    maximum frequency
   DEG_THRESHOLD= 0.2000000E-02 threshold for treating states as degnerate
   RTIME   =   -0.100 relaxation time in fs
  (WPLASMAI=    0.000 imaginary part of plasma frequency in eV, 0.658/RTIME)
   DFIELD  = 0.0000000 0.0000000 0.0000000 field for delta impulse in time
 
 Orbital magnetization related:
   ORBITALMAG=     F  switch on orbital magnetization
   LCHIMAG   =     F  perturbation theory with respect to B field
   DQ        =  0.001000  dq finite difference perturbation B field
   LLRAUG    =     F  two centre corrections for induced B field



--------------------------------------------------------------------------------------------------------


 Static calculation
 charge density and potential will be updated during run
 spin polarized calculation
 Variant of blocked Davidson
 Davidson routine will perform the subspace rotation
 perform sub-space diagonalisation
    after iterative eigenvector-optimisation
 modified Broyden-mixing scheme, WC =      100.0
 initial mixing is a Kerker type mixing with AMIX =  0.4000 and BMIX =      1.0000
 Hartree-type preconditioning will be used
 using additional bands          170
 reciprocal scheme for non local part
 use partial core corrections
 calculate Harris-corrections to forces 
   (improved forces if not selfconsistent)
 use gradient corrections 
 use of overlap-Matrix (Vanderbilt PP)
 Gauss-broadening in eV      SIGMA  =   0.05


--------------------------------------------------------------------------------------------------------


  energy-cutoff  :      650.00
  volume of cell :     1259.94
      direct lattice vectors                 reciprocal lattice vectors
    11.112233740  0.000000000 -0.000290340     0.089991547  0.000000000  0.024487024
     0.000000000 11.117451940  0.000000000     0.000000000  0.089948669  0.000000000
    -2.775108980  0.000000000 10.198722210     0.000002562  0.000000000  0.098052196

  length of vectors
    11.112233744 11.117451940 10.569539468     0.093263567  0.089948669  0.098052196


 
 k-points in units of 2pi/SCALE and weight: # No comment                            
   0.00000000  0.00000000  0.00000000       0.037
   0.02999718  0.00000000  0.00816234       0.074
   0.00000000  0.02998289  0.00000000       0.074
   0.02999718  0.02998289  0.00816234       0.074
  -0.02999718  0.02998289 -0.00816234       0.074
   0.00000085  0.00000000  0.03268407       0.074
   0.02999804  0.00000000  0.04084641       0.074
  -0.02999633  0.00000000  0.02452172       0.074
   0.00000085  0.02998289  0.03268407       0.074
   0.02999804  0.02998289  0.04084641       0.074
  -0.02999633  0.02998289  0.02452172       0.074
   0.00000085 -0.02998289  0.03268407       0.074
   0.02999804 -0.02998289  0.04084641       0.074
  -0.02999633 -0.02998289  0.02452172       0.074
 
 k-points in reciprocal lattice and weights: # No comment                            
   0.00000000  0.00000000  0.00000000       0.037
   0.33333333  0.00000000  0.00000000       0.074
   0.00000000  0.33333333  0.00000000       0.074
   0.33333333  0.33333333  0.00000000       0.074
  -0.33333333  0.33333333 -0.00000000       0.074
   0.00000000  0.00000000  0.33333333       0.074
   0.33333333  0.00000000  0.33333333       0.074
  -0.33333333  0.00000000  0.33333333       0.074
   0.00000000  0.33333333  0.33333333       0.074
   0.33333333  0.33333333  0.33333333       0.074
  -0.33333333  0.33333333  0.33333333       0.074
   0.00000000 -0.33333333  0.33333333       0.074
   0.33333333 -0.33333333  0.33333333       0.074
  -0.33333333 -0.33333333  0.33333333       0.074
 
 position of ions in fractional coordinates (direct lattice) 
   0.28894969  0.46933910  0.15583616
   0.78894969  0.46933910  0.15583616
   0.28894969  0.96933910  0.15583616
   0.78894969  0.96933910  0.15583616
   0.04646972  0.21934976  0.18586770
   0.54646972  0.21934976  0.18586770
   0.04646972  0.71934976  0.18586770
   0.54646972  0.71934976  0.18586770
   0.45353028  0.46934976  0.81413230
   0.95353028  0.46934976  0.81413230
   0.45353028  0.96934976  0.81413230
   0.95353028  0.96934976  0.81413230
   0.21105031  0.21933910  0.84416384
   0.71105031  0.21933910  0.84416384
   0.21105031  0.71933910  0.84416384
   0.71105031  0.71933910  0.84416384
   0.07654971  0.09530995  0.80250593
   0.57654971  0.09530995  0.80250593
   0.07654971  0.59530995  0.80250593
   0.57654971  0.59530995  0.80250593
   0.32470466  0.34338175  0.80250383
   0.82470466  0.34338175  0.80250383
   0.32470466  0.84338175  0.80250383
   0.82470466  0.84338175  0.80250383
   0.17529534  0.09338175  0.19749617
   0.67529534  0.09338175  0.19749617
   0.17529534  0.59338175  0.19749617
   0.67529534  0.59338175  0.19749617
   0.42345029  0.34530995  0.19749407
   0.92345029  0.34530995  0.19749407
   0.42345029  0.84530995  0.19749407
   0.92345029  0.84530995  0.19749407
   0.21868463  0.34523395  0.37102476
   0.71868463  0.34523395  0.37102476
   0.21868463  0.84523395  0.37102476
   0.71868463  0.84523395  0.37102476
   0.46681660  0.09344897  0.37102399
   0.96681660  0.09344897  0.37102399
   0.46681660  0.59344897  0.37102399
   0.96681660  0.59344897  0.37102399
   0.03318340  0.34344897  0.62897601
   0.53318340  0.34344897  0.62897601
   0.03318340  0.84344897  0.62897601
   0.53318340  0.84344897  0.62897601
   0.28131537  0.09523395  0.62897524
   0.78131537  0.09523395  0.62897524
   0.28131537  0.59523395  0.62897524
   0.78131537  0.59523395  0.62897524
   0.12439279  0.34434306  0.00000412
   0.62439279  0.34434306  0.00000412
   0.12439279  0.84434306  0.00000412
   0.62439279  0.84434306  0.00000412
   0.37560721  0.09434306  0.99999588
   0.87560721  0.09434306  0.99999588
   0.37560721  0.59434306  0.99999588
   0.87560721  0.59434306  0.99999588
   0.03824426  0.10544850  0.60632306
   0.53824426  0.10634799  0.60632306
   0.03824426  0.60634799  0.60632306
   0.53824426  0.60634799  0.60632306
   0.26492712  0.33232651  0.60632763
   0.76492712  0.33232651  0.60632763
   0.26492712  0.83232651  0.60632763
   0.76492712  0.83232651  0.60632763
   0.23507288  0.08232651  0.39367237
   0.73507288  0.08232651  0.39367237
   0.23507288  0.58232651  0.39367237
   0.73507288  0.58232651  0.39367237
   0.46175574  0.35634799  0.39367694
   0.96175574  0.35634799  0.39367694
   0.46175574  0.85634799  0.39367694
   0.96175574  0.85634799  0.39367694
   0.03848398  0.46936404  0.15397331
   0.53848398  0.46936404  0.15397331
   0.03848398  0.96936404  0.15397331
   0.53848398  0.96936404  0.15397331
   0.28861657  0.21935690  0.15447525
   0.78861657  0.21935690  0.15447525
   0.28861657  0.71935690  0.15447525
   0.78861657  0.71935690  0.15447525
   0.21138343  0.46935690  0.84552475
   0.71138343  0.46935690  0.84552475
   0.21138343  0.96935690  0.84552475
   0.71138343  0.96935690  0.84552475
   0.46151602  0.21936404  0.84602669
   0.96151602  0.21936404  0.84602669
   0.46151602  0.71936404  0.84602669
   0.96151602  0.71936404  0.84602669
 
 position of ions in cartesian coordinates  (Angst):
   2.77841422  5.21785483  1.58924581
   8.33453109  5.21785483  1.58910064
   2.77841422 10.77658080  1.58924581
   8.33453109 10.77658080  1.58910064
   0.00057921  2.43861041  1.89559955
   5.55669608  2.43861041  1.89545438
   0.00057921  7.99733638  1.89559955
   5.55669608  7.99733638  1.89545438
   2.78042868  5.21797340  8.30297749
   8.33654555  5.21797340  8.30283232
   2.78042868 10.77669937  8.30297749
   8.33654555 10.77669937  8.30283232
   0.00259367  2.43849185  8.60933123
   5.55871054  2.43849185  8.60918606
   0.00259367  7.99721782  8.60933123
   5.55871054  7.99721782  8.60918606
  -1.37640314  1.05960384  8.18451283
   4.17971373  1.05960384  8.18436766
  -1.37640314  6.61832981  8.18451283
   4.17971373  6.61832981  8.18436766
   1.38115855  3.81753010  8.18441936
   6.93727542  3.81753010  8.18427419
   1.38115855  9.37625607  8.18441936
   6.93727542  9.37625607  8.18427419
   1.39984934  1.03816712  2.01415768
   6.95596621  1.03816712  2.01401251
   1.39984934  6.59689309  2.01415768
   6.95596621  6.59689309  2.01401251
   4.15741103  3.83896683  2.01406421
   9.71352790  3.83896683  2.01391904
   4.15741103  9.39769280  2.01406421
   9.71352790  9.39769280  2.01391904
   1.40044058  3.83812185  3.78391497
   6.95655745  3.83812185  3.78376980
   1.40044058  9.39684782  3.78391497
   6.95655745  9.39684782  3.78376980
   4.15774317  1.03891443  3.78383507
   9.71386004  1.03891443  3.78368990
   4.15774317  6.59764040  3.78383507
   9.71386004  6.59764040  3.78368990
  -1.37673528  3.81827742  6.41474197
   4.17938159  3.81827742  6.41459680
  -1.37673528  9.37700339  6.41474197
   4.17938159  9.37700339  6.41459680
   1.38056731  1.05875886  6.41466207
   6.93668418  1.05875886  6.41451690
   1.38056731  6.61748483  6.41466207
   6.93668418  6.61748483  6.41451690
   1.38227032  3.82821742  0.00000590
   6.93838719  3.82821742 -0.00013927
   1.38227032  9.38694339  0.00000590
   6.93838719  9.38694339 -0.00013927
   1.39873757  1.04885444 10.19857114
   6.95485444  1.04885444 10.19842597
   1.39873757  6.60758041 10.19857114
   6.95485444  6.60758041 10.19842597
  -1.25763347  1.17231867  6.18370935
   4.29848340  1.18231867  6.18356418
  -1.25763347  6.74104464  6.18370935
   4.29848340  6.74104464  6.18356418
   1.26130689  3.69462400  6.18369015
   6.81742376  3.69462400  6.18354498
   1.26130689  9.25334997  6.18369015
   6.81742376  9.25334997  6.18354498
   1.51970100  0.91526102  4.01488689
   7.07581787  0.91526102  4.01474172
   1.51970100  6.47398699  4.01488689
   7.07581787  6.47398699  4.01474172
   4.03864136  3.96168165  4.01486769
   9.59475823  3.96168165  4.01472252
   4.03864136  9.52040762  4.01486769
   9.59475823  9.52040762  4.01472252
   0.00035027  5.21813216  1.57031984
   5.55646714  5.21813216  1.57017467
   0.00035027 10.77685813  1.57031984
   5.55646714 10.77685813  1.57017467
   2.77848919  2.43868979  1.57536637
   8.33460606  2.43868979  1.57522120
   2.77848919  7.99741576  1.57536637
   8.33460606  7.99741576  1.57522120
   0.00251870  5.21805278  8.62321067
   5.55863557  5.21805278  8.62306550
   0.00251870 10.77677875  8.62321067
   5.55863557 10.77677875  8.62306550
   2.78065762  2.43876917  8.62825720
   8.33677449  2.43876917  8.62811203
   2.78065762  7.99749514  8.62825720
   8.33677449  7.99749514  8.62811203
 


--------------------------------------------------------------------------------------------------------


 k-point  1 :   0.0000 0.0000 0.0000  plane waves:   47369
 k-point  2 :   0.3333 0.0000 0.0000  plane waves:   47373
 k-point  3 :   0.0000 0.3333 0.0000  plane waves:   47370
 k-point  4 :   0.3333 0.3333 0.0000  plane waves:   47404
 k-point  5 :  -0.3333 0.3333-0.0000  plane waves:   47404
 k-point  6 :   0.0000 0.0000 0.3333  plane waves:   47419
 k-point  7 :   0.3333 0.0000 0.3333  plane waves:   47399
 k-point  8 :  -0.3333 0.0000 0.3333  plane waves:   47417
 k-point  9 :   0.0000 0.3333 0.3333  plane waves:   47409
 k-point 10 :   0.3333 0.3333 0.3333  plane waves:   47422
 k-point 11 :  -0.3333 0.3333 0.3333  plane waves:   47440
 k-point 12 :   0.0000-0.3333 0.3333  plane waves:   47409
 k-point 13 :   0.3333-0.3333 0.3333  plane waves:   47422
 k-point 14 :  -0.3333-0.3333 0.3333  plane waves:   47440

 maximum and minimum number of plane-waves per node :      7942     7858

 maximum number of plane-waves:     47440
 maximum index in each direction: 
   IXMAX=   23   IYMAX=   23   IZMAX=   21
   IXMIN=  -23   IYMIN=  -23   IZMIN=  -22


 parallel 3D FFT for wavefunctions:
    minimum data exchange during FFTs selected (reduces bandwidth)
 parallel 3D FFT for charge:
    minimum data exchange during FFTs selected (reduces bandwidth)


 total amount of memory used by VASP MPI-rank0  1233264. kBytes
=======================================================================

   base      :      30000. kBytes
   nonl-proj :      75226. kBytes
   fftplans  :      85054. kBytes
   grid      :      64684. kBytes
   one-center:        466. kBytes
   wavefun   :     977834. kBytes
 
     INWAV:  cpu time    0.0000: real time    0.0000
 Broyden mixing: mesh for mixing (old mesh)
   NGX = 47   NGY = 47   NGZ = 43
  (NGX  =192   NGY  =192   NGZ  =180)
  gives a total of  94987 points

 initial charge density was supplied:
 number of electron     736.0000016 magnetization     127.9999885
 keeping initial charge density in first step


--------------------------------------------------------------------------------------------------------


 Maximum index for augmentation-charges        13229 (set IRDMAX)


--------------------------------------------------------------------------------------------------------


 First call to EWALD:  gamma=   0.164
 Maximum number of real-space cells 3x 3x 3
 Maximum number of reciprocal cells 3x 3x 3

    FEWALD:  cpu time    0.0040: real time    0.0041


--------------------------------------- Iteration      1(   1)  ---------------------------------------


    POTLOK:  cpu time    1.0566: real time    1.0721
    SETDIJ:  cpu time    2.2747: real time    2.2939
     EDDAV:  cpu time  308.2527: real time  311.7482
       DOS:  cpu time    0.0081: real time    0.0081
    --------------------------------------------
      LOOP:  cpu time  311.5921: real time  315.1223

 eigenvalue-minimisations  : 30944
 total energy-change (2. order) : 0.1040962E+05  (-0.4118843E+05)
 number of electron     736.0000016 magnetization     127.9999885
 augmentation part      736.0000016 magnetization     127.9999885

 Free energy of the ion-electron system (eV)
  ---------------------------------------------------
  alpha Z        PSCENC =      2314.49656628
  Ewald energy   TEWEN  =    -57723.20666226
  -Hartree energ DENC   =    -30348.71612367
  -exchange      EXHF   =         0.00000000
  -V(xc)+E(xc)   XCENC  =      3229.29943399
  PAW double counting   =     92679.89207989   -95535.38516353
  entropy T*S    EENTRO =        -0.01892282
  eigenvalues    EBANDS =       349.77596218
  atomic energy  EATOM  =     95443.47970955
  Solvation  Ediel_sol  =         0.00000000
  ---------------------------------------------------
  free energy    TOTEN  =     10409.61687961 eV

  energy without entropy =    10409.63580242  energy(sigma->0) =    10409.62634101


--------------------------------------------------------------------------------------------------------




--------------------------------------- Iteration      1(   2)  ---------------------------------------


     EDDAV:  cpu time  305.6016: real time  308.8597
       DOS:  cpu time    0.0084: real time    0.0084
    --------------------------------------------
      LOOP:  cpu time  305.6100: real time  308.8682

 eigenvalue-minimisations  : 30128
 total energy-change (2. order) :-0.9232137E+04  (-0.8658454E+04)
 number of electron     736.0000016 magnetization     127.9999885
 augmentation part      736.0000016 magnetization     127.9999885

 Free energy of the ion-electron system (eV)
  ---------------------------------------------------
  alpha Z        PSCENC =      2314.49656628
  Ewald energy   TEWEN  =    -57723.20666226
  -Hartree energ DENC   =    -30348.71612367
  -exchange      EXHF   =         0.00000000
  -V(xc)+E(xc)   XCENC  =      3229.29943399
  PAW double counting   =     92679.89207989   -95535.38516353
  entropy T*S    EENTRO =        -0.06516663
  eigenvalues    EBANDS =     -8882.31517122
  atomic energy  EATOM  =     95443.47970955
  Solvation  Ediel_sol  =         0.00000000
  ---------------------------------------------------
  free energy    TOTEN  =      1177.47950240 eV

  energy without entropy =     1177.54466903  energy(sigma->0) =     1177.51208571


--------------------------------------------------------------------------------------------------------




--------------------------------------- Iteration      1(   3)  ---------------------------------------


     EDDAV:  cpu time  321.5674: real time  325.2254
       DOS:  cpu time    0.0027: real time    0.0027
    --------------------------------------------
      LOOP:  cpu time  321.5701: real time  325.2281

 eigenvalue-minimisations  : 32368
 total energy-change (2. order) :-0.1485463E+04  (-0.1278825E+04)
 number of electron     736.0000016 magnetization     127.9999885
 augmentation part      736.0000016 magnetization     127.9999885

 Free energy of the ion-electron system (eV)
  ---------------------------------------------------
  alpha Z        PSCENC =      2314.49656628
  Ewald energy   TEWEN  =    -57723.20666226
  -Hartree energ DENC   =    -30348.71612367
  -exchange      EXHF   =         0.00000000
  -V(xc)+E(xc)   XCENC  =      3229.29943399
  PAW double counting   =     92679.89207989   -95535.38516353
  entropy T*S    EENTRO =        -0.00000000
  eigenvalues    EBANDS =    -10367.84295825
  atomic energy  EATOM  =     95443.47970955
  Solvation  Ediel_sol  =         0.00000000
  ---------------------------------------------------
  free energy    TOTEN  =      -307.98311800 eV

  energy without entropy =     -307.98311800  energy(sigma->0) =     -307.98311800


--------------------------------------------------------------------------------------------------------




--------------------------------------- Iteration      1(   4)  ---------------------------------------


     EDDAV:  cpu time  340.9012: real time  344.3952
       DOS:  cpu time    0.0042: real time    0.0042
    --------------------------------------------
      LOOP:  cpu time  340.9053: real time  344.3994

 eigenvalue-minimisations  : 35008
 total energy-change (2. order) :-0.1683553E+03  (-0.1656018E+03)
 number of electron     736.0000016 magnetization     127.9999885
 augmentation part      736.0000016 magnetization     127.9999885

 Free energy of the ion-electron system (eV)
  ---------------------------------------------------
  alpha Z        PSCENC =      2314.49656628
  Ewald energy   TEWEN  =    -57723.20666226
  -Hartree energ DENC   =    -30348.71612367
  -exchange      EXHF   =         0.00000000
  -V(xc)+E(xc)   XCENC  =      3229.29943399
  PAW double counting   =     92679.89207989   -95535.38516353
  entropy T*S    EENTRO =        -0.00000000
  eigenvalues    EBANDS =    -10536.19828888
  atomic energy  EATOM  =     95443.47970955
  Solvation  Ediel_sol  =         0.00000000
  ---------------------------------------------------
  free energy    TOTEN  =      -476.33844864 eV

  energy without entropy =     -476.33844864  energy(sigma->0) =     -476.33844864


--------------------------------------------------------------------------------------------------------




--------------------------------------- Iteration      1(   5)  ---------------------------------------


     EDDAV:  cpu time  453.8683: real time  458.5660
       DOS:  cpu time    0.0026: real time    0.0026
    CHARGE:  cpu time    9.2375: real time    9.3064
    MIXING:  cpu time    0.0316: real time    0.0316
    --------------------------------------------
      LOOP:  cpu time  463.1399: real time  467.9066

 eigenvalue-minimisations  : 49688
 total energy-change (2. order) :-0.1239936E+02  (-0.1227611E+02)
 number of electron     736.0000017 magnetization     127.9999932
 augmentation part      278.4544690 magnetization      84.1253168

 Broyden mixing:
  rms(total) = 0.21911E+00    rms(broyden)= 0.21895E+00
  rms(prec ) = 0.22231E+00
  weight for this iteration     100.00

 Free energy of the ion-electron system (eV)
  ---------------------------------------------------
  alpha Z        PSCENC =      2314.49656628
  Ewald energy   TEWEN  =    -57723.20666226
  -Hartree energ DENC   =    -30348.71612367
  -exchange      EXHF   =         0.00000000
  -V(xc)+E(xc)   XCENC  =      3229.29943399
  PAW double counting   =     92679.89207989   -95535.38516353
  entropy T*S    EENTRO =        -0.00000000
  eigenvalues    EBANDS =    -10548.59765211
  atomic energy  EATOM  =     95443.47970955
  Solvation  Ediel_sol  =         0.00000000
  ---------------------------------------------------
  free energy    TOTEN  =      -488.73781187 eV

  energy without entropy =     -488.73781187  energy(sigma->0) =     -488.73781187


--------------------------------------------------------------------------------------------------------




--------------------------------------- Iteration      1(   6)  ---------------------------------------


    POTLOK:  cpu time    1.0660: real time    1.0745
    SETDIJ:  cpu time    2.2654: real time    2.2790
     EDDAV:  cpu time  397.4575: real time  401.6588
       DOS:  cpu time    0.0025: real time    0.0025
    CHARGE:  cpu time    9.2164: real time    9.3686
    MIXING:  cpu time    0.0342: real time    0.0433
    --------------------------------------------
      LOOP:  cpu time  410.0421: real time  414.4267

 eigenvalue-minimisations  : 42296
 total energy-change (2. order) :-0.4623392E+00  (-0.4729526E+00)
 number of electron     736.0000017 magnetization     127.9999951
 augmentation part      277.9602881 magnetization      84.1614211

 Broyden mixing:
  rms(total) = 0.10837E+00    rms(broyden)= 0.10822E+00
  rms(prec ) = 0.10907E+00
  weight for this iteration     100.00

 eigenvalues of (default mixing * dielectric matrix)
  average eigenvalue GAMMA=   0.6668
  0.6668

 Free energy of the ion-electron system (eV)
  ---------------------------------------------------
  alpha Z        PSCENC =      2314.49656628
  Ewald energy   TEWEN  =    -57723.20666226
  -Hartree energ DENC   =    -30346.93455377
  -exchange      EXHF   =         0.00000000
  -V(xc)+E(xc)   XCENC  =      3229.00469808
  PAW double counting   =     92519.69679584   -95373.56554378
  entropy T*S    EENTRO =        -0.00000000
  eigenvalues    EBANDS =    -10552.17116098
  atomic energy  EATOM  =     95443.47970955
  Solvation  Ediel_sol  =         0.00000000
  ---------------------------------------------------
  free energy    TOTEN  =      -489.20015103 eV

  energy without entropy =     -489.20015103  energy(sigma->0) =     -489.20015103


--------------------------------------------------------------------------------------------------------




--------------------------------------- Iteration      1(   7)  ---------------------------------------


    POTLOK:  cpu time    1.0485: real time    1.0569
    SETDIJ:  cpu time    2.2772: real time    2.2783
     EDDAV:  cpu time  421.7402: real time  426.5383
       DOS:  cpu time    0.0026: real time    0.0026
    CHARGE:  cpu time    9.2688: real time    9.2908
    MIXING:  cpu time    0.0424: real time    0.0438
    --------------------------------------------
      LOOP:  cpu time  434.3799: real time  439.2107

 eigenvalue-minimisations  : 45400
 total energy-change (2. order) :-0.1708352E-01  (-0.1724355E-01)
 number of electron     736.0000017 magnetization     127.9999959
 augmentation part      277.8799519 magnetization      84.1538466

 Broyden mixing:
  rms(total) = 0.59358E-01    rms(broyden)= 0.59318E-01
  rms(prec ) = 0.60771E-01
  weight for this iteration     100.00

 eigenvalues of (default mixing * dielectric matrix)
  average eigenvalue GAMMA=   0.5452
  0.5452  0.5452

 Free energy of the ion-electron system (eV)
  ---------------------------------------------------
  alpha Z        PSCENC =      2314.49656628
  Ewald energy   TEWEN  =    -57723.20666226
  -Hartree energ DENC   =    -30347.84637240
  -exchange      EXHF   =         0.00000000
  -V(xc)+E(xc)   XCENC  =      3229.08773136
  PAW double counting   =     92578.77096473   -95433.20421928
  entropy T*S    EENTRO =        -0.00000000
  eigenvalues    EBANDS =    -10550.79495253
  atomic energy  EATOM  =     95443.47970955
  Solvation  Ediel_sol  =         0.00000000
  ---------------------------------------------------
  free energy    TOTEN  =      -489.21723455 eV

  energy without entropy =     -489.21723455  energy(sigma->0) =     -489.21723455


--------------------------------------------------------------------------------------------------------




--------------------------------------- Iteration      1(   8)  ---------------------------------------


    POTLOK:  cpu time    1.0495: real time    1.0521
    SETDIJ:  cpu time    2.2765: real time    2.2806
     EDDAV:  cpu time  403.6084: real time  408.1695
       DOS:  cpu time    0.0035: real time    0.0035
    CHARGE:  cpu time    9.1959: real time    9.2555
    MIXING:  cpu time    0.0367: real time    0.0375
    --------------------------------------------
      LOOP:  cpu time  416.1705: real time  420.7988

 eigenvalue-minimisations  : 43192
 total energy-change (2. order) : 0.4057683E-03  (-0.3763297E-03)
 number of electron     736.0000017 magnetization     127.9999967
 augmentation part      277.8717350 magnetization      84.1566081

 Broyden mixing:
  rms(total) = 0.53409E-01    rms(broyden)= 0.53405E-01
  rms(prec ) = 0.54654E-01
  weight for this iteration     100.00

 eigenvalues of (default mixing * dielectric matrix)
  average eigenvalue GAMMA=   0.5840
  0.5389  0.6066  0.6066

 Free energy of the ion-electron system (eV)
  ---------------------------------------------------
  alpha Z        PSCENC =      2314.49656628
  Ewald energy   TEWEN  =    -57723.20666226
  -Hartree energ DENC   =    -30347.81638945
  -exchange      EXHF   =         0.00000000
  -V(xc)+E(xc)   XCENC  =      3229.11551931
  PAW double counting   =     92592.31139823   -95446.87456233
  entropy T*S    EENTRO =        -0.00000000
  eigenvalues    EBANDS =    -10550.72240812
  atomic energy  EATOM  =     95443.47970955
  Solvation  Ediel_sol  =         0.00000000
  ---------------------------------------------------
  free energy    TOTEN  =      -489.21682878 eV

  energy without entropy =     -489.21682878  energy(sigma->0) =     -489.21682878


--------------------------------------------------------------------------------------------------------




--------------------------------------- Iteration      1(   9)  ---------------------------------------


    POTLOK:  cpu time    1.0489: real time    1.0519
    SETDIJ:  cpu time    2.2805: real time    2.3076
     EDDAV:  cpu time  436.0628: real time  440.8284
       DOS:  cpu time    0.0028: real time    0.0028
    CHARGE:  cpu time    9.1549: real time    9.3873
    MIXING:  cpu time    0.0347: real time    0.0348
    --------------------------------------------
      LOOP:  cpu time  448.5845: real time  453.6127

 eigenvalue-minimisations  : 47368
 total energy-change (2. order) : 0.6711874E-03  (-0.2080402E-04)
 number of electron     736.0000017 magnetization     127.9999997
 augmentation part      277.8740309 magnetization      84.1569675

 Broyden mixing:
  rms(total) = 0.42955E-01    rms(broyden)= 0.42954E-01
  rms(prec ) = 0.43899E-01
  weight for this iteration     100.00

 eigenvalues of (default mixing * dielectric matrix)
  average eigenvalue GAMMA=   1.1102
  1.9573  1.1995  0.6559  0.6281

 Free energy of the ion-electron system (eV)
  ---------------------------------------------------
  alpha Z        PSCENC =      2314.49656628
  Ewald energy   TEWEN  =    -57723.20666226
  -Hartree energ DENC   =    -30347.95405545
  -exchange      EXHF   =         0.00000000
  -V(xc)+E(xc)   XCENC  =      3229.15597236
  PAW double counting   =     92606.89267544   -95461.64603747
  entropy T*S    EENTRO =        -0.00000000
  eigenvalues    EBANDS =    -10550.43432605
  atomic energy  EATOM  =     95443.47970955
  Solvation  Ediel_sol  =         0.00000000
  ---------------------------------------------------
  free energy    TOTEN  =      -489.21615759 eV

  energy without entropy =     -489.21615759  energy(sigma->0) =     -489.21615759


--------------------------------------------------------------------------------------------------------




--------------------------------------- Iteration      1(  10)  ---------------------------------------


    POTLOK:  cpu time    1.0646: real time    1.0758
    SETDIJ:  cpu time    2.2965: real time    2.3004
     EDDAV:  cpu time  442.5626: real time  446.7786
       DOS:  cpu time    0.0031: real time    0.0047
    CHARGE:  cpu time    9.1187: real time    9.3708
    MIXING:  cpu time    0.0375: real time    0.0420
    --------------------------------------------
      LOOP:  cpu time  455.0831: real time  459.5723

 eigenvalue-minimisations  : 48624
 total energy-change (2. order) : 0.8841897E-03  (-0.1922723E-03)
 number of electron     736.0000017 magnetization     128.0000004
 augmentation part      277.8919961 magnetization      84.1589559

 Broyden mixing:
  rms(total) = 0.82306E-02    rms(broyden)= 0.82265E-02
  rms(prec ) = 0.82815E-02
  weight for this iteration     100.00

 eigenvalues of (default mixing * dielectric matrix)
  average eigenvalue GAMMA=   1.0675
  2.5724  0.9086  0.6554  0.6554  0.5457

 Free energy of the ion-electron system (eV)
  ---------------------------------------------------
  alpha Z        PSCENC =      2314.49656628
  Ewald energy   TEWEN  =    -57723.20666226
  -Hartree energ DENC   =    -30348.67269836
  -exchange      EXHF   =         0.00000000
  -V(xc)+E(xc)   XCENC  =      3229.30515672
  PAW double counting   =     92662.89507274   -95518.35622257
  entropy T*S    EENTRO =        -0.00000000
  eigenvalues    EBANDS =    -10549.15619551
  atomic energy  EATOM  =     95443.47970955
  Solvation  Ediel_sol  =         0.00000000
  ---------------------------------------------------
  free energy    TOTEN  =      -489.21527340 eV

  energy without entropy =     -489.21527340  energy(sigma->0) =     -489.21527340


--------------------------------------------------------------------------------------------------------




--------------------------------------- Iteration      1(  11)  ---------------------------------------


    POTLOK:  cpu time    1.0532: real time    1.0678
    SETDIJ:  cpu time    2.2084: real time    2.3018
     EDDAV:  cpu time  366.4459: real time  370.0116
       DOS:  cpu time    0.0024: real time    0.0024
    CHARGE:  cpu time    9.1474: real time    9.3185
    MIXING:  cpu time    0.0291: real time    0.0295
    --------------------------------------------
      LOOP:  cpu time  378.8865: real time  382.7317

 eigenvalue-minimisations  : 38464
 total energy-change (2. order) :-0.8098486E-04  (-0.5087499E-04)
 number of electron     736.0000017 magnetization     128.0000004
 augmentation part      277.8950302 magnetization      84.1586718

 Broyden mixing:
  rms(total) = 0.64692E-02    rms(broyden)= 0.64672E-02
  rms(prec ) = 0.68253E-02
  weight for this iteration     100.00

 eigenvalues of (default mixing * dielectric matrix)
  average eigenvalue GAMMA=   1.0246
  2.6034  0.7173  0.7173  0.8604  0.6245  0.6245

 Free energy of the ion-electron system (eV)
  ---------------------------------------------------
  alpha Z        PSCENC =      2314.49656628
  Ewald energy   TEWEN  =    -57723.20666226
  -Hartree energ DENC   =    -30348.78975213
  -exchange      EXHF   =         0.00000000
  -V(xc)+E(xc)   XCENC  =      3229.32648617
  PAW double counting   =     92675.52088818   -95531.09578275
  entropy T*S    EENTRO =        -0.00000000
  eigenvalues    EBANDS =    -10548.94680743
  atomic energy  EATOM  =     95443.47970955
  Solvation  Ediel_sol  =         0.00000000
  ---------------------------------------------------
  free energy    TOTEN  =      -489.21535439 eV

  energy without entropy =     -489.21535439  energy(sigma->0) =     -489.21535439


--------------------------------------------------------------------------------------------------------




--------------------------------------- Iteration      1(  12)  ---------------------------------------


    POTLOK:  cpu time    1.0471: real time    1.0483
    SETDIJ:  cpu time    2.2908: real time    2.2955
     EDDAV:  cpu time  385.2126: real time  389.4752
       DOS:  cpu time    0.0027: real time    0.0028
    CHARGE:  cpu time    9.2180: real time    9.3338
    MIXING:  cpu time    0.0365: real time    0.0365
    --------------------------------------------
      LOOP:  cpu time  397.8077: real time  402.1920

 eigenvalue-minimisations  : 40968
 total energy-change (2. order) : 0.1608414E-04  (-0.4607426E-05)
 number of electron     736.0000017 magnetization     128.0000004
 augmentation part      277.8967253 magnetization      84.1585035

 Broyden mixing:
  rms(total) = 0.52563E-02    rms(broyden)= 0.52548E-02
  rms(prec ) = 0.55331E-02
  weight for this iteration     100.00

 eigenvalues of (default mixing * dielectric matrix)
  average eigenvalue GAMMA=   1.1373
  2.6231  1.3216  1.3216  0.8540  0.6598  0.6598  0.5209

 Free energy of the ion-electron system (eV)
  ---------------------------------------------------
  alpha Z        PSCENC =      2314.49656628
  Ewald energy   TEWEN  =    -57723.20666226
  -Hartree energ DENC   =    -30348.77424034
  -exchange      EXHF   =         0.00000000
  -V(xc)+E(xc)   XCENC  =      3229.31964137
  PAW double counting   =     92675.97501159   -95531.52110069
  entropy T*S    EENTRO =        -0.00000000
  eigenvalues    EBANDS =    -10548.98426380
  atomic energy  EATOM  =     95443.47970955
  Solvation  Ediel_sol  =         0.00000000
  ---------------------------------------------------
  free energy    TOTEN  =      -489.21533830 eV

  energy without entropy =     -489.21533830  energy(sigma->0) =     -489.21533830


--------------------------------------------------------------------------------------------------------




--------------------------------------- Iteration      1(  13)  ---------------------------------------


    POTLOK:  cpu time    1.0477: real time    1.0485
    SETDIJ:  cpu time    2.2809: real time    2.2825
     EDDAV:  cpu time  357.4210: real time  361.2637
       DOS:  cpu time    0.0026: real time    0.0026
    CHARGE:  cpu time    9.2143: real time    9.3310
    MIXING:  cpu time    0.0354: real time    0.0355
    --------------------------------------------
      LOOP:  cpu time  370.0020: real time  373.9638

 eigenvalue-minimisations  : 37208
 total energy-change (2. order) : 0.1474460E-04  (-0.2623692E-05)
 number of electron     736.0000017 magnetization     128.0000005
 augmentation part      277.8947768 magnetization      84.1582620

 Broyden mixing:
  rms(total) = 0.15159E-02    rms(broyden)= 0.15118E-02
  rms(prec ) = 0.15574E-02
  weight for this iteration     100.00

 eigenvalues of (default mixing * dielectric matrix)
  average eigenvalue GAMMA=   1.1900
  2.8979  1.5667  1.5667  0.8472  0.7342  0.7342  0.5865  0.5865

 Free energy of the ion-electron system (eV)
  ---------------------------------------------------
  alpha Z        PSCENC =      2314.49656628
  Ewald energy   TEWEN  =    -57723.20666226
  -Hartree energ DENC   =    -30348.72032513
  -exchange      EXHF   =         0.00000000
  -V(xc)+E(xc)   XCENC  =      3229.30231798
  PAW double counting   =     92677.15236407   -95532.63575591
  entropy T*S    EENTRO =        -0.00000000
  eigenvalues    EBANDS =    -10549.08353814
  atomic energy  EATOM  =     95443.47970955
  Solvation  Ediel_sol  =         0.00000000
  ---------------------------------------------------
  free energy    TOTEN  =      -489.21532356 eV

  energy without entropy =     -489.21532356  energy(sigma->0) =     -489.21532356


--------------------------------------------------------------------------------------------------------




--------------------------------------- Iteration      1(  14)  ---------------------------------------


    POTLOK:  cpu time    1.0430: real time    1.0471
    SETDIJ:  cpu time    2.2887: real time    2.2955
     EDDAV:  cpu time  320.8846: real time  324.2789
       DOS:  cpu time    0.0025: real time    0.0025
    CHARGE:  cpu time    9.2515: real time    9.3900
    MIXING:  cpu time    0.0427: real time    0.0430
    --------------------------------------------
      LOOP:  cpu time  333.5130: real time  337.0570

 eigenvalue-minimisations  : 32480
 total energy-change (2. order) :-0.5163936E-05  (-0.2209320E-05)
 number of electron     736.0000017 magnetization     128.0000005
 augmentation part      277.8933355 magnetization      84.1581528

 Broyden mixing:
  rms(total) = 0.92231E-03    rms(broyden)= 0.91550E-03
  rms(prec ) = 0.95686E-03
  weight for this iteration     100.00

 eigenvalues of (default mixing * dielectric matrix)
  average eigenvalue GAMMA=   1.1281
  2.8735  1.5343  1.5343  0.9782  0.7236  0.7236  0.6395  0.6395  0.5063

 Free energy of the ion-electron system (eV)
  ---------------------------------------------------
  alpha Z        PSCENC =      2314.49656628
  Ewald energy   TEWEN  =    -57723.20666226
  -Hartree energ DENC   =    -30348.71335433
  -exchange      EXHF   =         0.00000000
  -V(xc)+E(xc)   XCENC  =      3229.29760844
  PAW double counting   =     92678.45776349   -95533.93040035
  entropy T*S    EENTRO =        -0.00000000
  eigenvalues    EBANDS =    -10549.09655954
  atomic energy  EATOM  =     95443.47970955
  Solvation  Ediel_sol  =         0.00000000
  ---------------------------------------------------
  free energy    TOTEN  =      -489.21532872 eV

  energy without entropy =     -489.21532872  energy(sigma->0) =     -489.21532872


--------------------------------------------------------------------------------------------------------




--------------------------------------- Iteration      1(  15)  ---------------------------------------


    POTLOK:  cpu time    1.0464: real time    1.0481
    SETDIJ:  cpu time    2.2867: real time    2.2925
     EDDAV:  cpu time  293.3906: real time  297.0114
       DOS:  cpu time    0.0026: real time    0.0026
    CHARGE:  cpu time    9.1946: real time    9.3318
    MIXING:  cpu time    0.0435: real time    0.0489
    --------------------------------------------
      LOOP:  cpu time  305.9644: real time  309.7352

 eigenvalue-minimisations  : 28736
 total energy-change (2. order) : 0.1236447E-05  (-0.2842703E-06)
 number of electron     736.0000017 magnetization     128.0000005
 augmentation part      277.8930522 magnetization      84.1582204

 Broyden mixing:
  rms(total) = 0.62156E-03    rms(broyden)= 0.61158E-03
  rms(prec ) = 0.63152E-03
  weight for this iteration     100.00

 eigenvalues of (default mixing * dielectric matrix)
  average eigenvalue GAMMA=   1.1311
  2.8368  1.4735  1.3322  1.3322  0.9006  0.9006  0.5802  0.5802  0.6875  0.6875

 Free energy of the ion-electron system (eV)
  ---------------------------------------------------
  alpha Z        PSCENC =      2314.49656628
  Ewald energy   TEWEN  =    -57723.20666226
  -Hartree energ DENC   =    -30348.71548192
  -exchange      EXHF   =         0.00000000
  -V(xc)+E(xc)   XCENC  =      3229.29924471
  PAW double counting   =     92678.74922135   -95534.23197645
  entropy T*S    EENTRO =        -0.00000000
  eigenvalues    EBANDS =    -10549.08594874
  atomic energy  EATOM  =     95443.47970955
  Solvation  Ediel_sol  =         0.00000000
  ---------------------------------------------------
  free energy    TOTEN  =      -489.21532749 eV

  energy without entropy =     -489.21532749  energy(sigma->0) =     -489.21532749


--------------------------------------------------------------------------------------------------------




--------------------------------------- Iteration      1(  16)  ---------------------------------------


    POTLOK:  cpu time    1.0428: real time    1.0666
    SETDIJ:  cpu time    2.2788: real time    2.3351
     EDDAV:  cpu time  210.7353: real time  213.0351
       DOS:  cpu time    0.0025: real time    0.0025
    --------------------------------------------
      LOOP:  cpu time  214.0594: real time  216.4392

 eigenvalue-minimisations  : 18048
 total energy-change (2. order) :-0.9397336E-06  (-0.3087230E-07)
 number of electron     736.0000017 magnetization     128.0000005
 augmentation part      277.8930522 magnetization      84.1582204

 Free energy of the ion-electron system (eV)
  ---------------------------------------------------
  alpha Z        PSCENC =      2314.49656628
  Ewald energy   TEWEN  =    -57723.20666226
  -Hartree energ DENC   =    -30348.71058246
  -exchange      EXHF   =         0.00000000
  -V(xc)+E(xc)   XCENC  =      3229.29843172
  PAW double counting   =     92679.11664546   -95534.59964750
  entropy T*S    EENTRO =        -0.00000000
  eigenvalues    EBANDS =    -10549.08978921
  atomic energy  EATOM  =     95443.47970955
  Solvation  Ediel_sol  =         0.00000000
  ---------------------------------------------------
  free energy    TOTEN  =      -489.21532843 eV

  energy without entropy =     -489.21532843  energy(sigma->0) =     -489.21532843


--------------------------------------------------------------------------------------------------------




 average (electrostatic) potential at core
  the test charge radii are     0.7079  0.7215  0.9698  0.9500
  (the norm of the test charge is              1.0000)
       1 -58.9486       2 -58.9488       3 -58.9495       4 -58.9492       5 -58.9483
       6 -58.9478       7 -58.9483       8 -58.9482       9 -58.9480      10 -58.9465
      11 -58.9483      12 -58.9501      13 -58.9477      14 -58.9488      15 -58.9499
      16 -58.9492      17 -69.8173      18 -69.8165      19 -69.8161      20 -69.8163
      21 -69.8152      22 -69.8153      23 -69.8172      24 -69.8171      25 -69.8164
      26 -69.8165      27 -69.8163      28 -69.8162      29 -69.8159      30 -69.8160
      31 -69.8166      32 -69.8165      33 -85.5789      34 -85.5791      35 -85.5804
      36 -85.5804      37 -85.5799      38 -85.5804      39 -85.5798      40 -85.5796
      41 -85.5714      42 -85.5797      43 -85.5868      44 -85.5800      45 -85.5799
      46 -85.5801      47 -85.5797      48 -85.5798      49 -85.6379      50 -85.6385
      51 -85.6394      52 -85.6390      53 -85.6390      54 -85.6388      55 -85.6386
      56 -85.6387      57 -78.5739      58 -78.5745      59 -78.5747      60 -78.5741
      61 -78.5722      62 -78.5731      63 -78.5753      64 -78.5749      65 -78.5742
      66 -78.5743      67 -78.5739      68 -78.5740      69 -78.5738      70 -78.5717
      71 -78.5744      72 -78.5758      73 -78.5817      74 -78.5817      75 -78.5821
      76 -78.5823      77 -78.5913      78 -78.5917      79 -78.5918      80 -78.5916
      81 -78.5904      82 -78.5913      83 -78.5931      84 -78.5918      85 -78.5819
      86 -78.5807      87 -78.5822      88 -78.5827
 
 
 
 E-fermi :   5.2079     XC(G=0): -10.4850     alpha+bet :-11.8156


 spin component 1

 k-point     1 :       0.0000    0.0000    0.0000
  band No.  band energies     occupation 
      1     -51.0554      1.00000
      2     -51.0551      1.00000
      3     -51.0549      1.00000
      4     -51.0546      1.00000
      5     -51.0540      1.00000
      6     -51.0539      1.00000
      7     -51.0537      1.00000
      8     -51.0536      1.00000
      9     -51.0528      1.00000
     10     -51.0526      1.00000
     11     -51.0525      1.00000
     12     -51.0522      1.00000
     13     -51.0520      1.00000
     14     -51.0509      1.00000
     15     -51.0508      1.00000
     16     -51.0498      1.00000
     17     -51.0451      1.00000
     18     -51.0444      1.00000
     19     -51.0443      1.00000
     20     -51.0442      1.00000
     21     -51.0438      1.00000
     22     -51.0438      1.00000
     23     -51.0437      1.00000
     24     -51.0431      1.00000
     25     -51.0400      1.00000
     26     -51.0397      1.00000
     27     -51.0396      1.00000
     28     -51.0396      1.00000
     29     -51.0392      1.00000
     30     -51.0391      1.00000
     31     -51.0389      1.00000
     32     -51.0386      1.00000
     33     -49.7036      1.00000
     34     -49.7018      1.00000
     35     -49.7018      1.00000
     36     -49.7017      1.00000
     37     -49.7016      1.00000
     38     -49.7013      1.00000
     39     -49.7013      1.00000
     40     -49.7004      1.00000
     41     -49.6949      1.00000
     42     -49.6943      1.00000
     43     -49.6942      1.00000
     44     -49.6942      1.00000
     45     -49.6940      1.00000
     46     -49.6938      1.00000
     47     -49.6937      1.00000
     48     -49.6923      1.00000
     49     -49.5989      1.00000
     50     -49.5981      1.00000
     51     -49.5980      1.00000
     52     -49.5974      1.00000
     53     -49.5973      1.00000
     54     -49.5970      1.00000
     55     -49.5970      1.00000
     56     -49.5969      1.00000
     57     -49.5964      1.00000
     58     -49.5963      1.00000
     59     -49.5961      1.00000
     60     -49.5960      1.00000
     61     -49.5956      1.00000
     62     -49.5950      1.00000
     63     -49.5947      1.00000
     64     -49.5940      1.00000
     65     -49.5679      1.00000
     66     -49.5671      1.00000
     67     -49.5668      1.00000
     68     -49.5667      1.00000
     69     -49.5662      1.00000
     70     -49.5661      1.00000
     71     -49.5657      1.00000
     72     -49.5654      1.00000
     73     -49.5650      1.00000
     74     -49.5647      1.00000
     75     -49.5645      1.00000
     76     -49.5644      1.00000
     77     -49.5640      1.00000
     78     -49.5635      1.00000
     79     -49.5631      1.00000
     80     -49.5626      1.00000
     81     -49.5553      1.00000
     82     -49.5544      1.00000
     83     -49.5544      1.00000
     84     -49.5543      1.00000
     85     -49.5542      1.00000
     86     -49.5539      1.00000
     87     -49.5539      1.00000
     88     -49.5531      1.00000
     89     -49.5402      1.00000
     90     -49.5397      1.00000
     91     -49.5396      1.00000
     92     -49.5396      1.00000
     93     -49.5394      1.00000
     94     -49.5392      1.00000
     95     -49.5391      1.00000
     96     -49.5385      1.00000
     97     -39.8671      1.00000
     98     -39.8662      1.00000
     99     -39.8660      1.00000
    100     -39.8656      1.00000
    101     -39.8655      1.00000
    102     -39.8653      1.00000
    103     -39.8653      1.00000
    104     -39.8652      1.00000
    105     -39.8651      1.00000
    106     -39.8650      1.00000
    107     -39.8649      1.00000
    108     -39.8648      1.00000
    109     -39.8648      1.00000
    110     -39.8644      1.00000
    111     -39.8639      1.00000
    112     -39.8634      1.00000
    113     -13.2250      1.00000
    114     -13.2248      1.00000
    115     -13.2105      1.00000
    116     -13.1836      1.00000
    117     -13.1011      1.00000
    118     -13.0992      1.00000
    119     -13.0989      1.00000
    120     -13.0932      1.00000
    121     -13.0861      1.00000
    122     -13.0803      1.00000
    123     -13.0800      1.00000
    124     -13.0778      1.00000
    125     -12.9882      1.00000
    126     -12.9775      1.00000
    127     -12.9420      1.00000
    128     -12.9419      1.00000
    129      -7.6452      1.00000
    130      -7.4068      1.00000
    131      -7.3263      1.00000
    132      -7.3260      1.00000
    133      -7.3099      1.00000
    134      -7.3093      1.00000
    135      -7.3081      1.00000
    136      -7.3072      1.00000
    137      -7.1695      1.00000
    138      -7.1572      1.00000
    139      -7.1240      1.00000
    140      -7.1235      1.00000
    141      -7.0366      1.00000
    142      -7.0220      1.00000
    143      -7.0022      1.00000
    144      -7.0015      1.00000
    145      -6.9410      1.00000
    146      -6.9406      1.00000
    147      -6.8874      1.00000
    148      -6.8871      1.00000
    149      -6.8649      1.00000
    150      -6.8617      1.00000
    151      -6.8343      1.00000
    152      -6.8036      1.00000
    153      -1.9356      1.00000
    154      -1.9355      1.00000
    155      -1.9105      1.00000
    156      -1.8936      1.00000
    157      -1.6666      1.00000
    158      -1.6663      1.00000
    159      -1.6589      1.00000
    160      -1.6571      1.00000
    161      -1.6000      1.00000
    162      -1.5979      1.00000
    163      -1.5865      1.00000
    164      -1.5861      1.00000
    165      -1.2982      1.00000
    166      -1.1750      1.00000
    167      -1.1746      1.00000
    168      -1.1134      1.00000
    169      -1.1131      1.00000
    170      -1.1072      1.00000
    171      -1.0495      1.00000
    172      -0.9807      1.00000
    173      -0.9646      1.00000
    174      -0.9597      1.00000
    175      -0.9579      1.00000
    176      -0.9574      1.00000
    177      -0.9470      1.00000
    178      -0.9449      1.00000
    179      -0.9232      1.00000
    180      -0.8713      1.00000
    181      -0.8712      1.00000
    182      -0.8034      1.00000
    183      -0.8027      1.00000
    184      -0.8026      1.00000
    185      -0.7755      1.00000
    186      -0.7741      1.00000
    187      -0.7740      1.00000
    188      -0.7610      1.00000
    189      -0.7167      1.00000
    190      -0.7165      1.00000
    191      -0.7068      1.00000
    192      -0.7049      1.00000
    193      -0.6991      1.00000
    194      -0.6989      1.00000
    195      -0.6088      1.00000
    196      -0.6085      1.00000
    197      -0.5617      1.00000
    198      -0.5613      1.00000
    199      -0.5494      1.00000
    200      -0.5480      1.00000
    201      -0.4080      1.00000
    202      -0.4080      1.00000
    203      -0.3575      1.00000
    204      -0.3479      1.00000
    205      -0.3297      1.00000
    206      -0.3290      1.00000
    207      -0.2982      1.00000
    208      -0.2979      1.00000
    209      -0.2813      1.00000
    210      -0.2693      1.00000
    211      -0.2626      1.00000
    212      -0.2558      1.00000
    213      -0.2552      1.00000
    214      -0.2092      1.00000
    215      -0.2090      1.00000
    216      -0.1885      1.00000
    217      -0.1867      1.00000
    218      -0.1867      1.00000
    219      -0.1757      1.00000
    220      -0.1579      1.00000
    221      -0.1255      1.00000
    222      -0.1253      1.00000
    223      -0.1093      1.00000
    224      -0.0708      1.00000
    225      -0.0703      1.00000
    226      -0.0605      1.00000
    227      -0.0435      1.00000
    228      -0.0177      1.00000
    229      -0.0174      1.00000
    230      -0.0115      1.00000
    231       0.0016      1.00000
    232       0.0018      1.00000
    233       0.0461      1.00000
    234       0.0495      1.00000
    235       0.0497      1.00000
    236       0.0914      1.00000
    237       0.0934      1.00000
    238       0.1184      1.00000
    239       0.1185      1.00000
    240       0.1577      1.00000
    241       0.1626      1.00000
    242       0.1768      1.00000
    243       0.1788      1.00000
    244       0.1819      1.00000
    245       0.1821      1.00000
    246       0.1858      1.00000
    247       0.1892      1.00000
    248       0.1933      1.00000
    249       0.1940      1.00000
    250       0.2009      1.00000
    251       0.2012      1.00000
    252       0.2388      1.00000
    253       0.2513      1.00000
    254       0.2568      1.00000
    255       0.2570      1.00000
    256       0.2766      1.00000
    257       0.3377      1.00000
    258       0.3475      1.00000
    259       0.3589      1.00000
    260       0.3590      1.00000
    261       0.3603      1.00000
    262       0.3605      1.00000
    263       0.3881      1.00000
    264       0.4017      1.00000
    265       0.4528      1.00000
    266       0.4529      1.00000
    267       0.5788      1.00000
    268       0.5790      1.00000
    269       0.5845      1.00000
    270       0.6020      1.00000
    271       0.6021      1.00000
    272       0.6065      1.00000
    273       0.6080      1.00000
    274       0.6400      1.00000
    275       0.6512      1.00000
    276       0.6513      1.00000
    277       0.6622      1.00000
    278       0.6624      1.00000
    279       0.6657      1.00000
    280       0.6732      1.00000
    281       0.6748      1.00000
    282       0.6753      1.00000
    283       0.6966      1.00000
    284       0.7228      1.00000
    285       0.7834      1.00000
    286       0.8199      1.00000
    287       0.8297      1.00000
    288       0.8321      1.00000
    289       0.8324      1.00000
    290       0.8612      1.00000
    291       0.8615      1.00000
    292       0.9097      1.00000
    293       0.9406      1.00000
    294       0.9481      1.00000
    295       0.9483      1.00000
    296       0.9832      1.00000
    297       1.0260      1.00000
    298       1.0706      1.00000
    299       1.2694      1.00000
    300       1.2982      1.00000
    301       1.2983      1.00000
    302       1.3119      1.00000
    303       1.3327      1.00000
    304       1.3339      1.00000
    305       1.3379      1.00000
    306       1.3853      1.00000
    307       1.4053      1.00000
    308       1.4286      1.00000
    309       1.4670      1.00000
    310       1.4677      1.00000
    311       1.4683      1.00000
    312       1.4818      1.00000
    313       1.5107      1.00000
    314       1.5110      1.00000
    315       1.5408      1.00000
    316       1.5614      1.00000
    317       1.5769      1.00000
    318       1.6465      1.00000
    319       1.6555      1.00000
    320       1.7561      1.00000
    321       1.7568      1.00000
    322       1.7629      1.00000
    323       1.7782      1.00000
    324       1.8027      1.00000
    325       1.8031      1.00000
    326       1.8108      1.00000
    327       1.8233      1.00000
    328       1.8365      1.00000
    329       1.8367      1.00000
    330       1.8459      1.00000
    331       1.8472      1.00000
    332       1.8784      1.00000
    333       1.8901      1.00000
    334       1.9466      1.00000
    335       1.9930      1.00000
    336       1.9935      1.00000
    337       2.0061      1.00000
    338       2.0068      1.00000
    339       2.0101      1.00000
    340       2.0184      1.00000
    341       2.0199      1.00000
    342       2.0206      1.00000
    343       2.0396      1.00000
    344       2.0469      1.00000
    345       2.0470      1.00000
    346       2.0571      1.00000
    347       2.0686      1.00000
    348       2.0693      1.00000
    349       2.0918      1.00000
    350       2.1131      1.00000
    351       2.1907      1.00000
    352       2.1908      1.00000
    353       2.2470      1.00000
    354       2.2471      1.00000
    355       2.2705      1.00000
    356       2.2732      1.00000
    357       2.2850      1.00000
    358       2.4278      1.00000
    359       2.4661      1.00000
    360       2.4665      1.00000
    361       2.4776      1.00000
    362       2.5036      1.00000
    363       2.5276      1.00000
    364       2.5542      1.00000
    365       2.5921      1.00000
    366       2.6267      1.00000
    367       2.6269      1.00000
    368       2.6559      1.00000
    369       2.7383      1.00000
    370       2.7385      1.00000
    371       2.7606      1.00000
    372       2.7612      1.00000
    373       2.8339      1.00000
    374       2.8734      1.00000
    375       2.9269      1.00000
    376       2.9339      1.00000
    377       2.9343      1.00000
    378       2.9686      1.00000
    379       3.0273      1.00000
    380       3.0278      1.00000
    381       3.0620      1.00000
    382       3.0958      1.00000
    383       3.3078      1.00000
    384       3.3101      1.00000
    385       3.3480      1.00000
    386       3.3752      1.00000
    387       3.4214      1.00000
    388       3.4218      1.00000
    389       3.4403      1.00000
    390       3.4581      1.00000
    391       3.4585      1.00000
    392       3.5313      1.00000
    393       3.7479      1.00000
    394       3.8082      1.00000
    395       3.8092      1.00000
    396       3.8152      1.00000
    397       3.8153      1.00000
    398       3.8825      1.00000
    399       3.8826      1.00000
    400       3.9325      1.00000
    401       3.9354      1.00000
    402       3.9405      1.00000
    403       3.9406      1.00000
    404       4.0392      1.00000
    405       4.0396      1.00000
    406       4.0704      1.00000
    407       4.1383      1.00000
    408       4.1490      1.00000
    409       4.1509      1.00000
    410       4.3146      1.00000
    411       4.3183      1.00000
    412       4.3379      1.00000
    413       4.3583      1.00000
    414       4.3584      1.00000
    415       4.4285      1.00000
    416       4.4443      1.00000
    417       4.4460      1.00000
    418       4.4540      1.00000
    419       4.4561      1.00000
    420       4.4572      1.00000
    421       4.6364      1.00000
    422       4.6367      1.00000
    423       4.7323      1.00000
    424       4.7328      1.00000
    425       4.7641      1.00000
    426       4.7643      1.00000
    427       4.7694      1.00000
    428       4.7695      1.00000
    429       4.8106      1.00000
    430       4.8533      1.00000
    431       4.8536      1.00000
    432       4.8575      1.00000
    433       7.3437      0.00000
    434       8.1283      0.00000
    435       8.4449      0.00000
    436       8.6423      0.00000
    437       8.6426      0.00000
    438       8.8582      0.00000
    439       9.0845      0.00000
    440       9.0848      0.00000
    441       9.2613      0.00000
    442       9.2733      0.00000
    443       9.2888      0.00000
    444       9.2894      0.00000
    445       9.7266      0.00000
    446       9.7716      0.00000
    447       9.7719      0.00000
    448       9.7899      0.00000
    449       9.8546      0.00000
    450       9.8547      0.00000
    451       9.8591      0.00000
    452       9.8789      0.00000
    453       9.8892      0.00000
    454      10.0606      0.00000
    455      10.0827      0.00000
    456      10.1363      0.00000
    457      10.1366      0.00000
    458      10.3061      0.00000
    459      10.3062      0.00000
    460      10.4169      0.00000
    461      10.5266      0.00000
    462      10.5708      0.00000
    463      10.5718      0.00000
    464      10.5719      0.00000
    465      10.5778      0.00000
    466      10.5788      0.00000
    467      10.6757      0.00000
    468      10.9762      0.00000
    469      11.0193      0.00000
    470      11.0195      0.00000
    471      11.0403      0.00000
    472      11.0411      0.00000
    473      11.0775      0.00000
    474      11.1283      0.00000
    475      11.1782      0.00000
[...]
   -.332E-01 0.943E-01 -.259E+02   0.353E-01 -.963E-01 0.256E+02   -.107E-02 0.960E-03 0.252E+00   -.132E-04 0.309E-04 0.307E-04
   -.350E-01 -.275E-01 -.259E+02   0.354E-01 0.286E-01 0.257E+02   -.183E-03 -.981E-03 0.251E+00   -.173E-04 -.775E-05 0.250E-04
   0.160E+00 -.350E-01 -.261E+02   -.163E+00 0.359E-01 0.259E+02   0.760E-03 -.138E-02 0.249E+00   0.531E-05 -.454E-05 0.228E-04
   0.120E+00 -.745E-01 -.418E+02   -.121E+00 0.780E-01 0.418E+02   -.501E-03 -.290E-02 0.123E-01   0.337E-05 -.421E-04 -.265E-04
   -.153E-01 -.191E-01 -.420E+02   0.160E-01 0.212E-01 0.420E+02   -.628E-03 -.174E-02 0.108E-01   -.496E-05 -.157E-04 -.170E-04
   -.149E-01 0.986E-01 -.421E+02   0.159E-01 -.992E-01 0.421E+02   -.478E-03 -.184E-03 0.101E-01   -.138E-04 0.263E-04 -.387E-04
   0.174E-01 0.440E-01 -.421E+02   -.174E-01 -.435E-01 0.421E+02   -.148E-03 -.746E-03 0.108E-01   0.702E-06 0.451E-05 -.206E-04
   0.159E+02 0.135E+02 -.126E+03   -.163E+02 -.138E+02 0.131E+03   0.384E+00 0.310E+00 -.464E+01   -.132E-03 0.791E-04 0.225E-05
   0.159E+02 0.148E+02 -.126E+03   -.163E+02 -.152E+02 0.131E+03   0.387E+00 0.380E+00 -.463E+01   -.520E-04 0.330E-04 0.158E-05
   0.159E+02 0.151E+02 -.126E+03   -.163E+02 -.155E+02 0.131E+03   0.386E+00 0.395E+00 -.463E+01   -.763E-04 0.229E-03 -.176E-04
   0.159E+02 0.150E+02 -.126E+03   -.163E+02 -.154E+02 0.131E+03   0.386E+00 0.381E+00 -.463E+01   -.469E-04 0.109E-03 -.136E-04
   -.158E+02 -.148E+02 -.126E+03   0.161E+02 0.152E+02 0.130E+03   -.383E+00 -.379E+00 -.462E+01   0.915E-04 -.676E-04 0.431E-04
   -.161E+02 -.148E+02 -.126E+03   0.165E+02 0.152E+02 0.131E+03   -.395E+00 -.379E+00 -.462E+01   -.797E-04 -.243E-04 0.516E-04
   -.161E+02 -.148E+02 -.126E+03   0.165E+02 0.152E+02 0.131E+03   -.394E+00 -.378E+00 -.463E+01   -.393E-04 -.270E-04 -.615E-04
   -.158E+02 -.148E+02 -.126E+03   0.162E+02 0.152E+02 0.131E+03   -.385E+00 -.379E+00 -.463E+01   0.381E-04 -.672E-04 -.141E-04
   0.159E+02 -.150E+02 0.126E+03   -.163E+02 0.154E+02 -.131E+03   0.389E+00 -.381E+00 0.463E+01   -.226E-04 -.132E-03 0.646E-06
   0.159E+02 -.150E+02 0.126E+03   -.163E+02 0.154E+02 -.131E+03   0.390E+00 -.380E+00 0.463E+01   -.312E-04 -.109E-03 -.571E-05
   0.159E+02 -.148E+02 0.126E+03   -.163E+02 0.152E+02 -.131E+03   0.390E+00 -.378E+00 0.463E+01   -.149E-04 -.245E-05 0.510E-05
   0.159E+02 -.148E+02 0.126E+03   -.163E+02 0.152E+02 -.131E+03   0.389E+00 -.378E+00 0.463E+01   -.181E-04 -.413E-05 -.126E-04
   -.159E+02 0.149E+02 0.126E+03   0.163E+02 -.153E+02 -.131E+03   -.386E+00 0.380E+00 0.463E+01   0.761E-04 0.659E-04 0.612E-05
   -.159E+02 0.149E+02 0.126E+03   0.163E+02 -.153E+02 -.131E+03   -.387E+00 0.378E+00 0.463E+01   -.329E-06 0.110E-03 -.186E-04
   -.159E+02 0.149E+02 0.126E+03   0.163E+02 -.153E+02 -.131E+03   -.387E+00 0.380E+00 0.463E+01   0.373E-04 0.437E-04 0.218E-04
   -.159E+02 0.150E+02 0.126E+03   0.163E+02 -.153E+02 -.131E+03   -.386E+00 0.379E+00 0.463E+01   0.125E-03 0.103E-03 0.310E-04
   0.281E+02 0.282E+02 0.332E+02   -.285E+02 -.286E+02 -.337E+02   0.352E+00 0.353E+00 0.517E+00   0.189E-04 0.291E-04 0.662E-04
   0.279E+02 0.282E+02 0.332E+02   -.282E+02 -.286E+02 -.338E+02   0.349E+00 0.353E+00 0.517E+00   -.649E-04 0.417E-04 0.493E-04
   0.279E+02 0.283E+02 0.334E+02   -.282E+02 -.286E+02 -.340E+02   0.349E+00 0.353E+00 0.520E+00   -.427E-04 0.562E-04 0.681E-04
   0.281E+02 0.282E+02 0.334E+02   -.285E+02 -.286E+02 -.340E+02   0.352E+00 0.354E+00 0.520E+00   0.298E-04 0.635E-04 0.978E-04
   -.279E+02 -.283E+02 0.333E+02   0.283E+02 0.287E+02 -.338E+02   -.349E+00 -.354E+00 0.519E+00   -.224E-04 -.828E-04 0.877E-04
   -.279E+02 -.290E+02 0.335E+02   0.283E+02 0.294E+02 -.340E+02   -.349E+00 -.364E+00 0.516E+00   0.463E-04 -.356E-03 0.135E-03
   -.279E+02 -.282E+02 0.333E+02   0.283E+02 0.285E+02 -.338E+02   -.349E+00 -.353E+00 0.519E+00   0.527E-05 -.719E-05 0.804E-04
   -.279E+02 -.280E+02 0.333E+02   0.283E+02 0.284E+02 -.338E+02   -.349E+00 -.349E+00 0.519E+00   0.321E-04 0.317E-04 0.333E-04
   0.278E+02 -.269E+02 -.332E+02   -.282E+02 0.272E+02 0.337E+02   0.348E+00 -.341E+00 -.519E+00   0.112E-04 -.209E-04 0.299E-04
   0.279E+02 -.282E+02 -.333E+02   -.283E+02 0.286E+02 0.338E+02   0.349E+00 -.355E+00 -.519E+00   0.104E-04 -.332E-04 -.640E-04
   0.280E+02 -.272E+02 -.334E+02   -.283E+02 0.276E+02 0.340E+02   0.349E+00 -.330E+00 -.519E+00   0.177E-05 -.201E-04 -.144E-03
   0.279E+02 -.282E+02 -.333E+02   -.283E+02 0.286E+02 0.338E+02   0.349E+00 -.354E+00 -.519E+00   -.219E-04 -.547E-04 -.711E-04
   -.281E+02 0.276E+02 -.334E+02   0.284E+02 -.279E+02 0.339E+02   -.351E+00 0.343E+00 -.518E+00   0.406E-04 -.539E-04 -.687E-04
   -.279E+02 0.277E+02 -.333E+02   0.283E+02 -.281E+02 0.339E+02   -.348E+00 0.345E+00 -.519E+00   0.465E-04 -.300E-04 -.601E-04
   -.280E+02 0.284E+02 -.333E+02   0.283E+02 -.287E+02 0.339E+02   -.350E+00 0.357E+00 -.519E+00   0.391E-04 0.129E-03 -.594E-04
   -.280E+02 0.283E+02 -.333E+02   0.284E+02 -.287E+02 0.339E+02   -.350E+00 0.356E+00 -.519E+00   0.118E-04 0.909E-04 -.451E-04
   0.990E+01 0.726E-01 0.104E+00   -.100E+02 -.728E-01 -.106E+00   0.115E+00 -.833E-05 0.194E-02   -.789E-04 0.139E-04 0.441E-04
   0.989E+01 0.462E-01 -.470E-02   -.100E+02 -.466E-01 0.485E-02   0.115E+00 0.200E-03 0.370E-05   -.593E-04 0.476E-04 -.152E-04
   0.990E+01 0.895E-01 -.112E+00   -.100E+02 -.900E-01 0.113E+00   0.115E+00 0.549E-03 -.160E-02   -.924E-04 0.175E-04 -.866E-06
   0.990E+01 0.542E-01 -.127E-01   -.100E+02 -.548E-01 0.127E-01   0.115E+00 0.580E-03 0.183E-04   -.684E-04 0.226E-04 -.613E-05
   -.990E+01 -.522E-01 0.282E-02   0.100E+02 0.523E-01 -.284E-02   -.115E+00 -.548E-03 -.236E-03   0.351E-04 -.313E-04 -.724E-05
   -.990E+01 -.609E-01 0.522E-02   0.100E+02 0.608E-01 -.555E-02   -.115E+00 -.171E-03 0.524E-03   0.124E-03 -.844E-05 -.179E-04
   -.990E+01 0.120E+00 0.113E-01   0.100E+02 -.121E+00 -.115E-01   -.115E+00 0.124E-02 0.194E-03   0.574E-04 0.348E-04 -.149E-04
   -.990E+01 0.129E+00 0.101E-01   0.100E+02 -.129E+00 -.101E-01   -.115E+00 0.109E-02 -.222E-03   0.617E-04 0.426E-04 -.209E-04
   0.195E+02 0.157E+02 0.185E+03   -.184E+02 -.146E+02 -.183E+03   -.107E+01 -.106E+01 -.241E+01   -.486E-04 -.355E-02 -.242E-03
   0.190E+02 0.187E+02 0.185E+03   -.180E+02 -.176E+02 -.183E+03   -.106E+01 -.108E+01 -.241E+01   0.527E-04 0.279E-04 -.179E-03
   0.190E+02 0.196E+02 0.185E+03   -.180E+02 -.186E+02 -.183E+03   -.106E+01 -.105E+01 -.241E+01   0.388E-04 0.717E-03 -.109E-03
   0.190E+02 0.191E+02 0.185E+03   -.180E+02 -.180E+02 -.183E+03   -.106E+01 -.108E+01 -.241E+01   0.379E-04 0.107E-03 -.145E-03
   -.180E+02 -.185E+02 0.185E+03   0.169E+02 0.174E+02 -.183E+03   0.108E+01 0.109E+01 -.241E+01   0.281E-03 -.125E-03 -.305E-03
   -.195E+02 -.187E+02 0.185E+03   0.185E+02 0.176E+02 -.183E+03   0.106E+01 0.108E+01 -.241E+01   -.277E-03 -.144E-03 -.301E-03
   -.195E+02 -.184E+02 0.185E+03   0.185E+02 0.173E+02 -.183E+03   0.105E+01 0.109E+01 -.241E+01   -.211E-03 -.644E-04 -.163E-03
   -.184E+02 -.186E+02 0.185E+03   0.174E+02 0.175E+02 -.183E+03   0.107E+01 0.109E+01 -.241E+01   0.238E-03 -.916E-04 -.220E-03
   0.188E+02 -.195E+02 -.185E+03   -.177E+02 0.184E+02 0.183E+03   -.107E+01 0.108E+01 0.241E+01   -.924E-04 -.354E-03 0.200E-03
   0.190E+02 -.195E+02 -.185E+03   -.179E+02 0.184E+02 0.183E+03   -.106E+01 0.108E+01 0.241E+01   0.848E-04 -.341E-03 0.415E-03
   0.189E+02 -.186E+02 -.185E+03   -.179E+02 0.175E+02 0.183E+03   -.106E+01 0.109E+01 0.241E+01   -.146E-04 0.697E-04 0.171E-03
   0.189E+02 -.186E+02 -.185E+03   -.178E+02 0.175E+02 0.183E+03   -.106E+01 0.109E+01 0.241E+01   -.499E-04 -.259E-06 0.284E-03
   -.190E+02 0.190E+02 -.185E+03   0.179E+02 -.179E+02 0.183E+03   0.106E+01 -.108E+01 0.241E+01   -.144E-04 0.694E-04 0.286E-03
   -.191E+02 0.196E+02 -.186E+03   0.181E+02 -.185E+02 0.184E+03   0.106E+01 -.108E+01 0.238E+01   -.573E-04 0.235E-03 -.230E-03
   -.190E+02 0.190E+02 -.185E+03   0.180E+02 -.179E+02 0.183E+03   0.106E+01 -.108E+01 0.241E+01   -.101E-03 0.875E-04 0.147E-03
   -.189E+02 0.196E+02 -.184E+03   0.178E+02 -.185E+02 0.182E+03   0.106E+01 -.108E+01 0.243E+01   -.196E-05 0.272E-03 0.537E-03
   0.332E-01 0.927E-01 0.209E+03   -.324E-01 -.976E-01 -.211E+03   -.625E-03 0.429E-02 0.206E+01   -.617E-05 0.116E-03 -.285E-03
   0.116E-01 0.130E-01 0.209E+03   -.124E-01 -.168E-01 -.211E+03   0.639E-03 0.343E-02 0.206E+01   0.350E-04 0.429E-04 -.338E-03
   -.804E-02 -.222E+00 0.209E+03   0.500E-02 0.222E+00 -.211E+03   0.246E-02 0.448E-03 0.206E+01   0.860E-04 -.523E-04 -.249E-03
   0.301E-01 -.153E+00 0.209E+03   -.309E-01 0.152E+00 -.211E+03   0.816E-03 0.175E-02 0.206E+01   -.502E-04 -.160E-03 -.286E-03
   0.639E-01 -.181E+00 0.199E+03   -.654E-01 0.183E+00 -.201E+03   0.140E-02 -.105E-02 0.206E+01   -.119E-03 -.241E-03 -.353E-03
   -.351E-01 -.208E+00 0.199E+03   0.329E-01 0.210E+00 -.201E+03   0.168E-02 -.113E-02 0.206E+01   0.882E-04 -.468E-04 -.340E-03
   -.678E-02 0.708E-01 0.199E+03   0.776E-02 -.756E-01 -.201E+03   -.673E-03 0.419E-02 0.206E+01   -.110E-03 0.796E-04 -.305E-03
   0.579E-01 0.954E-01 0.199E+03   -.572E-01 -.991E-01 -.201E+03   -.466E-03 0.327E-02 0.206E+01   -.369E-04 0.688E-04 -.335E-03
   0.981E-01 0.347E+00 -.199E+03   -.102E+00 -.357E+00 0.201E+03   0.295E-02 0.782E-02 -.206E+01   0.126E-03 0.219E-03 0.512E-03
   -.869E-01 0.771E-01 -.199E+03   0.889E-01 -.819E-01 0.201E+03   -.157E-02 0.419E-02 -.206E+01   -.250E-04 0.616E-04 0.330E-03
   -.541E+00 -.249E+00 -.200E+03   0.548E+00 0.249E+00 0.202E+03   -.435E-02 -.272E-03 -.207E+01   0.627E-05 -.181E-03 0.239E-03
   0.870E-01 -.176E+00 -.199E+03   -.878E-01 0.176E+00 0.201E+03   0.448E-03 0.217E-03 -.206E+01   0.761E-04 -.962E-04 0.319E-03
   0.100E+00 -.229E+00 -.209E+03   -.101E+00 0.231E+00 0.211E+03   0.224E-03 -.145E-02 -.206E+01   0.315E-04 -.136E-03 0.248E-03
   -.531E+00 -.468E+00 -.208E+03   0.537E+00 0.475E+00 0.210E+03   -.330E-02 -.583E-02 -.205E+01   -.928E-04 -.308E-03 0.377E-03
   -.795E-01 0.797E-01 -.209E+03   0.816E-01 -.852E-01 0.211E+03   -.171E-02 0.478E-02 -.206E+01   -.599E-04 0.110E-03 0.249E-03
   0.834E-01 0.305E+00 -.209E+03   -.855E-01 -.315E+00 0.211E+03   0.133E-02 0.778E-02 -.207E+01   0.112E-03 0.120E-03 0.180E-03
 -----------------------------------------------------------------------------------------------
   0.387E-02 -.623E-01 0.169E-01   -.412E-13 -.226E-12 -.512E-12   -.380E-02 0.641E-01 -.172E-01   -.918E-04 -.322E-02 0.230E-03
 
 
 POSITION                                       TOTAL-FORCE (eV/Angst)
 -----------------------------------------------------------------------------------
      2.77841      5.21785      1.58925        -0.000058     -0.000228     -0.000035
      8.33453      5.21785      1.58910         0.000003     -0.000096      0.000006
      2.77841     10.77658      1.58925         0.000138      0.000191      0.000008
      8.33453     10.77658      1.58910         0.000269      0.000124      0.000039
      0.00058      2.43861      1.89560         0.000410      0.000538     -0.000261
      5.55670      2.43861      1.89545        -0.000005      0.000305      0.000146
      0.00058      7.99734      1.89560        -0.000232     -0.000246      0.000096
      5.55670      7.99734      1.89545        -0.000102     -0.000201     -0.000094
      2.78043      5.21797      8.30298        -0.000113     -0.000198      0.000035
      8.33655      5.21797      8.30283         0.001029     -0.000986     -0.001289
      2.78043     10.77670      8.30298         0.000169      0.000189     -0.000213
      8.33655     10.77670      8.30283        -0.002287     -0.000450      0.003380
      0.00259      2.43849      8.60933        -0.001696      0.000526     -0.003361
      5.55871      2.43849      8.60919         0.000094      0.000333      0.000125
      0.00259      7.99722      8.60933         0.000428     -0.000746      0.000900
      5.55871      7.99722      8.60919        -0.000143     -0.000167      0.000039
     -1.37640      1.05960      8.18451         0.000396     -0.007533      0.003352
      4.17971      1.05960      8.18437         0.000214     -0.000088     -0.000224
     -1.37640      6.61833      8.18451        -0.000428      0.004813      0.000128
      4.17971      6.61833      8.18437         0.000068      0.000169     -0.000079
      1.38116      3.81753      8.18442         0.001666     -0.000244      0.000848
      6.93728      3.81753      8.18427        -0.001759      0.000316      0.000632
      1.38116      9.37626      8.18442        -0.001631      0.000527     -0.000667
      6.93728      9.37626      8.18427         0.001037     -0.000017     -0.000591
      1.39985      1.03817      2.01416        -0.000121     -0.000492      0.000175
      6.95597      1.03817      2.01401         0.000259     -0.000225      0.000128
      1.39985      6.59689      2.01416         0.000291      0.000611      0.000032
      6.95597      6.59689      2.01401         0.000219      0.000365      0.000062
      4.15741      3.83897      2.01406        -0.000049     -0.000100     -0.000119
      9.71353      3.83897      2.01392        -0.000385     -0.000623     -0.000639
      4.15741      9.39769      2.01406        -0.000228      0.000084      0.000195
      9.71353      9.39769      2.01392        -0.000049     -0.000248      0.000410
      1.40044      3.83812      3.78391         0.000806     -0.000206     -0.000621
      6.95656      3.83812      3.78377        -0.000864     -0.000231     -0.000669
      1.40044      9.39685      3.78391        -0.000668     -0.000024      0.000586
      6.95656      9.39685      3.78377         0.000592     -0.000023      0.000687
      4.15774      1.03891      3.78384         0.000114     -0.000142      0.000253
      9.71386      1.03891      3.78369         0.000262     -0.002616     -0.001755
      4.15774      6.59764      3.78384         0.000090      0.000459      0.000213
      9.71386      6.59764      3.78369        -0.000008      0.002520     -0.000061
     -1.37674      3.81828      6.41474         0.000904     -0.004767     -0.001493
      4.17938      3.81828      6.41460        -0.000093     -0.000148     -0.000148
     -1.37674      9.37700      6.41474        -0.000223      0.006770      0.000294
      4.17938      9.37700      6.41460        -0.000038      0.000044     -0.000183
      1.38057      1.05876      6.41466         0.000379     -0.002228     -0.000414
      6.93668      1.05876      6.41452         0.000814     -0.002146      0.000010
      1.38057      6.61748      6.41466         0.000035      0.001421     -0.000133
      6.93668      6.61748      6.41452         0.000079      0.001094     -0.000089
      1.38227      3.82822      0.00001        -0.000014     -0.000215      0.000768
      6.93839      3.82822     -0.00014         0.000026     -0.000130      0.000142
      1.38227      9.38694      0.00001         0.000057      0.000017     -0.000539
      6.93839      9.38694     -0.00014        -0.000029      0.000042      0.000052
      1.39874      1.04885     10.19857        -0.000063     -0.000448     -0.000268
      6.95485      1.04885     10.19843        -0.000039     -0.000291      0.000175
      1.39874      6.60758     10.19857         0.000059      0.000372      0.000019
      6.95485      6.60758     10.19843         0.000022      0.000283     -0.000177
     -1.25763      1.17232      6.18371        -0.001515      0.022532     -0.000309
      4.29848      1.18232      6.18356        -0.000322     -0.000611     -0.000059
     -1.25763      6.74104      6.18371        -0.000315     -0.009242     -0.000046
      4.29848      6.74104      6.18356        -0.000288      0.000105      0.000062
      1.26131      3.69462      6.18369        -0.003942     -0.001338      0.000344
      6.81742      3.69462      6.18354         0.003204     -0.000551      0.000368
      1.26131      9.25335      6.18369         0.003194     -0.000978     -0.000094
      6.81742      9.25335      6.18354        -0.001994     -0.000530      0.000004
      1.51970      0.91526      4.01489         0.000258      0.000815     -0.000270
      7.07582      0.91526      4.01474        -0.000828      0.000784     -0.000300
      1.51970      6.47399      4.01489        -0.000266     -0.000542     -0.000115
      7.07582      6.47399      4.01474        -0.000085     -0.000510     -0.000129
      4.03864      3.96168      4.01487         0.000124      0.000014     -0.000290
      9.59476      3.96168      4.01472         0.000882     -0.001963      0.007037
      4.03864      9.52041      4.01487         0.000322      0.000004      0.000076
      9.59476      9.52041      4.01472        -0.000217     -0.001970     -0.006071
      0.00035      5.21813      1.57032         0.000188     -0.000476      0.000023
      5.55647      5.21813      1.57017        -0.000045     -0.000303      0.000205
      0.00035     10.77686      1.57032        -0.000485      0.000349      0.000367
      5.55647     10.77686      1.57017        -0.000055      0.000150     -0.000088
      2.77849      2.43869      1.57537        -0.000147      0.000674      0.000052
      8.33461      2.43869      1.57522        -0.000366      0.000807     -0.000600
      2.77849      7.99742      1.57537         0.000196     -0.000573     -0.000116
      8.33461      7.99742      1.57522         0.000178     -0.000368      0.000026
      0.00252      5.21805      8.62321        -0.001225     -0.001749     -0.001863
      5.55864      5.21805      8.62307         0.000341     -0.000565      0.000025
      0.00252     10.77678      8.62321         0.002516     -0.000285      0.005060
      5.55864     10.77678      8.62307        -0.000327      0.000297      0.000049
      2.78066      2.43877      8.62826        -0.000412      0.000851      0.000144
      8.33677      2.43877      8.62811         0.002196      0.001599     -0.004760
      2.78066      7.99750      8.62826         0.000340     -0.000554     -0.000001
      8.33677      7.99750      8.62811        -0.000708     -0.001484      0.001461
 -----------------------------------------------------------------------------------
    total drift:                               -0.000021     -0.001380     -0.000061


--------------------------------------------------------------------------------------------------------



  FREE ENERGIE OF THE ION-ELECTRON SYSTEM (eV)
  ---------------------------------------------------
  free  energy   TOTEN  =      -489.21532843 eV

  energy  without entropy=     -489.21532843  energy(sigma->0) =     -489.21532843
 


--------------------------------------------------------------------------------------------------------


    POTLOK:  cpu time    3.2997: real time    3.3507


--------------------------------------------------------------------------------------------------------


     LOOP+:  cpu time 6427.3865: real time 6495.9165
    4ORBIT:  cpu time    0.0000: real time    0.0000

 total amount of memory used by VASP MPI-rank0  1233264. kBytes
=======================================================================

   base      :      30000. kBytes
   nonl-proj :      75226. kBytes
   fftplans  :      85054. kBytes
   grid      :      64684. kBytes
   one-center:        466. kBytes
   wavefun   :     977834. kBytes
 
  
  
 General timing and accounting informations for this job:
 ========================================================
  
                  Total CPU time used (sec):     6524.552
                            User time (sec):     6454.389
                          System time (sec):       70.163
                         Elapsed time (sec):     6595.073
  
                   Maximum memory used (kb):     1435576.
                   Average memory used (kb):           0.
  
                          Minor page faults:       973128
                          Major page faults:           15
                 Voluntary context switches:        64502
