  99  99   0   0
  0.1430410E+02  0.1177748E-08  0.1177748E-08  0.1058004E-08  0.5000000E-15
  1.000000000000000E-004
  CAR 
 unknown system                          
     18.05071754    -54.35075131  301      5.32012594      1.00000000
    -54.351  0.0000E+00  0.0000E+00  0.0000E+00  0.0000E+00
    -54.109  0.0000E+00  0.0000E+00  0.0000E+00  0.0000E+00
    -53.868  0.0000E+00  0.0000E+00  0.0000E+00  0.0000E+00
    -53.627  0.0000E+00  0.0000E+00  0.0000E+00  0.0000E+00
    -53.385  0.0000E+00  0.0000E+00  0.0000E+00  0.0000E+00
    -53.144  0.0000E+00  0.0000E+00  0.0000E+00  0.0000E+00
    -52.903  0.0000E+00  0.0000E+00  0.0000E+00  0.0000E+00
    -52.661  0.0000E+00  0.0000E+00  0.0000E+00  0.0000E+00
    -52.420  0.0000E+00  0.0000E+00  0.0000E+00  0.0000E+00
    -52.179  0.0000E+00  0.0000E+00  0.0000E+00  0.0000E+00
    -51.937  0.0000E+00  0.0000E+00  0.0000E+00  0.0000E+00
    -51.696  0.0000E+00  0.0000E+00  0.0000E+00  0.0000E+00
    -51.455  0.0000E+00  0.0000E+00  0.0000E+00  0.0000E+00
    -51.213  0.1743E-03  0.0000E+00  0.4208E-04  0.0000E+00
    -50.972  0.1454E+03  0.0000E+00  0.3508E+02  0.0000E+00
    -50.731  0.3813E+01  0.0000E+00  0.3600E+02  0.0000E+00
    -50.489  0.0000E+00  0.0000E+00  0.3600E+02  0.0000E+00
    -50.248  0.0000E+00  0.0000E+00  0.3600E+02  0.0000E+00
    -50.007  0.0000E+00  0.0000E+00  0.3600E+02  0.0000E+00
    -49.765  0.1281E+01  0.0000E+00  0.3631E+02  0.0000E+00
    -49.524  0.2641E+03  0.0000E+00  0.1000E+03  0.0000E+00
    -49.283  0.3295E+02  0.0000E+00  0.1080E+03  0.0000E+00
    -49.041  0.0000E+00  0.0000E+00  0.1080E+03  0.0000E+00
    -48.800  0.0000E+00  0.0000E+00  0.1080E+03  0.0000E+00
    -48.559  0.0000E+00  0.0000E+00  0.1080E+03  0.0000E+00
    -48.317  0.0000E+00  0.0000E+00  0.1080E+03  0.0000E+00
    -48.076  0.0000E+00  0.0000E+00  0.1080E+03  0.0000E+00
    -47.835  0.0000E+00  0.0000E+00  0.1080E+03  0.0000E+00
    -47.593  0.0000E+00  0.0000E+00  0.1080E+03  0.0000E+00
    -47.352  0.0000E+00  0.0000E+00  0.1080E+03  0.0000E+00
    -47.111  0.0000E+00  0.0000E+00  0.1080E+03  0.0000E+00
    -46.869  0.0000E+00  0.0000E+00  0.1080E+03  0.0000E+00
    -46.628  0.0000E+00  0.0000E+00  0.1080E+03  0.0000E+00
    -46.387  0.0000E+00  0.3641E+00  0.1080E+03  0.8787E-01
    -46.145  0.0000E+00  0.1488E+03  0.1080E+03  0.3599E+02
    -45.904  0.0000E+00  0.7029E+02  0.1080E+03  0.5295E+02
    -45.663  0.0000E+00  0.2281E+03  0.1080E+03  0.1080E+03
    -45.421  0.0000E+00  0.0000E+00  0.1080E+03  0.1080E+03
    -45.180  0.0000E+00  0.0000E+00  0.1080E+03  0.1080E+03
    -44.939  0.0000E+00  0.0000E+00  0.1080E+03  0.1080E+03
    -44.697  0.0000E+00  0.0000E+00  0.1080E+03  0.1080E+03
    -44.456  0.0000E+00  0.0000E+00  0.1080E+03  0.1080E+03
    -44.215  0.0000E+00  0.0000E+00  0.1080E+03  0.1080E+03
    -43.973  0.0000E+00  0.0000E+00  0.1080E+03  0.1080E+03
    -43.732  0.0000E+00  0.0000E+00  0.1080E+03  0.1080E+03
    -43.491  0.0000E+00  0.0000E+00  0.1080E+03  0.1080E+03
    -43.249  0.0000E+00  0.0000E+00  0.1080E+03  0.1080E+03
    -43.008  0.0000E+00  0.0000E+00  0.1080E+03  0.1080E+03
    -42.767  0.0000E+00  0.0000E+00  0.1080E+03  0.1080E+03
    -42.525  0.0000E+00  0.0000E+00  0.1080E+03  0.1080E+03
    -42.284  0.0000E+00  0.0000E+00  0.1080E+03  0.1080E+03
    -42.043  0.0000E+00  0.0000E+00  0.1080E+03  0.1080E+03
    -41.801  0.0000E+00  0.0000E+00  0.1080E+03  0.1080E+03
    -41.560  0.0000E+00  0.0000E+00  0.1080E+03  0.1080E+03
    -41.318  0.0000E+00  0.0000E+00  0.1080E+03  0.1080E+03
    -41.077  0.0000E+00  0.0000E+00  0.1080E+03  0.1080E+03
    -40.836  0.0000E+00  0.0000E+00  0.1080E+03  0.1080E+03
    -40.594  0.0000E+00  0.0000E+00  0.1080E+03  0.1080E+03
    -40.353  0.0000E+00  0.0000E+00  0.1080E+03  0.1080E+03
    -40.112  0.4542E-10  0.2896E-10  0.1080E+03  0.1080E+03
    -39.870  0.2902E+02  0.2727E+02  0.1150E+03  0.1146E+03
    -39.629  0.4557E+02  0.4732E+02  0.1260E+03  0.1260E+03
    -39.388  0.0000E+00  0.0000E+00  0.1260E+03  0.1260E+03
    -39.146  0.0000E+00  0.0000E+00  0.1260E+03  0.1260E+03
    -38.905  0.0000E+00  0.0000E+00  0.1260E+03  0.1260E+03
    -38.664  0.0000E+00  0.0000E+00  0.1260E+03  0.1260E+03
    -38.422  0.0000E+00  0.0000E+00  0.1260E+03  0.1260E+03
    -38.181  0.0000E+00  0.0000E+00  0.1260E+03  0.1260E+03
    -37.940  0.0000E+00  0.0000E+00  0.1260E+03  0.1260E+03
    -37.698  0.0000E+00  0.0000E+00  0.1260E+03  0.1260E+03
    -37.457  0.0000E+00  0.0000E+00  0.1260E+03  0.1260E+03
    -37.216  0.0000E+00  0.0000E+00  0.1260E+03  0.1260E+03
    -36.974  0.0000E+00  0.0000E+00  0.1260E+03  0.1260E+03
    -36.733  0.0000E+00  0.0000E+00  0.1260E+03  0.1260E+03
    -36.492  0.0000E+00  0.0000E+00  0.1260E+03  0.1260E+03
    -36.250  0.0000E+00  0.0000E+00  0.1260E+03  0.1260E+03
    -36.009  0.0000E+00  0.0000E+00  0.1260E+03  0.1260E+03
    -35.768  0.0000E+00  0.0000E+00  0.1260E+03  0.1260E+03
    -35.526  0.0000E+00  0.0000E+00  0.1260E+03  0.1260E+03
    -35.285  0.0000E+00  0.0000E+00  0.1260E+03  0.1260E+03
    -35.044  0.0000E+00  0.0000E+00  0.1260E+03  0.1260E+03
    -34.802  0.0000E+00  0.0000E+00  0.1260E+03  0.1260E+03
    -34.561  0.0000E+00  0.0000E+00  0.1260E+03  0.1260E+03
    -34.320  0.0000E+00  0.0000E+00  0.1260E+03  0.1260E+03
    -34.078  0.0000E+00  0.0000E+00  0.1260E+03  0.1260E+03
    -33.837  0.0000E+00  0.0000E+00  0.1260E+03  0.1260E+03
    -33.596  0.0000E+00  0.0000E+00  0.1260E+03  0.1260E+03
    -33.354  0.0000E+00  0.0000E+00  0.1260E+03  0.1260E+03
    -33.113  0.0000E+00  0.0000E+00  0.1260E+03  0.1260E+03
    -32.872  0.0000E+00  0.0000E+00  0.1260E+03  0.1260E+03
    -32.630  0.0000E+00  0.0000E+00  0.1260E+03  0.1260E+03
    -32.389  0.0000E+00  0.0000E+00  0.1260E+03  0.1260E+03
    -32.148  0.0000E+00  0.0000E+00  0.1260E+03  0.1260E+03
    -31.906  0.0000E+00  0.0000E+00  0.1260E+03  0.1260E+03
    -31.665  0.0000E+00  0.0000E+00  0.1260E+03  0.1260E+03
    -31.424  0.0000E+00  0.0000E+00  0.1260E+03  0.1260E+03
    -31.182  0.0000E+00  0.0000E+00  0.1260E+03  0.1260E+03
    -30.941  0.0000E+00  0.0000E+00  0.1260E+03  0.1260E+03
    -30.700  0.0000E+00  0.0000E+00  0.1260E+03  0.1260E+03
    -30.458  0.0000E+00  0.0000E+00  0.1260E+03  0.1260E+03
    -30.217  0.0000E+00  0.0000E+00  0.1260E+03  0.1260E+03
    -29.976  0.0000E+00  0.0000E+00  0.1260E+03  0.1260E+03
    -29.734  0.0000E+00  0.0000E+00  0.1260E+03  0.1260E+03
    -29.493  0.0000E+00  0.0000E+00  0.1260E+03  0.1260E+03
    -29.252  0.0000E+00  0.0000E+00  0.1260E+03  0.1260E+03
    -29.010  0.0000E+00  0.0000E+00  0.1260E+03  0.1260E+03
    -28.769  0.0000E+00  0.0000E+00  0.1260E+03  0.1260E+03
    -28.528  0.0000E+00  0.0000E+00  0.1260E+03  0.1260E+03
    -28.286  0.0000E+00  0.0000E+00  0.1260E+03  0.1260E+03
    -28.045  0.0000E+00  0.0000E+00  0.1260E+03  0.1260E+03
    -27.804  0.0000E+00  0.0000E+00  0.1260E+03  0.1260E+03
    -27.562  0.0000E+00  0.0000E+00  0.1260E+03  0.1260E+03
    -27.321  0.0000E+00  0.0000E+00  0.1260E+03  0.1260E+03
    -27.080  0.0000E+00  0.0000E+00  0.1260E+03  0.1260E+03
    -26.838  0.0000E+00  0.0000E+00  0.1260E+03  0.1260E+03
    -26.597  0.0000E+00  0.0000E+00  0.1260E+03  0.1260E+03
    -26.356  0.0000E+00  0.0000E+00  0.1260E+03  0.1260E+03
    -26.114  0.0000E+00  0.0000E+00  0.1260E+03  0.1260E+03
    -25.873  0.0000E+00  0.0000E+00  0.1260E+03  0.1260E+03
    -25.632  0.0000E+00  0.0000E+00  0.1260E+03  0.1260E+03
    -25.390  0.0000E+00  0.0000E+00  0.1260E+03  0.1260E+03
    -25.149  0.0000E+00  0.0000E+00  0.1260E+03  0.1260E+03
    -24.907  0.0000E+00  0.0000E+00  0.1260E+03  0.1260E+03
    -24.666  0.0000E+00  0.0000E+00  0.1260E+03  0.1260E+03
    -24.425  0.0000E+00  0.0000E+00  0.1260E+03  0.1260E+03
    -24.183  0.0000E+00  0.0000E+00  0.1260E+03  0.1260E+03
    -23.942  0.0000E+00  0.0000E+00  0.1260E+03  0.1260E+03
    -23.701  0.0000E+00  0.0000E+00  0.1260E+03  0.1260E+03
    -23.459  0.0000E+00  0.0000E+00  0.1260E+03  0.1260E+03
    -23.218  0.0000E+00  0.0000E+00  0.1260E+03  0.1260E+03
    -22.977  0.0000E+00  0.0000E+00  0.1260E+03  0.1260E+03
    -22.735  0.0000E+00  0.0000E+00  0.1260E+03  0.1260E+03
    -22.494  0.0000E+00  0.0000E+00  0.1260E+03  0.1260E+03
    -22.253  0.0000E+00  0.0000E+00  0.1260E+03  0.1260E+03
    -22.011  0.0000E+00  0.0000E+00  0.1260E+03  0.1260E+03
    -21.770  0.0000E+00  0.0000E+00  0.1260E+03  0.1260E+03
    -21.529  0.0000E+00  0.0000E+00  0.1260E+03  0.1260E+03
    -21.287  0.0000E+00  0.0000E+00  0.1260E+03  0.1260E+03
    -21.046  0.0000E+00  0.0000E+00  0.1260E+03  0.1260E+03
    -20.805  0.0000E+00  0.0000E+00  0.1260E+03  0.1260E+03
    -20.563  0.0000E+00  0.0000E+00  0.1260E+03  0.1260E+03
    -20.322  0.0000E+00  0.0000E+00  0.1260E+03  0.1260E+03
    -20.081  0.0000E+00  0.0000E+00  0.1260E+03  0.1260E+03
    -19.839  0.0000E+00  0.0000E+00  0.1260E+03  0.1260E+03
    -19.598  0.0000E+00  0.0000E+00  0.1260E+03  0.1260E+03
    -19.357  0.0000E+00  0.0000E+00  0.1260E+03  0.1260E+03
    -19.115  0.0000E+00  0.0000E+00  0.1260E+03  0.1260E+03
    -18.874  0.0000E+00  0.0000E+00  0.1260E+03  0.1260E+03
    -18.633  0.0000E+00  0.0000E+00  0.1260E+03  0.1260E+03
    -18.391  0.0000E+00  0.0000E+00  0.1260E+03  0.1260E+03
    -18.150  0.0000E+00  0.0000E+00  0.1260E+03  0.1260E+03
    -17.909  0.0000E+00  0.0000E+00  0.1260E+03  0.1260E+03
    -17.667  0.0000E+00  0.0000E+00  0.1260E+03  0.1260E+03
    -17.426  0.0000E+00  0.0000E+00  0.1260E+03  0.1260E+03
    -17.185  0.0000E+00  0.0000E+00  0.1260E+03  0.1260E+03
    -16.943  0.0000E+00  0.0000E+00  0.1260E+03  0.1260E+03
    -16.702  0.0000E+00  0.0000E+00  0.1260E+03  0.1260E+03
    -16.461  0.0000E+00  0.0000E+00  0.1260E+03  0.1260E+03
    -16.219  0.0000E+00  0.0000E+00  0.1260E+03  0.1260E+03
    -15.978  0.0000E+00  0.0000E+00  0.1260E+03  0.1260E+03
    -15.737  0.0000E+00  0.0000E+00  0.1260E+03  0.1260E+03
    -15.495  0.0000E+00  0.0000E+00  0.1260E+03  0.1260E+03
    -15.254  0.0000E+00  0.0000E+00  0.1260E+03  0.1260E+03
    -15.013  0.0000E+00  0.0000E+00  0.1260E+03  0.1260E+03
    -14.771  0.0000E+00  0.0000E+00  0.1260E+03  0.1260E+03
    -14.530  0.0000E+00  0.0000E+00  0.1260E+03  0.1260E+03
    -14.289  0.0000E+00  0.0000E+00  0.1260E+03  0.1260E+03
    -14.047  0.0000E+00  0.0000E+00  0.1260E+03  0.1260E+03
    -13.806  0.0000E+00  0.0000E+00  0.1260E+03  0.1260E+03
    -13.565  0.0000E+00  0.0000E+00  0.1260E+03  0.1260E+03
    -13.323  0.4617E-01  0.0000E+00  0.1260E+03  0.1260E+03
    -13.082  0.4144E+02  0.2089E-11  0.1360E+03  0.1260E+03
    -12.841  0.3309E+02  0.4590E+01  0.1440E+03  0.1271E+03
    -12.599  0.1859E-02  0.6685E+02  0.1440E+03  0.1432E+03
    -12.358  0.0000E+00  0.3144E+01  0.1440E+03  0.1440E+03
    -12.117  0.0000E+00  0.0000E+00  0.1440E+03  0.1440E+03
    -11.875  0.0000E+00  0.0000E+00  0.1440E+03  0.1440E+03
    -11.634  0.0000E+00  0.0000E+00  0.1440E+03  0.1440E+03
    -11.393  0.0000E+00  0.0000E+00  0.1440E+03  0.1440E+03
    -11.151  0.0000E+00  0.0000E+00  0.1440E+03  0.1440E+03
    -10.910  0.0000E+00  0.0000E+00  0.1440E+03  0.1440E+03
    -10.669  0.0000E+00  0.0000E+00  0.1440E+03  0.1440E+03
    -10.427  0.0000E+00  0.0000E+00  0.1440E+03  0.1440E+03
    -10.186  0.0000E+00  0.0000E+00  0.1440E+03  0.1440E+03
     -9.945  0.0000E+00  0.0000E+00  0.1440E+03  0.1440E+03
     -9.703  0.0000E+00  0.0000E+00  0.1440E+03  0.1440E+03
     -9.462  0.0000E+00  0.0000E+00  0.1440E+03  0.1440E+03
     -9.221  0.0000E+00  0.0000E+00  0.1440E+03  0.1440E+03
     -8.979  0.0000E+00  0.0000E+00  0.1440E+03  0.1440E+03
     -8.738  0.0000E+00  0.0000E+00  0.1440E+03  0.1440E+03
     -8.496  0.0000E+00  0.0000E+00  0.1440E+03  0.1440E+03
     -8.255  0.0000E+00  0.0000E+00  0.1440E+03  0.1440E+03
     -8.014  0.0000E+00  0.0000E+00  0.1440E+03  0.1440E+03
     -7.772  0.6742E-06  0.0000E+00  0.1440E+03  0.1440E+03
     -7.531  0.2503E+01  0.1622E-06  0.1446E+03  0.1440E+03
     -7.290  0.2562E+02  0.2463E+01  0.1508E+03  0.1446E+03
     -7.048  0.2793E+02  0.2750E+02  0.1575E+03  0.1512E+03
     -6.807  0.4569E+02  0.2606E+02  0.1686E+03  0.1575E+03
     -6.566  0.1012E+02  0.3586E+02  0.1710E+03  0.1662E+03
     -6.324  0.0000E+00  0.1999E+02  0.1710E+03  0.1710E+03
     -6.083  0.0000E+00  0.4985E-03  0.1710E+03  0.1710E+03
     -5.842  0.0000E+00  0.0000E+00  0.1710E+03  0.1710E+03
     -5.600  0.0000E+00  0.0000E+00  0.1710E+03  0.1710E+03
     -5.359  0.0000E+00  0.0000E+00  0.1710E+03  0.1710E+03
     -5.118  0.0000E+00  0.0000E+00  0.1710E+03  0.1710E+03
     -4.876  0.0000E+00  0.0000E+00  0.1710E+03  0.1710E+03
     -4.635  0.0000E+00  0.0000E+00  0.1710E+03  0.1710E+03
     -4.394  0.0000E+00  0.0000E+00  0.1710E+03  0.1710E+03
     -4.152  0.0000E+00  0.0000E+00  0.1710E+03  0.1710E+03
     -3.911  0.0000E+00  0.0000E+00  0.1710E+03  0.1710E+03
     -3.670  0.0000E+00  0.0000E+00  0.1710E+03  0.1710E+03
     -3.428  0.0000E+00  0.0000E+00  0.1710E+03  0.1710E+03
     -3.187  0.0000E+00  0.0000E+00  0.1710E+03  0.1710E+03
     -2.946  0.0000E+00  0.0000E+00  0.1710E+03  0.1710E+03
     -2.704  0.0000E+00  0.0000E+00  0.1710E+03  0.1710E+03
     -2.463  0.0000E+00  0.0000E+00  0.1710E+03  0.1710E+03
     -2.222  0.1295E-13  0.0000E+00  0.1710E+03  0.1710E+03
     -1.980  0.1337E+01  0.0000E+00  0.1713E+03  0.1710E+03
     -1.739  0.3057E+02  0.0000E+00  0.1787E+03  0.1710E+03
     -1.498  0.1724E+02  0.0000E+00  0.1829E+03  0.1710E+03
     -1.256  0.1655E+02  0.0000E+00  0.1869E+03  0.1710E+03
     -1.015  0.2811E+02  0.0000E+00  0.1936E+03  0.1710E+03
     -0.774  0.5978E+02  0.1022E-15  0.2081E+03  0.1710E+03
     -0.532  0.6137E+02  0.7665E-01  0.2229E+03  0.1710E+03
     -0.291  0.4965E+02  0.1754E+02  0.2349E+03  0.1753E+03
     -0.050  0.7933E+02  0.1627E+02  0.2540E+03  0.1792E+03
      0.192  0.9509E+02  0.1599E+02  0.2770E+03  0.1830E+03
      0.433  0.7632E+02  0.2423E+02  0.2954E+03  0.1889E+03
      0.674  0.7684E+02  0.4017E+02  0.3139E+03  0.1986E+03
      0.916  0.4912E+02  0.4527E+02  0.3258E+03  0.2095E+03
      1.157  0.3450E+02  0.3888E+02  0.3341E+03  0.2189E+03
      1.398  0.4423E+02  0.2881E+02  0.3448E+03  0.2258E+03
      1.640  0.4614E+02  0.2831E+02  0.3559E+03  0.2327E+03
      1.881  0.6683E+02  0.3408E+02  0.3720E+03  0.2409E+03
      2.122  0.7985E+02  0.3928E+02  0.3913E+03  0.2504E+03
      2.364  0.4102E+02  0.2505E+02  0.4012E+03  0.2564E+03
      2.605  0.3765E+02  0.3045E+02  0.4103E+03  0.2638E+03
      2.846  0.5038E+02  0.4499E+02  0.4225E+03  0.2746E+03
      3.088  0.1202E+02  0.5031E+02  0.4254E+03  0.2868E+03
      3.329  0.1635E+02  0.4301E+02  0.4293E+03  0.2972E+03
      3.570  0.3806E+02  0.3056E+02  0.4385E+03  0.3045E+03
      3.812  0.2745E+02  0.7448E+01  0.4451E+03  0.3063E+03
      4.053  0.4127E+02  0.3947E+02  0.4551E+03  0.3159E+03
      4.294  0.3775E+02  0.7590E+02  0.4642E+03  0.3342E+03
      4.536  0.3892E+02  0.2933E+02  0.4736E+03  0.3412E+03
      4.777  0.3165E+02  0.3112E+01  0.4812E+03  0.3420E+03
      5.018  0.1929E+02  0.0000E+00  0.4859E+03  0.3420E+03
      5.260  0.5135E+00  0.0000E+00  0.4860E+03  0.3420E+03
      5.501  0.0000E+00  0.0000E+00  0.4860E+03  0.3420E+03
      5.742  0.0000E+00  0.0000E+00  0.4860E+03  0.3420E+03
      5.984  0.0000E+00  0.0000E+00  0.4860E+03  0.3420E+03
      6.225  0.0000E+00  0.9214E-04  0.4860E+03  0.3420E+03
      6.466  0.0000E+00  0.2246E+01  0.4860E+03  0.3425E+03
      6.708  0.0000E+00  0.5315E+01  0.4860E+03  0.3438E+03
      6.949  0.0000E+00  0.1515E+02  0.4860E+03  0.3475E+03
      7.190  0.6632E-07  0.3188E+02  0.4860E+03  0.3552E+03
      7.432  0.1491E+00  0.5822E+02  0.4860E+03  0.3692E+03
      7.673  0.5824E-02  0.6828E+02  0.4860E+03  0.3857E+03
      7.915  0.6815E+00  0.6567E+02  0.4862E+03  0.4016E+03
      8.156  0.1417E+01  0.7510E+02  0.4865E+03  0.4197E+03
      8.397  0.2918E+01  0.8279E+02  0.4872E+03  0.4397E+03
      8.639  0.5643E+01  0.6523E+02  0.4886E+03  0.4554E+03
      8.880  0.1152E+02  0.6080E+02  0.4914E+03  0.4701E+03
      9.121  0.1483E+02  0.4211E+02  0.4950E+03  0.4802E+03
      9.363  0.2023E+02  0.2196E+02  0.4998E+03  0.4855E+03
      9.604  0.1558E+02  0.5155E+01  0.5036E+03  0.4868E+03
      9.845  0.1868E+02  0.8258E+01  0.5081E+03  0.4888E+03
     10.087  0.2429E+02  0.1155E+02  0.5140E+03  0.4916E+03
     10.328  0.1878E+02  0.2269E+02  0.5185E+03  0.4970E+03
     10.569  0.1920E+02  0.2134E+02  0.5231E+03  0.5022E+03
     10.811  0.1212E+02  0.2231E+02  0.5261E+03  0.5076E+03
     11.052  0.1954E+02  0.2988E+02  0.5308E+03  0.5148E+03
     11.293  0.2512E+02  0.2316E+02  0.5369E+03  0.5204E+03
     11.535  0.3217E+02  0.2129E+02  0.5446E+03  0.5255E+03
     11.776  0.2743E+02  0.1405E+02  0.5512E+03  0.5289E+03
     12.017  0.3392E+02  0.1246E+02  0.5594E+03  0.5319E+03
     12.259  0.3149E+02  0.3327E+02  0.5670E+03  0.5399E+03
     12.500  0.2291E+02  0.4559E+02  0.5725E+03  0.5509E+03
     12.741  0.2164E+02  0.3625E+02  0.5778E+03  0.5597E+03
     12.983  0.2368E+02  0.2413E+02  0.5835E+03  0.5655E+03
     13.224  0.2835E+02  0.2044E+02  0.5903E+03  0.5704E+03
     13.465  0.2750E+02  0.3004E+02  0.5970E+03  0.5777E+03
     13.707  0.2174E+02  0.3007E+02  0.6022E+03  0.5850E+03
     13.948  0.1442E+02  0.2737E+02  0.6057E+03  0.5916E+03
     14.189  0.1283E+01  0.2371E+02  0.6060E+03  0.5973E+03
     14.431  0.0000E+00  0.2227E+02  0.6060E+03  0.6027E+03
     14.672  0.0000E+00  0.1316E+02  0.6060E+03  0.6058E+03
     14.913  0.0000E+00  0.6991E+00  0.6060E+03  0.6060E+03
     15.155  0.0000E+00  0.2148E-05  0.6060E+03  0.6060E+03
     15.396  0.0000E+00  0.0000E+00  0.6060E+03  0.6060E+03
     15.637  0.0000E+00  0.0000E+00  0.6060E+03  0.6060E+03
     15.879  0.0000E+00  0.0000E+00  0.6060E+03  0.6060E+03
     16.120  0.0000E+00  0.0000E+00  0.6060E+03  0.6060E+03
     16.361  0.0000E+00  0.0000E+00  0.6060E+03  0.6060E+03
     16.603  0.0000E+00  0.0000E+00  0.6060E+03  0.6060E+03
     16.844  0.0000E+00  0.0000E+00  0.6060E+03  0.6060E+03
     17.085  0.0000E+00  0.0000E+00  0.6060E+03  0.6060E+03
     17.327  0.0000E+00  0.0000E+00  0.6060E+03  0.6060E+03
     17.568  0.0000E+00  0.0000E+00  0.6060E+03  0.6060E+03
     17.809  0.0000E+00  0.0000E+00  0.6060E+03  0.6060E+03
     18.051  0.0000E+00  0.0000E+00  0.6060E+03  0.6060E+03
