 160 160   0   0
  0.1218736E+02  0.1542482E-08  0.1121024E-08  0.1127703E-08  0.5000000E-15
  1.000000000000000E-004
  CAR 
 unknown system                          
     16.85616504    -54.74372989  301      4.95268251      1.00000000
    -54.744  0.0000E+00  0.0000E+00  0.0000E+00  0.0000E+00
    -54.505  0.0000E+00  0.0000E+00  0.0000E+00  0.0000E+00
    -54.266  0.0000E+00  0.0000E+00  0.0000E+00  0.0000E+00
    -54.028  0.0000E+00  0.0000E+00  0.0000E+00  0.0000E+00
    -53.789  0.0000E+00  0.0000E+00  0.0000E+00  0.0000E+00
    -53.550  0.0000E+00  0.0000E+00  0.0000E+00  0.0000E+00
    -53.312  0.0000E+00  0.0000E+00  0.0000E+00  0.0000E+00
    -53.073  0.0000E+00  0.0000E+00  0.0000E+00  0.0000E+00
    -52.834  0.0000E+00  0.0000E+00  0.0000E+00  0.0000E+00
    -52.596  0.0000E+00  0.0000E+00  0.0000E+00  0.0000E+00
    -52.357  0.0000E+00  0.0000E+00  0.0000E+00  0.0000E+00
    -52.118  0.0000E+00  0.0000E+00  0.0000E+00  0.0000E+00
    -51.880  0.0000E+00  0.0000E+00  0.0000E+00  0.0000E+00
    -51.641  0.7861E-03  0.0000E+00  0.1876E-03  0.0000E+00
    -51.402  0.1329E+03  0.0000E+00  0.3171E+02  0.0000E+00
    -51.164  0.1209E+01  0.0000E+00  0.3200E+02  0.0000E+00
    -50.925  0.0000E+00  0.0000E+00  0.3200E+02  0.0000E+00
    -50.686  0.0000E+00  0.0000E+00  0.3200E+02  0.0000E+00
    -50.448  0.0000E+00  0.0000E+00  0.3200E+02  0.0000E+00
    -50.209  0.8348E-01  0.0000E+00  0.3202E+02  0.0000E+00
    -49.970  0.2660E+03  0.0000E+00  0.9551E+02  0.0000E+00
    -49.732  0.2052E+01  0.0000E+00  0.9600E+02  0.0000E+00
    -49.493  0.0000E+00  0.0000E+00  0.9600E+02  0.0000E+00
    -49.254  0.0000E+00  0.0000E+00  0.9600E+02  0.0000E+00
    -49.016  0.0000E+00  0.0000E+00  0.9600E+02  0.0000E+00
    -48.777  0.0000E+00  0.0000E+00  0.9600E+02  0.0000E+00
    -48.538  0.0000E+00  0.0000E+00  0.9600E+02  0.0000E+00
    -48.300  0.0000E+00  0.0000E+00  0.9600E+02  0.0000E+00
    -48.061  0.0000E+00  0.0000E+00  0.9600E+02  0.0000E+00
    -47.822  0.0000E+00  0.0000E+00  0.9600E+02  0.0000E+00
    -47.584  0.0000E+00  0.0000E+00  0.9600E+02  0.0000E+00
    -47.345  0.0000E+00  0.0000E+00  0.9600E+02  0.0000E+00
    -47.106  0.0000E+00  0.0000E+00  0.9600E+02  0.0000E+00
    -46.868  0.0000E+00  0.2536E-01  0.9600E+02  0.6053E-02
    -46.629  0.0000E+00  0.1340E+03  0.9600E+02  0.3198E+02
    -46.390  0.0000E+00  0.5717E+02  0.9600E+02  0.4562E+02
    -46.152  0.0000E+00  0.2111E+03  0.9600E+02  0.9600E+02
    -45.913  0.0000E+00  0.0000E+00  0.9600E+02  0.9600E+02
    -45.674  0.0000E+00  0.0000E+00  0.9600E+02  0.9600E+02
    -45.436  0.0000E+00  0.0000E+00  0.9600E+02  0.9600E+02
    -45.197  0.0000E+00  0.0000E+00  0.9600E+02  0.9600E+02
    -44.958  0.0000E+00  0.0000E+00  0.9600E+02  0.9600E+02
    -44.720  0.0000E+00  0.0000E+00  0.9600E+02  0.9600E+02
    -44.481  0.0000E+00  0.0000E+00  0.9600E+02  0.9600E+02
    -44.242  0.0000E+00  0.0000E+00  0.9600E+02  0.9600E+02
    -44.004  0.0000E+00  0.0000E+00  0.9600E+02  0.9600E+02
    -43.765  0.0000E+00  0.0000E+00  0.9600E+02  0.9600E+02
    -43.526  0.0000E+00  0.0000E+00  0.9600E+02  0.9600E+02
    -43.288  0.0000E+00  0.0000E+00  0.9600E+02  0.9600E+02
    -43.049  0.0000E+00  0.0000E+00  0.9600E+02  0.9600E+02
    -42.810  0.0000E+00  0.0000E+00  0.9600E+02  0.9600E+02
    -42.572  0.0000E+00  0.0000E+00  0.9600E+02  0.9600E+02
    -42.333  0.0000E+00  0.0000E+00  0.9600E+02  0.9600E+02
    -42.094  0.0000E+00  0.0000E+00  0.9600E+02  0.9600E+02
    -41.856  0.0000E+00  0.0000E+00  0.9600E+02  0.9600E+02
    -41.617  0.0000E+00  0.0000E+00  0.9600E+02  0.9600E+02
    -41.378  0.0000E+00  0.0000E+00  0.9600E+02  0.9600E+02
    -41.140  0.0000E+00  0.0000E+00  0.9600E+02  0.9600E+02
    -40.901  0.0000E+00  0.0000E+00  0.9600E+02  0.9600E+02
    -40.662  0.0000E+00  0.0000E+00  0.9600E+02  0.9600E+02
    -40.424  0.8529E+00  0.7545E+00  0.9620E+02  0.9618E+02
    -40.185  0.2464E+03  0.2478E+03  0.1550E+03  0.1553E+03
    -39.946  0.2094E+02  0.1956E+02  0.1600E+03  0.1600E+03
    -39.708  0.0000E+00  0.0000E+00  0.1600E+03  0.1600E+03
    -39.469  0.0000E+00  0.0000E+00  0.1600E+03  0.1600E+03
    -39.230  0.0000E+00  0.0000E+00  0.1600E+03  0.1600E+03
    -38.992  0.0000E+00  0.0000E+00  0.1600E+03  0.1600E+03
    -38.753  0.0000E+00  0.0000E+00  0.1600E+03  0.1600E+03
    -38.514  0.0000E+00  0.0000E+00  0.1600E+03  0.1600E+03
    -38.276  0.0000E+00  0.0000E+00  0.1600E+03  0.1600E+03
    -38.037  0.0000E+00  0.0000E+00  0.1600E+03  0.1600E+03
    -37.798  0.0000E+00  0.0000E+00  0.1600E+03  0.1600E+03
    -37.560  0.0000E+00  0.0000E+00  0.1600E+03  0.1600E+03
    -37.321  0.0000E+00  0.0000E+00  0.1600E+03  0.1600E+03
    -37.082  0.0000E+00  0.0000E+00  0.1600E+03  0.1600E+03
    -36.844  0.0000E+00  0.0000E+00  0.1600E+03  0.1600E+03
    -36.605  0.0000E+00  0.0000E+00  0.1600E+03  0.1600E+03
    -36.366  0.0000E+00  0.0000E+00  0.1600E+03  0.1600E+03
    -36.128  0.0000E+00  0.0000E+00  0.1600E+03  0.1600E+03
    -35.889  0.0000E+00  0.0000E+00  0.1600E+03  0.1600E+03
    -35.650  0.0000E+00  0.0000E+00  0.1600E+03  0.1600E+03
    -35.412  0.0000E+00  0.0000E+00  0.1600E+03  0.1600E+03
    -35.173  0.0000E+00  0.0000E+00  0.1600E+03  0.1600E+03
    -34.934  0.0000E+00  0.0000E+00  0.1600E+03  0.1600E+03
    -34.696  0.0000E+00  0.0000E+00  0.1600E+03  0.1600E+03
    -34.457  0.0000E+00  0.0000E+00  0.1600E+03  0.1600E+03
    -34.218  0.0000E+00  0.0000E+00  0.1600E+03  0.1600E+03
    -33.980  0.0000E+00  0.0000E+00  0.1600E+03  0.1600E+03
    -33.741  0.0000E+00  0.0000E+00  0.1600E+03  0.1600E+03
    -33.502  0.0000E+00  0.0000E+00  0.1600E+03  0.1600E+03
    -33.264  0.0000E+00  0.0000E+00  0.1600E+03  0.1600E+03
    -33.025  0.0000E+00  0.0000E+00  0.1600E+03  0.1600E+03
    -32.786  0.0000E+00  0.0000E+00  0.1600E+03  0.1600E+03
    -32.548  0.0000E+00  0.0000E+00  0.1600E+03  0.1600E+03
    -32.309  0.0000E+00  0.0000E+00  0.1600E+03  0.1600E+03
    -32.070  0.0000E+00  0.0000E+00  0.1600E+03  0.1600E+03
    -31.832  0.0000E+00  0.0000E+00  0.1600E+03  0.1600E+03
    -31.593  0.0000E+00  0.0000E+00  0.1600E+03  0.1600E+03
    -31.354  0.0000E+00  0.0000E+00  0.1600E+03  0.1600E+03
    -31.116  0.0000E+00  0.0000E+00  0.1600E+03  0.1600E+03
    -30.877  0.0000E+00  0.0000E+00  0.1600E+03  0.1600E+03
    -30.638  0.0000E+00  0.0000E+00  0.1600E+03  0.1600E+03
    -30.400  0.0000E+00  0.0000E+00  0.1600E+03  0.1600E+03
    -30.161  0.0000E+00  0.0000E+00  0.1600E+03  0.1600E+03
    -29.922  0.0000E+00  0.0000E+00  0.1600E+03  0.1600E+03
    -29.684  0.0000E+00  0.0000E+00  0.1600E+03  0.1600E+03
    -29.445  0.0000E+00  0.0000E+00  0.1600E+03  0.1600E+03
    -29.206  0.0000E+00  0.0000E+00  0.1600E+03  0.1600E+03
    -28.968  0.0000E+00  0.0000E+00  0.1600E+03  0.1600E+03
    -28.729  0.0000E+00  0.0000E+00  0.1600E+03  0.1600E+03
    -28.490  0.0000E+00  0.0000E+00  0.1600E+03  0.1600E+03
    -28.252  0.0000E+00  0.0000E+00  0.1600E+03  0.1600E+03
    -28.013  0.0000E+00  0.0000E+00  0.1600E+03  0.1600E+03
    -27.774  0.0000E+00  0.0000E+00  0.1600E+03  0.1600E+03
    -27.536  0.0000E+00  0.0000E+00  0.1600E+03  0.1600E+03
    -27.297  0.0000E+00  0.0000E+00  0.1600E+03  0.1600E+03
    -27.058  0.0000E+00  0.0000E+00  0.1600E+03  0.1600E+03
    -26.820  0.0000E+00  0.0000E+00  0.1600E+03  0.1600E+03
    -26.581  0.0000E+00  0.0000E+00  0.1600E+03  0.1600E+03
    -26.342  0.0000E+00  0.0000E+00  0.1600E+03  0.1600E+03
    -26.104  0.0000E+00  0.0000E+00  0.1600E+03  0.1600E+03
    -25.865  0.0000E+00  0.0000E+00  0.1600E+03  0.1600E+03
    -25.626  0.0000E+00  0.0000E+00  0.1600E+03  0.1600E+03
    -25.388  0.0000E+00  0.0000E+00  0.1600E+03  0.1600E+03
    -25.149  0.0000E+00  0.0000E+00  0.1600E+03  0.1600E+03
    -24.910  0.0000E+00  0.0000E+00  0.1600E+03  0.1600E+03
    -24.672  0.0000E+00  0.0000E+00  0.1600E+03  0.1600E+03
    -24.433  0.0000E+00  0.0000E+00  0.1600E+03  0.1600E+03
    -24.194  0.0000E+00  0.0000E+00  0.1600E+03  0.1600E+03
    -23.956  0.0000E+00  0.0000E+00  0.1600E+03  0.1600E+03
    -23.717  0.0000E+00  0.0000E+00  0.1600E+03  0.1600E+03
    -23.478  0.0000E+00  0.0000E+00  0.1600E+03  0.1600E+03
    -23.240  0.0000E+00  0.0000E+00  0.1600E+03  0.1600E+03
    -23.001  0.0000E+00  0.0000E+00  0.1600E+03  0.1600E+03
    -22.762  0.0000E+00  0.0000E+00  0.1600E+03  0.1600E+03
    -22.524  0.0000E+00  0.0000E+00  0.1600E+03  0.1600E+03
    -22.285  0.0000E+00  0.0000E+00  0.1600E+03  0.1600E+03
    -22.046  0.0000E+00  0.0000E+00  0.1600E+03  0.1600E+03
    -21.808  0.0000E+00  0.0000E+00  0.1600E+03  0.1600E+03
    -21.569  0.0000E+00  0.0000E+00  0.1600E+03  0.1600E+03
    -21.330  0.0000E+00  0.0000E+00  0.1600E+03  0.1600E+03
    -21.092  0.0000E+00  0.0000E+00  0.1600E+03  0.1600E+03
    -20.853  0.0000E+00  0.0000E+00  0.1600E+03  0.1600E+03
    -20.614  0.0000E+00  0.0000E+00  0.1600E+03  0.1600E+03
    -20.376  0.0000E+00  0.0000E+00  0.1600E+03  0.1600E+03
    -20.137  0.0000E+00  0.0000E+00  0.1600E+03  0.1600E+03
    -19.898  0.0000E+00  0.0000E+00  0.1600E+03  0.1600E+03
    -19.660  0.0000E+00  0.0000E+00  0.1600E+03  0.1600E+03
    -19.421  0.0000E+00  0.0000E+00  0.1600E+03  0.1600E+03
    -19.182  0.0000E+00  0.0000E+00  0.1600E+03  0.1600E+03
    -18.944  0.0000E+00  0.0000E+00  0.1600E+03  0.1600E+03
    -18.705  0.0000E+00  0.0000E+00  0.1600E+03  0.1600E+03
    -18.466  0.0000E+00  0.0000E+00  0.1600E+03  0.1600E+03
    -18.228  0.0000E+00  0.0000E+00  0.1600E+03  0.1600E+03
    -17.989  0.0000E+00  0.0000E+00  0.1600E+03  0.1600E+03
    -17.750  0.0000E+00  0.0000E+00  0.1600E+03  0.1600E+03
    -17.512  0.0000E+00  0.0000E+00  0.1600E+03  0.1600E+03
    -17.273  0.0000E+00  0.0000E+00  0.1600E+03  0.1600E+03
    -17.034  0.0000E+00  0.0000E+00  0.1600E+03  0.1600E+03
    -16.796  0.0000E+00  0.0000E+00  0.1600E+03  0.1600E+03
    -16.557  0.0000E+00  0.0000E+00  0.1600E+03  0.1600E+03
    -16.318  0.0000E+00  0.0000E+00  0.1600E+03  0.1600E+03
    -16.080  0.0000E+00  0.0000E+00  0.1600E+03  0.1600E+03
    -15.841  0.0000E+00  0.0000E+00  0.1600E+03  0.1600E+03
    -15.602  0.0000E+00  0.0000E+00  0.1600E+03  0.1600E+03
    -15.364  0.0000E+00  0.0000E+00  0.1600E+03  0.1600E+03
    -15.125  0.0000E+00  0.0000E+00  0.1600E+03  0.1600E+03
    -14.886  0.0000E+00  0.0000E+00  0.1600E+03  0.1600E+03
    -14.648  0.0000E+00  0.0000E+00  0.1600E+03  0.1600E+03
    -14.409  0.0000E+00  0.0000E+00  0.1600E+03  0.1600E+03
    -14.170  0.0000E+00  0.0000E+00  0.1600E+03  0.1600E+03
    -13.932  0.0000E+00  0.0000E+00  0.1600E+03  0.1600E+03
    -13.693  0.1883E-05  0.0000E+00  0.1600E+03  0.1600E+03
    -13.454  0.3366E+02  0.7676E-12  0.1680E+03  0.1600E+03
    -13.216  0.7589E+02  0.5061E+01  0.1861E+03  0.1612E+03
    -12.977  0.2453E+02  0.1081E+03  0.1920E+03  0.1870E+03
    -12.738  0.0000E+00  0.2090E+02  0.1920E+03  0.1920E+03
    -12.500  0.0000E+00  0.0000E+00  0.1920E+03  0.1920E+03
    -12.261  0.0000E+00  0.0000E+00  0.1920E+03  0.1920E+03
    -12.022  0.0000E+00  0.0000E+00  0.1920E+03  0.1920E+03
    -11.784  0.0000E+00  0.0000E+00  0.1920E+03  0.1920E+03
    -11.545  0.0000E+00  0.0000E+00  0.1920E+03  0.1920E+03
    -11.306  0.0000E+00  0.0000E+00  0.1920E+03  0.1920E+03
    -11.068  0.0000E+00  0.0000E+00  0.1920E+03  0.1920E+03
    -10.829  0.0000E+00  0.0000E+00  0.1920E+03  0.1920E+03
    -10.590  0.0000E+00  0.0000E+00  0.1920E+03  0.1920E+03
    -10.352  0.0000E+00  0.0000E+00  0.1920E+03  0.1920E+03
    -10.113  0.0000E+00  0.0000E+00  0.1920E+03  0.1920E+03
     -9.874  0.0000E+00  0.0000E+00  0.1920E+03  0.1920E+03
     -9.636  0.0000E+00  0.0000E+00  0.1920E+03  0.1920E+03
     -9.397  0.0000E+00  0.0000E+00  0.1920E+03  0.1920E+03
     -9.158  0.0000E+00  0.0000E+00  0.1920E+03  0.1920E+03
     -8.920  0.0000E+00  0.0000E+00  0.1920E+03  0.1920E+03
     -8.681  0.0000E+00  0.0000E+00  0.1920E+03  0.1920E+03
     -8.442  0.0000E+00  0.0000E+00  0.1920E+03  0.1920E+03
     -8.204  0.0000E+00  0.0000E+00  0.1920E+03  0.1920E+03
     -7.965  0.0000E+00  0.0000E+00  0.1920E+03  0.1920E+03
     -7.726  0.3833E-02  0.6461E-16  0.1920E+03  0.1920E+03
     -7.488  0.2217E+02  0.1035E+00  0.1973E+03  0.1920E+03
     -7.249  0.6234E+02  0.4086E+02  0.2122E+03  0.2018E+03
     -7.010  0.4767E+02  0.6371E+02  0.2235E+03  0.2170E+03
     -6.772  0.1895E+01  0.2846E+02  0.2240E+03  0.2238E+03
     -6.533  0.0000E+00  0.9519E+00  0.2240E+03  0.2240E+03
     -6.294  0.0000E+00  0.0000E+00  0.2240E+03  0.2240E+03
     -6.056  0.0000E+00  0.0000E+00  0.2240E+03  0.2240E+03
     -5.817  0.0000E+00  0.0000E+00  0.2240E+03  0.2240E+03
     -5.578  0.0000E+00  0.0000E+00  0.2240E+03  0.2240E+03
     -5.340  0.0000E+00  0.0000E+00  0.2240E+03  0.2240E+03
     -5.101  0.0000E+00  0.0000E+00  0.2240E+03  0.2240E+03
     -4.862  0.0000E+00  0.0000E+00  0.2240E+03  0.2240E+03
     -4.624  0.0000E+00  0.0000E+00  0.2240E+03  0.2240E+03
     -4.385  0.0000E+00  0.0000E+00  0.2240E+03  0.2240E+03
     -4.146  0.0000E+00  0.0000E+00  0.2240E+03  0.2240E+03
     -3.908  0.0000E+00  0.0000E+00  0.2240E+03  0.2240E+03
     -3.669  0.0000E+00  0.0000E+00  0.2240E+03  0.2240E+03
     -3.430  0.0000E+00  0.0000E+00  0.2240E+03  0.2240E+03
     -3.192  0.0000E+00  0.0000E+00  0.2240E+03  0.2240E+03
     -2.953  0.0000E+00  0.0000E+00  0.2240E+03  0.2240E+03
     -2.714  0.2300E-04  0.0000E+00  0.2240E+03  0.2240E+03
     -2.476  0.1488E+02  0.0000E+00  0.2276E+03  0.2240E+03
     -2.237  0.1868E+02  0.0000E+00  0.2320E+03  0.2240E+03
     -1.998  0.2230E+02  0.0000E+00  0.2373E+03  0.2240E+03
     -1.760  0.1167E+00  0.0000E+00  0.2374E+03  0.2240E+03
     -1.521  0.2223E+02  0.0000E+00  0.2427E+03  0.2240E+03
     -1.282  0.2889E+02  0.7882E-15  0.2496E+03  0.2240E+03
     -1.044  0.7808E+02  0.7807E-01  0.2682E+03  0.2240E+03
     -0.805  0.7175E+02  0.2095E+02  0.2853E+03  0.2290E+03
     -0.566  0.7030E+02  0.2810E+02  0.3021E+03  0.2357E+03
     -0.328  0.9453E+02  0.1575E+02  0.3247E+03  0.2395E+03
     -0.089  0.1035E+03  0.1437E+02  0.3494E+03  0.2429E+03
      0.150  0.5488E+02  0.2619E+02  0.3625E+03  0.2492E+03
      0.388  0.4752E+02  0.5122E+02  0.3738E+03  0.2614E+03
      0.627  0.5240E+02  0.7870E+02  0.3863E+03  0.2802E+03
      0.866  0.4336E+02  0.7160E+02  0.3967E+03  0.2973E+03
      1.104  0.6255E+02  0.7674E+02  0.4116E+03  0.3156E+03
      1.343  0.8319E+02  0.2967E+02  0.4314E+03  0.3227E+03
      1.582  0.8100E+02  0.3738E+02  0.4508E+03  0.3316E+03
      1.820  0.4232E+02  0.4965E+02  0.4609E+03  0.3434E+03
      2.059  0.3958E+02  0.4372E+02  0.4703E+03  0.3539E+03
      2.298  0.4860E+02  0.2829E+02  0.4819E+03  0.3606E+03
      2.536  0.4285E+02  0.5082E+02  0.4921E+03  0.3727E+03
      2.775  0.5581E+02  0.6802E+02  0.5055E+03  0.3890E+03
      3.014  0.5567E+02  0.8225E+02  0.5188E+03  0.4086E+03
      3.252  0.5437E+02  0.2921E+02  0.5317E+03  0.4156E+03
      3.491  0.4630E+02  0.2196E+02  0.5428E+03  0.4208E+03
      3.730  0.5596E+02  0.4743E+02  0.5561E+03  0.4321E+03
      3.968  0.3777E+02  0.5560E+02  0.5651E+03  0.4454E+03
      4.207  0.2716E+02  0.1087E+02  0.5716E+03  0.4480E+03
      4.446  0.1619E+02  0.5673E-03  0.5755E+03  0.4480E+03
      4.684  0.2114E+01  0.0000E+00  0.5760E+03  0.4480E+03
      4.923  0.1427E-03  0.0000E+00  0.5760E+03  0.4480E+03
      5.162  0.0000E+00  0.0000E+00  0.5760E+03  0.4480E+03
      5.400  0.0000E+00  0.0000E+00  0.5760E+03  0.4480E+03
      5.639  0.0000E+00  0.0000E+00  0.5760E+03  0.4480E+03
      5.878  0.0000E+00  0.0000E+00  0.5760E+03  0.4480E+03
      6.116  0.0000E+00  0.0000E+00  0.5760E+03  0.4480E+03
      6.355  0.0000E+00  0.5114E-11  0.5760E+03  0.4480E+03
      6.594  0.0000E+00  0.1323E+01  0.5760E+03  0.4483E+03
      6.832  0.4006E-15  0.5330E+02  0.5760E+03  0.4610E+03
      7.071  0.3035E-01  0.7697E+02  0.5760E+03  0.4794E+03
      7.310  0.2024E+00  0.5800E+02  0.5761E+03  0.4933E+03
      7.548  0.9629E+00  0.6869E+02  0.5763E+03  0.5096E+03
      7.787  0.1454E+01  0.6345E+02  0.5766E+03  0.5248E+03
      8.026  0.3075E+01  0.9773E+02  0.5774E+03  0.5481E+03
      8.264  0.8363E+01  0.7025E+02  0.5794E+03  0.5649E+03
      8.503  0.1100E+02  0.3544E+02  0.5820E+03  0.5733E+03
      8.742  0.2229E+02  0.1319E+02  0.5873E+03  0.5765E+03
      8.980  0.2763E+02  0.8414E+01  0.5939E+03  0.5785E+03
      9.219  0.2844E+02  0.1153E+02  0.6007E+03  0.5812E+03
      9.458  0.3224E+02  0.2054E+02  0.6084E+03  0.5861E+03
      9.696  0.2939E+02  0.2558E+02  0.6154E+03  0.5922E+03
      9.935  0.2078E+02  0.4167E+02  0.6204E+03  0.6022E+03
     10.174  0.2176E+02  0.3276E+02  0.6256E+03  0.6100E+03
     10.412  0.2578E+02  0.3382E+02  0.6317E+03  0.6181E+03
     10.651  0.4022E+02  0.3280E+02  0.6413E+03  0.6259E+03
     10.890  0.3986E+02  0.2349E+02  0.6508E+03  0.6315E+03
     11.128  0.4459E+02  0.3400E+02  0.6615E+03  0.6396E+03
     11.367  0.4034E+02  0.2317E+02  0.6711E+03  0.6452E+03
     11.606  0.3869E+02  0.3576E+02  0.6803E+03  0.6537E+03
     11.844  0.4762E+02  0.5238E+02  0.6917E+03  0.6662E+03
     12.083  0.3020E+02  0.5802E+02  0.6989E+03  0.6800E+03
     12.322  0.2902E+02  0.4588E+02  0.7058E+03  0.6910E+03
     12.560  0.3356E+02  0.3108E+02  0.7138E+03  0.6984E+03
     12.799  0.4118E+02  0.3253E+02  0.7237E+03  0.7062E+03
     13.038  0.1974E+02  0.3529E+02  0.7284E+03  0.7146E+03
     13.276  0.1501E+02  0.3661E+02  0.7319E+03  0.7233E+03
     13.515  0.2179E+00  0.2891E+02  0.7320E+03  0.7302E+03
     13.754  0.0000E+00  0.7374E+01  0.7320E+03  0.7320E+03
     13.992  0.0000E+00  0.4052E-05  0.7320E+03  0.7320E+03
     14.231  0.0000E+00  0.0000E+00  0.7320E+03  0.7320E+03
     14.470  0.0000E+00  0.0000E+00  0.7320E+03  0.7320E+03
     14.708  0.0000E+00  0.0000E+00  0.7320E+03  0.7320E+03
     14.947  0.0000E+00  0.0000E+00  0.7320E+03  0.7320E+03
     15.186  0.0000E+00  0.0000E+00  0.7320E+03  0.7320E+03
     15.424  0.0000E+00  0.0000E+00  0.7320E+03  0.7320E+03
     15.663  0.0000E+00  0.0000E+00  0.7320E+03  0.7320E+03
     15.901  0.0000E+00  0.0000E+00  0.7320E+03  0.7320E+03
     16.140  0.0000E+00  0.0000E+00  0.7320E+03  0.7320E+03
     16.379  0.0000E+00  0.0000E+00  0.7320E+03  0.7320E+03
     16.617  0.0000E+00  0.0000E+00  0.7320E+03  0.7320E+03
     16.856  0.0000E+00  0.0000E+00  0.7320E+03  0.7320E+03
