<?xml version="1.0" encoding="ISO-8859-1"?>
<modeling>
 <generator>
  <i name="program" type="string">vasp </i>
  <i name="version" type="string">5.4.4.18Apr17-6-g9f103f2a35  </i>
  <i name="subversion" type="string">(build Oct 25 2017 14:42:18) complex            parallel </i>
  <i name="platform" type="string">LinuxIFC </i>
  <i name="date" type="string">2021 06 15 </i>
  <i name="time" type="string">08:27:55 </i>
 </generator>
 <incar>
  <i type="string" name="PREC">accurate</i>
  <i type="string" name="ALGO"> normal</i>
  <i type="logical" name="ADDGRID"> T  </i>
  <i type="int" name="ISPIN">     2</i>
  <i type="int" name="ICHARG">     1</i>
  <i type="int" name="NELM">   200</i>
  <i type="int" name="NELMIN">     8</i>
  <i name="EDIFF">      0.00000100</i>
  <i type="int" name="ISYM">     2</i>
  <i name="ENCUT">    650.00000000</i>
  <v name="MAGMOM">      0.60000000      0.60000000      0.60000000      0.60000000      0.60000000      0.60000000      0.60000000      0.60000000      0.60000000      0.60000000      0.60000000      0.60000000      0.60000000      0.60000000      0.60000000      0.60000000      0.60000000      0.60000000      0.60000000      0.60000000
      0.60000000      0.60000000      0.60000000      0.60000000      0.60000000      0.60000000      0.60000000      0.60000000      0.60000000      0.60000000      0.60000000      0.60000000      0.60000000      0.60000000      0.60000000      0.60000000      0.60000000      0.60000000      0.60000000      0.60000000
      0.60000000      0.60000000      0.60000000      0.60000000      0.60000000      0.60000000      0.60000000      0.60000000      0.60000000      0.60000000      0.60000000      0.60000000      0.60000000      0.60000000      0.60000000      0.60000000      0.60000000      0.60000000      0.60000000      0.60000000
      0.60000000      0.60000000      0.60000000      0.60000000      5.00000000      5.00000000      5.00000000      5.00000000      5.00000000      5.00000000      5.00000000      5.00000000      5.00000000      5.00000000      5.00000000      5.00000000      5.00000000      5.00000000      5.00000000      5.00000000
      5.00000000      5.00000000      5.00000000      5.00000000      5.00000000      5.00000000      5.00000000      5.00000000      5.00000000      5.00000000      5.00000000      5.00000000      5.00000000      5.00000000      5.00000000      5.00000000      0.60000000      0.60000000      0.60000000      0.60000000
      0.60000000      0.60000000      0.60000000      0.60000000      0.60000000      0.60000000      0.60000000      0.60000000      0.60000000      0.60000000      0.60000000      0.60000000      0.60000000      0.60000000      0.60000000      0.60000000      0.60000000      0.60000000      0.60000000      0.60000000
      0.60000000      0.60000000      0.60000000      0.60000000      0.60000000      0.60000000      0.60000000      0.60000000      0.60000000      0.60000000      0.60000000      0.60000000      0.60000000      0.60000000      0.60000000      0.60000000      0.60000000      0.60000000      0.60000000      0.60000000
      0.60000000      0.60000000      0.60000000      0.60000000      0.60000000      0.60000000      0.60000000      0.60000000      0.60000000      0.60000000      0.60000000      0.60000000      0.60000000      0.60000000      0.60000000      0.60000000      0.60000000      0.60000000      0.60000000      0.60000000
</v>
  <i type="logical" name="LREAL"> F  </i>
  <i type="int" name="ISMEAR">     0</i>
  <i name="SIGMA">      0.05000000</i>
  <i type="int" name="NWRITE">     1</i>
  <i type="int" name="LMAXMIX">     4</i>
  <i type="logical" name="LWAVE"> F  </i>
  <i type="logical" name="LASPH"> T  </i>
  <v type="int" name="KPOINT_BSE">    -1     0     0     0</v>
  <i type="int" name="NELM">   200</i>
  <i type="string" name="GGA"> pe</i>
  <i type="logical" name="LDAU"> T  </i>
  <v type="int" name="LDAUTYPE">     2</v>
  <v type="int" name="LDAUL">    -1     2    -1    -1</v>
  <v name="LDAUU">      0.00000000      4.00000000      0.00000000      0.00000000</v>
  <v name="LDAUJ">      0.00000000      0.00000000      0.00000000      0.00000000</v>
  <i type="logical" name="LASPH"> T  </i>
 </incar>
 <structure name="primitive_cell" >
  <crystal>
   <varray name="basis" >
    <v>      15.42482202       0.00000000       0.00000000 </v>
    <v>       0.00000000      11.21024242       0.00000000 </v>
    <v>       0.00000000       0.00000000      11.27702698 </v>
   </varray>
   <i name="volume">   1949.97833107 </i>
   <varray name="rec_basis" >
    <v>       0.06483057       0.00000000       0.00000000 </v>
    <v>       0.00000000       0.08920414       0.00000000 </v>
    <v>       0.00000000       0.00000000       0.08867585 </v>
   </varray>
  </crystal>
  <varray name="positions" >
   <v>       0.12447665       0.25000000       0.46698674 </v>
   <v>       0.00000000       0.25000000      -0.50000000 </v>
   <v>       0.25000000       0.25000000      -0.50000000 </v>
   <v>       0.12500000       0.25000000       0.24893947 </v>
   <v>      -0.01393352       0.37500000       0.37500000 </v>
   <v>       0.26393352       0.12500000       0.37500000 </v>
   <v>       0.01924068       0.37500000      -0.37500000 </v>
   <v>       0.23075932       0.12500000      -0.37500000 </v>
   <v>      -0.01924068       0.12500000       0.37500000 </v>
   <v>       0.12500000       0.00000000      -0.49893947 </v>
   <v>       0.12500000      -0.50000000      -0.49893947 </v>
   <v>       0.26924068       0.37500000       0.37500000 </v>
   <v>       0.01393352       0.12500000      -0.37500000 </v>
   <v>       0.23606648       0.37500000      -0.37500000 </v>
   <v>       0.12500000       0.25000000      -0.25106053 </v>
   <v>       0.12500000       0.00000000       0.28248991 </v>
   <v>       0.12500000      -0.50000000       0.28248991 </v>
   <v>      -0.12500000       0.25000000      -0.46751009 </v>
   <v>       0.37500000       0.25000000      -0.46751009 </v>
   <v>       0.00000000       0.00000000       0.25000000 </v>
   <v>       0.00000000      -0.50000000       0.25000000 </v>
   <v>       0.25000000       0.00000000       0.25000000 </v>
   <v>       0.25000000      -0.50000000       0.25000000 </v>
   <v>       0.01924068       0.37500000       0.12500000 </v>
   <v>       0.23075932       0.12500000       0.12500000 </v>
   <v>       0.01393352       0.12500000       0.12500000 </v>
   <v>       0.23606648       0.37500000       0.12500000 </v>
   <v>       0.12500000       0.00000000      -0.21751009 </v>
   <v>       0.12500000      -0.50000000      -0.21751009 </v>
   <v>      -0.12500000       0.25000000       0.25106053 </v>
   <v>       0.37500000       0.25000000       0.25106053 </v>
   <v>       0.00000000       0.00000000      -0.25000000 </v>
   <v>       0.00000000      -0.50000000      -0.25000000 </v>
   <v>       0.25000000       0.00000000      -0.25000000 </v>
   <v>       0.25000000      -0.50000000      -0.25000000 </v>
   <v>      -0.12500000       0.00000000       0.49893947 </v>
   <v>      -0.12500000      -0.50000000       0.49893947 </v>
   <v>       0.37500000       0.00000000       0.49893947 </v>
   <v>       0.37500000      -0.50000000       0.49893947 </v>
   <v>      -0.01393352      -0.12500000       0.37500000 </v>
   <v>       0.26393352      -0.37500000       0.37500000 </v>
   <v>       0.01924068      -0.12500000      -0.37500000 </v>
   <v>       0.23075932      -0.37500000      -0.37500000 </v>
   <v>      -0.01924068      -0.37500000       0.37500000 </v>
   <v>       0.26924068      -0.12500000       0.37500000 </v>
   <v>       0.01393352      -0.37500000      -0.37500000 </v>
   <v>       0.23606648      -0.12500000      -0.37500000 </v>
   <v>      -0.12500000       0.25000000      -0.24893947 </v>
   <v>       0.37500000       0.25000000      -0.24893947 </v>
   <v>      -0.01393352       0.37500000      -0.12500000 </v>
   <v>       0.26393352       0.12500000      -0.12500000 </v>
   <v>      -0.01924068       0.12500000      -0.12500000 </v>
   <v>       0.26924068       0.37500000      -0.12500000 </v>
   <v>      -0.12500000       0.00000000       0.21751009 </v>
   <v>      -0.12500000      -0.50000000       0.21751009 </v>
   <v>      -0.12500000       0.00000000      -0.28248991 </v>
   <v>      -0.12500000      -0.50000000      -0.28248991 </v>
   <v>       0.37500000       0.00000000       0.21751009 </v>
   <v>       0.37500000      -0.50000000       0.21751009 </v>
   <v>       0.37500000       0.00000000      -0.28248991 </v>
   <v>       0.37500000      -0.50000000      -0.28248991 </v>
   <v>       0.12500000      -0.25000000       0.46751009 </v>
   <v>       0.00000000       0.25000000       0.00000000 </v>
   <v>       0.25000000       0.25000000       0.00000000 </v>
   <v>       0.12500000       0.25000000      -0.03248991 </v>
   <v>      -0.23075932       0.37500000       0.37500000 </v>
   <v>       0.48075932       0.12500000       0.37500000 </v>
   <v>      -0.25000000       0.25000000      -0.50000000 </v>
   <v>      -0.50000000       0.25000000      -0.50000000 </v>
   <v>      -0.23606648       0.12500000       0.37500000 </v>
   <v>       0.48606648       0.37500000       0.37500000 </v>
   <v>       0.01924068      -0.12500000       0.12500000 </v>
   <v>       0.23075932      -0.37500000       0.12500000 </v>
   <v>       0.00000000      -0.25000000      -0.50000000 </v>
   <v>       0.25000000      -0.25000000      -0.50000000 </v>
   <v>       0.01393352      -0.37500000       0.12500000 </v>
   <v>       0.12500000       0.00000000       0.00106053 </v>
   <v>       0.12500000      -0.50000000       0.00106053 </v>
   <v>       0.23606648      -0.12500000       0.12500000 </v>
   <v>       0.12500000      -0.25000000       0.24893947 </v>
   <v>      -0.12500000       0.25000000       0.03248991 </v>
   <v>       0.37500000       0.25000000       0.03248991 </v>
   <v>      -0.26393352       0.37500000      -0.37500000 </v>
   <v>      -0.48606648       0.12500000      -0.37500000 </v>
   <v>       0.12500000      -0.25000000      -0.25106053 </v>
   <v>      -0.26924068       0.12500000      -0.37500000 </v>
   <v>      -0.48075932       0.37500000      -0.37500000 </v>
   <v>      -0.01393352      -0.12500000      -0.12500000 </v>
   <v>       0.26393352      -0.37500000      -0.12500000 </v>
   <v>      -0.01924068      -0.37500000      -0.12500000 </v>
   <v>       0.26924068      -0.12500000      -0.12500000 </v>
   <v>      -0.12500000      -0.25000000      -0.46751009 </v>
   <v>       0.37500000      -0.25000000      -0.46751009 </v>
   <v>      -0.25000000       0.00000000       0.25000000 </v>
   <v>      -0.25000000      -0.50000000       0.25000000 </v>
   <v>      -0.50000000       0.00000000       0.25000000 </v>
   <v>      -0.50000000      -0.50000000       0.25000000 </v>
   <v>      -0.23075932      -0.12500000       0.37500000 </v>
   <v>       0.48075932      -0.37500000       0.37500000 </v>
   <v>      -0.23606648      -0.37500000       0.37500000 </v>
   <v>       0.48606648      -0.12500000       0.37500000 </v>
   <v>      -0.12500000       0.00000000      -0.00106053 </v>
   <v>      -0.12500000      -0.50000000      -0.00106053 </v>
   <v>       0.37500000       0.00000000      -0.00106053 </v>
   <v>       0.37500000      -0.50000000      -0.00106053 </v>
   <v>      -0.25000000       0.00000000      -0.25000000 </v>
   <v>      -0.25000000      -0.50000000      -0.25000000 </v>
   <v>      -0.50000000       0.00000000      -0.25000000 </v>
   <v>      -0.50000000      -0.50000000      -0.25000000 </v>
   <v>      -0.12500000      -0.25000000       0.25106053 </v>
   <v>       0.37500000      -0.25000000       0.25106053 </v>
   <v>      -0.26393352       0.37500000       0.12500000 </v>
   <v>      -0.48606648       0.12500000       0.12500000 </v>
   <v>      -0.23075932       0.37500000      -0.12500000 </v>
   <v>       0.48075932       0.12500000      -0.12500000 </v>
   <v>      -0.26924068       0.12500000       0.12500000 </v>
   <v>      -0.48075932       0.37500000       0.12500000 </v>
   <v>      -0.23606648       0.12500000      -0.12500000 </v>
   <v>       0.48606648       0.37500000      -0.12500000 </v>
   <v>      -0.12500000      -0.25000000      -0.24893947 </v>
   <v>       0.37500000      -0.25000000      -0.24893947 </v>
   <v>      -0.26393352      -0.12500000      -0.37500000 </v>
   <v>      -0.48606648      -0.37500000      -0.37500000 </v>
   <v>      -0.26924068      -0.37500000      -0.37500000 </v>
   <v>      -0.48075932      -0.12500000      -0.37500000 </v>
   <v>      -0.37500000       0.25000000       0.46751009 </v>
   <v>      -0.25000000       0.25000000       0.00000000 </v>
   <v>      -0.50000000       0.25000000       0.00000000 </v>
   <v>       0.00000000      -0.25000000       0.00000000 </v>
   <v>       0.25000000      -0.25000000       0.00000000 </v>
   <v>       0.12500000      -0.25000000      -0.03248991 </v>
   <v>      -0.25000000      -0.25000000      -0.50000000 </v>
   <v>      -0.50000000      -0.25000000      -0.50000000 </v>
   <v>      -0.37500000       0.25000000       0.24893947 </v>
   <v>      -0.37500000       0.00000000      -0.49893947 </v>
   <v>      -0.37500000      -0.50000000      -0.49893947 </v>
   <v>      -0.26393352      -0.12500000       0.12500000 </v>
   <v>      -0.48606648      -0.37500000       0.12500000 </v>
   <v>      -0.23075932      -0.12500000      -0.12500000 </v>
   <v>       0.48075932      -0.37500000      -0.12500000 </v>
   <v>      -0.26924068      -0.37500000       0.12500000 </v>
   <v>      -0.37500000       0.25000000      -0.25106053 </v>
   <v>      -0.48075932      -0.12500000       0.12500000 </v>
   <v>      -0.23606648      -0.37500000      -0.12500000 </v>
   <v>       0.48606648      -0.12500000      -0.12500000 </v>
   <v>      -0.12500000      -0.25000000       0.03248991 </v>
   <v>       0.37500000      -0.25000000       0.03248991 </v>
   <v>      -0.37500000       0.00000000       0.28248991 </v>
   <v>      -0.37500000      -0.50000000       0.28248991 </v>
   <v>      -0.37500000       0.00000000      -0.21751009 </v>
   <v>      -0.37500000      -0.50000000      -0.21751009 </v>
   <v>      -0.37500000      -0.25000000       0.46751009 </v>
   <v>      -0.37500000       0.25000000      -0.03248991 </v>
   <v>      -0.25000000      -0.25000000       0.00000000 </v>
   <v>      -0.50000000      -0.25000000       0.00000000 </v>
   <v>      -0.37500000       0.00000000       0.00106053 </v>
   <v>      -0.37500000      -0.50000000       0.00106053 </v>
   <v>      -0.37500000      -0.25000000       0.24893947 </v>
   <v>      -0.37500000      -0.25000000      -0.25106053 </v>
   <v>      -0.37500000      -0.25000000      -0.03248991 </v>
  </varray>
 </structure>
 <varray name="primitive_index" >
  <v type="int" >        1 </v>
  <v type="int" >      133 </v>
  <v type="int" >      149 </v>
  <v type="int" >      105 </v>
  <v type="int" >       66 </v>
  <v type="int" >       89 </v>
  <v type="int" >       53 </v>
  <v type="int" >       45 </v>
  <v type="int" >       58 </v>
  <v type="int" >       97 </v>
  <v type="int" >       99 </v>
  <v type="int" >       33 </v>
  <v type="int" >       77 </v>
  <v type="int" >       85 </v>
  <v type="int" >      109 </v>
  <v type="int" >        9 </v>
  <v type="int" >       11 </v>
  <v type="int" >       22 </v>
  <v type="int" >       21 </v>
  <v type="int" >      137 </v>
  <v type="int" >      139 </v>
  <v type="int" >      153 </v>
  <v type="int" >      155 </v>
  <v type="int" >       49 </v>
  <v type="int" >       41 </v>
  <v type="int" >       73 </v>
  <v type="int" >       81 </v>
  <v type="int" >       13 </v>
  <v type="int" >       15 </v>
  <v type="int" >      122 </v>
  <v type="int" >      121 </v>
  <v type="int" >      141 </v>
  <v type="int" >      143 </v>
  <v type="int" >      157 </v>
  <v type="int" >      159 </v>
  <v type="int" >      118 </v>
  <v type="int" >      120 </v>
  <v type="int" >      117 </v>
  <v type="int" >      119 </v>
  <v type="int" >       68 </v>
  <v type="int" >       91 </v>
  <v type="int" >       55 </v>
  <v type="int" >       47 </v>
  <v type="int" >       60 </v>
  <v type="int" >       35 </v>
  <v type="int" >       79 </v>
  <v type="int" >       87 </v>
  <v type="int" >      126 </v>
  <v type="int" >      125 </v>
  <v type="int" >       70 </v>
  <v type="int" >       93 </v>
  <v type="int" >       62 </v>
  <v type="int" >       37 </v>
  <v type="int" >       26 </v>
  <v type="int" >       28 </v>
  <v type="int" >       30 </v>
  <v type="int" >       32 </v>
  <v type="int" >       25 </v>
  <v type="int" >       27 </v>
  <v type="int" >       29 </v>
  <v type="int" >       31 </v>
  <v type="int" >        3 </v>
  <v type="int" >      129 </v>
  <v type="int" >      145 </v>
  <v type="int" >        5 </v>
  <v type="int" >       34 </v>
  <v type="int" >       57 </v>
  <v type="int" >      150 </v>
  <v type="int" >      134 </v>
  <v type="int" >       90 </v>
  <v type="int" >       65 </v>
  <v type="int" >       51 </v>
  <v type="int" >       43 </v>
  <v type="int" >      135 </v>
  <v type="int" >      151 </v>
  <v type="int" >       75 </v>
  <v type="int" >      101 </v>
  <v type="int" >      103 </v>
  <v type="int" >       83 </v>
  <v type="int" >      107 </v>
  <v type="int" >       18 </v>
  <v type="int" >       17 </v>
  <v type="int" >       86 </v>
  <v type="int" >       78 </v>
  <v type="int" >      111 </v>
  <v type="int" >       46 </v>
  <v type="int" >       54 </v>
  <v type="int" >       72 </v>
  <v type="int" >       95 </v>
  <v type="int" >       64 </v>
  <v type="int" >       39 </v>
  <v type="int" >       24 </v>
  <v type="int" >       23 </v>
  <v type="int" >      154 </v>
  <v type="int" >      156 </v>
  <v type="int" >      138 </v>
  <v type="int" >      140 </v>
  <v type="int" >       36 </v>
  <v type="int" >       59 </v>
  <v type="int" >       92 </v>
  <v type="int" >       67 </v>
  <v type="int" >      114 </v>
  <v type="int" >      116 </v>
  <v type="int" >      113 </v>
  <v type="int" >      115 </v>
  <v type="int" >      158 </v>
  <v type="int" >      160 </v>
  <v type="int" >      142 </v>
  <v type="int" >      144 </v>
  <v type="int" >      124 </v>
  <v type="int" >      123 </v>
  <v type="int" >       82 </v>
  <v type="int" >       74 </v>
  <v type="int" >       38 </v>
  <v type="int" >       61 </v>
  <v type="int" >       42 </v>
  <v type="int" >       50 </v>
  <v type="int" >       94 </v>
  <v type="int" >       69 </v>
  <v type="int" >      128 </v>
  <v type="int" >      127 </v>
  <v type="int" >       88 </v>
  <v type="int" >       80 </v>
  <v type="int" >       48 </v>
  <v type="int" >       56 </v>
  <v type="int" >        2 </v>
  <v type="int" >      146 </v>
  <v type="int" >      130 </v>
  <v type="int" >      131 </v>
  <v type="int" >      147 </v>
  <v type="int" >        7 </v>
  <v type="int" >      152 </v>
  <v type="int" >      136 </v>
  <v type="int" >      106 </v>
  <v type="int" >       98 </v>
  <v type="int" >      100 </v>
  <v type="int" >       84 </v>
  <v type="int" >       76 </v>
  <v type="int" >       40 </v>
  <v type="int" >       63 </v>
  <v type="int" >       44 </v>
  <v type="int" >      110 </v>
  <v type="int" >       52 </v>
  <v type="int" >       96 </v>
  <v type="int" >       71 </v>
  <v type="int" >       20 </v>
  <v type="int" >       19 </v>
  <v type="int" >       10 </v>
  <v type="int" >       12 </v>
  <v type="int" >       14 </v>
  <v type="int" >       16 </v>
  <v type="int" >        4 </v>
  <v type="int" >        6 </v>
  <v type="int" >      148 </v>
  <v type="int" >      132 </v>
  <v type="int" >      102 </v>
  <v type="int" >      104 </v>
  <v type="int" >      108 </v>
  <v type="int" >      112 </v>
  <v type="int" >        8 </v>
 </varray>
 <kpoints>
  <generation param="Gamma">
   <v type="int" name="divisions">       2        3        3 </v>
   <v name="usershift">      0.00000000       0.00000000       0.00000000 </v>
   <v name="genvec1">      0.50000000       0.00000000       0.00000000 </v>
   <v name="genvec2">      0.00000000       0.33333333       0.00000000 </v>
   <v name="genvec3">      0.00000000       0.00000000       0.33333333 </v>
   <v name="shift">      0.00000000       0.00000000       0.00000000 </v>
  </generation>
  <varray name="kpointlist" >
   <v>       0.00000000       0.00000000       0.00000000 </v>
   <v>       0.50000000       0.00000000       0.00000000 </v>
   <v>       0.00000000       0.33333333       0.00000000 </v>
   <v>       0.50000000       0.33333333       0.00000000 </v>
   <v>       0.00000000       0.00000000       0.33333333 </v>
   <v>       0.50000000       0.00000000       0.33333333 </v>
   <v>       0.00000000       0.33333333       0.33333333 </v>
   <v>       0.50000000       0.33333333       0.33333333 </v>
   <v>       0.00000000      -0.33333333       0.33333333 </v>
   <v>       0.50000000      -0.33333333       0.33333333 </v>
  </varray>
  <varray name="weights" >
   <v>       0.05555556 </v>
   <v>       0.05555556 </v>
   <v>       0.11111111 </v>
   <v>       0.11111111 </v>
   <v>       0.11111111 </v>
   <v>       0.11111111 </v>
   <v>       0.11111111 </v>
   <v>       0.11111111 </v>
   <v>       0.11111111 </v>
   <v>       0.11111111 </v>
  </varray>
 </kpoints>
 <parameters>
  <separator name="general" >
   <i type="string" name="SYSTEM">unknown system</i>
   <i type="logical" name="LCOMPAT"> F  </i>
  </separator>
  <separator name="electronic" >
   <i type="string" name="PREC">accura</i>
   <i name="ENMAX">    650.00000000</i>
   <i name="ENAUG">    628.94500000</i>
   <i name="EDIFF">      0.00000100</i>
   <i type="int" name="IALGO">    38</i>
   <i type="int" name="IWAVPR">    10</i>
   <i type="int" name="NBANDS">   732</i>
   <i name="NELECT">   1024.00000000</i>
   <i type="int" name="TURBO">     0</i>
   <i type="int" name="IRESTART">     0</i>
   <i type="int" name="NREBOOT">     0</i>
   <i type="int" name="NMIN">     0</i>
   <i name="EREF">      0.00000000</i>
   <separator name="electronic smearing" >
    <i type="int" name="ISMEAR">     0</i>
    <i name="SIGMA">      0.05000000</i>
    <i name="KSPACING">      0.50000000</i>
    <i type="logical" name="KGAMMA"> T  </i>
   </separator>
   <separator name="electronic projectors" >
    <i type="logical" name="LREAL"> F  </i>
    <v name="ROPT">      0.00000000      0.00000000      0.00000000      0.00000000</v>
    <i type="int" name="LMAXPAW">  -100</i>
    <i type="int" name="LMAXMIX">     4</i>
    <i type="logical" name="NLSPLINE"> F  </i>
   </separator>
   <separator name="electronic startup" >
    <i type="int" name="ISTART">     0</i>
    <i type="int" name="ICHARG">     1</i>
    <i type="int" name="INIWAV">     1</i>
   </separator>
   <separator name="electronic spin" >
    <i type="int" name="ISPIN">     2</i>
    <i type="logical" name="LNONCOLLINEAR"> F  </i>
    <v name="MAGMOM">      0.60000000      0.60000000      0.60000000      0.60000000      0.60000000      0.60000000      0.60000000      0.60000000      0.60000000      0.60000000      0.60000000      0.60000000      0.60000000      0.60000000      0.60000000      0.60000000      0.60000000      0.60000000      0.60000000      0.60000000
      0.60000000      0.60000000      0.60000000      0.60000000      0.60000000      0.60000000      0.60000000      0.60000000      0.60000000      0.60000000      0.60000000      0.60000000      0.60000000      0.60000000      0.60000000      0.60000000      0.60000000      0.60000000      0.60000000      0.60000000
      0.60000000      0.60000000      0.60000000      0.60000000      0.60000000      0.60000000      0.60000000      0.60000000      0.60000000      0.60000000      0.60000000      0.60000000      0.60000000      0.60000000      0.60000000      0.60000000      0.60000000      0.60000000      0.60000000      0.60000000
      0.60000000      0.60000000      0.60000000      0.60000000      5.00000000      5.00000000      5.00000000      5.00000000      5.00000000      5.00000000      5.00000000      5.00000000      5.00000000      5.00000000      5.00000000      5.00000000      5.00000000      5.00000000      5.00000000      5.00000000
      5.00000000      5.00000000      5.00000000      5.00000000      5.00000000      5.00000000      5.00000000      5.00000000      5.00000000      5.00000000      5.00000000      5.00000000      5.00000000      5.00000000      5.00000000      5.00000000      0.60000000      0.60000000      0.60000000      0.60000000
      0.60000000      0.60000000      0.60000000      0.60000000      0.60000000      0.60000000      0.60000000      0.60000000      0.60000000      0.60000000      0.60000000      0.60000000      0.60000000      0.60000000      0.60000000      0.60000000      0.60000000      0.60000000      0.60000000      0.60000000
      0.60000000      0.60000000      0.60000000      0.60000000      0.60000000      0.60000000      0.60000000      0.60000000      0.60000000      0.60000000      0.60000000      0.60000000      0.60000000      0.60000000      0.60000000      0.60000000      0.60000000      0.60000000      0.60000000      0.60000000
      0.60000000      0.60000000      0.60000000      0.60000000      0.60000000      0.60000000      0.60000000      0.60000000      0.60000000      0.60000000      0.60000000      0.60000000      0.60000000      0.60000000      0.60000000      0.60000000      0.60000000      0.60000000      0.60000000      0.60000000
</v>
    <i name="NUPDOWN">     -1.00000000</i>
    <i type="logical" name="LSORBIT"> F  </i>
    <v name="SAXIS">      0.00000000      0.00000000      1.00000000</v>
    <i type="logical" name="LSPIRAL"> F  </i>
    <v name="QSPIRAL">      0.00000000      0.00000000      0.00000000</v>
    <i type="logical" name="LZEROZ"> F  </i>
   </separator>
   <separator name="electronic exchange-correlation" >
    <i type="logical" name="LASPH"> T  </i>
    <i type="logical" name="LMETAGGA"> F  </i>
   </separator>
   <separator name="electronic convergence" >
    <i type="int" name="NELM">   200</i>
    <i type="int" name="NELMDL">     0</i>
    <i type="int" name="NELMIN">     8</i>
    <i name="ENINI">    650.00000000</i>
    <separator name="electronic convergence detail" >
     <i type="logical" name="LDIAG"> T  </i>
     <i type="logical" name="LSUBROT"> F  </i>
     <i name="WEIMIN">      0.00000000</i>
     <i name="EBREAK">      0.00000000</i>
     <i name="DEPER">      0.30000000</i>
     <i type="int" name="NRMM">     4</i>
     <i name="TIME">      0.40000000</i>
    </separator>
   </separator>
   <separator name="electronic mixer" >
    <i name="AMIX">      0.40000000</i>
    <i name="BMIX">      1.00000000</i>
    <i name="AMIN">      0.10000000</i>
    <i name="AMIX_MAG">      1.60000000</i>
    <i name="BMIX_MAG">      1.00000000</i>
    <separator name="electronic mixer details" >
     <i type="int" name="IMIX">     4</i>
     <i type="logical" name="MIXFIRST"> F  </i>
     <i type="int" name="MAXMIX">   -45</i>
     <i name="WC">    100.00000000</i>
     <i type="int" name="INIMIX">     1</i>
     <i type="int" name="MIXPRE">     1</i>
     <i type="int" name="MREMOVE">     5</i>
    </separator>
   </separator>
   <separator name="electronic dipolcorrection" >
    <i type="logical" name="LDIPOL"> F  </i>
    <i type="logical" name="LMONO"> F  </i>
    <i type="int" name="IDIPOL">     0</i>
    <i name="EPSILON">      1.00000000</i>
    <v name="DIPOL">   -100.00000000   -100.00000000   -100.00000000</v>
    <i name="EFIELD">      0.00000000</i>
   </separator>
  </separator>
  <separator name="grids" >
   <i type="int" name="NGX">   128</i>
   <i type="int" name="NGY">    96</i>
   <i type="int" name="NGZ">    96</i>
   <i type="int" name="NGXF">   256</i>
   <i type="int" name="NGYF">   192</i>
   <i type="int" name="NGZF">   192</i>
   <i type="logical" name="ADDGRID"> T  </i>
  </separator>
  <separator name="ionic" >
   <i type="int" name="NSW">     0</i>
   <i type="int" name="IBRION">    -1</i>
   <i type="int" name="MDALGO">     0</i>
   <i type="int" name="ISIF">     2</i>
   <i name="PSTRESS">      0.00000000</i>
   <i name="EDIFFG">      0.00001000</i>
   <i type="int" name="NFREE">     0</i>
   <i name="POTIM">      0.50000000</i>
   <i name="SMASS">     -3.00000000</i>
   <i name="SCALEE">      1.00000000</i>
  </separator>
  <separator name="ionic md" >
   <i name="TEBEG">      0.00010000</i>
   <i name="TEEND">      0.00010000</i>
   <i type="int" name="NBLOCK">     1</i>
   <i type="int" name="KBLOCK">     1</i>
   <i type="int" name="NPACO">   256</i>
   <i name="APACO">     16.00000000</i>
  </separator>
  <separator name="symmetry" >
   <i type="int" name="ISYM">     2</i>
   <i name="SYMPREC">      0.00001000</i>
  </separator>
  <separator name="dos" >
   <i type="int" name="LORBIT">     0</i>
   <v name="RWIGS">     -1.00000000     -1.00000000     -1.00000000     -1.00000000</v>
   <i type="int" name="NEDOS">   301</i>
   <i name="EMIN">     10.00000000</i>
   <i name="EMAX">    -10.00000000</i>
   <i name="EFERMI">      0.00000000</i>
  </separator>
  <separator name="writing" >
   <i type="int" name="NWRITE">     1</i>
   <i type="logical" name="LWAVE"> F  </i>
   <i type="logical" name="LDOWNSAMPLE"> F  </i>
   <i type="logical" name="LCHARG"> T  </i>
   <i type="logical" name="LPARD"> F  </i>
   <i type="logical" name="LVTOT"> F  </i>
   <i type="logical" name="LVHAR"> F  </i>
   <i type="logical" name="LELF"> F  </i>
   <i type="logical" name="LOPTICS"> F  </i>
   <v name="STM">      0.00000000      0.00000000      0.00000000      0.00000000      0.00000000      0.00000000      0.00000000</v>
  </separator>
  <separator name="performance" >
   <i type="int" name="NPAR">     4</i>
   <i type="int" name="NSIM">     4</i>
   <i type="int" name="NBLK">    -1</i>
   <i type="logical" name="LPLANE"> T  </i>
   <i type="logical" name="LSCALAPACK"> T  </i>
   <i type="logical" name="LSCAAWARE"> F  </i>
   <i type="logical" name="LSCALU"> F  </i>
   <i type="logical" name="LASYNC"> F  </i>
   <i type="logical" name="LORBITALREAL"> F  </i>
  </separator>
  <separator name="miscellaneous" >
   <i type="int" name="IDIOT">     3</i>
   <i type="int" name="ISPECIAL">     0</i>
   <i type="logical" name="LMUSIC"> F  </i>
   <v name="POMASS">      7.01000000     55.84700000     32.06600000     16.00000000</v>
   <v name="DARWINR">      0.00000000      0.00000000      0.00000000      0.00000000</v>
   <v name="DARWINV">      1.00000000      1.00000000      1.00000000      1.00000000</v>
   <i type="logical" name="LCORR"> T  </i>
  </separator>
  <i type="logical" name="GGA_COMPAT"> T  </i>
  <i type="logical" name="LBERRY"> F  </i>
  <i type="int" name="ICORELEVEL">     0</i>
  <i type="logical" name="LDAU"> T  </i>
  <v type="int" name="LDAUTYPE">     2</v>
  <v type="int" name="LDAUL">    -1</v>
  <v name="LDAUU">      0.00000000</v>
  <v name="LDAUJ">      0.00000000</v>
  <i type="int" name="LDAUPRINT">     0</i>
  <i type="int" name="I_CONSTRAINED_M">     0</i>
  <separator name="electronic exchange-correlation" >
   <i type="string" name="GGA">PE</i>
   <i type="int" name="VOSKOWN">     0</i>
   <i type="logical" name="LHFCALC"> F  </i>
   <i type="string" name="PRECFOCK"></i>
   <i type="logical" name="LSYMGRAD"> F  </i>
   <i type="logical" name="LHFONE"> F  </i>
   <i type="logical" name="LRHFCALC"> F  </i>
   <i type="logical" name="LTHOMAS"> F  </i>
   <i type="logical" name="LMODELHF"> F  </i>
   <i name="ENCUT4O">     -1.00000000</i>
   <i type="int" name="EXXOEP">     0</i>
   <i type="int" name="FOURORBIT">     0</i>
   <i name="AEXX">      0.00000000</i>
   <i name="HFALPHA">      0.00000000</i>
   <i name="MCALPHA">      0.00000000</i>
   <i name="ALDAX">      1.00000000</i>
   <i name="AGGAX">      1.00000000</i>
   <i name="ALDAC">      1.00000000</i>
   <i name="AGGAC">      1.00000000</i>
   <i type="int" name="NKREDX">     1</i>
   <i type="int" name="NKREDY">     1</i>
   <i type="int" name="NKREDZ">     1</i>
   <i type="logical" name="SHIFTRED"> F  </i>
   <i type="logical" name="ODDONLY"> F  </i>
   <i type="logical" name="EVENONLY"> F  </i>
   <i type="int" name="LMAXFOCK">     0</i>
   <i type="int" name="NMAXFOCKAE">     0</i>
   <i type="logical" name="LFOCKAEDFT"> F  </i>
   <i name="HFSCREEN">      0.00000000</i>
   <i name="HFSCREENC">      0.00000000</i>
   <i type="int" name="NBANDSGWLOW">     0</i>
  </separator>
  <separator name="vdW DFT" >
   <i type="logical" name="LUSE_VDW"> F  </i>
   <i name="Zab_VDW">     -0.84910000</i>
   <i name="PARAM1">      0.12340000</i>
   <i name="PARAM2">      1.00000000</i>
   <i name="PARAM3">      0.00000000</i>
  </separator>
  <separator name="model GW" >
   <i type="int" name="MODEL_GW">     0</i>
   <i name="MODEL_EPS0">      7.31241874</i>
   <i name="MODEL_ALPHA">      1.00000000</i>
  </separator>
  <separator name="linear response parameters" >
   <i type="logical" name="LEPSILON"> F  </i>
   <i type="logical" name="LRPA"> F  </i>
   <i type="logical" name="LNABLA"> F  </i>
   <i type="logical" name="LVEL"> F  </i>
   <i type="int" name="KINTER">     0</i>
   <i name="CSHIFT">      0.10000000</i>
   <i name="OMEGAMAX">     -1.00000000</i>
   <i name="DEG_THRESHOLD">      0.00200000</i>
   <i name="RTIME">     -0.10000000</i>
   <i name="WPLASMAI">      0.00000000</i>
   <v name="DFIELD">      0.00000000      0.00000000      0.00000000</v>
   <v name="WPLASMA">      0.00000000      0.00000000      0.00000000      0.00000000      0.00000000      0.00000000      0.00000000      0.00000000      0.00000000</v>
  </separator>
  <separator name="orbital magnetization" >
   <i type="logical" name="NUCIND"> F  </i>
   <v name="MAGPOS">      0.00000000      0.00000000      0.00000000</v>
   <i type="logical" name="LNICSALL"> T  </i>
   <i type="logical" name="ORBITALMAG"> F  </i>
   <i type="logical" name="LMAGBLOCH"> F  </i>
   <i type="logical" name="LCHIMAG"> F  </i>
   <i type="logical" name="LGAUGE"> T  </i>
   <i type="int" name="MAGATOM">     0</i>
   <v name="MAGDIPOL">      0.00000000      0.00000000      0.00000000</v>
   <v name="AVECCONST">      0.00000000      0.00000000      0.00000000</v>
  </separator>
  <separator name="response functions" >
   <i type="logical" name="LADDER"> F  </i>
   <i type="logical" name="LRPAFORCE"> F  </i>
   <i type="logical" name="LFXC"> F  </i>
   <i type="logical" name="LHARTREE"> T  </i>
   <i type="int" name="IBSE">     0</i>
   <v type="int" name="KPOINT">    -1     0     0     0</v>
   <i type="logical" name="LTCTE"> F  </i>
   <i type="logical" name="LTETE"> F  </i>
   <i type="logical" name="LTRIPLET"> F  </i>
   <i type="logical" name="LFXCEPS"> F  </i>
   <i type="logical" name="LFXHEG"> F  </i>
   <i type="int" name="NATURALO">     2</i>
   <i type="logical" name="L2ORDER"> F  </i>
   <i type="logical" name="LMP2LT"> F  </i>
   <i type="logical" name="LUSEW"> F  </i>
   <i name="ENCUTGW">     -2.00000000</i>
   <i name="ENCUTGWSOFT">     -2.00000000</i>
   <i name="ENCUTLF">     -1.00000000</i>
   <i type="int" name="LMAXMP2">    -1</i>
   <i name="SCISSOR">      0.00000000</i>
   <i type="int" name="NOMEGA">     0</i>
   <i type="int" name="NOMEGAR">     0</i>
   <i type="int" name="NBANDSGW">    -1</i>
   <i type="int" name="NBANDSO">    -1</i>
   <i type="int" name="NBANDSV">    -1</i>
   <i type="int" name="NELM">   200</i>
   <i type="int" name="NELMHF">     1</i>
   <i type="int" name="DIM">     3</i>
   <i type="int" name="ANTIRES">     0</i>
   <i name="OMEGAMAX">    -30.00000000</i>
   <i name="OMEGAMIN">    -30.00000000</i>
   <i name="OMEGATL">   -200.00000000</i>
   <i type="int" name="OMEGAGRID">   140</i>
   <i name="CSHIFT">     -0.10000000</i>
   <i type="logical" name="SELFENERGY"> F  </i>
   <i type="logical" name="LSPECTRAL"> F  </i>
   <i type="logical" name="LSPECTRALGW"> F  </i>
   <i type="logical" name="LSINGLES"> F  </i>
   <i type="logical" name="LFERMIGW"> F  </i>
   <i type="logical" name="ODDONLYGW"> F  </i>
   <i type="logical" name="EVENONLYGW"> F  </i>
   <i type="int" name="NKREDLFX">     1</i>
   <i type="int" name="NKREDLFY">     1</i>
   <i type="int" name="NKREDLFZ">     1</i>
   <i type="int" name="MAXMEM">  2800</i>
   <i type="int" name="TELESCOPE">     0</i>
   <i type="int" name="TAUPAR">     1</i>
   <i type="int" name="OMEGAPAR">    -1</i>
   <i name="LAMBDA">      1.00000000</i>
  </separator>
  <separator name="External order field" >
   <i name="OFIELD_KAPPA">      0.00000000</i>
   <v name="OFIELD_K">      0.00000000      0.00000000      0.00000000</v>
   <i name="OFIELD_Q6_NEAR">      0.00000000</i>
   <i name="OFIELD_Q6_FAR">      0.00000000</i>
   <i name="OFIELD_A">      0.00000000</i>
  </separator>
 </parameters>
 <atominfo>
  <atoms>     160 </atoms>
  <types>       4 </types>
  <array name="atoms" >
   <dimension dim="1">ion</dimension>
   <field type="string">element</field>
   <field type="int">atomtype</field>
   <set>
    <rc><c>Li</c><c>   1</c></rc>
    <rc><c>Li</c><c>   1</c></rc>
    <rc><c>Li</c><c>   1</c></rc>
    <rc><c>Li</c><c>   1</c></rc>
    <rc><c>Li</c><c>   1</c></rc>
    <rc><c>Li</c><c>   1</c></rc>
    <rc><c>Li</c><c>   1</c></rc>
    <rc><c>Li</c><c>   1</c></rc>
    <rc><c>Li</c><c>   1</c></rc>
    <rc><c>Li</c><c>   1</c></rc>
    <rc><c>Li</c><c>   1</c></rc>
    <rc><c>Li</c><c>   1</c></rc>
    <rc><c>Li</c><c>   1</c></rc>
    <rc><c>Li</c><c>   1</c></rc>
    <rc><c>Li</c><c>   1</c></rc>
    <rc><c>Li</c><c>   1</c></rc>
    <rc><c>Li</c><c>   1</c></rc>
    <rc><c>Li</c><c>   1</c></rc>
    <rc><c>Li</c><c>   1</c></rc>
    <rc><c>Li</c><c>   1</c></rc>
    <rc><c>Li</c><c>   1</c></rc>
    <rc><c>Li</c><c>   1</c></rc>
    <rc><c>Li</c><c>   1</c></rc>
    <rc><c>Li</c><c>   1</c></rc>
    <rc><c>Li</c><c>   1</c></rc>
    <rc><c>Li</c><c>   1</c></rc>
    <rc><c>Li</c><c>   1</c></rc>
    <rc><c>Li</c><c>   1</c></rc>
    <rc><c>Li</c><c>   1</c></rc>
    <rc><c>Li</c><c>   1</c></rc>
    <rc><c>Li</c><c>   1</c></rc>
    <rc><c>Li</c><c>   1</c></rc>
    <rc><c>Li</c><c>   1</c></rc>
    <rc><c>Li</c><c>   1</c></rc>
    <rc><c>Li</c><c>   1</c></rc>
    <rc><c>Li</c><c>   1</c></rc>
    <rc><c>Li</c><c>   1</c></rc>
    <rc><c>Li</c><c>   1</c></rc>
    <rc><c>Li</c><c>   1</c></rc>
    <rc><c>Li</c><c>   1</c></rc>
    <rc><c>Li</c><c>   1</c></rc>
    <rc><c>Li</c><c>   1</c></rc>
    <rc><c>Li</c><c>   1</c></rc>
    <rc><c>Li</c><c>   1</c></rc>
    <rc><c>Li</c><c>   1</c></rc>
    <rc><c>Li</c><c>   1</c></rc>
    <rc><c>Li</c><c>   1</c></rc>
    <rc><c>Li</c><c>   1</c></rc>
    <rc><c>Li</c><c>   1</c></rc>
    <rc><c>Li</c><c>   1</c></rc>
    <rc><c>Li</c><c>   1</c></rc>
    <rc><c>Li</c><c>   1</c></rc>
    <rc><c>Li</c><c>   1</c></rc>
    <rc><c>Li</c><c>   1</c></rc>
    <rc><c>Li</c><c>   1</c></rc>
    <rc><c>Li</c><c>   1</c></rc>
    <rc><c>Li</c><c>   1</c></rc>
    <rc><c>Li</c><c>   1</c></rc>
    <rc><c>Li</c><c>   1</c></rc>
    <rc><c>Li</c><c>   1</c></rc>
    <rc><c>Li</c><c>   1</c></rc>
    <rc><c>Li</c><c>   1</c></rc>
    <rc><c>Li</c><c>   1</c></rc>
    <rc><c>Li</c><c>   1</c></rc>
    <rc><c>Fe</c><c>   2</c></rc>
    <rc><c>Fe</c><c>   2</c></rc>
    <rc><c>Fe</c><c>   2</c></rc>
    <rc><c>Fe</c><c>   2</c></rc>
    <rc><c>Fe</c><c>   2</c></rc>
    <rc><c>Fe</c><c>   2</c></rc>
    <rc><c>Fe</c><c>   2</c></rc>
    <rc><c>Fe</c><c>   2</c></rc>
    <rc><c>Fe</c><c>   2</c></rc>
    <rc><c>Fe</c><c>   2</c></rc>
    <rc><c>Fe</c><c>   2</c></rc>
    <rc><c>Fe</c><c>   2</c></rc>
    <rc><c>Fe</c><c>   2</c></rc>
    <rc><c>Fe</c><c>   2</c></rc>
    <rc><c>Fe</c><c>   2</c></rc>
    <rc><c>Fe</c><c>   2</c></rc>
    <rc><c>Fe</c><c>   2</c></rc>
    <rc><c>Fe</c><c>   2</c></rc>
    <rc><c>Fe</c><c>   2</c></rc>
    <rc><c>Fe</c><c>   2</c></rc>
    <rc><c>Fe</c><c>   2</c></rc>
    <rc><c>Fe</c><c>   2</c></rc>
    <rc><c>Fe</c><c>   2</c></rc>
    <rc><c>Fe</c><c>   2</c></rc>
    <rc><c>Fe</c><c>   2</c></rc>
    <rc><c>Fe</c><c>   2</c></rc>
    <rc><c>Fe</c><c>   2</c></rc>
    <rc><c>Fe</c><c>   2</c></rc>
    <rc><c>Fe</c><c>   2</c></rc>
    <rc><c>Fe</c><c>   2</c></rc>
    <rc><c>Fe</c><c>   2</c></rc>
    <rc><c>Fe</c><c>   2</c></rc>
    <rc><c>S </c><c>   3</c></rc>
    <rc><c>S </c><c>   3</c></rc>
    <rc><c>S </c><c>   3</c></rc>
    <rc><c>S </c><c>   3</c></rc>
    <rc><c>S </c><c>   3</c></rc>
    <rc><c>S </c><c>   3</c></rc>
    <rc><c>S </c><c>   3</c></rc>
    <rc><c>S </c><c>   3</c></rc>
    <rc><c>S </c><c>   3</c></rc>
    <rc><c>S </c><c>   3</c></rc>
    <rc><c>S </c><c>   3</c></rc>
    <rc><c>S </c><c>   3</c></rc>
    <rc><c>S </c><c>   3</c></rc>
    <rc><c>S </c><c>   3</c></rc>
    <rc><c>S </c><c>   3</c></rc>
    <rc><c>S </c><c>   3</c></rc>
    <rc><c>S </c><c>   3</c></rc>
    <rc><c>S </c><c>   3</c></rc>
    <rc><c>S </c><c>   3</c></rc>
    <rc><c>S </c><c>   3</c></rc>
    <rc><c>S </c><c>   3</c></rc>
    <rc><c>S </c><c>   3</c></rc>
    <rc><c>S </c><c>   3</c></rc>
    <rc><c>S </c><c>   3</c></rc>
    <rc><c>S </c><c>   3</c></rc>
    <rc><c>S </c><c>   3</c></rc>
    <rc><c>S </c><c>   3</c></rc>
    <rc><c>S </c><c>   3</c></rc>
    <rc><c>S </c><c>   3</c></rc>
    <rc><c>S </c><c>   3</c></rc>
    <rc><c>S </c><c>   3</c></rc>
    <rc><c>S </c><c>   3</c></rc>
    <rc><c>O </c><c>   4</c></rc>
    <rc><c>O </c><c>   4</c></rc>
    <rc><c>O </c><c>   4</c></rc>
    <rc><c>O </c><c>   4</c></rc>
    <rc><c>O </c><c>   4</c></rc>
    <rc><c>O </c><c>   4</c></rc>
    <rc><c>O </c><c>   4</c></rc>
    <rc><c>O </c><c>   4</c></rc>
    <rc><c>O </c><c>   4</c></rc>
    <rc><c>O </c><c>   4</c></rc>
    <rc><c>O </c><c>   4</c></rc>
    <rc><c>O </c><c>   4</c></rc>
    <rc><c>O </c><c>   4</c></rc>
    <rc><c>O </c><c>   4</c></rc>
    <rc><c>O </c><c>   4</c></rc>
    <rc><c>O </c><c>   4</c></rc>
    <rc><c>O </c><c>   4</c></rc>
    <rc><c>O </c><c>   4</c></rc>
    <rc><c>O </c><c>   4</c></rc>
    <rc><c>O </c><c>   4</c></rc>
    <rc><c>O </c><c>   4</c></rc>
    <rc><c>O </c><c>   4</c></rc>
    <rc><c>O </c><c>   4</c></rc>
    <rc><c>O </c><c>   4</c></rc>
    <rc><c>O </c><c>   4</c></rc>
    <rc><c>O </c><c>   4</c></rc>
    <rc><c>O </c><c>   4</c></rc>
    <rc><c>O </c><c>   4</c></rc>
    <rc><c>O </c><c>   4</c></rc>
    <rc><c>O </c><c>   4</c></rc>
    <rc><c>O </c><c>   4</c></rc>
    <rc><c>O </c><c>   4</c></rc>
   </set>
  </array>
  <array name="atomtypes" >
   <dimension dim="1">type</dimension>
   <field type="int">atomspertype</field>
   <field type="string">element</field>
   <field>mass</field>
   <field>valence</field>
   <field type="string">pseudopotential</field>
   <set>
    <rc><c>  64</c><c>Li</c><c>      7.01000000</c><c>      3.00000000</c><c>  PAW_PBE Li_sv 10Sep2004               </c></rc>
    <rc><c>  32</c><c>Fe</c><c>     55.84700000</c><c>     14.00000000</c><c>  PAW_PBE Fe_pv 02Aug2007               </c></rc>
    <rc><c>  32</c><c>S </c><c>     32.06600000</c><c>      6.00000000</c><c>  PAW_PBE S 06Sep2000                   </c></rc>
    <rc><c>  32</c><c>O </c><c>     16.00000000</c><c>      6.00000000</c><c>  PAW_PBE O 08Apr2002                   </c></rc>
   </set>
  </array>
 </atominfo>
 <structure name="initialpos" >
  <crystal>
   <varray name="basis" >
    <v>      15.42482202       0.00000000       0.00000000 </v>
    <v>       0.00000000      11.21024242       0.00000000 </v>
    <v>       0.00000000       0.00000000      11.27702698 </v>
   </varray>
   <i name="volume">   1949.97833107 </i>
   <varray name="rec_basis" >
    <v>       0.06483057       0.00000000       0.00000000 </v>
    <v>       0.00000000       0.08920414       0.00000000 </v>
    <v>       0.00000000       0.00000000       0.08867585 </v>
   </varray>
  </crystal>
  <varray name="positions" >
   <v>       0.12447665       0.25000000       0.46698674 </v>
   <v>       0.62500000       0.25000000       0.46751010 </v>
   <v>       0.12500000       0.75000000       0.46751010 </v>
   <v>       0.62500000       0.75000000       0.46751010 </v>
   <v>       0.12500000       0.25000000       0.96751010 </v>
   <v>       0.62500000       0.25000000       0.96751010 </v>
   <v>       0.12500000       0.75000000       0.96751010 </v>
   <v>       0.62500000       0.75000000       0.96751010 </v>
   <v>       0.12500000       0.00000000       0.28248990 </v>
   <v>       0.62500000       0.00000000       0.28248990 </v>
   <v>       0.12500000       0.50000000       0.28248990 </v>
   <v>       0.62500000       0.50000000       0.28248990 </v>
   <v>       0.12500000       0.00000000       0.78248990 </v>
   <v>       0.62500000       0.00000000       0.78248990 </v>
   <v>       0.12500000       0.50000000       0.78248990 </v>
   <v>       0.62500000       0.50000000       0.78248990 </v>
   <v>       0.37500000       0.25000000       0.03248990 </v>
   <v>       0.87500000       0.25000000       0.03248990 </v>
   <v>       0.37500000       0.75000000       0.03248990 </v>
   <v>       0.87500000       0.75000000       0.03248990 </v>
   <v>       0.37500000       0.25000000       0.53248990 </v>
   <v>       0.87500000       0.25000000       0.53248990 </v>
   <v>       0.37500000       0.75000000       0.53248990 </v>
   <v>       0.87500000       0.75000000       0.53248990 </v>
   <v>       0.37500000       0.00000000       0.21751010 </v>
   <v>       0.87500000       0.00000000       0.21751010 </v>
   <v>       0.37500000       0.50000000       0.21751010 </v>
   <v>       0.87500000       0.50000000       0.21751010 </v>
   <v>       0.37500000       0.00000000       0.71751010 </v>
   <v>       0.87500000       0.00000000       0.71751010 </v>
   <v>       0.37500000       0.50000000       0.71751010 </v>
   <v>       0.87500000       0.50000000       0.71751010 </v>
   <v>       0.26924068       0.37500000       0.37500000 </v>
   <v>       0.76924068       0.37500000       0.37500000 </v>
   <v>       0.26924068       0.87500000       0.37500000 </v>
   <v>       0.76924068       0.87500000       0.37500000 </v>
   <v>       0.26924068       0.37500000       0.87500000 </v>
   <v>       0.76924068       0.37500000       0.87500000 </v>
   <v>       0.26924068       0.87500000       0.87500000 </v>
   <v>       0.76924068       0.87500000       0.87500000 </v>
   <v>       0.23075932       0.12500000       0.12500000 </v>
   <v>       0.73075932       0.12500000       0.12500000 </v>
   <v>       0.23075932       0.62500000       0.12500000 </v>
   <v>       0.73075932       0.62500000       0.12500000 </v>
   <v>       0.23075932       0.12500000       0.62500000 </v>
   <v>       0.73075932       0.12500000       0.62500000 </v>
   <v>       0.23075932       0.62500000       0.62500000 </v>
   <v>       0.73075932       0.62500000       0.62500000 </v>
   <v>       0.01924068       0.37500000       0.12500000 </v>
   <v>       0.51924068       0.37500000       0.12500000 </v>
   <v>       0.01924068       0.87500000       0.12500000 </v>
   <v>       0.51924068       0.87500000       0.12500000 </v>
   <v>       0.01924068       0.37500000       0.62500000 </v>
   <v>       0.51924068       0.37500000       0.62500000 </v>
   <v>       0.01924068       0.87500000       0.62500000 </v>
   <v>       0.51924068       0.87500000       0.62500000 </v>
   <v>       0.48075932       0.12500000       0.37500000 </v>
   <v>       0.98075932       0.12500000       0.37500000 </v>
   <v>       0.48075932       0.62500000       0.37500000 </v>
   <v>       0.98075932       0.62500000       0.37500000 </v>
   <v>       0.48075932       0.12500000       0.87500000 </v>
   <v>       0.98075932       0.12500000       0.87500000 </v>
   <v>       0.48075932       0.62500000       0.87500000 </v>
   <v>       0.98075932       0.62500000       0.87500000 </v>
   <v>       0.48606648       0.37500000       0.37500000 </v>
   <v>       0.98606648       0.37500000       0.37500000 </v>
   <v>       0.48606648       0.87500000       0.37500000 </v>
   <v>       0.98606648       0.87500000       0.37500000 </v>
   <v>       0.48606648       0.37500000       0.87500000 </v>
   <v>       0.98606648       0.37500000       0.87500000 </v>
   <v>       0.48606648       0.87500000       0.87500000 </v>
   <v>       0.98606648       0.87500000       0.87500000 </v>
   <v>       0.01393352       0.12500000       0.12500000 </v>
   <v>       0.51393352       0.12500000       0.12500000 </v>
   <v>       0.01393352       0.62500000       0.12500000 </v>
   <v>       0.51393352       0.62500000       0.12500000 </v>
   <v>       0.01393352       0.12500000       0.62500000 </v>
   <v>       0.51393352       0.12500000       0.62500000 </v>
   <v>       0.01393352       0.62500000       0.62500000 </v>
   <v>       0.51393352       0.62500000       0.62500000 </v>
   <v>       0.23606648       0.37500000       0.12500000 </v>
   <v>       0.73606648       0.37500000       0.12500000 </v>
   <v>       0.23606648       0.87500000       0.12500000 </v>
   <v>       0.73606648       0.87500000       0.12500000 </v>
   <v>       0.23606648       0.37500000       0.62500000 </v>
   <v>       0.73606648       0.37500000       0.62500000 </v>
   <v>       0.23606648       0.87500000       0.62500000 </v>
   <v>       0.73606648       0.87500000       0.62500000 </v>
   <v>       0.26393352       0.12500000       0.37500000 </v>
   <v>       0.76393352       0.12500000       0.37500000 </v>
   <v>       0.26393352       0.62500000       0.37500000 </v>
   <v>       0.76393352       0.62500000       0.37500000 </v>
   <v>       0.26393352       0.12500000       0.87500000 </v>
   <v>       0.76393352       0.12500000       0.87500000 </v>
   <v>       0.26393352       0.62500000       0.87500000 </v>
   <v>       0.76393352       0.62500000       0.87500000 </v>
   <v>       0.12500000       0.00000000       0.50106053 </v>
   <v>       0.62500000       0.00000000       0.50106053 </v>
   <v>       0.12500000       0.50000000       0.50106053 </v>
   <v>       0.62500000       0.50000000       0.50106053 </v>
   <v>       0.12500000       0.00000000       0.00106053 </v>
   <v>       0.62500000       0.00000000       0.00106053 </v>
   <v>       0.12500000       0.50000000       0.00106053 </v>
   <v>       0.62500000       0.50000000       0.00106053 </v>
   <v>       0.12500000       0.25000000       0.24893947 </v>
   <v>       0.62500000       0.25000000       0.24893947 </v>
   <v>       0.12500000       0.75000000       0.24893947 </v>
   <v>       0.62500000       0.75000000       0.24893947 </v>
   <v>       0.12500000       0.25000000       0.74893947 </v>
   <v>       0.62500000       0.25000000       0.74893947 </v>
   <v>       0.12500000       0.75000000       0.74893947 </v>
   <v>       0.62500000       0.75000000       0.74893947 </v>
   <v>       0.37500000       0.00000000       0.99893947 </v>
   <v>       0.87500000       0.00000000       0.99893947 </v>
   <v>       0.37500000       0.50000000       0.99893947 </v>
   <v>       0.87500000       0.50000000       0.99893947 </v>
   <v>       0.37500000       0.00000000       0.49893947 </v>
   <v>       0.87500000       0.00000000       0.49893947 </v>
   <v>       0.37500000       0.50000000       0.49893947 </v>
   <v>       0.87500000       0.50000000       0.49893947 </v>
   <v>       0.37500000       0.25000000       0.25106053 </v>
   <v>       0.87500000       0.25000000       0.25106053 </v>
   <v>       0.37500000       0.75000000       0.25106053 </v>
   <v>       0.87500000       0.75000000       0.25106053 </v>
   <v>       0.37500000       0.25000000       0.75106053 </v>
   <v>       0.87500000       0.25000000       0.75106053 </v>
   <v>       0.37500000       0.75000000       0.75106053 </v>
   <v>       0.87500000       0.75000000       0.75106053 </v>
   <v>       0.00000000       0.25000000       0.00000000 </v>
   <v>       0.50000000       0.25000000       0.00000000 </v>
   <v>       0.00000000       0.75000000       0.00000000 </v>
   <v>       0.50000000       0.75000000       0.00000000 </v>
   <v>       0.00000000       0.25000000       0.50000000 </v>
   <v>       0.50000000       0.25000000       0.50000000 </v>
   <v>       0.00000000       0.75000000       0.50000000 </v>
   <v>       0.50000000       0.75000000       0.50000000 </v>
   <v>       0.00000000       0.00000000       0.25000000 </v>
   <v>       0.50000000       0.00000000       0.25000000 </v>
   <v>       0.00000000       0.50000000       0.25000000 </v>
   <v>       0.50000000       0.50000000       0.25000000 </v>
   <v>       0.00000000       0.00000000       0.75000000 </v>
   <v>       0.50000000       0.00000000       0.75000000 </v>
   <v>       0.00000000       0.50000000       0.75000000 </v>
   <v>       0.50000000       0.50000000       0.75000000 </v>
   <v>       0.25000000       0.25000000       0.00000000 </v>
   <v>       0.75000000       0.25000000       0.00000000 </v>
   <v>       0.25000000       0.75000000       0.00000000 </v>
   <v>       0.75000000       0.75000000       0.00000000 </v>
   <v>       0.25000000       0.25000000       0.50000000 </v>
   <v>       0.75000000       0.25000000       0.50000000 </v>
   <v>       0.25000000       0.75000000       0.50000000 </v>
   <v>       0.75000000       0.75000000       0.50000000 </v>
   <v>       0.25000000       0.00000000       0.25000000 </v>
   <v>       0.75000000       0.00000000       0.25000000 </v>
   <v>       0.25000000       0.50000000       0.25000000 </v>
   <v>       0.75000000       0.50000000       0.25000000 </v>
   <v>       0.25000000       0.00000000       0.75000000 </v>
   <v>       0.75000000       0.00000000       0.75000000 </v>
   <v>       0.25000000       0.50000000       0.75000000 </v>
   <v>       0.75000000       0.50000000       0.75000000 </v>
  </varray>
 </structure>
 <calculation>
  <scstep>
   <time name="dav">  364.49  371.27</time>
   <time name="total">  366.85  373.67</time>
   <energy>
    <i name="alphaZ">   2574.33730679 </i>
    <i name="ewald"> -67378.64113592 </i>
    <i name="hartreedc"> -36045.45592959 </i>
    <i name="XCdc">   4397.16307218 </i>
    <i name="pawpsdc"> 108725.82191982 </i>
    <i name="pawaedc">-112342.66432617 </i>
    <i name="eentropy">     -0.03013146 </i>
    <i name="bandstr">   -780.46549057 </i>
    <i name="atom"> 114309.28505226 </i>
    <i name="e_fr_energy">  13459.35033735 </i>
    <i name="e_wo_entrp">  13459.38046880 </i>
    <i name="e_0_energy">  13459.36540308 </i>
   </energy>
  </scstep>
  <scstep>
   <time name="dav">  352.37  358.68</time>
   <time name="total">  352.38  358.69</time>
   <energy>
    <i name="e_fr_energy">   1408.50560746 </i>
    <i name="e_wo_entrp">   1408.57369682 </i>
    <i name="e_0_energy">   1408.53965214 </i>
   </energy>
  </scstep>
  <scstep>
   <time name="dav">  383.17  390.02</time>
   <time name="total">  383.17  390.02</time>
   <energy>
    <i name="e_fr_energy">   -528.60264570 </i>
    <i name="e_wo_entrp">   -528.60264570 </i>
    <i name="e_0_energy">   -528.60264570 </i>
   </energy>
  </scstep>
  <scstep>
   <time name="dav">  442.97  450.42</time>
   <time name="total">  442.97  450.43</time>
   <energy>
    <i name="e_fr_energy">   -788.74835743 </i>
    <i name="e_wo_entrp">   -788.74835743 </i>
    <i name="e_0_energy">   -788.74835743 </i>
   </energy>
  </scstep>
  <scstep>
   <time name="dav">  552.87  562.17</time>
   <time name="total">  561.16  570.81</time>
   <energy>
    <i name="e_fr_energy">   -820.41606630 </i>
    <i name="e_wo_entrp">   -820.41606630 </i>
    <i name="e_0_energy">   -820.41606630 </i>
   </energy>
  </scstep>
  <scstep>
   <time name="dav">  456.04  464.51</time>
   <time name="total">  466.75  475.51</time>
   <energy>
    <i name="e_fr_energy">   -821.84784579 </i>
    <i name="e_wo_entrp">   -821.84784579 </i>
    <i name="e_0_energy">   -821.84784579 </i>
   </energy>
  </scstep>
  <scstep>
   <time name="dav">  514.81  523.39</time>
   <time name="total">  525.48  534.39</time>
   <energy>
    <i name="e_fr_energy">   -821.92579827 </i>
    <i name="e_wo_entrp">   -821.92579827 </i>
    <i name="e_0_energy">   -821.92579827 </i>
   </energy>
  </scstep>
  <scstep>
   <time name="dav">  488.34  496.68</time>
   <time name="total">  498.99  507.63</time>
   <energy>
    <i name="e_fr_energy">   -821.92604182 </i>
    <i name="e_wo_entrp">   -821.92604182 </i>
    <i name="e_0_energy">   -821.92604182 </i>
   </energy>
  </scstep>
  <scstep>
   <time name="dav">  514.55  523.84</time>
   <time name="total">  525.24  534.86</time>
   <energy>
    <i name="e_fr_energy">   -821.92514233 </i>
    <i name="e_wo_entrp">   -821.92514233 </i>
    <i name="e_0_energy">   -821.92514233 </i>
   </energy>
  </scstep>
  <scstep>
   <time name="dav">  501.38  510.75</time>
   <time name="total">  512.16  521.73</time>
   <energy>
    <i name="e_fr_energy">   -821.92514251 </i>
    <i name="e_wo_entrp">   -821.92514251 </i>
    <i name="e_0_energy">   -821.92514251 </i>
   </energy>
  </scstep>
  <scstep>
   <time name="dav">  472.88  481.64</time>
   <time name="total">  483.57  492.59</time>
   <energy>
    <i name="e_fr_energy">   -821.92367082 </i>
    <i name="e_wo_entrp">   -821.92367082 </i>
    <i name="e_0_energy">   -821.92367082 </i>
   </energy>
  </scstep>
  <scstep>
   <time name="dav">  492.10  500.70</time>
   <time name="total">  503.05  511.74</time>
   <energy>
    <i name="e_fr_energy">   -821.92221647 </i>
    <i name="e_wo_entrp">   -821.92221647 </i>
    <i name="e_0_energy">   -821.92221647 </i>
   </energy>
  </scstep>
  <scstep>
   <time name="dav">  503.12  511.42</time>
   <time name="total">  513.90  522.39</time>
   <energy>
    <i name="e_fr_energy">   -821.92107347 </i>
    <i name="e_wo_entrp">   -821.92107347 </i>
    <i name="e_0_energy">   -821.92107347 </i>
   </energy>
  </scstep>
  <scstep>
   <time name="dav">  455.03  463.60</time>
   <time name="total">  465.96  474.65</time>
   <energy>
    <i name="e_fr_energy">   -821.92073137 </i>
    <i name="e_wo_entrp">   -821.92073137 </i>
    <i name="e_0_energy">   -821.92073137 </i>
   </energy>
  </scstep>
  <scstep>
   <time name="dav">  437.20  444.97</time>
   <time name="total">  448.23  456.10</time>
   <energy>
    <i name="e_fr_energy">   -821.92041300 </i>
    <i name="e_wo_entrp">   -821.92041300 </i>
    <i name="e_0_energy">   -821.92041300 </i>
   </energy>
  </scstep>
  <scstep>
   <time name="dav">  471.06  479.65</time>
   <time name="total">  481.69  490.65</time>
   <energy>
    <i name="e_fr_energy">   -821.92028051 </i>
    <i name="e_wo_entrp">   -821.92028051 </i>
    <i name="e_0_energy">   -821.92028051 </i>
   </energy>
  </scstep>
  <scstep>
   <time name="dav">  506.59  515.38</time>
   <time name="total">  517.17  526.41</time>
   <energy>
    <i name="e_fr_energy">   -821.92022027 </i>
    <i name="e_wo_entrp">   -821.92022027 </i>
    <i name="e_0_energy">   -821.92022027 </i>
   </energy>
  </scstep>
  <scstep>
   <time name="dav">  432.51  440.49</time>
   <time name="total">  443.30  451.50</time>
   <energy>
    <i name="e_fr_energy">   -821.92020403 </i>
    <i name="e_wo_entrp">   -821.92020403 </i>
    <i name="e_0_energy">   -821.92020403 </i>
   </energy>
  </scstep>
  <scstep>
   <time name="dav">  380.75  387.44</time>
   <time name="total">  383.09  389.81</time>
   <energy>
    <i name="alphaZ">   2574.33730679 </i>
    <i name="ewald"> -67378.64113592 </i>
    <i name="hartreedc"> -36045.16042909 </i>
    <i name="XCdc">   4397.12852894 </i>
    <i name="pawpsdc"> 108723.68425567 </i>
    <i name="pawaedc">-112340.46530322 </i>
    <i name="eentropy">     -0.00000000 </i>
    <i name="bandstr"> -15062.08847993 </i>
    <i name="atom"> 114309.28505226 </i>
    <i name="e_fr_energy">   -821.92020450 </i>
    <i name="e_wo_entrp">   -821.92020450 </i>
    <i name="e_0_energy">   -821.92020450 </i>
   </energy>
  </scstep>
  <structure>
   <crystal>
    <varray name="basis" >
     <v>      15.42482202       0.00000000       0.00000000 </v>
     <v>       0.00000000      11.21024242       0.00000000 </v>
     <v>       0.00000000       0.00000000      11.27702698 </v>
    </varray>
    <i name="volume">   1949.97833107 </i>
    <varray name="rec_basis" >
     <v>       0.06483057       0.00000000       0.00000000 </v>
     <v>       0.00000000       0.08920414       0.00000000 </v>
     <v>       0.00000000       0.00000000       0.08867585 </v>
    </varray>
   </crystal>
   <varray name="positions" >
    <v>       0.12447665       0.25000000       0.46698674 </v>
    <v>       0.62500000       0.25000000       0.46751010 </v>
    <v>       0.12500000       0.75000000       0.46751010 </v>
    <v>       0.62500000       0.75000000       0.46751010 </v>
    <v>       0.12500000       0.25000000       0.96751010 </v>
    <v>       0.62500000       0.25000000       0.96751010 </v>
    <v>       0.12500000       0.75000000       0.96751010 </v>
    <v>       0.62500000       0.75000000       0.96751010 </v>
    <v>       0.12500000       0.00000000       0.28248990 </v>
    <v>       0.62500000       0.00000000       0.28248990 </v>
    <v>       0.12500000       0.50000000       0.28248990 </v>
    <v>       0.62500000       0.50000000       0.28248990 </v>
    <v>       0.12500000       0.00000000       0.78248990 </v>
    <v>       0.62500000       0.00000000       0.78248990 </v>
    <v>       0.12500000       0.50000000       0.78248990 </v>
    <v>       0.62500000       0.50000000       0.78248990 </v>
    <v>       0.37500000       0.25000000       0.03248990 </v>
    <v>       0.87500000       0.25000000       0.03248990 </v>
    <v>       0.37500000       0.75000000       0.03248990 </v>
    <v>       0.87500000       0.75000000       0.03248990 </v>
    <v>       0.37500000       0.25000000       0.53248990 </v>
    <v>       0.87500000       0.25000000       0.53248990 </v>
    <v>       0.37500000       0.75000000       0.53248990 </v>
    <v>       0.87500000       0.75000000       0.53248990 </v>
    <v>       0.37500000       0.00000000       0.21751010 </v>
    <v>       0.87500000       0.00000000       0.21751010 </v>
    <v>       0.37500000       0.50000000       0.21751010 </v>
    <v>       0.87500000       0.50000000       0.21751010 </v>
    <v>       0.37500000       0.00000000       0.71751010 </v>
    <v>       0.87500000       0.00000000       0.71751010 </v>
    <v>       0.37500000       0.50000000       0.71751010 </v>
    <v>       0.87500000       0.50000000       0.71751010 </v>
    <v>       0.26924068       0.37500000       0.37500000 </v>
    <v>       0.76924068       0.37500000       0.37500000 </v>
    <v>       0.26924068       0.87500000       0.37500000 </v>
    <v>       0.76924068       0.87500000       0.37500000 </v>
    <v>       0.26924068       0.37500000       0.87500000 </v>
    <v>       0.76924068       0.37500000       0.87500000 </v>
    <v>       0.26924068       0.87500000       0.87500000 </v>
    <v>       0.76924068       0.87500000       0.87500000 </v>
    <v>       0.23075932       0.12500000       0.12500000 </v>
    <v>       0.73075932       0.12500000       0.12500000 </v>
    <v>       0.23075932       0.62500000       0.12500000 </v>
    <v>       0.73075932       0.62500000       0.12500000 </v>
    <v>       0.23075932       0.12500000       0.62500000 </v>
    <v>       0.73075932       0.12500000       0.62500000 </v>
    <v>       0.23075932       0.62500000       0.62500000 </v>
    <v>       0.73075932       0.62500000       0.62500000 </v>
    <v>       0.01924068       0.37500000       0.12500000 </v>
    <v>       0.51924068       0.37500000       0.12500000 </v>
    <v>       0.01924068       0.87500000       0.12500000 </v>
    <v>       0.51924068       0.87500000       0.12500000 </v>
    <v>       0.01924068       0.37500000       0.62500000 </v>
    <v>       0.51924068       0.37500000       0.62500000 </v>
    <v>       0.01924068       0.87500000       0.62500000 </v>
    <v>       0.51924068       0.87500000       0.62500000 </v>
    <v>       0.48075932       0.12500000       0.37500000 </v>
    <v>       0.98075932       0.12500000       0.37500000 </v>
    <v>       0.48075932       0.62500000       0.37500000 </v>
    <v>       0.98075932       0.62500000       0.37500000 </v>
    <v>       0.48075932       0.12500000       0.87500000 </v>
    <v>       0.98075932       0.12500000       0.87500000 </v>
    <v>       0.48075932       0.62500000       0.87500000 </v>
    <v>       0.98075932       0.62500000       0.87500000 </v>
    <v>       0.48606648       0.37500000       0.37500000 </v>
    <v>       0.98606648       0.37500000       0.37500000 </v>
    <v>       0.48606648       0.87500000       0.37500000 </v>
    <v>       0.98606648       0.87500000       0.37500000 </v>
    <v>       0.48606648       0.37500000       0.87500000 </v>
    <v>       0.98606648       0.37500000       0.87500000 </v>
    <v>       0.48606648       0.87500000       0.87500000 </v>
    <v>       0.98606648       0.87500000       0.87500000 </v>
    <v>       0.01393352       0.12500000       0.12500000 </v>
    <v>       0.51393352       0.12500000       0.12500000 </v>
    <v>       0.01393352       0.62500000       0.12500000 </v>
    <v>       0.51393352       0.62500000       0.12500000 </v>
    <v>       0.01393352       0.12500000       0.62500000 </v>
    <v>       0.51393352       0.12500000       0.62500000 </v>
    <v>       0.01393352       0.62500000       0.62500000 </v>
    <v>       0.51393352       0.62500000       0.62500000 </v>
    <v>       0.23606648       0.37500000       0.12500000 </v>
    <v>       0.73606648       0.37500000       0.12500000 </v>
    <v>       0.23606648       0.87500000       0.12500000 </v>
    <v>       0.73606648       0.87500000       0.12500000 </v>
    <v>       0.23606648       0.37500000       0.62500000 </v>
    <v>       0.73606648       0.37500000       0.62500000 </v>
    <v>       0.23606648       0.87500000       0.62500000 </v>
    <v>       0.73606648       0.87500000       0.62500000 </v>
    <v>       0.26393352       0.12500000       0.37500000 </v>
    <v>       0.76393352       0.12500000       0.37500000 </v>
    <v>       0.26393352       0.62500000       0.37500000 </v>
    <v>       0.76393352       0.62500000       0.37500000 </v>
    <v>       0.26393352       0.12500000       0.87500000 </v>
    <v>       0.76393352       0.12500000       0.87500000 </v>
    <v>       0.26393352       0.62500000       0.87500000 </v>
    <v>       0.76393352       0.62500000       0.87500000 </v>
    <v>       0.12500000       0.00000000       0.50106053 </v>
    <v>       0.62500000       0.00000000       0.50106053 </v>
    <v>       0.12500000       0.50000000       0.50106053 </v>
    <v>       0.62500000       0.50000000       0.50106053 </v>
    <v>       0.12500000       0.00000000       0.00106053 </v>
    <v>       0.62500000       0.00000000       0.00106053 </v>
    <v>       0.12500000       0.50000000       0.00106053 </v>
    <v>       0.62500000       0.50000000       0.00106053 </v>
    <v>       0.12500000       0.25000000       0.24893947 </v>
    <v>       0.62500000       0.25000000       0.24893947 </v>
    <v>       0.12500000       0.75000000       0.24893947 </v>
    <v>       0.62500000       0.75000000       0.24893947 </v>
    <v>       0.12500000       0.25000000       0.74893947 </v>
    <v>       0.62500000       0.25000000       0.74893947 </v>
    <v>       0.12500000       0.75000000       0.74893947 </v>
    <v>       0.62500000       0.75000000       0.74893947 </v>
    <v>       0.37500000       0.00000000       0.99893947 </v>
    <v>       0.87500000       0.00000000       0.99893947 </v>
    <v>       0.37500000       0.50000000       0.99893947 </v>
    <v>       0.87500000       0.50000000       0.99893947 </v>
    <v>       0.37500000       0.00000000       0.49893947 </v>
    <v>       0.87500000       0.00000000       0.49893947 </v>
    <v>       0.37500000       0.50000000       0.49893947 </v>
    <v>       0.87500000       0.50000000       0.49893947 </v>
    <v>       0.37500000       0.25000000       0.25106053 </v>
    <v>       0.87500000       0.25000000       0.25106053 </v>
    <v>       0.37500000       0.75000000       0.25106053 </v>
    <v>       0.87500000       0.75000000       0.25106053 </v>
    <v>       0.37500000       0.25000000       0.75106053 </v>
    <v>       0.87500000       0.25000000       0.75106053 </v>
    <v>       0.37500000       0.75000000       0.75106053 </v>
    <v>       0.87500000       0.75000000       0.75106053 </v>
    <v>       0.00000000       0.25000000       0.00000000 </v>
    <v>       0.50000000       0.25000000       0.00000000 </v>
    <v>       0.00000000       0.75000000       0.00000000 </v>
    <v>       0.50000000       0.75000000       0.00000000 </v>
    <v>       0.00000000       0.25000000       0.50000000 </v>
    <v>       0.50000000       0.25000000       0.50000000 </v>
    <v>       0.00000000       0.75000000       0.50000000 </v>
    <v>       0.50000000       0.75000000       0.50000000 </v>
    <v>       0.00000000       0.00000000       0.25000000 </v>
    <v>       0.50000000       0.00000000       0.25000000 </v>
    <v>       0.00000000       0.50000000       0.25000000 </v>
    <v>       0.50000000       0.50000000       0.25000000 </v>
    <v>       0.00000000       0.00000000       0.75000000 </v>
    <v>       0.50000000       0.00000000       0.75000000 </v>
    <v>       0.00000000       0.50000000       0.75000000 </v>
    <v>       0.50000000       0.50000000       0.75000000 </v>
    <v>       0.25000000       0.25000000       0.00000000 </v>
    <v>       0.75000000       0.25000000       0.00000000 </v>
    <v>       0.25000000       0.75000000       0.00000000 </v>
    <v>       0.75000000       0.75000000       0.00000000 </v>
    <v>       0.25000000       0.25000000       0.50000000 </v>
    <v>       0.75000000       0.25000000       0.50000000 </v>
    <v>       0.25000000       0.75000000       0.50000000 </v>
    <v>       0.75000000       0.75000000       0.50000000 </v>
    <v>       0.25000000       0.00000000       0.25000000 </v>
    <v>       0.75000000       0.00000000       0.25000000 </v>
    <v>       0.25000000       0.50000000       0.25000000 </v>
    <v>       0.75000000       0.50000000       0.25000000 </v>
    <v>       0.25000000       0.00000000       0.75000000 </v>
    <v>       0.75000000       0.00000000       0.75000000 </v>
    <v>       0.25000000       0.50000000       0.75000000 </v>
    <v>       0.75000000       0.50000000       0.75000000 </v>
   </varray>
  </structure>
  <varray name="forces" >
   <v>       0.05224876      -0.00157633       0.01773245 </v>
   <v>      -0.00018344       0.00000689      -0.00003423 </v>
   <v>      -0.00010081      -0.00002694      -0.00006351 </v>
   <v>      -0.00014921       0.00000711      -0.00005090 </v>
   <v>      -0.00013365      -0.00002990      -0.00137261 </v>
   <v>      -0.00013440       0.00000090      -0.00008369 </v>
   <v>       0.00009750       0.00001190      -0.00006360 </v>
   <v>      -0.00004579       0.00000716      -0.00007107 </v>
   <v>       0.00038993      -0.00085675       0.00015961 </v>
   <v>      -0.00011887      -0.00001760       0.00007372 </v>
   <v>       0.00034626       0.00089647       0.00022287 </v>
   <v>      -0.00011160       0.00000377       0.00007282 </v>
   <v>       0.00015556       0.00042655      -0.00006777 </v>
   <v>      -0.00010593       0.00000144       0.00004986 </v>
   <v>       0.00025379      -0.00047027      -0.00020360 </v>
   <v>      -0.00010501      -0.00000599       0.00005517 </v>
   <v>       0.00017292      -0.00001855       0.00007695 </v>
   <v>       0.00004273       0.00002886      -0.00010521 </v>
   <v>      -0.00001050       0.00001157       0.00005981 </v>
   <v>      -0.00002741      -0.00000929       0.00003446 </v>
   <v>      -0.00128155       0.00002494      -0.00007681 </v>
   <v>      -0.00101959      -0.00012100       0.00030139 </v>
   <v>       0.00006130       0.00000504       0.00002514 </v>
   <v>       0.00012708       0.00004604       0.00011517 </v>
   <v>      -0.00001018       0.00004813      -0.00000355 </v>
   <v>      -0.00009725      -0.00014603      -0.00012953 </v>
   <v>       0.00009460      -0.00005085       0.00003101 </v>
   <v>      -0.00016030       0.00010673      -0.00014115 </v>
   <v>      -0.00004977       0.00011935      -0.00017818 </v>
   <v>      -0.00003024      -0.00008219       0.00003084 </v>
   <v>      -0.00013241      -0.00009896      -0.00016716 </v>
   <v>       0.00006509       0.00006852       0.00008157 </v>
   <v>      -0.00102216      -0.00173278       0.00238526 </v>
   <v>      -0.00043605       0.00007891       0.00002814 </v>
   <v>      -0.00002054       0.00014069       0.00006594 </v>
   <v>      -0.00027440      -0.00003364      -0.00004830 </v>
   <v>      -0.00021047      -0.00005591      -0.00045593 </v>
   <v>      -0.00025535       0.00006111      -0.00000212 </v>
   <v>      -0.00003754       0.00003059      -0.00009045 </v>
   <v>      -0.00020970      -0.00003569      -0.00001662 </v>
   <v>       0.00091493      -0.00065548      -0.00026362 </v>
   <v>      -0.00007906      -0.00009663      -0.00007719 </v>
   <v>       0.00021423       0.00007563      -0.00002054 </v>
   <v>       0.00005556       0.00002447      -0.00003251 </v>
   <v>      -0.00244073       0.00359897      -0.00345866 </v>
   <v>      -0.00001974      -0.00001253       0.00004652 </v>
   <v>       0.00033634      -0.00018602       0.00012017 </v>
   <v>      -0.00004335       0.00004830       0.00008411 </v>
   <v>      -0.00045254       0.00021978      -0.00060466 </v>
   <v>      -0.00028664      -0.00005146       0.00001087 </v>
   <v>      -0.00001788      -0.00009903      -0.00006389 </v>
   <v>      -0.00020992       0.00002251       0.00001161 </v>
   <v>       0.00097265       0.00076234       0.00154441 </v>
   <v>      -0.00035260      -0.00003793      -0.00001323 </v>
   <v>       0.00004999      -0.00006201      -0.00015776 </v>
   <v>      -0.00031996       0.00003205      -0.00006981 </v>
   <v>      -0.00009271      -0.00000420       0.00010894 </v>
   <v>      -0.00363151      -0.00318155      -0.00170302 </v>
   <v>      -0.00003755      -0.00006215       0.00015022 </v>
   <v>       0.00044252       0.00024847       0.00024129 </v>
   <v>      -0.00004253       0.00012182      -0.00010098 </v>
   <v>       0.00057663       0.00019026      -0.00014330 </v>
   <v>       0.00006800      -0.00000302      -0.00005454 </v>
   <v>       0.00017089      -0.00000442      -0.00008129 </v>
   <v>      -0.00042105      -0.00000442       0.00017429 </v>
   <v>      -0.00818149       0.00792140      -0.00464228 </v>
   <v>      -0.00032806       0.00006713       0.00026846 </v>
   <v>       0.00052155      -0.00035481       0.00054983 </v>
   <v>      -0.00030907      -0.00024382      -0.00016890 </v>
   <v>       0.00080762      -0.00030672      -0.00045039 </v>
   <v>      -0.00015615       0.00006568      -0.00011174 </v>
   <v>       0.00010577      -0.00004535      -0.00007319 </v>
   <v>      -0.00051476      -0.00035020      -0.00093796 </v>
   <v>      -0.00026356       0.00010145      -0.00000834 </v>
   <v>       0.00022293       0.00044725      -0.00037894 </v>
   <v>      -0.00011775      -0.00004175       0.00006001 </v>
   <v>       0.00153363      -0.00296441       0.00460725 </v>
   <v>      -0.00040342       0.00007376      -0.00003473 </v>
   <v>       0.00050513      -0.00002753      -0.00029740 </v>
   <v>      -0.00032692      -0.00005088      -0.00016753 </v>
   <v>       0.00155353       0.00107579      -0.00060942 </v>
   <v>      -0.00038256       0.00019715      -0.00015553 </v>
   <v>       0.00015987       0.00004343       0.00010940 </v>
   <v>      -0.00017528      -0.00007820      -0.00008687 </v>
   <v>      -0.00512887      -0.00746700      -0.00724592 </v>
   <v>      -0.00034616      -0.00000506       0.00015664 </v>
   <v>       0.00040951       0.00021466       0.00015109 </v>
   <v>      -0.00026937      -0.00003279       0.00014927 </v>
   <v>      -0.00252589       0.00521224       0.00653869 </v>
   <v>      -0.00042343      -0.00017974       0.00011579 </v>
   <v>       0.00025942      -0.00000578       0.00024920 </v>
   <v>      -0.00030511       0.00009949      -0.00013084 </v>
   <v>      -0.00012480       0.00007613      -0.00076821 </v>
   <v>      -0.00025228      -0.00013466      -0.00004107 </v>
   <v>       0.00016619      -0.00029080      -0.00042396 </v>
   <v>      -0.00011849       0.00007265       0.00000422 </v>
   <v>      -0.00239541      -0.00040786      -0.00121184 </v>
   <v>       0.00037364       0.00000377      -0.00001189 </v>
   <v>      -0.00233302       0.00050143      -0.00105255 </v>
   <v>       0.00039023      -0.00000741       0.00000465 </v>
   <v>      -0.00024078       0.00017586       0.00049997 </v>
   <v>       0.00021946      -0.00000356       0.00004517 </v>
   <v>      -0.00015018      -0.00020877       0.00067689 </v>
   <v>       0.00021456      -0.00000998       0.00006438 </v>
   <v>      -0.00297728      -0.00038954      -0.00611958 </v>
   <v>       0.00039441       0.00000181      -0.00002555 </v>
   <v>      -0.00022885      -0.00008756      -0.00020112 </v>
   <v>       0.00022838      -0.00000614      -0.00003410 </v>
   <v>      -0.00170395      -0.00010944       0.00257939 </v>
   <v>       0.00035244       0.00001280      -0.00002001 </v>
   <v>      -0.00018649       0.00008278       0.00003131 </v>
   <v>       0.00021350       0.00001118      -0.00001626 </v>
   <v>      -0.00000107      -0.00006088       0.00004426 </v>
   <v>       0.00006221       0.00010753       0.00009206 </v>
   <v>      -0.00008974       0.00002264       0.00014821 </v>
   <v>       0.00002327      -0.00006892       0.00014253 </v>
   <v>       0.00059423      -0.00083011      -0.00006524 </v>
   <v>       0.00038423       0.00069627      -0.00013085 </v>
   <v>       0.00064270       0.00083986      -0.00021285 </v>
   <v>       0.00053726      -0.00079067      -0.00026237 </v>
   <v>       0.00022074       0.00011077      -0.00097351 </v>
   <v>       0.00088932       0.00007467       0.00070177 </v>
   <v>      -0.00004151      -0.00004857      -0.00010083 </v>
   <v>       0.00006499      -0.00005725       0.00005785 </v>
   <v>       0.00071273      -0.00006400       0.00086625 </v>
   <v>       0.00025804       0.00000633      -0.00061419 </v>
   <v>       0.00005257       0.00002796       0.00013991 </v>
   <v>      -0.00005941       0.00001659      -0.00000073 </v>
   <v>      -0.00017706      -0.00023862       0.00120531 </v>
   <v>       0.00030788      -0.00003086       0.00008416 </v>
   <v>      -0.00008267      -0.00005813       0.00008138 </v>
   <v>       0.00011528      -0.00003725       0.00003284 </v>
   <v>      -0.01133339       0.00057017      -0.00277806 </v>
   <v>       0.00046103       0.00001021      -0.00010354 </v>
   <v>      -0.00061704       0.00003563      -0.00005454 </v>
   <v>       0.00035115       0.00000269      -0.00001444 </v>
   <v>       0.00008213       0.00089845      -0.00001668 </v>
[...]
       <r>   -27.7744     0.0000   160.0000 </r>
       <r>   -27.5358     0.0000   160.0000 </r>
       <r>   -27.2971     0.0000   160.0000 </r>
       <r>   -27.0584     0.0000   160.0000 </r>
       <r>   -26.8198     0.0000   160.0000 </r>
       <r>   -26.5811     0.0000   160.0000 </r>
       <r>   -26.3424     0.0000   160.0000 </r>
       <r>   -26.1038     0.0000   160.0000 </r>
       <r>   -25.8651     0.0000   160.0000 </r>
       <r>   -25.6264     0.0000   160.0000 </r>
       <r>   -25.3878     0.0000   160.0000 </r>
       <r>   -25.1491     0.0000   160.0000 </r>
       <r>   -24.9104     0.0000   160.0000 </r>
       <r>   -24.6718     0.0000   160.0000 </r>
       <r>   -24.4331     0.0000   160.0000 </r>
       <r>   -24.1944     0.0000   160.0000 </r>
       <r>   -23.9558     0.0000   160.0000 </r>
       <r>   -23.7171     0.0000   160.0000 </r>
       <r>   -23.4784     0.0000   160.0000 </r>
       <r>   -23.2398     0.0000   160.0000 </r>
       <r>   -23.0011     0.0000   160.0000 </r>
       <r>   -22.7624     0.0000   160.0000 </r>
       <r>   -22.5238     0.0000   160.0000 </r>
       <r>   -22.2851     0.0000   160.0000 </r>
       <r>   -22.0464     0.0000   160.0000 </r>
       <r>   -21.8078     0.0000   160.0000 </r>
       <r>   -21.5691     0.0000   160.0000 </r>
       <r>   -21.3304     0.0000   160.0000 </r>
       <r>   -21.0918     0.0000   160.0000 </r>
       <r>   -20.8531     0.0000   160.0000 </r>
       <r>   -20.6144     0.0000   160.0000 </r>
       <r>   -20.3758     0.0000   160.0000 </r>
       <r>   -20.1371     0.0000   160.0000 </r>
       <r>   -19.8984     0.0000   160.0000 </r>
       <r>   -19.6598     0.0000   160.0000 </r>
       <r>   -19.4211     0.0000   160.0000 </r>
       <r>   -19.1824     0.0000   160.0000 </r>
       <r>   -18.9438     0.0000   160.0000 </r>
       <r>   -18.7051     0.0000   160.0000 </r>
       <r>   -18.4664     0.0000   160.0000 </r>
       <r>   -18.2278     0.0000   160.0000 </r>
       <r>   -17.9891     0.0000   160.0000 </r>
       <r>   -17.7505     0.0000   160.0000 </r>
       <r>   -17.5118     0.0000   160.0000 </r>
       <r>   -17.2731     0.0000   160.0000 </r>
       <r>   -17.0345     0.0000   160.0000 </r>
       <r>   -16.7958     0.0000   160.0000 </r>
       <r>   -16.5571     0.0000   160.0000 </r>
       <r>   -16.3185     0.0000   160.0000 </r>
       <r>   -16.0798     0.0000   160.0000 </r>
       <r>   -15.8411     0.0000   160.0000 </r>
       <r>   -15.6025     0.0000   160.0000 </r>
       <r>   -15.3638     0.0000   160.0000 </r>
       <r>   -15.1251     0.0000   160.0000 </r>
       <r>   -14.8865     0.0000   160.0000 </r>
       <r>   -14.6478     0.0000   160.0000 </r>
       <r>   -14.4091     0.0000   160.0000 </r>
       <r>   -14.1705     0.0000   160.0000 </r>
       <r>   -13.9318     0.0000   160.0000 </r>
       <r>   -13.6931     0.0000   160.0000 </r>
       <r>   -13.4545     0.0000   160.0000 </r>
       <r>   -13.2158     5.0607   161.2078 </r>
       <r>   -12.9771   108.1213   187.0127 </r>
       <r>   -12.7385    20.8964   192.0000 </r>
       <r>   -12.4998     0.0000   192.0000 </r>
       <r>   -12.2611     0.0000   192.0000 </r>
       <r>   -12.0225     0.0000   192.0000 </r>
       <r>   -11.7838     0.0000   192.0000 </r>
       <r>   -11.5451     0.0000   192.0000 </r>
       <r>   -11.3065     0.0000   192.0000 </r>
       <r>   -11.0678     0.0000   192.0000 </r>
       <r>   -10.8291     0.0000   192.0000 </r>
       <r>   -10.5905     0.0000   192.0000 </r>
       <r>   -10.3518     0.0000   192.0000 </r>
       <r>   -10.1131     0.0000   192.0000 </r>
       <r>    -9.8745     0.0000   192.0000 </r>
       <r>    -9.6358     0.0000   192.0000 </r>
       <r>    -9.3971     0.0000   192.0000 </r>
       <r>    -9.1585     0.0000   192.0000 </r>
       <r>    -8.9198     0.0000   192.0000 </r>
       <r>    -8.6811     0.0000   192.0000 </r>
       <r>    -8.4425     0.0000   192.0000 </r>
       <r>    -8.2038     0.0000   192.0000 </r>
       <r>    -7.9651     0.0000   192.0000 </r>
       <r>    -7.7265     0.0000   192.0000 </r>
       <r>    -7.4878     0.1035   192.0247 </r>
       <r>    -7.2491    40.8612   201.7769 </r>
       <r>    -7.0105    63.7054   216.9812 </r>
       <r>    -6.7718    28.4565   223.7728 </r>
       <r>    -6.5331     0.9519   224.0000 </r>
       <r>    -6.2945     0.0000   224.0000 </r>
       <r>    -6.0558     0.0000   224.0000 </r>
       <r>    -5.8171     0.0000   224.0000 </r>
       <r>    -5.5785     0.0000   224.0000 </r>
       <r>    -5.3398     0.0000   224.0000 </r>
       <r>    -5.1011     0.0000   224.0000 </r>
       <r>    -4.8625     0.0000   224.0000 </r>
       <r>    -4.6238     0.0000   224.0000 </r>
       <r>    -4.3851     0.0000   224.0000 </r>
       <r>    -4.1465     0.0000   224.0000 </r>
       <r>    -3.9078     0.0000   224.0000 </r>
       <r>    -3.6691     0.0000   224.0000 </r>
       <r>    -3.4305     0.0000   224.0000 </r>
       <r>    -3.1918     0.0000   224.0000 </r>
       <r>    -2.9531     0.0000   224.0000 </r>
       <r>    -2.7145     0.0000   224.0000 </r>
       <r>    -2.4758     0.0000   224.0000 </r>
       <r>    -2.2371     0.0000   224.0000 </r>
       <r>    -1.9985     0.0000   224.0000 </r>
       <r>    -1.7598     0.0000   224.0000 </r>
       <r>    -1.5211     0.0000   224.0000 </r>
       <r>    -1.2825     0.0000   224.0000 </r>
       <r>    -1.0438     0.0781   224.0186 </r>
       <r>    -0.8051    20.9529   229.0194 </r>
       <r>    -0.5665    28.1038   235.7268 </r>
       <r>    -0.3278    15.7451   239.4846 </r>
       <r>    -0.0891    14.3714   242.9146 </r>
       <r>     0.1495    26.1901   249.1653 </r>
       <r>     0.3882    51.2174   261.3892 </r>
       <r>     0.6269    78.6976   280.1716 </r>
       <r>     0.8655    71.6044   297.2612 </r>
       <r>     1.1042    76.7382   315.5760 </r>
       <r>     1.3429    29.6703   322.6573 </r>
       <r>     1.5815    37.3767   331.5779 </r>
       <r>     1.8202    49.6458   343.4267 </r>
       <r>     2.0589    43.7155   353.8601 </r>
       <r>     2.2975    28.2852   360.6108 </r>
       <r>     2.5362    50.8159   372.7389 </r>
       <r>     2.7749    68.0225   388.9735 </r>
       <r>     3.0135    82.2519   408.6043 </r>
       <r>     3.2522    29.2109   415.5760 </r>
       <r>     3.4909    21.9565   420.8162 </r>
       <r>     3.7295    47.4285   432.1358 </r>
       <r>     3.9682    55.5992   445.4055 </r>
       <r>     4.2069    10.8704   447.9999 </r>
       <r>     4.4455     0.0006   448.0000 </r>
       <r>     4.6842     0.0000   448.0000 </r>
       <r>     4.9228     0.0000   448.0000 </r>
       <r>     5.1615     0.0000   448.0000 </r>
       <r>     5.4002     0.0000   448.0000 </r>
       <r>     5.6388     0.0000   448.0000 </r>
       <r>     5.8775     0.0000   448.0000 </r>
       <r>     6.1162     0.0000   448.0000 </r>
       <r>     6.3548     0.0000   448.0000 </r>
       <r>     6.5935     1.3226   448.3157 </r>
       <r>     6.8322    53.3020   461.0370 </r>
       <r>     7.0708    76.9743   479.4082 </r>
       <r>     7.3095    57.9990   493.2506 </r>
       <r>     7.5482    68.6932   509.6454 </r>
       <r>     7.7868    63.4469   524.7880 </r>
       <r>     8.0255    97.7348   548.1140 </r>
       <r>     8.2642    70.2493   564.8801 </r>
       <r>     8.5028    35.4385   573.3381 </r>
       <r>     8.7415    13.1852   576.4850 </r>
       <r>     8.9802     8.4137   578.4931 </r>
       <r>     9.2188    11.5252   581.2437 </r>
       <r>     9.4575    20.5378   586.1454 </r>
       <r>     9.6962    25.5769   592.2498 </r>
       <r>     9.9348    41.6680   602.1945 </r>
       <r>    10.1735    32.7626   610.0138 </r>
       <r>    10.4122    33.8240   618.0865 </r>
       <r>    10.6508    32.7993   625.9146 </r>
       <r>    10.8895    23.4916   631.5213 </r>
       <r>    11.1282    34.0014   639.6362 </r>
       <r>    11.3668    23.1664   645.1653 </r>
       <r>    11.6055    35.7561   653.6990 </r>
       <r>    11.8442    52.3778   666.1999 </r>
       <r>    12.0828    58.0206   680.0474 </r>
       <r>    12.3215    45.8756   690.9964 </r>
       <r>    12.5602    31.0805   698.4143 </r>
       <r>    12.7988    32.5348   706.1792 </r>
       <r>    13.0375    35.2927   714.6024 </r>
       <r>    13.2762    36.6070   723.3393 </r>
       <r>    13.5148    28.9143   730.2402 </r>
       <r>    13.7535     7.3736   732.0000 </r>
       <r>    13.9922     0.0000   732.0000 </r>
       <r>    14.2308     0.0000   732.0000 </r>
       <r>    14.4695     0.0000   732.0000 </r>
       <r>    14.7082     0.0000   732.0000 </r>
       <r>    14.9468     0.0000   732.0000 </r>
       <r>    15.1855     0.0000   732.0000 </r>
       <r>    15.4242     0.0000   732.0000 </r>
       <r>    15.6628     0.0000   732.0000 </r>
       <r>    15.9015     0.0000   732.0000 </r>
       <r>    16.1402     0.0000   732.0000 </r>
       <r>    16.3788     0.0000   732.0000 </r>
       <r>    16.6175     0.0000   732.0000 </r>
       <r>    16.8562     0.0000   732.0000 </r>
      </set>
     </set>
    </array>
   </total>
  </dos>
 </calculation>
 <structure name="finalpos" >
  <crystal>
   <varray name="basis" >
    <v>      15.42482202       0.00000000       0.00000000 </v>
    <v>       0.00000000      11.21024242       0.00000000 </v>
    <v>       0.00000000       0.00000000      11.27702698 </v>
   </varray>
   <i name="volume">   1949.97833107 </i>
   <varray name="rec_basis" >
    <v>       0.06483057       0.00000000       0.00000000 </v>
    <v>       0.00000000       0.08920414       0.00000000 </v>
    <v>       0.00000000       0.00000000       0.08867585 </v>
   </varray>
  </crystal>
  <varray name="positions" >
   <v>       0.12447665       0.25000000       0.46698674 </v>
   <v>       0.62500000       0.25000000       0.46751010 </v>
   <v>       0.12500000       0.75000000       0.46751010 </v>
   <v>       0.62500000       0.75000000       0.46751010 </v>
   <v>       0.12500000       0.25000000       0.96751010 </v>
   <v>       0.62500000       0.25000000       0.96751010 </v>
   <v>       0.12500000       0.75000000       0.96751010 </v>
   <v>       0.62500000       0.75000000       0.96751010 </v>
   <v>       0.12500000       0.00000000       0.28248990 </v>
   <v>       0.62500000       0.00000000       0.28248990 </v>
   <v>       0.12500000       0.50000000       0.28248990 </v>
   <v>       0.62500000       0.50000000       0.28248990 </v>
   <v>       0.12500000       0.00000000       0.78248990 </v>
   <v>       0.62500000       0.00000000       0.78248990 </v>
   <v>       0.12500000       0.50000000       0.78248990 </v>
   <v>       0.62500000       0.50000000       0.78248990 </v>
   <v>       0.37500000       0.25000000       0.03248990 </v>
   <v>       0.87500000       0.25000000       0.03248990 </v>
   <v>       0.37500000       0.75000000       0.03248990 </v>
   <v>       0.87500000       0.75000000       0.03248990 </v>
   <v>       0.37500000       0.25000000       0.53248990 </v>
   <v>       0.87500000       0.25000000       0.53248990 </v>
   <v>       0.37500000       0.75000000       0.53248990 </v>
   <v>       0.87500000       0.75000000       0.53248990 </v>
   <v>       0.37500000       0.00000000       0.21751010 </v>
   <v>       0.87500000       0.00000000       0.21751010 </v>
   <v>       0.37500000       0.50000000       0.21751010 </v>
   <v>       0.87500000       0.50000000       0.21751010 </v>
   <v>       0.37500000       0.00000000       0.71751010 </v>
   <v>       0.87500000       0.00000000       0.71751010 </v>
   <v>       0.37500000       0.50000000       0.71751010 </v>
   <v>       0.87500000       0.50000000       0.71751010 </v>
   <v>       0.26924068       0.37500000       0.37500000 </v>
   <v>       0.76924068       0.37500000       0.37500000 </v>
   <v>       0.26924068       0.87500000       0.37500000 </v>
   <v>       0.76924068       0.87500000       0.37500000 </v>
   <v>       0.26924068       0.37500000       0.87500000 </v>
   <v>       0.76924068       0.37500000       0.87500000 </v>
   <v>       0.26924068       0.87500000       0.87500000 </v>
   <v>       0.76924068       0.87500000       0.87500000 </v>
   <v>       0.23075932       0.12500000       0.12500000 </v>
   <v>       0.73075932       0.12500000       0.12500000 </v>
   <v>       0.23075932       0.62500000       0.12500000 </v>
   <v>       0.73075932       0.62500000       0.12500000 </v>
   <v>       0.23075932       0.12500000       0.62500000 </v>
   <v>       0.73075932       0.12500000       0.62500000 </v>
   <v>       0.23075932       0.62500000       0.62500000 </v>
   <v>       0.73075932       0.62500000       0.62500000 </v>
   <v>       0.01924068       0.37500000       0.12500000 </v>
   <v>       0.51924068       0.37500000       0.12500000 </v>
   <v>       0.01924068       0.87500000       0.12500000 </v>
   <v>       0.51924068       0.87500000       0.12500000 </v>
   <v>       0.01924068       0.37500000       0.62500000 </v>
   <v>       0.51924068       0.37500000       0.62500000 </v>
   <v>       0.01924068       0.87500000       0.62500000 </v>
   <v>       0.51924068       0.87500000       0.62500000 </v>
   <v>       0.48075932       0.12500000       0.37500000 </v>
   <v>       0.98075932       0.12500000       0.37500000 </v>
   <v>       0.48075932       0.62500000       0.37500000 </v>
   <v>       0.98075932       0.62500000       0.37500000 </v>
   <v>       0.48075932       0.12500000       0.87500000 </v>
   <v>       0.98075932       0.12500000       0.87500000 </v>
   <v>       0.48075932       0.62500000       0.87500000 </v>
   <v>       0.98075932       0.62500000       0.87500000 </v>
   <v>       0.48606648       0.37500000       0.37500000 </v>
   <v>       0.98606648       0.37500000       0.37500000 </v>
   <v>       0.48606648       0.87500000       0.37500000 </v>
   <v>       0.98606648       0.87500000       0.37500000 </v>
   <v>       0.48606648       0.37500000       0.87500000 </v>
   <v>       0.98606648       0.37500000       0.87500000 </v>
   <v>       0.48606648       0.87500000       0.87500000 </v>
   <v>       0.98606648       0.87500000       0.87500000 </v>
   <v>       0.01393352       0.12500000       0.12500000 </v>
   <v>       0.51393352       0.12500000       0.12500000 </v>
   <v>       0.01393352       0.62500000       0.12500000 </v>
   <v>       0.51393352       0.62500000       0.12500000 </v>
   <v>       0.01393352       0.12500000       0.62500000 </v>
   <v>       0.51393352       0.12500000       0.62500000 </v>
   <v>       0.01393352       0.62500000       0.62500000 </v>
   <v>       0.51393352       0.62500000       0.62500000 </v>
   <v>       0.23606648       0.37500000       0.12500000 </v>
   <v>       0.73606648       0.37500000       0.12500000 </v>
   <v>       0.23606648       0.87500000       0.12500000 </v>
   <v>       0.73606648       0.87500000       0.12500000 </v>
   <v>       0.23606648       0.37500000       0.62500000 </v>
   <v>       0.73606648       0.37500000       0.62500000 </v>
   <v>       0.23606648       0.87500000       0.62500000 </v>
   <v>       0.73606648       0.87500000       0.62500000 </v>
   <v>       0.26393352       0.12500000       0.37500000 </v>
   <v>       0.76393352       0.12500000       0.37500000 </v>
   <v>       0.26393352       0.62500000       0.37500000 </v>
   <v>       0.76393352       0.62500000       0.37500000 </v>
   <v>       0.26393352       0.12500000       0.87500000 </v>
   <v>       0.76393352       0.12500000       0.87500000 </v>
   <v>       0.26393352       0.62500000       0.87500000 </v>
   <v>       0.76393352       0.62500000       0.87500000 </v>
   <v>       0.12500000       0.00000000       0.50106053 </v>
   <v>       0.62500000       0.00000000       0.50106053 </v>
   <v>       0.12500000       0.50000000       0.50106053 </v>
   <v>       0.62500000       0.50000000       0.50106053 </v>
   <v>       0.12500000       0.00000000       0.00106053 </v>
   <v>       0.62500000       0.00000000       0.00106053 </v>
   <v>       0.12500000       0.50000000       0.00106053 </v>
   <v>       0.62500000       0.50000000       0.00106053 </v>
   <v>       0.12500000       0.25000000       0.24893947 </v>
   <v>       0.62500000       0.25000000       0.24893947 </v>
   <v>       0.12500000       0.75000000       0.24893947 </v>
   <v>       0.62500000       0.75000000       0.24893947 </v>
   <v>       0.12500000       0.25000000       0.74893947 </v>
   <v>       0.62500000       0.25000000       0.74893947 </v>
   <v>       0.12500000       0.75000000       0.74893947 </v>
   <v>       0.62500000       0.75000000       0.74893947 </v>
   <v>       0.37500000       0.00000000       0.99893947 </v>
   <v>       0.87500000       0.00000000       0.99893947 </v>
   <v>       0.37500000       0.50000000       0.99893947 </v>
   <v>       0.87500000       0.50000000       0.99893947 </v>
   <v>       0.37500000       0.00000000       0.49893947 </v>
   <v>       0.87500000       0.00000000       0.49893947 </v>
   <v>       0.37500000       0.50000000       0.49893947 </v>
   <v>       0.87500000       0.50000000       0.49893947 </v>
   <v>       0.37500000       0.25000000       0.25106053 </v>
   <v>       0.87500000       0.25000000       0.25106053 </v>
   <v>       0.37500000       0.75000000       0.25106053 </v>
   <v>       0.87500000       0.75000000       0.25106053 </v>
   <v>       0.37500000       0.25000000       0.75106053 </v>
   <v>       0.87500000       0.25000000       0.75106053 </v>
   <v>       0.37500000       0.75000000       0.75106053 </v>
   <v>       0.87500000       0.75000000       0.75106053 </v>
   <v>       0.00000000       0.25000000       0.00000000 </v>
   <v>       0.50000000       0.25000000       0.00000000 </v>
   <v>       0.00000000       0.75000000       0.00000000 </v>
   <v>       0.50000000       0.75000000       0.00000000 </v>
   <v>       0.00000000       0.25000000       0.50000000 </v>
   <v>       0.50000000       0.25000000       0.50000000 </v>
   <v>       0.00000000       0.75000000       0.50000000 </v>
   <v>       0.50000000       0.75000000       0.50000000 </v>
   <v>       0.00000000       0.00000000       0.25000000 </v>
   <v>       0.50000000       0.00000000       0.25000000 </v>
   <v>       0.00000000       0.50000000       0.25000000 </v>
   <v>       0.50000000       0.50000000       0.25000000 </v>
   <v>       0.00000000       0.00000000       0.75000000 </v>
   <v>       0.50000000       0.00000000       0.75000000 </v>
   <v>       0.00000000       0.50000000       0.75000000 </v>
   <v>       0.50000000       0.50000000       0.75000000 </v>
   <v>       0.25000000       0.25000000       0.00000000 </v>
   <v>       0.75000000       0.25000000       0.00000000 </v>
   <v>       0.25000000       0.75000000       0.00000000 </v>
   <v>       0.75000000       0.75000000       0.00000000 </v>
   <v>       0.25000000       0.25000000       0.50000000 </v>
   <v>       0.75000000       0.25000000       0.50000000 </v>
   <v>       0.25000000       0.75000000       0.50000000 </v>
   <v>       0.75000000       0.75000000       0.50000000 </v>
   <v>       0.25000000       0.00000000       0.25000000 </v>
   <v>       0.75000000       0.00000000       0.25000000 </v>
   <v>       0.25000000       0.50000000       0.25000000 </v>
   <v>       0.75000000       0.50000000       0.25000000 </v>
   <v>       0.25000000       0.00000000       0.75000000 </v>
   <v>       0.75000000       0.00000000       0.75000000 </v>
   <v>       0.25000000       0.50000000       0.75000000 </v>
   <v>       0.75000000       0.50000000       0.75000000 </v>
  </varray>
 </structure>
</modeling>
