  88  88   0   0
  0.1431748E+02  0.1111223E-08  0.1111745E-08  0.1056954E-08  0.5000000E-15
  1.000000000000000E-004
  CAR 
 unknown system                          
     17.90980887    -54.34159004  301      5.20560456      1.00000000
    -54.342  0.0000E+00  0.0000E+00  0.0000E+00  0.0000E+00
    -54.101  0.0000E+00  0.0000E+00  0.0000E+00  0.0000E+00
    -53.860  0.0000E+00  0.0000E+00  0.0000E+00  0.0000E+00
    -53.619  0.0000E+00  0.0000E+00  0.0000E+00  0.0000E+00
    -53.378  0.0000E+00  0.0000E+00  0.0000E+00  0.0000E+00
    -53.137  0.0000E+00  0.0000E+00  0.0000E+00  0.0000E+00
    -52.897  0.0000E+00  0.0000E+00  0.0000E+00  0.0000E+00
    -52.656  0.0000E+00  0.0000E+00  0.0000E+00  0.0000E+00
    -52.415  0.0000E+00  0.0000E+00  0.0000E+00  0.0000E+00
    -52.174  0.0000E+00  0.0000E+00  0.0000E+00  0.0000E+00
    -51.933  0.0000E+00  0.0000E+00  0.0000E+00  0.0000E+00
    -51.692  0.0000E+00  0.0000E+00  0.0000E+00  0.0000E+00
    -51.452  0.0000E+00  0.0000E+00  0.0000E+00  0.0000E+00
    -51.211  0.3473E-03  0.0000E+00  0.8363E-04  0.0000E+00
    -50.970  0.1308E+03  0.0000E+00  0.3151E+02  0.0000E+00
    -50.729  0.2050E+01  0.0000E+00  0.3200E+02  0.0000E+00
    -50.488  0.0000E+00  0.0000E+00  0.3200E+02  0.0000E+00
    -50.247  0.0000E+00  0.0000E+00  0.3200E+02  0.0000E+00
    -50.007  0.0000E+00  0.0000E+00  0.3200E+02  0.0000E+00
    -49.766  0.1874E+01  0.0000E+00  0.3245E+02  0.0000E+00
    -49.525  0.2359E+03  0.0000E+00  0.8927E+02  0.0000E+00
    -49.284  0.2794E+02  0.0000E+00  0.9600E+02  0.0000E+00
    -49.043  0.0000E+00  0.0000E+00  0.9600E+02  0.0000E+00
    -48.802  0.0000E+00  0.0000E+00  0.9600E+02  0.0000E+00
    -48.561  0.0000E+00  0.0000E+00  0.9600E+02  0.0000E+00
    -48.321  0.0000E+00  0.0000E+00  0.9600E+02  0.0000E+00
    -48.080  0.0000E+00  0.0000E+00  0.9600E+02  0.0000E+00
    -47.839  0.0000E+00  0.0000E+00  0.9600E+02  0.0000E+00
    -47.598  0.0000E+00  0.0000E+00  0.9600E+02  0.0000E+00
    -47.357  0.0000E+00  0.0000E+00  0.9600E+02  0.0000E+00
    -47.116  0.0000E+00  0.0000E+00  0.9600E+02  0.0000E+00
    -46.876  0.0000E+00  0.0000E+00  0.9600E+02  0.0000E+00
    -46.635  0.0000E+00  0.0000E+00  0.9600E+02  0.0000E+00
    -46.394  0.0000E+00  0.3589E+00  0.9600E+02  0.8644E-01
    -46.153  0.0000E+00  0.1325E+03  0.9600E+02  0.3199E+02
    -45.912  0.0000E+00  0.5970E+02  0.9600E+02  0.4637E+02
    -45.671  0.0000E+00  0.2061E+03  0.9600E+02  0.9600E+02
    -45.431  0.0000E+00  0.0000E+00  0.9600E+02  0.9600E+02
    -45.190  0.0000E+00  0.0000E+00  0.9600E+02  0.9600E+02
    -44.949  0.0000E+00  0.0000E+00  0.9600E+02  0.9600E+02
    -44.708  0.0000E+00  0.0000E+00  0.9600E+02  0.9600E+02
    -44.467  0.0000E+00  0.0000E+00  0.9600E+02  0.9600E+02
    -44.226  0.0000E+00  0.0000E+00  0.9600E+02  0.9600E+02
    -43.986  0.0000E+00  0.0000E+00  0.9600E+02  0.9600E+02
    -43.745  0.0000E+00  0.0000E+00  0.9600E+02  0.9600E+02
    -43.504  0.0000E+00  0.0000E+00  0.9600E+02  0.9600E+02
    -43.263  0.0000E+00  0.0000E+00  0.9600E+02  0.9600E+02
    -43.022  0.0000E+00  0.0000E+00  0.9600E+02  0.9600E+02
    -42.781  0.0000E+00  0.0000E+00  0.9600E+02  0.9600E+02
    -42.541  0.0000E+00  0.0000E+00  0.9600E+02  0.9600E+02
    -42.300  0.0000E+00  0.0000E+00  0.9600E+02  0.9600E+02
    -42.059  0.0000E+00  0.0000E+00  0.9600E+02  0.9600E+02
    -41.818  0.0000E+00  0.0000E+00  0.9600E+02  0.9600E+02
    -41.577  0.0000E+00  0.0000E+00  0.9600E+02  0.9600E+02
    -41.336  0.0000E+00  0.0000E+00  0.9600E+02  0.9600E+02
    -41.096  0.0000E+00  0.0000E+00  0.9600E+02  0.9600E+02
    -40.855  0.0000E+00  0.0000E+00  0.9600E+02  0.9600E+02
    -40.614  0.0000E+00  0.0000E+00  0.9600E+02  0.9600E+02
    -40.373  0.0000E+00  0.0000E+00  0.9600E+02  0.9600E+02
    -40.132  0.1680E-11  0.1065E-11  0.9600E+02  0.9600E+02
    -39.891  0.1519E+02  0.1404E+02  0.9966E+02  0.9938E+02
    -39.650  0.5124E+02  0.5239E+02  0.1120E+03  0.1120E+03
    -39.410  0.0000E+00  0.0000E+00  0.1120E+03  0.1120E+03
    -39.169  0.0000E+00  0.0000E+00  0.1120E+03  0.1120E+03
    -38.928  0.0000E+00  0.0000E+00  0.1120E+03  0.1120E+03
    -38.687  0.0000E+00  0.0000E+00  0.1120E+03  0.1120E+03
    -38.446  0.0000E+00  0.0000E+00  0.1120E+03  0.1120E+03
    -38.205  0.0000E+00  0.0000E+00  0.1120E+03  0.1120E+03
    -37.965  0.0000E+00  0.0000E+00  0.1120E+03  0.1120E+03
    -37.724  0.0000E+00  0.0000E+00  0.1120E+03  0.1120E+03
    -37.483  0.0000E+00  0.0000E+00  0.1120E+03  0.1120E+03
    -37.242  0.0000E+00  0.0000E+00  0.1120E+03  0.1120E+03
    -37.001  0.0000E+00  0.0000E+00  0.1120E+03  0.1120E+03
    -36.760  0.0000E+00  0.0000E+00  0.1120E+03  0.1120E+03
    -36.520  0.0000E+00  0.0000E+00  0.1120E+03  0.1120E+03
    -36.279  0.0000E+00  0.0000E+00  0.1120E+03  0.1120E+03
    -36.038  0.0000E+00  0.0000E+00  0.1120E+03  0.1120E+03
    -35.797  0.0000E+00  0.0000E+00  0.1120E+03  0.1120E+03
    -35.556  0.0000E+00  0.0000E+00  0.1120E+03  0.1120E+03
    -35.315  0.0000E+00  0.0000E+00  0.1120E+03  0.1120E+03
    -35.075  0.0000E+00  0.0000E+00  0.1120E+03  0.1120E+03
    -34.834  0.0000E+00  0.0000E+00  0.1120E+03  0.1120E+03
    -34.593  0.0000E+00  0.0000E+00  0.1120E+03  0.1120E+03
    -34.352  0.0000E+00  0.0000E+00  0.1120E+03  0.1120E+03
    -34.111  0.0000E+00  0.0000E+00  0.1120E+03  0.1120E+03
    -33.870  0.0000E+00  0.0000E+00  0.1120E+03  0.1120E+03
    -33.630  0.0000E+00  0.0000E+00  0.1120E+03  0.1120E+03
    -33.389  0.0000E+00  0.0000E+00  0.1120E+03  0.1120E+03
    -33.148  0.0000E+00  0.0000E+00  0.1120E+03  0.1120E+03
    -32.907  0.0000E+00  0.0000E+00  0.1120E+03  0.1120E+03
    -32.666  0.0000E+00  0.0000E+00  0.1120E+03  0.1120E+03
    -32.425  0.0000E+00  0.0000E+00  0.1120E+03  0.1120E+03
    -32.184  0.0000E+00  0.0000E+00  0.1120E+03  0.1120E+03
    -31.944  0.0000E+00  0.0000E+00  0.1120E+03  0.1120E+03
    -31.703  0.0000E+00  0.0000E+00  0.1120E+03  0.1120E+03
    -31.462  0.0000E+00  0.0000E+00  0.1120E+03  0.1120E+03
    -31.221  0.0000E+00  0.0000E+00  0.1120E+03  0.1120E+03
    -30.980  0.0000E+00  0.0000E+00  0.1120E+03  0.1120E+03
    -30.739  0.0000E+00  0.0000E+00  0.1120E+03  0.1120E+03
    -30.499  0.0000E+00  0.0000E+00  0.1120E+03  0.1120E+03
    -30.258  0.0000E+00  0.0000E+00  0.1120E+03  0.1120E+03
    -30.017  0.0000E+00  0.0000E+00  0.1120E+03  0.1120E+03
    -29.776  0.0000E+00  0.0000E+00  0.1120E+03  0.1120E+03
    -29.535  0.0000E+00  0.0000E+00  0.1120E+03  0.1120E+03
    -29.294  0.0000E+00  0.0000E+00  0.1120E+03  0.1120E+03
    -29.054  0.0000E+00  0.0000E+00  0.1120E+03  0.1120E+03
    -28.813  0.0000E+00  0.0000E+00  0.1120E+03  0.1120E+03
    -28.572  0.0000E+00  0.0000E+00  0.1120E+03  0.1120E+03
    -28.331  0.0000E+00  0.0000E+00  0.1120E+03  0.1120E+03
    -28.090  0.0000E+00  0.0000E+00  0.1120E+03  0.1120E+03
    -27.849  0.0000E+00  0.0000E+00  0.1120E+03  0.1120E+03
    -27.609  0.0000E+00  0.0000E+00  0.1120E+03  0.1120E+03
    -27.368  0.0000E+00  0.0000E+00  0.1120E+03  0.1120E+03
    -27.127  0.0000E+00  0.0000E+00  0.1120E+03  0.1120E+03
    -26.886  0.0000E+00  0.0000E+00  0.1120E+03  0.1120E+03
    -26.645  0.0000E+00  0.0000E+00  0.1120E+03  0.1120E+03
    -26.404  0.0000E+00  0.0000E+00  0.1120E+03  0.1120E+03
    -26.164  0.0000E+00  0.0000E+00  0.1120E+03  0.1120E+03
    -25.923  0.0000E+00  0.0000E+00  0.1120E+03  0.1120E+03
    -25.682  0.0000E+00  0.0000E+00  0.1120E+03  0.1120E+03
    -25.441  0.0000E+00  0.0000E+00  0.1120E+03  0.1120E+03
    -25.200  0.0000E+00  0.0000E+00  0.1120E+03  0.1120E+03
    -24.959  0.0000E+00  0.0000E+00  0.1120E+03  0.1120E+03
    -24.719  0.0000E+00  0.0000E+00  0.1120E+03  0.1120E+03
    -24.478  0.0000E+00  0.0000E+00  0.1120E+03  0.1120E+03
    -24.237  0.0000E+00  0.0000E+00  0.1120E+03  0.1120E+03
    -23.996  0.0000E+00  0.0000E+00  0.1120E+03  0.1120E+03
    -23.755  0.0000E+00  0.0000E+00  0.1120E+03  0.1120E+03
    -23.514  0.0000E+00  0.0000E+00  0.1120E+03  0.1120E+03
    -23.273  0.0000E+00  0.0000E+00  0.1120E+03  0.1120E+03
    -23.033  0.0000E+00  0.0000E+00  0.1120E+03  0.1120E+03
    -22.792  0.0000E+00  0.0000E+00  0.1120E+03  0.1120E+03
    -22.551  0.0000E+00  0.0000E+00  0.1120E+03  0.1120E+03
    -22.310  0.0000E+00  0.0000E+00  0.1120E+03  0.1120E+03
    -22.069  0.0000E+00  0.0000E+00  0.1120E+03  0.1120E+03
    -21.828  0.0000E+00  0.0000E+00  0.1120E+03  0.1120E+03
    -21.588  0.0000E+00  0.0000E+00  0.1120E+03  0.1120E+03
    -21.347  0.0000E+00  0.0000E+00  0.1120E+03  0.1120E+03
    -21.106  0.0000E+00  0.0000E+00  0.1120E+03  0.1120E+03
    -20.865  0.0000E+00  0.0000E+00  0.1120E+03  0.1120E+03
    -20.624  0.0000E+00  0.0000E+00  0.1120E+03  0.1120E+03
    -20.383  0.0000E+00  0.0000E+00  0.1120E+03  0.1120E+03
    -20.143  0.0000E+00  0.0000E+00  0.1120E+03  0.1120E+03
    -19.902  0.0000E+00  0.0000E+00  0.1120E+03  0.1120E+03
    -19.661  0.0000E+00  0.0000E+00  0.1120E+03  0.1120E+03
    -19.420  0.0000E+00  0.0000E+00  0.1120E+03  0.1120E+03
    -19.179  0.0000E+00  0.0000E+00  0.1120E+03  0.1120E+03
    -18.938  0.0000E+00  0.0000E+00  0.1120E+03  0.1120E+03
    -18.698  0.0000E+00  0.0000E+00  0.1120E+03  0.1120E+03
    -18.457  0.0000E+00  0.0000E+00  0.1120E+03  0.1120E+03
    -18.216  0.0000E+00  0.0000E+00  0.1120E+03  0.1120E+03
    -17.975  0.0000E+00  0.0000E+00  0.1120E+03  0.1120E+03
    -17.734  0.0000E+00  0.0000E+00  0.1120E+03  0.1120E+03
    -17.493  0.0000E+00  0.0000E+00  0.1120E+03  0.1120E+03
    -17.253  0.0000E+00  0.0000E+00  0.1120E+03  0.1120E+03
    -17.012  0.0000E+00  0.0000E+00  0.1120E+03  0.1120E+03
    -16.771  0.0000E+00  0.0000E+00  0.1120E+03  0.1120E+03
    -16.530  0.0000E+00  0.0000E+00  0.1120E+03  0.1120E+03
    -16.289  0.0000E+00  0.0000E+00  0.1120E+03  0.1120E+03
    -16.048  0.0000E+00  0.0000E+00  0.1120E+03  0.1120E+03
    -15.808  0.0000E+00  0.0000E+00  0.1120E+03  0.1120E+03
    -15.567  0.0000E+00  0.0000E+00  0.1120E+03  0.1120E+03
    -15.326  0.0000E+00  0.0000E+00  0.1120E+03  0.1120E+03
    -15.085  0.0000E+00  0.0000E+00  0.1120E+03  0.1120E+03
    -14.844  0.0000E+00  0.0000E+00  0.1120E+03  0.1120E+03
    -14.603  0.0000E+00  0.0000E+00  0.1120E+03  0.1120E+03
    -14.362  0.0000E+00  0.0000E+00  0.1120E+03  0.1120E+03
    -14.122  0.0000E+00  0.0000E+00  0.1120E+03  0.1120E+03
    -13.881  0.0000E+00  0.0000E+00  0.1120E+03  0.1120E+03
    -13.640  0.0000E+00  0.0000E+00  0.1120E+03  0.1120E+03
    -13.399  0.8914E-06  0.0000E+00  0.1120E+03  0.1120E+03
    -13.158  0.1951E+02  0.0000E+00  0.1167E+03  0.1120E+03
    -12.917  0.4563E+02  0.9889E-02  0.1277E+03  0.1120E+03
    -12.677  0.1292E+01  0.4284E+02  0.1280E+03  0.1223E+03
    -12.436  0.0000E+00  0.2358E+02  0.1280E+03  0.1280E+03
    -12.195  0.0000E+00  0.0000E+00  0.1280E+03  0.1280E+03
    -11.954  0.0000E+00  0.0000E+00  0.1280E+03  0.1280E+03
    -11.713  0.0000E+00  0.0000E+00  0.1280E+03  0.1280E+03
    -11.472  0.0000E+00  0.0000E+00  0.1280E+03  0.1280E+03
    -11.232  0.0000E+00  0.0000E+00  0.1280E+03  0.1280E+03
    -10.991  0.0000E+00  0.0000E+00  0.1280E+03  0.1280E+03
    -10.750  0.0000E+00  0.0000E+00  0.1280E+03  0.1280E+03
    -10.509  0.0000E+00  0.0000E+00  0.1280E+03  0.1280E+03
    -10.268  0.0000E+00  0.0000E+00  0.1280E+03  0.1280E+03
    -10.027  0.0000E+00  0.0000E+00  0.1280E+03  0.1280E+03
     -9.787  0.0000E+00  0.0000E+00  0.1280E+03  0.1280E+03
     -9.546  0.0000E+00  0.0000E+00  0.1280E+03  0.1280E+03
     -9.305  0.0000E+00  0.0000E+00  0.1280E+03  0.1280E+03
     -9.064  0.0000E+00  0.0000E+00  0.1280E+03  0.1280E+03
     -8.823  0.0000E+00  0.0000E+00  0.1280E+03  0.1280E+03
     -8.582  0.0000E+00  0.0000E+00  0.1280E+03  0.1280E+03
     -8.342  0.0000E+00  0.0000E+00  0.1280E+03  0.1280E+03
     -8.101  0.0000E+00  0.0000E+00  0.1280E+03  0.1280E+03
     -7.860  0.1034E-09  0.0000E+00  0.1280E+03  0.1280E+03
     -7.619  0.6097E+00  0.1884E-10  0.1281E+03  0.1280E+03
     -7.378  0.1278E+02  0.5402E+00  0.1312E+03  0.1281E+03
     -7.137  0.3025E+02  0.1405E+02  0.1385E+03  0.1315E+03
     -6.897  0.3436E+02  0.2943E+02  0.1468E+03  0.1386E+03
     -6.656  0.2165E+02  0.2635E+02  0.1520E+03  0.1449E+03
     -6.415  0.1719E-04  0.2923E+02  0.1520E+03  0.1520E+03
     -6.174  0.0000E+00  0.4868E-01  0.1520E+03  0.1520E+03
     -5.933  0.0000E+00  0.0000E+00  0.1520E+03  0.1520E+03
     -5.692  0.0000E+00  0.0000E+00  0.1520E+03  0.1520E+03
     -5.451  0.0000E+00  0.0000E+00  0.1520E+03  0.1520E+03
     -5.211  0.0000E+00  0.0000E+00  0.1520E+03  0.1520E+03
     -4.970  0.0000E+00  0.0000E+00  0.1520E+03  0.1520E+03
     -4.729  0.0000E+00  0.0000E+00  0.1520E+03  0.1520E+03
     -4.488  0.0000E+00  0.0000E+00  0.1520E+03  0.1520E+03
     -4.247  0.0000E+00  0.0000E+00  0.1520E+03  0.1520E+03
     -4.006  0.0000E+00  0.0000E+00  0.1520E+03  0.1520E+03
     -3.766  0.0000E+00  0.0000E+00  0.1520E+03  0.1520E+03
     -3.525  0.0000E+00  0.0000E+00  0.1520E+03  0.1520E+03
     -3.284  0.0000E+00  0.0000E+00  0.1520E+03  0.1520E+03
     -3.043  0.0000E+00  0.0000E+00  0.1520E+03  0.1520E+03
     -2.802  0.0000E+00  0.0000E+00  0.1520E+03  0.1520E+03
     -2.561  0.0000E+00  0.0000E+00  0.1520E+03  0.1520E+03
     -2.321  0.0000E+00  0.0000E+00  0.1520E+03  0.1520E+03
     -2.080  0.3278E-04  0.0000E+00  0.1520E+03  0.1520E+03
     -1.839  0.1624E+02  0.0000E+00  0.1559E+03  0.1520E+03
     -1.598  0.1945E+02  0.0000E+00  0.1606E+03  0.1520E+03
     -1.357  0.1473E+02  0.0000E+00  0.1641E+03  0.1520E+03
     -1.116  0.1719E+02  0.0000E+00  0.1683E+03  0.1520E+03
     -0.876  0.4614E+02  0.0000E+00  0.1794E+03  0.1520E+03
     -0.635  0.5905E+02  0.1248E-05  0.1936E+03  0.1520E+03
     -0.394  0.3870E+02  0.4333E+01  0.2029E+03  0.1530E+03
     -0.153  0.6816E+02  0.2033E+02  0.2194E+03  0.1579E+03
      0.088  0.7361E+02  0.1225E+02  0.2371E+03  0.1609E+03
      0.329  0.7760E+02  0.1864E+02  0.2558E+03  0.1654E+03
      0.569  0.6994E+02  0.2961E+02  0.2726E+03  0.1725E+03
      0.810  0.5519E+02  0.3928E+02  0.2859E+03  0.1820E+03
      1.051  0.3637E+02  0.3730E+02  0.2947E+03  0.1910E+03
      1.292  0.3066E+02  0.3106E+02  0.3021E+03  0.1984E+03
      1.533  0.4506E+02  0.2077E+02  0.3129E+03  0.2034E+03
      1.774  0.4249E+02  0.2888E+02  0.3231E+03  0.2104E+03
      2.015  0.6898E+02  0.3709E+02  0.3398E+03  0.2193E+03
      2.255  0.5750E+02  0.2740E+02  0.3536E+03  0.2259E+03
      2.496  0.2689E+02  0.2705E+02  0.3601E+03  0.2324E+03
      2.737  0.4273E+02  0.3096E+02  0.3704E+03  0.2399E+03
      2.978  0.2981E+02  0.4448E+02  0.3775E+03  0.2506E+03
      3.219  0.8692E+01  0.4547E+02  0.3796E+03  0.2616E+03
      3.460  0.2816E+02  0.3185E+02  0.3864E+03  0.2692E+03
      3.700  0.2706E+02  0.1234E+02  0.3929E+03  0.2722E+03
      3.941  0.3101E+02  0.1796E+02  0.4004E+03  0.2765E+03
      4.182  0.3591E+02  0.5236E+02  0.4091E+03  0.2891E+03
      4.423  0.3637E+02  0.4507E+02  0.4178E+03  0.3000E+03
      4.664  0.3016E+02  0.1663E+02  0.4251E+03  0.3040E+03
      4.905  0.2573E+02  0.4027E-02  0.4313E+03  0.3040E+03
      5.145  0.2997E+01  0.0000E+00  0.4320E+03  0.3040E+03
      5.386  0.0000E+00  0.0000E+00  0.4320E+03  0.3040E+03
      5.627  0.0000E+00  0.0000E+00  0.4320E+03  0.3040E+03
      5.868  0.0000E+00  0.0000E+00  0.4320E+03  0.3040E+03
      6.109  0.0000E+00  0.5555E-09  0.4320E+03  0.3040E+03
      6.350  0.0000E+00  0.4136E+00  0.4320E+03  0.3041E+03
      6.590  0.0000E+00  0.4205E+01  0.4320E+03  0.3051E+03
      6.831  0.0000E+00  0.7931E+01  0.4320E+03  0.3070E+03
      7.072  0.1229E-14  0.1951E+02  0.4320E+03  0.3117E+03
      7.313  0.2967E-01  0.4435E+02  0.4320E+03  0.3224E+03
      7.554  0.1241E+00  0.5358E+02  0.4320E+03  0.3353E+03
      7.795  0.2619E+00  0.6318E+02  0.4321E+03  0.3505E+03
      8.035  0.7214E+00  0.6604E+02  0.4323E+03  0.3664E+03
      8.276  0.2166E+01  0.7024E+02  0.4328E+03  0.3833E+03
      8.517  0.2647E+01  0.5897E+02  0.4334E+03  0.3975E+03
      8.758  0.8930E+01  0.5874E+02  0.4356E+03  0.4117E+03
      8.999  0.1254E+02  0.4756E+02  0.4386E+03  0.4231E+03
      9.240  0.1312E+02  0.2964E+02  0.4418E+03  0.4303E+03
      9.480  0.1809E+02  0.8789E+01  0.4461E+03  0.4324E+03
      9.721  0.1621E+02  0.3074E+01  0.4500E+03  0.4331E+03
      9.962  0.1573E+02  0.8395E+01  0.4538E+03  0.4352E+03
     10.203  0.2248E+02  0.1874E+02  0.4592E+03  0.4397E+03
     10.444  0.1486E+02  0.1797E+02  0.4628E+03  0.4440E+03
     10.685  0.1528E+02  0.1723E+02  0.4665E+03  0.4482E+03
     10.926  0.1325E+02  0.2758E+02  0.4697E+03  0.4548E+03
     11.166  0.2066E+02  0.1896E+02  0.4747E+03  0.4594E+03
     11.407  0.2487E+02  0.2403E+02  0.4806E+03  0.4651E+03
     11.648  0.2715E+02  0.1468E+02  0.4872E+03  0.4687E+03
     11.889  0.2479E+02  0.1384E+02  0.4931E+03  0.4720E+03
     12.130  0.3335E+02  0.1615E+02  0.5012E+03  0.4759E+03
     12.371  0.1986E+02  0.3694E+02  0.5060E+03  0.4848E+03
     12.611  0.2307E+02  0.3259E+02  0.5115E+03  0.4927E+03
     12.852  0.2147E+02  0.2967E+02  0.5167E+03  0.4998E+03
     13.093  0.2017E+02  0.2022E+02  0.5215E+03  0.5047E+03
     13.334  0.2412E+02  0.2231E+02  0.5274E+03  0.5100E+03
     13.575  0.2415E+02  0.2725E+02  0.5332E+03  0.5166E+03
     13.816  0.1339E+02  0.2373E+02  0.5364E+03  0.5223E+03
     14.056  0.6648E+01  0.2623E+02  0.5380E+03  0.5286E+03
     14.297  0.3093E-02  0.1921E+02  0.5380E+03  0.5333E+03
     14.538  0.0000E+00  0.1650E+02  0.5380E+03  0.5372E+03
     14.779  0.0000E+00  0.3174E+01  0.5380E+03  0.5380E+03
     15.020  0.0000E+00  0.2243E-05  0.5380E+03  0.5380E+03
     15.261  0.0000E+00  0.0000E+00  0.5380E+03  0.5380E+03
     15.501  0.0000E+00  0.0000E+00  0.5380E+03  0.5380E+03
     15.742  0.0000E+00  0.0000E+00  0.5380E+03  0.5380E+03
     15.983  0.0000E+00  0.0000E+00  0.5380E+03  0.5380E+03
     16.224  0.0000E+00  0.0000E+00  0.5380E+03  0.5380E+03
     16.465  0.0000E+00  0.0000E+00  0.5380E+03  0.5380E+03
     16.706  0.0000E+00  0.0000E+00  0.5380E+03  0.5380E+03
     16.946  0.0000E+00  0.0000E+00  0.5380E+03  0.5380E+03
     17.187  0.0000E+00  0.0000E+00  0.5380E+03  0.5380E+03
     17.428  0.0000E+00  0.0000E+00  0.5380E+03  0.5380E+03
     17.669  0.0000E+00  0.0000E+00  0.5380E+03  0.5380E+03
     17.910  0.0000E+00  0.0000E+00  0.5380E+03  0.5380E+03
