  88  88   0   0
  0.1431748E+02  0.1111223E-08  0.1111745E-08  0.1056954E-08  0.5000000E-15
  1.000000000000000E-004
  CAR 
 unknown system                          
     17.91775328    -54.34265101  301      5.21196553      1.00000000
    -54.343  0.0000E+00  0.0000E+00  0.0000E+00  0.0000E+00
    -54.102  0.0000E+00  0.0000E+00  0.0000E+00  0.0000E+00
    -53.861  0.0000E+00  0.0000E+00  0.0000E+00  0.0000E+00
    -53.620  0.0000E+00  0.0000E+00  0.0000E+00  0.0000E+00
    -53.379  0.0000E+00  0.0000E+00  0.0000E+00  0.0000E+00
    -53.138  0.0000E+00  0.0000E+00  0.0000E+00  0.0000E+00
    -52.897  0.0000E+00  0.0000E+00  0.0000E+00  0.0000E+00
    -52.657  0.0000E+00  0.0000E+00  0.0000E+00  0.0000E+00
    -52.416  0.0000E+00  0.0000E+00  0.0000E+00  0.0000E+00
    -52.175  0.0000E+00  0.0000E+00  0.0000E+00  0.0000E+00
    -51.934  0.0000E+00  0.0000E+00  0.0000E+00  0.0000E+00
    -51.693  0.0000E+00  0.0000E+00  0.0000E+00  0.0000E+00
    -51.452  0.0000E+00  0.0000E+00  0.0000E+00  0.0000E+00
    -51.211  0.3202E-03  0.0000E+00  0.7712E-04  0.0000E+00
    -50.970  0.1307E+03  0.0000E+00  0.3148E+02  0.0000E+00
    -50.730  0.2142E+01  0.0000E+00  0.3200E+02  0.0000E+00
    -50.489  0.0000E+00  0.0000E+00  0.3200E+02  0.0000E+00
    -50.248  0.0000E+00  0.0000E+00  0.3200E+02  0.0000E+00
    -50.007  0.0000E+00  0.0000E+00  0.3200E+02  0.0000E+00
    -49.766  0.1819E+01  0.0000E+00  0.3244E+02  0.0000E+00
    -49.525  0.2354E+03  0.0000E+00  0.8915E+02  0.0000E+00
    -49.284  0.2845E+02  0.0000E+00  0.9600E+02  0.0000E+00
    -49.044  0.0000E+00  0.0000E+00  0.9600E+02  0.0000E+00
    -48.803  0.0000E+00  0.0000E+00  0.9600E+02  0.0000E+00
    -48.562  0.0000E+00  0.0000E+00  0.9600E+02  0.0000E+00
    -48.321  0.0000E+00  0.0000E+00  0.9600E+02  0.0000E+00
    -48.080  0.0000E+00  0.0000E+00  0.9600E+02  0.0000E+00
    -47.839  0.0000E+00  0.0000E+00  0.9600E+02  0.0000E+00
    -47.598  0.0000E+00  0.0000E+00  0.9600E+02  0.0000E+00
    -47.357  0.0000E+00  0.0000E+00  0.9600E+02  0.0000E+00
    -47.117  0.0000E+00  0.0000E+00  0.9600E+02  0.0000E+00
    -46.876  0.0000E+00  0.0000E+00  0.9600E+02  0.0000E+00
    -46.635  0.0000E+00  0.0000E+00  0.9600E+02  0.0000E+00
    -46.394  0.0000E+00  0.3576E+00  0.9600E+02  0.8613E-01
    -46.153  0.0000E+00  0.1324E+03  0.9600E+02  0.3199E+02
    -45.912  0.0000E+00  0.5969E+02  0.9600E+02  0.4637E+02
    -45.671  0.0000E+00  0.2061E+03  0.9600E+02  0.9600E+02
    -45.431  0.0000E+00  0.0000E+00  0.9600E+02  0.9600E+02
    -45.190  0.0000E+00  0.0000E+00  0.9600E+02  0.9600E+02
    -44.949  0.0000E+00  0.0000E+00  0.9600E+02  0.9600E+02
    -44.708  0.0000E+00  0.0000E+00  0.9600E+02  0.9600E+02
    -44.467  0.0000E+00  0.0000E+00  0.9600E+02  0.9600E+02
    -44.226  0.0000E+00  0.0000E+00  0.9600E+02  0.9600E+02
    -43.985  0.0000E+00  0.0000E+00  0.9600E+02  0.9600E+02
    -43.744  0.0000E+00  0.0000E+00  0.9600E+02  0.9600E+02
    -43.504  0.0000E+00  0.0000E+00  0.9600E+02  0.9600E+02
    -43.263  0.0000E+00  0.0000E+00  0.9600E+02  0.9600E+02
    -43.022  0.0000E+00  0.0000E+00  0.9600E+02  0.9600E+02
    -42.781  0.0000E+00  0.0000E+00  0.9600E+02  0.9600E+02
    -42.540  0.0000E+00  0.0000E+00  0.9600E+02  0.9600E+02
    -42.299  0.0000E+00  0.0000E+00  0.9600E+02  0.9600E+02
    -42.058  0.0000E+00  0.0000E+00  0.9600E+02  0.9600E+02
    -41.818  0.0000E+00  0.0000E+00  0.9600E+02  0.9600E+02
    -41.577  0.0000E+00  0.0000E+00  0.9600E+02  0.9600E+02
    -41.336  0.0000E+00  0.0000E+00  0.9600E+02  0.9600E+02
    -41.095  0.0000E+00  0.0000E+00  0.9600E+02  0.9600E+02
    -40.854  0.0000E+00  0.0000E+00  0.9600E+02  0.9600E+02
    -40.613  0.0000E+00  0.0000E+00  0.9600E+02  0.9600E+02
    -40.372  0.0000E+00  0.0000E+00  0.9600E+02  0.9600E+02
    -40.131  0.1974E-11  0.1277E-11  0.9600E+02  0.9600E+02
    -39.891  0.1554E+02  0.1437E+02  0.9974E+02  0.9946E+02
    -39.650  0.5089E+02  0.5205E+02  0.1120E+03  0.1120E+03
    -39.409  0.0000E+00  0.0000E+00  0.1120E+03  0.1120E+03
    -39.168  0.0000E+00  0.0000E+00  0.1120E+03  0.1120E+03
    -38.927  0.0000E+00  0.0000E+00  0.1120E+03  0.1120E+03
    -38.686  0.0000E+00  0.0000E+00  0.1120E+03  0.1120E+03
    -38.445  0.0000E+00  0.0000E+00  0.1120E+03  0.1120E+03
    -38.204  0.0000E+00  0.0000E+00  0.1120E+03  0.1120E+03
    -37.964  0.0000E+00  0.0000E+00  0.1120E+03  0.1120E+03
    -37.723  0.0000E+00  0.0000E+00  0.1120E+03  0.1120E+03
    -37.482  0.0000E+00  0.0000E+00  0.1120E+03  0.1120E+03
    -37.241  0.0000E+00  0.0000E+00  0.1120E+03  0.1120E+03
    -37.000  0.0000E+00  0.0000E+00  0.1120E+03  0.1120E+03
    -36.759  0.0000E+00  0.0000E+00  0.1120E+03  0.1120E+03
    -36.518  0.0000E+00  0.0000E+00  0.1120E+03  0.1120E+03
    -36.278  0.0000E+00  0.0000E+00  0.1120E+03  0.1120E+03
    -36.037  0.0000E+00  0.0000E+00  0.1120E+03  0.1120E+03
    -35.796  0.0000E+00  0.0000E+00  0.1120E+03  0.1120E+03
    -35.555  0.0000E+00  0.0000E+00  0.1120E+03  0.1120E+03
    -35.314  0.0000E+00  0.0000E+00  0.1120E+03  0.1120E+03
    -35.073  0.0000E+00  0.0000E+00  0.1120E+03  0.1120E+03
    -34.832  0.0000E+00  0.0000E+00  0.1120E+03  0.1120E+03
    -34.591  0.0000E+00  0.0000E+00  0.1120E+03  0.1120E+03
    -34.351  0.0000E+00  0.0000E+00  0.1120E+03  0.1120E+03
    -34.110  0.0000E+00  0.0000E+00  0.1120E+03  0.1120E+03
    -33.869  0.0000E+00  0.0000E+00  0.1120E+03  0.1120E+03
    -33.628  0.0000E+00  0.0000E+00  0.1120E+03  0.1120E+03
    -33.387  0.0000E+00  0.0000E+00  0.1120E+03  0.1120E+03
    -33.146  0.0000E+00  0.0000E+00  0.1120E+03  0.1120E+03
    -32.905  0.0000E+00  0.0000E+00  0.1120E+03  0.1120E+03
    -32.665  0.0000E+00  0.0000E+00  0.1120E+03  0.1120E+03
    -32.424  0.0000E+00  0.0000E+00  0.1120E+03  0.1120E+03
    -32.183  0.0000E+00  0.0000E+00  0.1120E+03  0.1120E+03
    -31.942  0.0000E+00  0.0000E+00  0.1120E+03  0.1120E+03
    -31.701  0.0000E+00  0.0000E+00  0.1120E+03  0.1120E+03
    -31.460  0.0000E+00  0.0000E+00  0.1120E+03  0.1120E+03
    -31.219  0.0000E+00  0.0000E+00  0.1120E+03  0.1120E+03
    -30.978  0.0000E+00  0.0000E+00  0.1120E+03  0.1120E+03
    -30.738  0.0000E+00  0.0000E+00  0.1120E+03  0.1120E+03
    -30.497  0.0000E+00  0.0000E+00  0.1120E+03  0.1120E+03
    -30.256  0.0000E+00  0.0000E+00  0.1120E+03  0.1120E+03
    -30.015  0.0000E+00  0.0000E+00  0.1120E+03  0.1120E+03
    -29.774  0.0000E+00  0.0000E+00  0.1120E+03  0.1120E+03
    -29.533  0.0000E+00  0.0000E+00  0.1120E+03  0.1120E+03
    -29.292  0.0000E+00  0.0000E+00  0.1120E+03  0.1120E+03
    -29.052  0.0000E+00  0.0000E+00  0.1120E+03  0.1120E+03
    -28.811  0.0000E+00  0.0000E+00  0.1120E+03  0.1120E+03
    -28.570  0.0000E+00  0.0000E+00  0.1120E+03  0.1120E+03
    -28.329  0.0000E+00  0.0000E+00  0.1120E+03  0.1120E+03
    -28.088  0.0000E+00  0.0000E+00  0.1120E+03  0.1120E+03
    -27.847  0.0000E+00  0.0000E+00  0.1120E+03  0.1120E+03
    -27.606  0.0000E+00  0.0000E+00  0.1120E+03  0.1120E+03
    -27.365  0.0000E+00  0.0000E+00  0.1120E+03  0.1120E+03
    -27.125  0.0000E+00  0.0000E+00  0.1120E+03  0.1120E+03
    -26.884  0.0000E+00  0.0000E+00  0.1120E+03  0.1120E+03
    -26.643  0.0000E+00  0.0000E+00  0.1120E+03  0.1120E+03
    -26.402  0.0000E+00  0.0000E+00  0.1120E+03  0.1120E+03
    -26.161  0.0000E+00  0.0000E+00  0.1120E+03  0.1120E+03
    -25.920  0.0000E+00  0.0000E+00  0.1120E+03  0.1120E+03
    -25.679  0.0000E+00  0.0000E+00  0.1120E+03  0.1120E+03
    -25.438  0.0000E+00  0.0000E+00  0.1120E+03  0.1120E+03
    -25.198  0.0000E+00  0.0000E+00  0.1120E+03  0.1120E+03
    -24.957  0.0000E+00  0.0000E+00  0.1120E+03  0.1120E+03
    -24.716  0.0000E+00  0.0000E+00  0.1120E+03  0.1120E+03
    -24.475  0.0000E+00  0.0000E+00  0.1120E+03  0.1120E+03
    -24.234  0.0000E+00  0.0000E+00  0.1120E+03  0.1120E+03
    -23.993  0.0000E+00  0.0000E+00  0.1120E+03  0.1120E+03
    -23.752  0.0000E+00  0.0000E+00  0.1120E+03  0.1120E+03
    -23.512  0.0000E+00  0.0000E+00  0.1120E+03  0.1120E+03
    -23.271  0.0000E+00  0.0000E+00  0.1120E+03  0.1120E+03
    -23.030  0.0000E+00  0.0000E+00  0.1120E+03  0.1120E+03
    -22.789  0.0000E+00  0.0000E+00  0.1120E+03  0.1120E+03
    -22.548  0.0000E+00  0.0000E+00  0.1120E+03  0.1120E+03
    -22.307  0.0000E+00  0.0000E+00  0.1120E+03  0.1120E+03
    -22.066  0.0000E+00  0.0000E+00  0.1120E+03  0.1120E+03
    -21.825  0.0000E+00  0.0000E+00  0.1120E+03  0.1120E+03
    -21.585  0.0000E+00  0.0000E+00  0.1120E+03  0.1120E+03
    -21.344  0.0000E+00  0.0000E+00  0.1120E+03  0.1120E+03
    -21.103  0.0000E+00  0.0000E+00  0.1120E+03  0.1120E+03
    -20.862  0.0000E+00  0.0000E+00  0.1120E+03  0.1120E+03
    -20.621  0.0000E+00  0.0000E+00  0.1120E+03  0.1120E+03
    -20.380  0.0000E+00  0.0000E+00  0.1120E+03  0.1120E+03
    -20.139  0.0000E+00  0.0000E+00  0.1120E+03  0.1120E+03
    -19.899  0.0000E+00  0.0000E+00  0.1120E+03  0.1120E+03
    -19.658  0.0000E+00  0.0000E+00  0.1120E+03  0.1120E+03
    -19.417  0.0000E+00  0.0000E+00  0.1120E+03  0.1120E+03
    -19.176  0.0000E+00  0.0000E+00  0.1120E+03  0.1120E+03
    -18.935  0.0000E+00  0.0000E+00  0.1120E+03  0.1120E+03
    -18.694  0.0000E+00  0.0000E+00  0.1120E+03  0.1120E+03
    -18.453  0.0000E+00  0.0000E+00  0.1120E+03  0.1120E+03
    -18.212  0.0000E+00  0.0000E+00  0.1120E+03  0.1120E+03
    -17.972  0.0000E+00  0.0000E+00  0.1120E+03  0.1120E+03
    -17.731  0.0000E+00  0.0000E+00  0.1120E+03  0.1120E+03
    -17.490  0.0000E+00  0.0000E+00  0.1120E+03  0.1120E+03
    -17.249  0.0000E+00  0.0000E+00  0.1120E+03  0.1120E+03
    -17.008  0.0000E+00  0.0000E+00  0.1120E+03  0.1120E+03
    -16.767  0.0000E+00  0.0000E+00  0.1120E+03  0.1120E+03
    -16.526  0.0000E+00  0.0000E+00  0.1120E+03  0.1120E+03
    -16.286  0.0000E+00  0.0000E+00  0.1120E+03  0.1120E+03
    -16.045  0.0000E+00  0.0000E+00  0.1120E+03  0.1120E+03
    -15.804  0.0000E+00  0.0000E+00  0.1120E+03  0.1120E+03
    -15.563  0.0000E+00  0.0000E+00  0.1120E+03  0.1120E+03
    -15.322  0.0000E+00  0.0000E+00  0.1120E+03  0.1120E+03
    -15.081  0.0000E+00  0.0000E+00  0.1120E+03  0.1120E+03
    -14.840  0.0000E+00  0.0000E+00  0.1120E+03  0.1120E+03
    -14.599  0.0000E+00  0.0000E+00  0.1120E+03  0.1120E+03
    -14.359  0.0000E+00  0.0000E+00  0.1120E+03  0.1120E+03
    -14.118  0.0000E+00  0.0000E+00  0.1120E+03  0.1120E+03
    -13.877  0.0000E+00  0.0000E+00  0.1120E+03  0.1120E+03
    -13.636  0.0000E+00  0.0000E+00  0.1120E+03  0.1120E+03
    -13.395  0.1625E-05  0.0000E+00  0.1120E+03  0.1120E+03
    -13.154  0.2044E+02  0.0000E+00  0.1169E+03  0.1120E+03
    -12.913  0.4493E+02  0.1462E-01  0.1277E+03  0.1120E+03
    -12.672  0.1054E+01  0.4396E+02  0.1280E+03  0.1226E+03
    -12.432  0.0000E+00  0.2245E+02  0.1280E+03  0.1280E+03
    -12.191  0.0000E+00  0.0000E+00  0.1280E+03  0.1280E+03
    -11.950  0.0000E+00  0.0000E+00  0.1280E+03  0.1280E+03
    -11.709  0.0000E+00  0.0000E+00  0.1280E+03  0.1280E+03
    -11.468  0.0000E+00  0.0000E+00  0.1280E+03  0.1280E+03
    -11.227  0.0000E+00  0.0000E+00  0.1280E+03  0.1280E+03
    -10.986  0.0000E+00  0.0000E+00  0.1280E+03  0.1280E+03
    -10.746  0.0000E+00  0.0000E+00  0.1280E+03  0.1280E+03
    -10.505  0.0000E+00  0.0000E+00  0.1280E+03  0.1280E+03
    -10.264  0.0000E+00  0.0000E+00  0.1280E+03  0.1280E+03
    -10.023  0.0000E+00  0.0000E+00  0.1280E+03  0.1280E+03
     -9.782  0.0000E+00  0.0000E+00  0.1280E+03  0.1280E+03
     -9.541  0.0000E+00  0.0000E+00  0.1280E+03  0.1280E+03
     -9.300  0.0000E+00  0.0000E+00  0.1280E+03  0.1280E+03
     -9.059  0.0000E+00  0.0000E+00  0.1280E+03  0.1280E+03
     -8.819  0.0000E+00  0.0000E+00  0.1280E+03  0.1280E+03
     -8.578  0.0000E+00  0.0000E+00  0.1280E+03  0.1280E+03
     -8.337  0.0000E+00  0.0000E+00  0.1280E+03  0.1280E+03
     -8.096  0.0000E+00  0.0000E+00  0.1280E+03  0.1280E+03
     -7.855  0.2367E-09  0.0000E+00  0.1280E+03  0.1280E+03
     -7.614  0.7023E+00  0.4512E-10  0.1282E+03  0.1280E+03
     -7.373  0.1319E+02  0.6300E+00  0.1313E+03  0.1282E+03
     -7.133  0.3023E+02  0.1451E+02  0.1386E+03  0.1316E+03
     -6.892  0.3513E+02  0.2935E+02  0.1471E+03  0.1387E+03
     -6.651  0.2038E+02  0.2692E+02  0.1520E+03  0.1452E+03
     -6.410  0.8580E-05  0.2820E+02  0.1520E+03  0.1520E+03
     -6.169  0.0000E+00  0.3482E-01  0.1520E+03  0.1520E+03
     -5.928  0.0000E+00  0.0000E+00  0.1520E+03  0.1520E+03
     -5.687  0.0000E+00  0.0000E+00  0.1520E+03  0.1520E+03
     -5.446  0.0000E+00  0.0000E+00  0.1520E+03  0.1520E+03
     -5.206  0.0000E+00  0.0000E+00  0.1520E+03  0.1520E+03
     -4.965  0.0000E+00  0.0000E+00  0.1520E+03  0.1520E+03
     -4.724  0.0000E+00  0.0000E+00  0.1520E+03  0.1520E+03
     -4.483  0.0000E+00  0.0000E+00  0.1520E+03  0.1520E+03
     -4.242  0.0000E+00  0.0000E+00  0.1520E+03  0.1520E+03
     -4.001  0.0000E+00  0.0000E+00  0.1520E+03  0.1520E+03
     -3.760  0.0000E+00  0.0000E+00  0.1520E+03  0.1520E+03
     -3.519  0.0000E+00  0.0000E+00  0.1520E+03  0.1520E+03
     -3.279  0.0000E+00  0.0000E+00  0.1520E+03  0.1520E+03
     -3.038  0.0000E+00  0.0000E+00  0.1520E+03  0.1520E+03
     -2.797  0.0000E+00  0.0000E+00  0.1520E+03  0.1520E+03
     -2.556  0.0000E+00  0.0000E+00  0.1520E+03  0.1520E+03
     -2.315  0.0000E+00  0.0000E+00  0.1520E+03  0.1520E+03
     -2.074  0.6453E-04  0.0000E+00  0.1520E+03  0.1520E+03
     -1.833  0.1686E+02  0.0000E+00  0.1561E+03  0.1520E+03
     -1.593  0.1923E+02  0.0000E+00  0.1607E+03  0.1520E+03
     -1.352  0.1454E+02  0.0000E+00  0.1642E+03  0.1520E+03
     -1.111  0.1740E+02  0.0000E+00  0.1684E+03  0.1520E+03
     -0.870  0.4686E+02  0.0000E+00  0.1797E+03  0.1520E+03
     -0.629  0.5915E+02  0.2688E-05  0.1939E+03  0.1520E+03
     -0.388  0.3877E+02  0.4767E+01  0.2033E+03  0.1531E+03
     -0.147  0.6871E+02  0.2028E+02  0.2198E+03  0.1580E+03
      0.094  0.7336E+02  0.1228E+02  0.2375E+03  0.1610E+03
      0.334  0.7766E+02  0.1890E+02  0.2562E+03  0.1655E+03
      0.575  0.7014E+02  0.2972E+02  0.2731E+03  0.1727E+03
      0.816  0.5420E+02  0.3950E+02  0.2861E+03  0.1822E+03
      1.057  0.3624E+02  0.3727E+02  0.2949E+03  0.1912E+03
      1.298  0.3084E+02  0.3065E+02  0.3023E+03  0.1986E+03
      1.539  0.4500E+02  0.2089E+02  0.3131E+03  0.2036E+03
      1.780  0.4321E+02  0.2873E+02  0.3235E+03  0.2105E+03
      2.020  0.6924E+02  0.3752E+02  0.3402E+03  0.2196E+03
      2.261  0.5624E+02  0.2680E+02  0.3538E+03  0.2260E+03
      2.502  0.2719E+02  0.2713E+02  0.3603E+03  0.2326E+03
      2.743  0.4287E+02  0.3162E+02  0.3706E+03  0.2402E+03
      2.984  0.2885E+02  0.4473E+02  0.3776E+03  0.2509E+03
      3.225  0.8784E+01  0.4540E+02  0.3797E+03  0.2619E+03
      3.466  0.2881E+02  0.3099E+02  0.3866E+03  0.2693E+03
      3.707  0.2666E+02  0.1202E+02  0.3931E+03  0.2722E+03
      3.947  0.3125E+02  0.1871E+02  0.4006E+03  0.2767E+03
      4.188  0.3589E+02  0.5188E+02  0.4092E+03  0.2892E+03
      4.429  0.3640E+02  0.4560E+02  0.4180E+03  0.3002E+03
      4.670  0.2996E+02  0.1566E+02  0.4252E+03  0.3040E+03
      4.911  0.2552E+02  0.2247E-02  0.4314E+03  0.3040E+03
      5.152  0.2608E+01  0.0000E+00  0.4320E+03  0.3040E+03
      5.393  0.0000E+00  0.0000E+00  0.4320E+03  0.3040E+03
      5.633  0.0000E+00  0.0000E+00  0.4320E+03  0.3040E+03
      5.874  0.0000E+00  0.0000E+00  0.4320E+03  0.3040E+03
      6.115  0.0000E+00  0.1679E-08  0.4320E+03  0.3040E+03
      6.356  0.0000E+00  0.4571E+00  0.4320E+03  0.3041E+03
      6.597  0.0000E+00  0.4220E+01  0.4320E+03  0.3051E+03
      6.838  0.0000E+00  0.8090E+01  0.4320E+03  0.3071E+03
      7.079  0.5190E-14  0.2019E+02  0.4320E+03  0.3119E+03
      7.320  0.3818E-01  0.4478E+02  0.4320E+03  0.3227E+03
      7.560  0.1156E+00  0.5411E+02  0.4320E+03  0.3358E+03
      7.801  0.3031E+00  0.6286E+02  0.4321E+03  0.3509E+03
      8.042  0.6983E+00  0.6639E+02  0.4323E+03  0.3669E+03
      8.283  0.2276E+01  0.7059E+02  0.4328E+03  0.3839E+03
      8.524  0.2669E+01  0.5840E+02  0.4335E+03  0.3980E+03
      8.765  0.9009E+01  0.5888E+02  0.4356E+03  0.4121E+03
      9.006  0.1270E+02  0.4670E+02  0.4387E+03  0.4234E+03
      9.247  0.1321E+02  0.2897E+02  0.4419E+03  0.4304E+03
      9.487  0.1816E+02  0.8511E+01  0.4463E+03  0.4324E+03
      9.728  0.1606E+02  0.3238E+01  0.4501E+03  0.4332E+03
      9.969  0.1574E+02  0.8512E+01  0.4539E+03  0.4352E+03
     10.210  0.2249E+02  0.1890E+02  0.4593E+03  0.4398E+03
     10.451  0.1487E+02  0.1797E+02  0.4629E+03  0.4441E+03
     10.692  0.1519E+02  0.1741E+02  0.4666E+03  0.4483E+03
     10.933  0.1342E+02  0.2748E+02  0.4698E+03  0.4549E+03
     11.173  0.2072E+02  0.1895E+02  0.4748E+03  0.4595E+03
     11.414  0.2517E+02  0.2412E+02  0.4809E+03  0.4653E+03
     11.655  0.2687E+02  0.1432E+02  0.4873E+03  0.4688E+03
     11.896  0.2515E+02  0.1394E+02  0.4934E+03  0.4721E+03
     12.137  0.3297E+02  0.1645E+02  0.5013E+03  0.4761E+03
     12.378  0.1980E+02  0.3743E+02  0.5061E+03  0.4851E+03
     12.619  0.2310E+02  0.3240E+02  0.5117E+03  0.4929E+03
     12.860  0.2161E+02  0.2916E+02  0.5169E+03  0.4999E+03
     13.100  0.1987E+02  0.2017E+02  0.5217E+03  0.5048E+03
     13.341  0.2465E+02  0.2263E+02  0.5276E+03  0.5102E+03
     13.582  0.2363E+02  0.2730E+02  0.5333E+03  0.5168E+03
     13.823  0.1325E+02  0.2373E+02  0.5365E+03  0.5225E+03
     14.064  0.6332E+01  0.2609E+02  0.5380E+03  0.5288E+03
     14.305  0.9372E-03  0.1902E+02  0.5380E+03  0.5334E+03
     14.546  0.0000E+00  0.1632E+02  0.5380E+03  0.5373E+03
     14.786  0.0000E+00  0.2795E+01  0.5380E+03  0.5380E+03
     15.027  0.0000E+00  0.2237E-05  0.5380E+03  0.5380E+03
     15.268  0.0000E+00  0.0000E+00  0.5380E+03  0.5380E+03
     15.509  0.0000E+00  0.0000E+00  0.5380E+03  0.5380E+03
     15.750  0.0000E+00  0.0000E+00  0.5380E+03  0.5380E+03
     15.991  0.0000E+00  0.0000E+00  0.5380E+03  0.5380E+03
     16.232  0.0000E+00  0.0000E+00  0.5380E+03  0.5380E+03
     16.473  0.0000E+00  0.0000E+00  0.5380E+03  0.5380E+03
     16.713  0.0000E+00  0.0000E+00  0.5380E+03  0.5380E+03
     16.954  0.0000E+00  0.0000E+00  0.5380E+03  0.5380E+03
     17.195  0.0000E+00  0.0000E+00  0.5380E+03  0.5380E+03
     17.436  0.0000E+00  0.0000E+00  0.5380E+03  0.5380E+03
     17.677  0.0000E+00  0.0000E+00  0.5380E+03  0.5380E+03
     17.918  0.0000E+00  0.0000E+00  0.5380E+03  0.5380E+03
