<?xml version="1.0" encoding="ISO-8859-1"?>
<modeling>
 <generator>
  <i name="program" type="string">vasp </i>
  <i name="version" type="string">5.4.4.18Apr17-6-g9f103f2a35  </i>
  <i name="subversion" type="string">(build Oct 25 2017 14:42:18) complex            parallel </i>
  <i name="platform" type="string">LinuxIFC </i>
  <i name="date" type="string">2021 06 02 </i>
  <i name="time" type="string">18:49:44 </i>
 </generator>
 <incar>
  <i type="string" name="PREC">accurate</i>
  <i type="string" name="ALGO"> normal</i>
  <i type="logical" name="ADDGRID"> T  </i>
  <i type="int" name="ISPIN">     2</i>
  <i type="int" name="ICHARG">     1</i>
  <i type="int" name="NELM">   200</i>
  <i type="int" name="NELMIN">     8</i>
  <i name="EDIFF">      0.00000100</i>
  <i type="int" name="ISYM">     0</i>
  <i name="ENCUT">    650.00000000</i>
  <v name="MAGMOM">      0.60000000      0.60000000      0.60000000      0.60000000      0.60000000      0.60000000      0.60000000      0.60000000      0.60000000      0.60000000      0.60000000      0.60000000      0.60000000      0.60000000      0.60000000      0.60000000      0.60000000      0.60000000      0.60000000      0.60000000
      0.60000000      0.60000000      0.60000000      0.60000000      0.60000000      0.60000000      0.60000000      0.60000000      0.60000000      0.60000000      0.60000000      0.60000000      0.60000000      0.60000000      0.60000000      0.60000000      0.60000000      0.60000000      0.60000000      0.60000000
      0.60000000      0.60000000      0.60000000      0.60000000      0.60000000      0.60000000      0.60000000      0.60000000      0.60000000      0.60000000      0.60000000      0.60000000      0.60000000      0.60000000      0.60000000      0.60000000      5.00000000      5.00000000      5.00000000      5.00000000
      5.00000000      5.00000000      5.00000000      5.00000000      5.00000000      5.00000000      5.00000000      5.00000000      5.00000000      5.00000000      5.00000000      5.00000000      5.00000000      5.00000000      5.00000000      5.00000000      5.00000000      5.00000000      5.00000000      5.00000000
      5.00000000      5.00000000      5.00000000      5.00000000      5.00000000      5.00000000      5.00000000      5.00000000</v>
  <i type="logical" name="LREAL"> F  </i>
  <i type="int" name="ISMEAR">     0</i>
  <i name="SIGMA">      0.05000000</i>
  <i type="int" name="NWRITE">     1</i>
  <i type="int" name="LMAXMIX">     4</i>
  <i type="logical" name="LWAVE"> F  </i>
  <i type="logical" name="LASPH"> T  </i>
  <v type="int" name="KPOINT_BSE">    -1     0     0     0</v>
  <i type="int" name="NELM">   200</i>
  <i type="string" name="GGA"> pe</i>
  <i type="logical" name="LDAU"> T  </i>
  <v type="int" name="LDAUTYPE">     2</v>
  <v type="int" name="LDAUL">    -1    -1    -1     2</v>
  <v name="LDAUU">      0.00000000      0.00000000      0.00000000      4.00000000</v>
  <v name="LDAUJ">      0.00000000      0.00000000      0.00000000      0.00000000</v>
  <i type="logical" name="LASPH"> T  </i>
 </incar>
 <structure name="primitive_cell" >
  <crystal>
   <varray name="basis" >
    <v>      11.11223374       0.00000000      -0.00029034 </v>
    <v>       0.00000000      11.11745194       0.00000000 </v>
    <v>      -2.77510898       0.00000000      10.19872221 </v>
   </varray>
   <i name="volume">   1259.93837498 </i>
   <varray name="rec_basis" >
    <v>       0.08999155       0.00000000       0.02448702 </v>
    <v>       0.00000000       0.08994867       0.00000000 </v>
    <v>       0.00000256       0.00000000       0.09805220 </v>
   </varray>
  </crystal>
  <varray name="positions" >
   <v>       0.28894970       0.46933910       0.15583616 </v>
   <v>       0.17529533      -0.40661825       0.19749617 </v>
   <v>       0.42345029       0.34530995       0.19749407 </v>
   <v>       0.37560721      -0.40565694      -0.00000412 </v>
   <v>       0.12439279       0.34434306       0.00000412 </v>
   <v>       0.03938389       0.46936404       0.15397331 </v>
   <v>      -0.46151602       0.46936404       0.15397331 </v>
   <v>       0.28861657       0.21935690       0.15447525 </v>
   <v>       0.28861657      -0.28064310       0.15447525 </v>
   <v>       0.21868463       0.34523395       0.37102476 </v>
   <v>       0.46681660      -0.40655103       0.37102399 </v>
   <v>       0.23507288      -0.41767349       0.39367237 </v>
   <v>       0.46175575       0.35634799       0.39367694 </v>
   <v>       0.21138343       0.46935690      -0.15447525 </v>
   <v>       0.04646972       0.21934976       0.18586770 </v>
   <v>       0.04646972      -0.28065024       0.18586770 </v>
   <v>      -0.45353028       0.21934976       0.18586770 </v>
   <v>      -0.45353028      -0.28065024       0.18586770 </v>
   <v>       0.32470467       0.34338175      -0.19749617 </v>
   <v>       0.07654971      -0.40469005      -0.19749407 </v>
   <v>       0.21105030       0.21933910      -0.15583616 </v>
   <v>       0.21105030      -0.28066090      -0.15583616 </v>
   <v>      -0.07654971       0.34530995       0.19749407 </v>
   <v>      -0.32470467      -0.40661825       0.19749617 </v>
   <v>       0.17529533       0.09338175       0.19749617 </v>
   <v>       0.42345029      -0.15469005       0.19749407 </v>
   <v>       0.45353028       0.46934976      -0.18586770 </v>
   <v>      -0.04646972       0.46934976      -0.18586770 </v>
   <v>      -0.37560721       0.34434306       0.00000412 </v>
   <v>      -0.12439279      -0.40565694      -0.00000412 </v>
   <v>       0.37560721       0.09434306      -0.00000412 </v>
   <v>       0.12439279      -0.15565694       0.00000412 </v>
   <v>      -0.03318340      -0.40655103       0.37102399 </v>
   <v>      -0.28131537       0.34523395       0.37102476 </v>
   <v>       0.21868463      -0.15476605       0.37102476 </v>
   <v>       0.46681660       0.09344897       0.37102399 </v>
   <v>       0.46151602       0.21936404      -0.15397331 </v>
   <v>       0.46151602      -0.28063596      -0.15397331 </v>
   <v>      -0.03848398       0.21936404      -0.15397331 </v>
   <v>      -0.03848398      -0.28063596      -0.15397331 </v>
   <v>       0.26492712       0.33232651      -0.39367237 </v>
   <v>      -0.46175575      -0.39365201      -0.39367694 </v>
   <v>      -0.03824425       0.35634799       0.39367694 </v>
   <v>      -0.26492712      -0.41767349       0.39367237 </v>
   <v>       0.23507288       0.08232651       0.39367237 </v>
   <v>       0.46175575      -0.14365201       0.39367694 </v>
   <v>       0.28131537      -0.40476605      -0.37102476 </v>
   <v>      -0.46681660       0.34344897      -0.37102399 </v>
   <v>      -0.21105030       0.46933910       0.15583616 </v>
   <v>       0.28894970      -0.03066090       0.15583616 </v>
   <v>       0.32470467      -0.15661825      -0.19749617 </v>
   <v>       0.07654971       0.09530995      -0.19749407 </v>
   <v>      -0.42345029      -0.40469005      -0.19749407 </v>
   <v>      -0.17529533       0.34338175      -0.19749617 </v>
   <v>       0.03318340       0.34344897      -0.37102399 </v>
   <v>      -0.07654971      -0.15469005       0.19749407 </v>
   <v>      -0.32470467       0.09338175       0.19749617 </v>
   <v>       0.03824425      -0.39365201      -0.39367694 </v>
   <v>      -0.37560721      -0.15565694       0.00000412 </v>
   <v>      -0.12439279       0.09434306      -0.00000412 </v>
   <v>      -0.21138343       0.21935690       0.15447525 </v>
   <v>      -0.21138343      -0.28064310       0.15447525 </v>
   <v>      -0.46151602      -0.03063596       0.15397331 </v>
   <v>       0.03848398      -0.03063596       0.15397331 </v>
   <v>       0.26492712      -0.16767349      -0.39367237 </v>
   <v>      -0.46175575       0.10634799      -0.39367694 </v>
   <v>      -0.03318340       0.09344897       0.37102399 </v>
   <v>      -0.28131537      -0.15476605       0.37102476 </v>
   <v>      -0.23507288       0.33232651      -0.39367237 </v>
   <v>      -0.28861657       0.46935690      -0.15447525 </v>
   <v>       0.21138343      -0.03064310      -0.15447525 </v>
   <v>      -0.21868463      -0.40476605      -0.37102476 </v>
   <v>       0.28131537       0.09523395      -0.37102476 </v>
   <v>      -0.46681660      -0.15655103      -0.37102399 </v>
   <v>      -0.03824425      -0.14365201       0.39367694 </v>
   <v>      -0.26492712       0.08232651       0.39367237 </v>
   <v>      -0.42345029       0.09530995      -0.19749407 </v>
   <v>      -0.17529533      -0.15661825      -0.19749617 </v>
   <v>       0.03318340      -0.15655103      -0.37102399 </v>
   <v>      -0.28894970       0.21933910      -0.15583616 </v>
   <v>      -0.28894970      -0.28066090      -0.15583616 </v>
   <v>       0.03824425       0.10634799      -0.39367694 </v>
   <v>       0.45353028      -0.03065024      -0.18586770 </v>
   <v>      -0.04646972      -0.03065024      -0.18586770 </v>
   <v>      -0.23507288      -0.16767349      -0.39367237 </v>
   <v>      -0.21868463       0.09523395      -0.37102476 </v>
   <v>      -0.21105030      -0.03066090       0.15583616 </v>
   <v>      -0.28861657      -0.03064310      -0.15447525 </v>
  </varray>
 </structure>
 <varray name="primitive_index" >
  <v type="int" >        1 </v>
  <v type="int" >       27 </v>
  <v type="int" >       29 </v>
  <v type="int" >       55 </v>
  <v type="int" >       49 </v>
  <v type="int" >       73 </v>
  <v type="int" >       74 </v>
  <v type="int" >       77 </v>
  <v type="int" >       79 </v>
  <v type="int" >       33 </v>
  <v type="int" >       39 </v>
  <v type="int" >       67 </v>
  <v type="int" >       69 </v>
  <v type="int" >       81 </v>
  <v type="int" >        5 </v>
  <v type="int" >        7 </v>
  <v type="int" >        6 </v>
  <v type="int" >        8 </v>
  <v type="int" >       21 </v>
  <v type="int" >       19 </v>
  <v type="int" >       13 </v>
  <v type="int" >       15 </v>
  <v type="int" >       30 </v>
  <v type="int" >       28 </v>
  <v type="int" >       25 </v>
  <v type="int" >       31 </v>
  <v type="int" >        9 </v>
  <v type="int" >       10 </v>
  <v type="int" >       50 </v>
  <v type="int" >       56 </v>
  <v type="int" >       53 </v>
  <v type="int" >       51 </v>
  <v type="int" >       40 </v>
  <v type="int" >       34 </v>
  <v type="int" >       35 </v>
  <v type="int" >       37 </v>
  <v type="int" >       85 </v>
  <v type="int" >       87 </v>
  <v type="int" >       86 </v>
  <v type="int" >       88 </v>
  <v type="int" >       61 </v>
  <v type="int" >       60 </v>
  <v type="int" >       70 </v>
  <v type="int" >       68 </v>
  <v type="int" >       65 </v>
  <v type="int" >       71 </v>
  <v type="int" >       47 </v>
  <v type="int" >       42 </v>
  <v type="int" >        2 </v>
  <v type="int" >        3 </v>
  <v type="int" >       23 </v>
  <v type="int" >       17 </v>
  <v type="int" >       20 </v>
  <v type="int" >       22 </v>
  <v type="int" >       41 </v>
  <v type="int" >       32 </v>
  <v type="int" >       26 </v>
  <v type="int" >       59 </v>
  <v type="int" >       52 </v>
  <v type="int" >       54 </v>
  <v type="int" >       78 </v>
  <v type="int" >       80 </v>
  <v type="int" >       76 </v>
  <v type="int" >       75 </v>
  <v type="int" >       63 </v>
  <v type="int" >       58 </v>
  <v type="int" >       38 </v>
  <v type="int" >       36 </v>
  <v type="int" >       62 </v>
  <v type="int" >       82 </v>
  <v type="int" >       83 </v>
  <v type="int" >       48 </v>
  <v type="int" >       45 </v>
  <v type="int" >       44 </v>
  <v type="int" >       72 </v>
  <v type="int" >       66 </v>
  <v type="int" >       18 </v>
  <v type="int" >       24 </v>
  <v type="int" >       43 </v>
  <v type="int" >       14 </v>
  <v type="int" >       16 </v>
  <v type="int" >       57 </v>
  <v type="int" >       11 </v>
  <v type="int" >       12 </v>
  <v type="int" >       64 </v>
  <v type="int" >       46 </v>
  <v type="int" >        4 </v>
  <v type="int" >       84 </v>
 </varray>
 <kpoints>
  <generation param="Gamma">
   <v type="int" name="divisions">       3        3        3 </v>
   <v name="usershift">      0.00000000       0.00000000       0.00000000 </v>
   <v name="genvec1">      0.33333333       0.00000000       0.00000000 </v>
   <v name="genvec2">      0.00000000       0.33333333       0.00000000 </v>
   <v name="genvec3">      0.00000000       0.00000000       0.33333333 </v>
   <v name="shift">      0.00000000       0.00000000       0.00000000 </v>
  </generation>
  <varray name="kpointlist" >
   <v>       0.00000000       0.00000000       0.00000000 </v>
   <v>       0.33333333       0.00000000       0.00000000 </v>
   <v>       0.00000000       0.33333333       0.00000000 </v>
   <v>       0.33333333       0.33333333       0.00000000 </v>
   <v>      -0.33333333       0.33333333      -0.00000000 </v>
   <v>       0.00000000       0.00000000       0.33333333 </v>
   <v>       0.33333333       0.00000000       0.33333333 </v>
   <v>      -0.33333333       0.00000000       0.33333333 </v>
   <v>       0.00000000       0.33333333       0.33333333 </v>
   <v>       0.33333333       0.33333333       0.33333333 </v>
   <v>      -0.33333333       0.33333333       0.33333333 </v>
   <v>       0.00000000      -0.33333333       0.33333333 </v>
   <v>       0.33333333      -0.33333333       0.33333333 </v>
   <v>      -0.33333333      -0.33333333       0.33333333 </v>
  </varray>
  <varray name="weights" >
   <v>       0.03703704 </v>
   <v>       0.07407407 </v>
   <v>       0.07407407 </v>
   <v>       0.07407407 </v>
   <v>       0.07407407 </v>
   <v>       0.07407407 </v>
   <v>       0.07407407 </v>
   <v>       0.07407407 </v>
   <v>       0.07407407 </v>
   <v>       0.07407407 </v>
   <v>       0.07407407 </v>
   <v>       0.07407407 </v>
   <v>       0.07407407 </v>
   <v>       0.07407407 </v>
  </varray>
 </kpoints>
 <parameters>
  <separator name="general" >
   <i type="string" name="SYSTEM">unknown system</i>
   <i type="logical" name="LCOMPAT"> F  </i>
  </separator>
  <separator name="electronic" >
   <i type="string" name="PREC">accura</i>
   <i name="ENMAX">    650.00000000</i>
   <i name="ENAUG">    628.94500000</i>
   <i name="EDIFF">      0.00000100</i>
   <i type="int" name="IALGO">    38</i>
   <i type="int" name="IWAVPR">    10</i>
   <i type="int" name="NBANDS">   538</i>
   <i name="NELECT">    736.00000000</i>
   <i type="int" name="TURBO">     0</i>
   <i type="int" name="IRESTART">     0</i>
   <i type="int" name="NREBOOT">     0</i>
   <i type="int" name="NMIN">     0</i>
   <i name="EREF">      0.00000000</i>
   <separator name="electronic smearing" >
    <i type="int" name="ISMEAR">     0</i>
    <i name="SIGMA">      0.05000000</i>
    <i name="KSPACING">      0.50000000</i>
    <i type="logical" name="KGAMMA"> T  </i>
   </separator>
   <separator name="electronic projectors" >
    <i type="logical" name="LREAL"> F  </i>
    <v name="ROPT">      0.00000000      0.00000000      0.00000000      0.00000000</v>
    <i type="int" name="LMAXPAW">  -100</i>
    <i type="int" name="LMAXMIX">     4</i>
    <i type="logical" name="NLSPLINE"> F  </i>
   </separator>
   <separator name="electronic startup" >
    <i type="int" name="ISTART">     0</i>
    <i type="int" name="ICHARG">     1</i>
    <i type="int" name="INIWAV">     1</i>
   </separator>
   <separator name="electronic spin" >
    <i type="int" name="ISPIN">     2</i>
    <i type="logical" name="LNONCOLLINEAR"> F  </i>
    <v name="MAGMOM">      0.60000000      0.60000000      0.60000000      0.60000000      0.60000000      0.60000000      0.60000000      0.60000000      0.60000000      0.60000000      0.60000000      0.60000000      0.60000000      0.60000000      0.60000000      0.60000000      0.60000000      0.60000000      0.60000000      0.60000000
      0.60000000      0.60000000      0.60000000      0.60000000      0.60000000      0.60000000      0.60000000      0.60000000      0.60000000      0.60000000      0.60000000      0.60000000      0.60000000      0.60000000      0.60000000      0.60000000      0.60000000      0.60000000      0.60000000      0.60000000
      0.60000000      0.60000000      0.60000000      0.60000000      0.60000000      0.60000000      0.60000000      0.60000000      0.60000000      0.60000000      0.60000000      0.60000000      0.60000000      0.60000000      0.60000000      0.60000000      5.00000000      5.00000000      5.00000000      5.00000000
      5.00000000      5.00000000      5.00000000      5.00000000      5.00000000      5.00000000      5.00000000      5.00000000      5.00000000      5.00000000      5.00000000      5.00000000      5.00000000      5.00000000      5.00000000      5.00000000      5.00000000      5.00000000      5.00000000      5.00000000
      5.00000000      5.00000000      5.00000000      5.00000000      5.00000000      5.00000000      5.00000000      5.00000000</v>
    <i name="NUPDOWN">     -1.00000000</i>
    <i type="logical" name="LSORBIT"> F  </i>
    <v name="SAXIS">      0.00000000      0.00000000      1.00000000</v>
    <i type="logical" name="LSPIRAL"> F  </i>
    <v name="QSPIRAL">      0.00000000      0.00000000      0.00000000</v>
    <i type="logical" name="LZEROZ"> F  </i>
   </separator>
   <separator name="electronic exchange-correlation" >
    <i type="logical" name="LASPH"> T  </i>
    <i type="logical" name="LMETAGGA"> F  </i>
   </separator>
   <separator name="electronic convergence" >
    <i type="int" name="NELM">   200</i>
    <i type="int" name="NELMDL">     0</i>
    <i type="int" name="NELMIN">     8</i>
    <i name="ENINI">    650.00000000</i>
    <separator name="electronic convergence detail" >
     <i type="logical" name="LDIAG"> T  </i>
     <i type="logical" name="LSUBROT"> F  </i>
     <i name="WEIMIN">      0.00000000</i>
     <i name="EBREAK">      0.00000000</i>
     <i name="DEPER">      0.30000000</i>
     <i type="int" name="NRMM">     4</i>
     <i name="TIME">      0.40000000</i>
    </separator>
   </separator>
   <separator name="electronic mixer" >
    <i name="AMIX">      0.40000000</i>
    <i name="BMIX">      1.00000000</i>
    <i name="AMIN">      0.10000000</i>
    <i name="AMIX_MAG">      1.60000000</i>
    <i name="BMIX_MAG">      1.00000000</i>
    <separator name="electronic mixer details" >
     <i type="int" name="IMIX">     4</i>
     <i type="logical" name="MIXFIRST"> F  </i>
     <i type="int" name="MAXMIX">   -45</i>
     <i name="WC">    100.00000000</i>
     <i type="int" name="INIMIX">     1</i>
     <i type="int" name="MIXPRE">     1</i>
     <i type="int" name="MREMOVE">     5</i>
    </separator>
   </separator>
   <separator name="electronic dipolcorrection" >
    <i type="logical" name="LDIPOL"> F  </i>
    <i type="logical" name="LMONO"> F  </i>
    <i type="int" name="IDIPOL">     0</i>
    <i name="EPSILON">      1.00000000</i>
    <v name="DIPOL">   -100.00000000   -100.00000000   -100.00000000</v>
    <i name="EFIELD">      0.00000000</i>
   </separator>
  </separator>
  <separator name="grids" >
   <i type="int" name="NGX">    96</i>
   <i type="int" name="NGY">    96</i>
   <i type="int" name="NGZ">    90</i>
   <i type="int" name="NGXF">   192</i>
   <i type="int" name="NGYF">   192</i>
   <i type="int" name="NGZF">   180</i>
   <i type="logical" name="ADDGRID"> T  </i>
  </separator>
  <separator name="ionic" >
   <i type="int" name="NSW">     0</i>
   <i type="int" name="IBRION">    -1</i>
   <i type="int" name="MDALGO">     0</i>
   <i type="int" name="ISIF">     2</i>
   <i name="PSTRESS">      0.00000000</i>
   <i name="EDIFFG">      0.00001000</i>
   <i type="int" name="NFREE">     0</i>
   <i name="POTIM">      0.50000000</i>
   <i name="SMASS">     -3.00000000</i>
   <i name="SCALEE">      1.00000000</i>
  </separator>
  <separator name="ionic md" >
   <i name="TEBEG">      0.00010000</i>
   <i name="TEEND">      0.00010000</i>
   <i type="int" name="NBLOCK">     1</i>
   <i type="int" name="KBLOCK">     1</i>
   <i type="int" name="NPACO">   256</i>
   <i name="APACO">     16.00000000</i>
  </separator>
  <separator name="symmetry" >
   <i type="int" name="ISYM">     0</i>
   <i name="SYMPREC">      0.00001000</i>
  </separator>
  <separator name="dos" >
   <i type="int" name="LORBIT">     0</i>
   <v name="RWIGS">     -1.00000000     -1.00000000     -1.00000000     -1.00000000</v>
   <i type="int" name="NEDOS">   301</i>
   <i name="EMIN">     10.00000000</i>
   <i name="EMAX">    -10.00000000</i>
   <i name="EFERMI">      0.00000000</i>
  </separator>
  <separator name="writing" >
   <i type="int" name="NWRITE">     1</i>
   <i type="logical" name="LWAVE"> F  </i>
   <i type="logical" name="LDOWNSAMPLE"> F  </i>
   <i type="logical" name="LCHARG"> T  </i>
   <i type="logical" name="LPARD"> F  </i>
   <i type="logical" name="LVTOT"> F  </i>
   <i type="logical" name="LVHAR"> F  </i>
   <i type="logical" name="LELF"> F  </i>
   <i type="logical" name="LOPTICS"> F  </i>
   <v name="STM">      0.00000000      0.00000000      0.00000000      0.00000000      0.00000000      0.00000000      0.00000000</v>
  </separator>
  <separator name="performance" >
   <i type="int" name="NPAR">     2</i>
   <i type="int" name="NSIM">     4</i>
   <i type="int" name="NBLK">    -1</i>
   <i type="logical" name="LPLANE"> T  </i>
   <i type="logical" name="LSCALAPACK"> T  </i>
   <i type="logical" name="LSCAAWARE"> F  </i>
   <i type="logical" name="LSCALU"> F  </i>
   <i type="logical" name="LASYNC"> F  </i>
   <i type="logical" name="LORBITALREAL"> F  </i>
  </separator>
  <separator name="miscellaneous" >
   <i type="int" name="IDIOT">     3</i>
   <i type="int" name="ISPECIAL">     0</i>
   <i type="logical" name="LMUSIC"> F  </i>
   <v name="POMASS">      7.01000000     16.00000000     32.06600000     55.84700000</v>
   <v name="DARWINR">      0.00000000      0.00000000      0.00000000      0.00000000</v>
   <v name="DARWINV">      1.00000000      1.00000000      1.00000000      1.00000000</v>
   <i type="logical" name="LCORR"> T  </i>
  </separator>
  <i type="logical" name="GGA_COMPAT"> T  </i>
  <i type="logical" name="LBERRY"> F  </i>
  <i type="int" name="ICORELEVEL">     0</i>
  <i type="logical" name="LDAU"> T  </i>
  <v type="int" name="LDAUTYPE">     2</v>
  <v type="int" name="LDAUL">    -1</v>
  <v name="LDAUU">      0.00000000</v>
  <v name="LDAUJ">      0.00000000</v>
  <i type="int" name="LDAUPRINT">     0</i>
  <i type="int" name="I_CONSTRAINED_M">     0</i>
  <separator name="electronic exchange-correlation" >
   <i type="string" name="GGA">PE</i>
   <i type="int" name="VOSKOWN">     0</i>
   <i type="logical" name="LHFCALC"> F  </i>
   <i type="string" name="PRECFOCK"></i>
   <i type="logical" name="LSYMGRAD"> F  </i>
   <i type="logical" name="LHFONE"> F  </i>
   <i type="logical" name="LRHFCALC"> F  </i>
   <i type="logical" name="LTHOMAS"> F  </i>
   <i type="logical" name="LMODELHF"> F  </i>
   <i name="ENCUT4O">     -1.00000000</i>
   <i type="int" name="EXXOEP">     0</i>
   <i type="int" name="FOURORBIT">     0</i>
   <i name="AEXX">      0.00000000</i>
   <i name="HFALPHA">      0.00000000</i>
   <i name="MCALPHA">      0.00000000</i>
   <i name="ALDAX">      1.00000000</i>
   <i name="AGGAX">      1.00000000</i>
   <i name="ALDAC">      1.00000000</i>
   <i name="AGGAC">      1.00000000</i>
   <i type="int" name="NKREDX">     1</i>
   <i type="int" name="NKREDY">     1</i>
   <i type="int" name="NKREDZ">     1</i>
   <i type="logical" name="SHIFTRED"> F  </i>
   <i type="logical" name="ODDONLY"> F  </i>
   <i type="logical" name="EVENONLY"> F  </i>
   <i type="int" name="LMAXFOCK">     0</i>
   <i type="int" name="NMAXFOCKAE">     0</i>
   <i type="logical" name="LFOCKAEDFT"> F  </i>
   <i name="HFSCREEN">      0.00000000</i>
   <i name="HFSCREENC">      0.00000000</i>
   <i type="int" name="NBANDSGWLOW">     0</i>
  </separator>
  <separator name="vdW DFT" >
   <i type="logical" name="LUSE_VDW"> F  </i>
   <i name="Zab_VDW">     -0.84910000</i>
   <i name="PARAM1">      0.12340000</i>
   <i name="PARAM2">      1.00000000</i>
   <i name="PARAM3">      0.00000000</i>
  </separator>
  <separator name="model GW" >
   <i type="int" name="MODEL_GW">     0</i>
   <i name="MODEL_EPS0">      8.59048892</i>
   <i name="MODEL_ALPHA">      1.00000000</i>
  </separator>
  <separator name="linear response parameters" >
   <i type="logical" name="LEPSILON"> F  </i>
   <i type="logical" name="LRPA"> F  </i>
   <i type="logical" name="LNABLA"> F  </i>
   <i type="logical" name="LVEL"> F  </i>
   <i type="int" name="KINTER">     0</i>
   <i name="CSHIFT">      0.10000000</i>
   <i name="OMEGAMAX">     -1.00000000</i>
   <i name="DEG_THRESHOLD">      0.00200000</i>
   <i name="RTIME">     -0.10000000</i>
   <i name="WPLASMAI">      0.00000000</i>
   <v name="DFIELD">      0.00000000      0.00000000      0.00000000</v>
   <v name="WPLASMA">      0.00000000      0.00000000      0.00000000      0.00000000      0.00000000      0.00000000      0.00000000      0.00000000      0.00000000</v>
  </separator>
  <separator name="orbital magnetization" >
   <i type="logical" name="NUCIND"> F  </i>
   <v name="MAGPOS">      0.00000000      0.00000000      0.00000000</v>
   <i type="logical" name="LNICSALL"> T  </i>
   <i type="logical" name="ORBITALMAG"> F  </i>
   <i type="logical" name="LMAGBLOCH"> F  </i>
   <i type="logical" name="LCHIMAG"> F  </i>
   <i type="logical" name="LGAUGE"> T  </i>
   <i type="int" name="MAGATOM">     0</i>
   <v name="MAGDIPOL">      0.00000000      0.00000000      0.00000000</v>
   <v name="AVECCONST">      0.00000000      0.00000000      0.00000000</v>
  </separator>
  <separator name="response functions" >
   <i type="logical" name="LADDER"> F  </i>
   <i type="logical" name="LRPAFORCE"> F  </i>
   <i type="logical" name="LFXC"> F  </i>
   <i type="logical" name="LHARTREE"> T  </i>
   <i type="int" name="IBSE">     0</i>
   <v type="int" name="KPOINT">    -1     0     0     0</v>
   <i type="logical" name="LTCTE"> F  </i>
   <i type="logical" name="LTETE"> F  </i>
   <i type="logical" name="LTRIPLET"> F  </i>
   <i type="logical" name="LFXCEPS"> F  </i>
   <i type="logical" name="LFXHEG"> F  </i>
   <i type="int" name="NATURALO">     2</i>
   <i type="logical" name="L2ORDER"> F  </i>
   <i type="logical" name="LMP2LT"> F  </i>
   <i type="logical" name="LUSEW"> F  </i>
   <i name="ENCUTGW">     -2.00000000</i>
   <i name="ENCUTGWSOFT">     -2.00000000</i>
   <i name="ENCUTLF">     -1.00000000</i>
   <i type="int" name="LMAXMP2">    -1</i>
   <i name="SCISSOR">      0.00000000</i>
   <i type="int" name="NOMEGA">     0</i>
   <i type="int" name="NOMEGAR">     0</i>
   <i type="int" name="NBANDSGW">    -1</i>
   <i type="int" name="NBANDSO">    -1</i>
   <i type="int" name="NBANDSV">    -1</i>
   <i type="int" name="NELM">   200</i>
   <i type="int" name="NELMHF">     1</i>
   <i type="int" name="DIM">     3</i>
   <i type="int" name="ANTIRES">     0</i>
   <i name="OMEGAMAX">    -30.00000000</i>
   <i name="OMEGAMIN">    -30.00000000</i>
   <i name="OMEGATL">   -200.00000000</i>
   <i type="int" name="OMEGAGRID">   140</i>
   <i name="CSHIFT">     -0.10000000</i>
   <i type="logical" name="SELFENERGY"> F  </i>
   <i type="logical" name="LSPECTRAL"> F  </i>
   <i type="logical" name="LSPECTRALGW"> F  </i>
   <i type="logical" name="LSINGLES"> F  </i>
   <i type="logical" name="LFERMIGW"> F  </i>
   <i type="logical" name="ODDONLYGW"> F  </i>
   <i type="logical" name="EVENONLYGW"> F  </i>
   <i type="int" name="NKREDLFX">     1</i>
   <i type="int" name="NKREDLFY">     1</i>
   <i type="int" name="NKREDLFZ">     1</i>
   <i type="int" name="MAXMEM">  2800</i>
   <i type="int" name="TELESCOPE">     0</i>
   <i type="int" name="TAUPAR">     1</i>
   <i type="int" name="OMEGAPAR">    -1</i>
   <i name="LAMBDA">      1.00000000</i>
  </separator>
  <separator name="External order field" >
   <i name="OFIELD_KAPPA">      0.00000000</i>
   <v name="OFIELD_K">      0.00000000      0.00000000      0.00000000</v>
   <i name="OFIELD_Q6_NEAR">      0.00000000</i>
   <i name="OFIELD_Q6_FAR">      0.00000000</i>
   <i name="OFIELD_A">      0.00000000</i>
  </separator>
 </parameters>
 <atominfo>
  <atoms>      88 </atoms>
  <types>       4 </types>
  <array name="atoms" >
   <dimension dim="1">ion</dimension>
   <field type="string">element</field>
   <field type="int">atomtype</field>
   <set>
    <rc><c>Li</c><c>   1</c></rc>
    <rc><c>Li</c><c>   1</c></rc>
    <rc><c>Li</c><c>   1</c></rc>
    <rc><c>Li</c><c>   1</c></rc>
    <rc><c>Li</c><c>   1</c></rc>
    <rc><c>Li</c><c>   1</c></rc>
    <rc><c>Li</c><c>   1</c></rc>
    <rc><c>Li</c><c>   1</c></rc>
    <rc><c>Li</c><c>   1</c></rc>
    <rc><c>Li</c><c>   1</c></rc>
    <rc><c>Li</c><c>   1</c></rc>
    <rc><c>Li</c><c>   1</c></rc>
    <rc><c>Li</c><c>   1</c></rc>
    <rc><c>Li</c><c>   1</c></rc>
    <rc><c>Li</c><c>   1</c></rc>
    <rc><c>Li</c><c>   1</c></rc>
    <rc><c>O </c><c>   2</c></rc>
    <rc><c>O </c><c>   2</c></rc>
    <rc><c>O </c><c>   2</c></rc>
    <rc><c>O </c><c>   2</c></rc>
    <rc><c>O </c><c>   2</c></rc>
    <rc><c>O </c><c>   2</c></rc>
    <rc><c>O </c><c>   2</c></rc>
    <rc><c>O </c><c>   2</c></rc>
    <rc><c>O </c><c>   2</c></rc>
    <rc><c>O </c><c>   2</c></rc>
    <rc><c>O </c><c>   2</c></rc>
    <rc><c>O </c><c>   2</c></rc>
    <rc><c>O </c><c>   2</c></rc>
    <rc><c>O </c><c>   2</c></rc>
    <rc><c>O </c><c>   2</c></rc>
    <rc><c>O </c><c>   2</c></rc>
    <rc><c>S </c><c>   3</c></rc>
    <rc><c>S </c><c>   3</c></rc>
    <rc><c>S </c><c>   3</c></rc>
    <rc><c>S </c><c>   3</c></rc>
    <rc><c>S </c><c>   3</c></rc>
    <rc><c>S </c><c>   3</c></rc>
    <rc><c>S </c><c>   3</c></rc>
    <rc><c>S </c><c>   3</c></rc>
    <rc><c>S </c><c>   3</c></rc>
    <rc><c>S </c><c>   3</c></rc>
    <rc><c>S </c><c>   3</c></rc>
    <rc><c>S </c><c>   3</c></rc>
    <rc><c>S </c><c>   3</c></rc>
    <rc><c>S </c><c>   3</c></rc>
    <rc><c>S </c><c>   3</c></rc>
    <rc><c>S </c><c>   3</c></rc>
    <rc><c>S </c><c>   3</c></rc>
    <rc><c>S </c><c>   3</c></rc>
    <rc><c>S </c><c>   3</c></rc>
    <rc><c>S </c><c>   3</c></rc>
    <rc><c>S </c><c>   3</c></rc>
    <rc><c>S </c><c>   3</c></rc>
    <rc><c>S </c><c>   3</c></rc>
    <rc><c>S </c><c>   3</c></rc>
    <rc><c>Fe</c><c>   4</c></rc>
    <rc><c>Fe</c><c>   4</c></rc>
    <rc><c>Fe</c><c>   4</c></rc>
    <rc><c>Fe</c><c>   4</c></rc>
    <rc><c>Fe</c><c>   4</c></rc>
    <rc><c>Fe</c><c>   4</c></rc>
    <rc><c>Fe</c><c>   4</c></rc>
    <rc><c>Fe</c><c>   4</c></rc>
    <rc><c>Fe</c><c>   4</c></rc>
    <rc><c>Fe</c><c>   4</c></rc>
    <rc><c>Fe</c><c>   4</c></rc>
    <rc><c>Fe</c><c>   4</c></rc>
    <rc><c>Fe</c><c>   4</c></rc>
    <rc><c>Fe</c><c>   4</c></rc>
    <rc><c>Fe</c><c>   4</c></rc>
    <rc><c>Fe</c><c>   4</c></rc>
    <rc><c>Fe</c><c>   4</c></rc>
    <rc><c>Fe</c><c>   4</c></rc>
    <rc><c>Fe</c><c>   4</c></rc>
    <rc><c>Fe</c><c>   4</c></rc>
    <rc><c>Fe</c><c>   4</c></rc>
    <rc><c>Fe</c><c>   4</c></rc>
    <rc><c>Fe</c><c>   4</c></rc>
    <rc><c>Fe</c><c>   4</c></rc>
    <rc><c>Fe</c><c>   4</c></rc>
    <rc><c>Fe</c><c>   4</c></rc>
    <rc><c>Fe</c><c>   4</c></rc>
    <rc><c>Fe</c><c>   4</c></rc>
    <rc><c>Fe</c><c>   4</c></rc>
    <rc><c>Fe</c><c>   4</c></rc>
    <rc><c>Fe</c><c>   4</c></rc>
    <rc><c>Fe</c><c>   4</c></rc>
   </set>
  </array>
  <array name="atomtypes" >
   <dimension dim="1">type</dimension>
   <field type="int">atomspertype</field>
   <field type="string">element</field>
   <field>mass</field>
   <field>valence</field>
   <field type="string">pseudopotential</field>
   <set>
    <rc><c>  16</c><c>Li</c><c>      7.01000000</c><c>      3.00000000</c><c>  PAW_PBE Li_sv 10Sep2004               </c></rc>
    <rc><c>  16</c><c>O </c><c>     16.00000000</c><c>      6.00000000</c><c>  PAW_PBE O 08Apr2002                   </c></rc>
    <rc><c>  24</c><c>S </c><c>     32.06600000</c><c>      6.00000000</c><c>  PAW_PBE S 06Sep2000                   </c></rc>
    <rc><c>  32</c><c>Fe</c><c>     55.84700000</c><c>     14.00000000</c><c>  PAW_PBE Fe_pv 02Aug2007               </c></rc>
   </set>
  </array>
 </atominfo>
 <structure name="initialpos" >
  <crystal>
   <varray name="basis" >
    <v>      11.11223374       0.00000000      -0.00029034 </v>
    <v>       0.00000000      11.11745194       0.00000000 </v>
    <v>      -2.77510898       0.00000000      10.19872221 </v>
   </varray>
   <i name="volume">   1259.93837498 </i>
   <varray name="rec_basis" >
    <v>       0.08999155       0.00000000       0.02448702 </v>
    <v>       0.00000000       0.08994867       0.00000000 </v>
    <v>       0.00000256       0.00000000       0.09805220 </v>
   </varray>
  </crystal>
  <varray name="positions" >
   <v>       0.28894969       0.46933910       0.15583616 </v>
   <v>       0.78894969       0.46933910       0.15583616 </v>
   <v>       0.28894969       0.96933910       0.15583616 </v>
   <v>       0.78894969       0.96933910       0.15583616 </v>
   <v>       0.04646972       0.21934976       0.18586770 </v>
   <v>       0.54646972       0.21934976       0.18586770 </v>
   <v>       0.04646972       0.71934976       0.18586770 </v>
   <v>       0.54646972       0.71934976       0.18586770 </v>
   <v>       0.45353028       0.46934976       0.81413230 </v>
   <v>       0.95353028       0.46934976       0.81413230 </v>
   <v>       0.45353028       0.96934976       0.81413230 </v>
   <v>       0.95353028       0.96934976       0.81413230 </v>
   <v>       0.21105031       0.21933910       0.84416384 </v>
   <v>       0.71105031       0.21933910       0.84416384 </v>
   <v>       0.21105031       0.71933910       0.84416384 </v>
   <v>       0.71105031       0.71933910       0.84416384 </v>
   <v>       0.07654971       0.09530995       0.80250593 </v>
   <v>       0.57654971       0.09530995       0.80250593 </v>
   <v>       0.07654971       0.59530995       0.80250593 </v>
   <v>       0.57654971       0.59530995       0.80250593 </v>
   <v>       0.32470466       0.34338175       0.80250383 </v>
   <v>       0.82470466       0.34338175       0.80250383 </v>
   <v>       0.32470466       0.84338175       0.80250383 </v>
   <v>       0.82470466       0.84338175       0.80250383 </v>
   <v>       0.17529534       0.09338175       0.19749617 </v>
   <v>       0.67529534       0.09338175       0.19749617 </v>
   <v>       0.17529534       0.59338175       0.19749617 </v>
   <v>       0.67529534       0.59338175       0.19749617 </v>
   <v>       0.42345029       0.34530995       0.19749407 </v>
   <v>       0.92345029       0.34530995       0.19749407 </v>
   <v>       0.42345029       0.84530995       0.19749407 </v>
   <v>       0.92345029       0.84530995       0.19749407 </v>
   <v>       0.21868463       0.34523395       0.37102476 </v>
   <v>       0.71868463       0.34523395       0.37102476 </v>
   <v>       0.21868463       0.84523395       0.37102476 </v>
   <v>       0.71868463       0.84523395       0.37102476 </v>
   <v>       0.46681660       0.09344897       0.37102399 </v>
   <v>       0.96681660       0.09344897       0.37102399 </v>
   <v>       0.46681660       0.59344897       0.37102399 </v>
   <v>       0.96681660       0.59344897       0.37102399 </v>
   <v>       0.03318340       0.34344897       0.62897601 </v>
   <v>       0.53318340       0.34344897       0.62897601 </v>
   <v>       0.03318340       0.84344897       0.62897601 </v>
   <v>       0.53318340       0.84344897       0.62897601 </v>
   <v>       0.28131537       0.09523395       0.62897524 </v>
   <v>       0.78131537       0.09523395       0.62897524 </v>
   <v>       0.28131537       0.59523395       0.62897524 </v>
   <v>       0.78131537       0.59523395       0.62897524 </v>
   <v>       0.12439279       0.34434306       0.00000412 </v>
   <v>       0.62439279       0.34434306       0.00000412 </v>
   <v>       0.12439279       0.84434306       0.00000412 </v>
   <v>       0.62439279       0.84434306       0.00000412 </v>
   <v>       0.37560721       0.09434306       0.99999588 </v>
   <v>       0.87560721       0.09434306       0.99999588 </v>
   <v>       0.37560721       0.59434306       0.99999588 </v>
   <v>       0.87560721       0.59434306       0.99999588 </v>
   <v>       0.03824426       0.10634799       0.60632306 </v>
   <v>       0.53824426       0.10634799       0.60632306 </v>
   <v>       0.03824426       0.60634799       0.60632306 </v>
   <v>       0.53824426       0.60634799       0.60632306 </v>
   <v>       0.26492712       0.33232651       0.60632763 </v>
   <v>       0.76492712       0.33232651       0.60632763 </v>
   <v>       0.26492712       0.83232651       0.60632763 </v>
   <v>       0.76492712       0.83232651       0.60632763 </v>
   <v>       0.23507288       0.08232651       0.39367237 </v>
   <v>       0.73507288       0.08232651       0.39367237 </v>
   <v>       0.23507288       0.58232651       0.39367237 </v>
   <v>       0.73507288       0.58232651       0.39367237 </v>
   <v>       0.46175574       0.35634799       0.39367694 </v>
   <v>       0.96175574       0.35634799       0.39367694 </v>
   <v>       0.46175574       0.85634799       0.39367694 </v>
   <v>       0.96175574       0.85634799       0.39367694 </v>
   <v>       0.03938389       0.46936404       0.15397331 </v>
   <v>       0.53848398       0.46936404       0.15397331 </v>
   <v>       0.03848398       0.96936404       0.15397331 </v>
   <v>       0.53848398       0.96936404       0.15397331 </v>
   <v>       0.28861657       0.21935690       0.15447525 </v>
   <v>       0.78861657       0.21935690       0.15447525 </v>
   <v>       0.28861657       0.71935690       0.15447525 </v>
   <v>       0.78861657       0.71935690       0.15447525 </v>
   <v>       0.21138343       0.46935690       0.84552475 </v>
   <v>       0.71138343       0.46935690       0.84552475 </v>
   <v>       0.21138343       0.96935690       0.84552475 </v>
   <v>       0.71138343       0.96935690       0.84552475 </v>
   <v>       0.46151602       0.21936404       0.84602669 </v>
   <v>       0.96151602       0.21936404       0.84602669 </v>
   <v>       0.46151602       0.71936404       0.84602669 </v>
   <v>       0.96151602       0.71936404       0.84602669 </v>
  </varray>
 </structure>
 <calculation>
  <scstep>
   <time name="dav">  315.30  319.04</time>
   <time name="total">  318.62  322.44</time>
   <energy>
    <i name="alphaZ">   2314.49656628 </i>
    <i name="ewald"> -57723.01415877 </i>
    <i name="hartreedc"> -30348.90766248 </i>
    <i name="XCdc">   3229.30092478 </i>
    <i name="pawpsdc">  92679.89207989 </i>
    <i name="pawaedc"> -95535.38516353 </i>
    <i name="eentropy">     -0.01989745 </i>
    <i name="bandstr">    349.78266129 </i>
    <i name="atom">  95443.47970955 </i>
    <i name="e_fr_energy">  10409.62505956 </i>
    <i name="e_wo_entrp">  10409.64495700 </i>
    <i name="e_0_energy">  10409.63500828 </i>
   </energy>
  </scstep>
  <scstep>
   <time name="dav">  308.75  311.96</time>
   <time name="total">  308.75  311.97</time>
   <energy>
    <i name="e_fr_energy">   1177.48860230 </i>
    <i name="e_wo_entrp">   1177.55324957 </i>
    <i name="e_0_energy">   1177.52092594 </i>
   </energy>
  </scstep>
  <scstep>
   <time name="dav">  326.86  330.22</time>
   <time name="total">  326.87  330.23</time>
   <energy>
    <i name="e_fr_energy">   -308.11911984 </i>
    <i name="e_wo_entrp">   -308.11911984 </i>
    <i name="e_0_energy">   -308.11911984 </i>
   </energy>
  </scstep>
  <scstep>
   <time name="dav">  348.67  352.44</time>
   <time name="total">  348.68  352.44</time>
   <energy>
    <i name="e_fr_energy">   -476.30044886 </i>
    <i name="e_wo_entrp">   -476.30044886 </i>
    <i name="e_0_energy">   -476.30044886 </i>
   </energy>
  </scstep>
  <scstep>
   <time name="dav">  463.31  467.75</time>
   <time name="total">  472.46  477.03</time>
   <energy>
    <i name="e_fr_energy">   -488.73206679 </i>
    <i name="e_wo_entrp">   -488.73206679 </i>
    <i name="e_0_energy">   -488.73206679 </i>
   </energy>
  </scstep>
  <scstep>
   <time name="dav">  405.48  409.24</time>
   <time name="total">  418.01  421.90</time>
   <energy>
    <i name="e_fr_energy">   -489.20005922 </i>
    <i name="e_wo_entrp">   -489.20005922 </i>
    <i name="e_0_energy">   -489.20005922 </i>
   </energy>
  </scstep>
  <scstep>
   <time name="dav">  429.00  433.37</time>
   <time name="total">  441.46  445.88</time>
   <energy>
    <i name="e_fr_energy">   -489.21691268 </i>
    <i name="e_wo_entrp">   -489.21691268 </i>
    <i name="e_0_energy">   -489.21691268 </i>
   </energy>
  </scstep>
  <scstep>
   <time name="dav">  408.67  412.91</time>
   <time name="total">  421.23  425.50</time>
   <energy>
    <i name="e_fr_energy">   -489.21645839 </i>
    <i name="e_wo_entrp">   -489.21645839 </i>
    <i name="e_0_energy">   -489.21645839 </i>
   </energy>
  </scstep>
  <scstep>
   <time name="dav">  452.23  456.36</time>
   <time name="total">  464.78  468.98</time>
   <energy>
    <i name="e_fr_energy">   -489.21580382 </i>
    <i name="e_wo_entrp">   -489.21580382 </i>
    <i name="e_0_energy">   -489.21580382 </i>
   </energy>
  </scstep>
  <scstep>
   <time name="dav">  453.54  457.94</time>
   <time name="total">  466.18  470.60</time>
   <energy>
    <i name="e_fr_energy">   -489.21485118 </i>
    <i name="e_wo_entrp">   -489.21485118 </i>
    <i name="e_0_energy">   -489.21485118 </i>
   </energy>
  </scstep>
  <scstep>
   <time name="dav">  367.06  371.13</time>
   <time name="total">  379.73  383.99</time>
   <energy>
    <i name="e_fr_energy">   -489.21492790 </i>
    <i name="e_wo_entrp">   -489.21492790 </i>
    <i name="e_0_energy">   -489.21492790 </i>
   </energy>
  </scstep>
  <scstep>
   <time name="dav">  393.54  397.39</time>
   <time name="total">  406.21  410.18</time>
   <energy>
    <i name="e_fr_energy">   -489.21491988 </i>
    <i name="e_wo_entrp">   -489.21491988 </i>
    <i name="e_0_energy">   -489.21491988 </i>
   </energy>
  </scstep>
  <scstep>
   <time name="dav">  353.14  356.97</time>
   <time name="total">  365.84  369.86</time>
   <energy>
    <i name="e_fr_energy">   -489.21490382 </i>
    <i name="e_wo_entrp">   -489.21490382 </i>
    <i name="e_0_energy">   -489.21490382 </i>
   </energy>
  </scstep>
  <scstep>
   <time name="dav">  321.90  325.00</time>
   <time name="total">  334.59  337.91</time>
   <energy>
    <i name="e_fr_energy">   -489.21490977 </i>
    <i name="e_wo_entrp">   -489.21490977 </i>
    <i name="e_0_energy">   -489.21490977 </i>
   </energy>
  </scstep>
  <scstep>
   <time name="dav">  310.31  313.47</time>
   <time name="total">  323.09  326.29</time>
   <energy>
    <i name="e_fr_energy">   -489.21490784 </i>
    <i name="e_wo_entrp">   -489.21490784 </i>
    <i name="e_0_energy">   -489.21490784 </i>
   </energy>
  </scstep>
  <scstep>
   <time name="dav">  223.85  226.06</time>
   <time name="total">  227.18  229.39</time>
   <energy>
    <i name="alphaZ">   2314.49656628 </i>
    <i name="ewald"> -57723.01415877 </i>
    <i name="hartreedc"> -30348.90320138 </i>
    <i name="XCdc">   3229.30018952 </i>
    <i name="pawpsdc">  92679.58965893 </i>
    <i name="pawaedc"> -95535.07840339 </i>
    <i name="eentropy">     -0.00000000 </i>
    <i name="bandstr"> -10549.08526888 </i>
    <i name="atom">  95443.47970955 </i>
    <i name="e_fr_energy">   -489.21490815 </i>
    <i name="e_wo_entrp">   -489.21490815 </i>
    <i name="e_0_energy">   -489.21490815 </i>
   </energy>
  </scstep>
  <structure>
   <crystal>
    <varray name="basis" >
     <v>      11.11223374       0.00000000      -0.00029034 </v>
     <v>       0.00000000      11.11745194       0.00000000 </v>
     <v>      -2.77510898       0.00000000      10.19872221 </v>
    </varray>
    <i name="volume">   1259.93837498 </i>
    <varray name="rec_basis" >
     <v>       0.08999155       0.00000000       0.02448702 </v>
     <v>       0.00000000       0.08994867       0.00000000 </v>
     <v>       0.00000256       0.00000000       0.09805220 </v>
    </varray>
   </crystal>
   <varray name="positions" >
    <v>       0.28894969       0.46933910       0.15583616 </v>
    <v>       0.78894969       0.46933910       0.15583616 </v>
    <v>       0.28894969       0.96933910       0.15583616 </v>
    <v>       0.78894969       0.96933910       0.15583616 </v>
    <v>       0.04646972       0.21934976       0.18586770 </v>
    <v>       0.54646972       0.21934976       0.18586770 </v>
    <v>       0.04646972       0.71934976       0.18586770 </v>
    <v>       0.54646972       0.71934976       0.18586770 </v>
    <v>       0.45353028       0.46934976       0.81413230 </v>
    <v>       0.95353028       0.46934976       0.81413230 </v>
    <v>       0.45353028       0.96934976       0.81413230 </v>
    <v>       0.95353028       0.96934976       0.81413230 </v>
    <v>       0.21105031       0.21933910       0.84416384 </v>
    <v>       0.71105031       0.21933910       0.84416384 </v>
    <v>       0.21105031       0.71933910       0.84416384 </v>
    <v>       0.71105031       0.71933910       0.84416384 </v>
    <v>       0.07654971       0.09530995       0.80250593 </v>
    <v>       0.57654971       0.09530995       0.80250593 </v>
    <v>       0.07654971       0.59530995       0.80250593 </v>
    <v>       0.57654971       0.59530995       0.80250593 </v>
    <v>       0.32470466       0.34338175       0.80250383 </v>
    <v>       0.82470466       0.34338175       0.80250383 </v>
    <v>       0.32470466       0.84338175       0.80250383 </v>
    <v>       0.82470466       0.84338175       0.80250383 </v>
    <v>       0.17529534       0.09338175       0.19749617 </v>
    <v>       0.67529534       0.09338175       0.19749617 </v>
    <v>       0.17529534       0.59338175       0.19749617 </v>
    <v>       0.67529534       0.59338175       0.19749617 </v>
    <v>       0.42345029       0.34530995       0.19749407 </v>
    <v>       0.92345029       0.34530995       0.19749407 </v>
    <v>       0.42345029       0.84530995       0.19749407 </v>
    <v>       0.92345029       0.84530995       0.19749407 </v>
    <v>       0.21868463       0.34523395       0.37102476 </v>
    <v>       0.71868463       0.34523395       0.37102476 </v>
    <v>       0.21868463       0.84523395       0.37102476 </v>
    <v>       0.71868463       0.84523395       0.37102476 </v>
    <v>       0.46681660       0.09344897       0.37102399 </v>
    <v>       0.96681660       0.09344897       0.37102399 </v>
    <v>       0.46681660       0.59344897       0.37102399 </v>
    <v>       0.96681660       0.59344897       0.37102399 </v>
    <v>       0.03318340       0.34344897       0.62897601 </v>
    <v>       0.53318340       0.34344897       0.62897601 </v>
    <v>       0.03318340       0.84344897       0.62897601 </v>
    <v>       0.53318340       0.84344897       0.62897601 </v>
    <v>       0.28131537       0.09523395       0.62897524 </v>
    <v>       0.78131537       0.09523395       0.62897524 </v>
    <v>       0.28131537       0.59523395       0.62897524 </v>
    <v>       0.78131537       0.59523395       0.62897524 </v>
    <v>       0.12439279       0.34434306       0.00000412 </v>
    <v>       0.62439279       0.34434306       0.00000412 </v>
    <v>       0.12439279       0.84434306       0.00000412 </v>
    <v>       0.62439279       0.84434306       0.00000412 </v>
    <v>       0.37560721       0.09434306       0.99999588 </v>
    <v>       0.87560721       0.09434306       0.99999588 </v>
    <v>       0.37560721       0.59434306       0.99999588 </v>
    <v>       0.87560721       0.59434306       0.99999588 </v>
    <v>       0.03824426       0.10634799       0.60632306 </v>
    <v>       0.53824426       0.10634799       0.60632306 </v>
    <v>       0.03824426       0.60634799       0.60632306 </v>
    <v>       0.53824426       0.60634799       0.60632306 </v>
    <v>       0.26492712       0.33232651       0.60632763 </v>
    <v>       0.76492712       0.33232651       0.60632763 </v>
    <v>       0.26492712       0.83232651       0.60632763 </v>
    <v>       0.76492712       0.83232651       0.60632763 </v>
    <v>       0.23507288       0.08232651       0.39367237 </v>
    <v>       0.73507288       0.08232651       0.39367237 </v>
    <v>       0.23507288       0.58232651       0.39367237 </v>
    <v>       0.73507288       0.58232651       0.39367237 </v>
    <v>       0.46175574       0.35634799       0.39367694 </v>
    <v>       0.96175574       0.35634799       0.39367694 </v>
    <v>       0.46175574       0.85634799       0.39367694 </v>
    <v>       0.96175574       0.85634799       0.39367694 </v>
    <v>       0.03938389       0.46936404       0.15397331 </v>
    <v>       0.53848398       0.46936404       0.15397331 </v>
    <v>       0.03848398       0.96936404       0.15397331 </v>
    <v>       0.53848398       0.96936404       0.15397331 </v>
    <v>       0.28861657       0.21935690       0.15447525 </v>
    <v>       0.78861657       0.21935690       0.15447525 </v>
    <v>       0.28861657       0.71935690       0.15447525 </v>
    <v>       0.78861657       0.71935690       0.15447525 </v>
    <v>       0.21138343       0.46935690       0.84552475 </v>
    <v>       0.71138343       0.46935690       0.84552475 </v>
    <v>       0.21138343       0.96935690       0.84552475 </v>
    <v>       0.71138343       0.96935690       0.84552475 </v>
    <v>       0.46151602       0.21936404       0.84602669 </v>
    <v>       0.96151602       0.21936404       0.84602669 </v>
    <v>       0.46151602       0.71936404       0.84602669 </v>
    <v>       0.96151602       0.71936404       0.84602669 </v>
   </varray>
  </structure>
  <varray name="forces" >
   <v>       0.01379099      -0.00176216      -0.00002433 </v>
   <v>       0.01354936      -0.00171891      -0.00002958 </v>
   <v>       0.00014177       0.00018762      -0.00010937 </v>
   <v>       0.00015400       0.00021421       0.00005681 </v>
   <v>      -0.00487648       0.00056648       0.00048669 </v>
   <v>       0.00076901       0.00005049      -0.00002273 </v>
   <v>      -0.00487815       0.00052124      -0.00054874 </v>
   <v>       0.00077212       0.00005926       0.00010630 </v>
   <v>       0.00081939      -0.00026153       0.00010403 </v>
   <v>      -0.00137674       0.00094724      -0.00011840 </v>
   <v>       0.00038451      -0.00003106       0.00012006 </v>
   <v>      -0.00052457      -0.00018362      -0.00013379 </v>
   <v>       0.00082386      -0.00057433      -0.00084390 </v>
   <v>       0.00004587       0.00018729       0.00049517 </v>
   <v>      -0.00031105       0.00025478      -0.00039160 </v>
   <v>       0.00118389      -0.00065351       0.00088124 </v>
   <v>       0.00038983       0.00105355       0.00140484 </v>
   <v>      -0.00029328       0.00001637      -0.00043755 </v>
   <v>       0.00197956      -0.00138173       0.00102498 </v>
   <v>      -0.00149365       0.00052932      -0.00078412 </v>
   <v>      -0.00135464       0.00048309      -0.00003344 </v>
   <v>       0.00124155      -0.00127027      -0.00054000 </v>
   <v>      -0.00020515      -0.00009755      -0.00011171 </v>
   <v>      -0.00033510       0.00125365      -0.00116946 </v>
   <v>       0.00107390       0.00106966       0.00009188 </v>
   <v>      -0.00137829      -0.00140641       0.00036831 </v>
   <v>       0.02871570       0.02182082       0.00236229 </v>
   <v>      -0.00203738       0.00023134       0.00045860 </v>
   <v>      -0.00237225       0.00017779      -0.00043423 </v>
   <v>       0.02732837       0.02042172      -0.00166289 </v>
   <v>      -0.00168377      -0.00143509      -0.00030851 </v>
   <v>       0.00076296       0.00103196       0.00016188 </v>
   <v>       0.00201709       0.00183895      -0.00357605 </v>
   <v>      -0.00210405      -0.00018622       0.00133728 </v>
   <v>       0.00054150      -0.00190776      -0.00114418 </v>
   <v>      -0.00072053      -0.00000230       0.00010366 </v>
   <v>      -0.00068004       0.00017587       0.00001564 </v>
   <v>       0.00075285      -0.00155312       0.00160692 </v>
   <v>      -0.00223845       0.00014920      -0.00122124 </v>
   <v>       0.00239185       0.00201571       0.00403394 </v>
   <v>       0.00081712      -0.00031627       0.00171033 </v>
   <v>      -0.00111033       0.00013232      -0.00072400 </v>
   <v>       0.00054758       0.00074670       0.00071394 </v>
   <v>      -0.00062565       0.00008970      -0.00059322 </v>
   <v>       0.00021052       0.00039894      -0.00072426 </v>
   <v>      -0.00003767      -0.00008371       0.00001484 </v>
   <v>       0.00058010      -0.00057152      -0.00083255 </v>
   <v>      -0.00062824      -0.00014021      -0.00075666 </v>
   <v>       0.00960179      -0.00523531      -0.00477232 </v>
   <v>      -0.00193555      -0.00031906      -0.00110902 </v>
   <v>       0.00090667      -0.00081583       0.00140359 </v>
   <v>      -0.00078719       0.00016582      -0.00006195 </v>
   <v>      -0.00069453       0.00017869      -0.00011971 </v>
   <v>       0.00080963      -0.00082360      -0.00121552 </v>
   <v>      -0.00183105      -0.00030844       0.00091480 </v>
   <v>       0.00935950      -0.00501648       0.00472450 </v>
   <v>      -0.00067150      -0.00018932      -0.00112497 </v>
   <v>       0.00007580       0.00001701       0.00043558 </v>
   <v>      -0.00122521       0.00045132      -0.00254220 </v>
   <v>       0.00023415       0.00004511       0.00130461 </v>
   <v>      -0.00028225       0.00020914       0.00219572 </v>
   <v>       0.00022879       0.00021996      -0.00051464 </v>
   <v>      -0.00014407      -0.00004333       0.00060701 </v>
   <v>       0.00049562      -0.00020240       0.00051103 </v>
   <v>      -0.00049650      -0.00077195      -0.00026061 </v>
   <v>       0.00027260       0.00029315      -0.00059632 </v>
   <v>       0.00010070       0.00209627       0.01228207 </v>
   <v>       0.00140195      -0.00044433      -0.00032233 </v>
   <v>       0.00200576      -0.00042652       0.00061100 </v>
   <v>       0.00044373       0.00213108      -0.01292975 </v>
   <v>       0.00079868       0.00031067       0.00052831 </v>
   <v>      -0.00008613      -0.00071946      -0.00009477 </v>
   <v>      -0.10661150      -0.04161497      -0.00023398 </v>
   <v>       0.00204170      -0.00006804       0.00011072 </v>
   <v>      -0.00152146      -0.00014495      -0.00001179 </v>
   <v>       0.00120402       0.00059540       0.00010733 </v>
   <v>       0.00185935      -0.00215576       0.00027237 </v>
   <v>       0.00673019       0.00687855       0.00137812 </v>
   <v>       0.00675265       0.00696188      -0.00147784 </v>
   <v>       0.00186927      -0.00218422      -0.00043217 </v>
   <v>       0.00052914       0.00094020      -0.00232468 </v>
   <v>       0.00139005       0.00093675       0.00244266 </v>
   <v>      -0.00006376      -0.00025527      -0.00017511 </v>
   <v>       0.00067984      -0.00024985       0.00030294 </v>
   <v>       0.00114224       0.00016847       0.00060911 </v>
   <v>      -0.00312425      -0.00092550      -0.00182716 </v>
   <v>       0.00115171       0.00024887      -0.00031907 </v>
   <v>      -0.00313035      -0.00102176       0.00134136 </v>
  </varray>
  <varray name="stress" >
   <v>       2.11611913       0.00155437      -0.08630201 </v>
   <v>       0.00155396       1.85839911       0.06126124 </v>
   <v>      -0.08650747       0.06123910       0.48730579 </v>
  </varray>
  <energy>
   <i name="e_fr_energy">   -489.21490815 </i>
   <i name="e_wo_entrp">   -489.21490815 </i>
   <i name="e_0_energy">     -0.00000000 </i>
  </energy>
  <time name="totalsc"> 6558.83 6625.71</time>
  <eigenvalues>
   <array>
    <dimension dim="1">band</dimension>
    <dimension dim="2">kpoint</dimension>
    <dimension dim="3">spin</dimension>
    <field>eigene</field>
    <field>occ</field>
    <set>
     <set comment="spin 1">
      <set comment="kpoint 1">
       <r>  -51.0581    1.0000 </r>
       <r>  -51.0554    1.0000 </r>
       <r>  -51.0552    1.0000 </r>
       <r>  -51.0548    1.0000 </r>
       <r>  -51.0542    1.0000 </r>
       <r>  -51.0539    1.0000 </r>
       <r>  -51.0533    1.0000 </r>
       <r>  -51.0532    1.0000 </r>
       <r>  -51.0529    1.0000 </r>
       <r>  -51.0526    1.0000 </r>
       <r>  -51.0525    1.0000 </r>
       <r>  -51.0521    1.0000 </r>
       <r>  -51.0516    1.0000 </r>
       <r>  -51.0511    1.0000 </r>
       <r>  -51.0503    1.0000 </r>
       <r>  -51.0486    1.0000 </r>
       <r>  -51.0478    1.0000 </r>
       <r>  -51.0453    1.0000 </r>
       <r>  -51.0452    1.0000 </r>
       <r>  -51.0446    1.0000 </r>
       <r>  -51.0435    1.0000 </r>
       <r>  -51.0428    1.0000 </r>
       <r>  -51.0427    1.0000 </r>
       <r>  -51.0403    1.0000 </r>
       <r>  -51.0403    1.0000 </r>
       <r>  -51.0398    1.0000 </r>
       <r>  -51.0394    1.0000 </r>
       <r>  -51.0394    1.0000 </r>
       <r>  -51.0394    1.0000 </r>
       <r>  -51.0393    1.0000 </r>
       <r>  -51.0388    1.0000 </r>
       <r>  -51.0379    1.0000 </r>
       <r>  -49.7056    1.0000 </r>
       <r>  -49.7032    1.0000 </r>
       <r>  -49.7028    1.0000 </r>
       <r>  -49.7021    1.0000 </r>
       <r>  -49.7011    1.0000 </r>
       <r>  -49.7003    1.0000 </r>
       <r>  -49.6999    1.0000 </r>
       <r>  -49.6976    1.0000 </r>
       <r>  -49.6951    1.0000 </r>
       <r>  -49.6945    1.0000 </r>
       <r>  -49.6940    1.0000 </r>
       <r>  -49.6940    1.0000 </r>
       <r>  -49.6940    1.0000 </r>
       <r>  -49.6939    1.0000 </r>
       <r>  -49.6939    1.0000 </r>
       <r>  -49.6925    1.0000 </r>
       <r>  -49.6007    1.0000 </r>
       <r>  -49.5987    1.0000 </r>
       <r>  -49.5981    1.0000 </r>
       <r>  -49.5977    1.0000 </r>
       <r>  -49.5974    1.0000 </r>
       <r>  -49.5972    1.0000 </r>
       <r>  -49.5969    1.0000 </r>
       <r>  -49.5967    1.0000 </r>
       <r>  -49.5966    1.0000 </r>
       <r>  -49.5964    1.0000 </r>
       <r>  -49.5960    1.0000 </r>
       <r>  -49.5957    1.0000 </r>
       <r>  -49.5955    1.0000 </r>
       <r>  -49.5954    1.0000 </r>
       <r>  -49.5952    1.0000 </r>
       <r>  -49.5930    1.0000 </r>
       <r>  -49.5696    1.0000 </r>
       <r>  -49.5673    1.0000 </r>
       <r>  -49.5668    1.0000 </r>
       <r>  -49.5662    1.0000 </r>
       <r>  -49.5660    1.0000 </r>
       <r>  -49.5659    1.0000 </r>
       <r>  -49.5655    1.0000 </r>
       <r>  -49.5651    1.0000 </r>
       <r>  -49.5649    1.0000 </r>
       <r>  -49.5645    1.0000 </r>
       <r>  -49.5644    1.0000 </r>
       <r>  -49.5639    1.0000 </r>
       <r>  -49.5639    1.0000 </r>
       <r>  -49.5636    1.0000 </r>
       <r>  -49.5634    1.0000 </r>
       <r>  -49.5610    1.0000 </r>
       <r>  -49.5578    1.0000 </r>
       <r>  -49.5560    1.0000 </r>
       <r>  -49.5558    1.0000 </r>
       <r>  -49.5547    1.0000 </r>
       <r>  -49.5536    1.0000 </r>
       <r>  -49.5524    1.0000 </r>
       <r>  -49.5523    1.0000 </r>
       <r>  -49.5504    1.0000 </r>
       <r>  -49.5409    1.0000 </r>
       <r>  -49.5399    1.0000 </r>
       <r>  -49.5395    1.0000 </r>
       <r>  -49.5394    1.0000 </r>
       <r>  -49.5394    1.0000 </r>
       <r>  -49.5394    1.0000 </r>
       <r>  -49.5393    1.0000 </r>
       <r>  -49.5376    1.0000 </r>
       <r>  -39.8731    1.0000 </r>
       <r>  -39.8670    1.0000 </r>
       <r>  -39.8670    1.0000 </r>
       <r>  -39.8658    1.0000 </r>
       <r>  -39.8657    1.0000 </r>
       <r>  -39.8649    1.0000 </r>
       <r>  -39.8648    1.0000 </r>
       <r>  -39.8648    1.0000 </r>
       <r>  -39.8647    1.0000 </r>
       <r>  -39.8645    1.0000 </r>
       <r>  -39.8645    1.0000 </r>
       <r>  -39.8641    1.0000 </r>
       <r>  -39.8640    1.0000 </r>
       <r>  -39.8629    1.0000 </r>
       <r>  -39.8622    1.0000 </r>
       <r>  -39.8570    1.0000 </r>
       <r>  -13.2256    1.0000 </r>
       <r>  -13.2248    1.0000 </r>
       <r>  -13.2108    1.0000 </r>
       <r>  -13.1840    1.0000 </r>
       <r>  -13.1054    1.0000 </r>
       <r>  -13.0998    1.0000 </r>
       <r>  -13.0972    1.0000 </r>
       <r>  -13.0925    1.0000 </r>
       <r>  -13.0866    1.0000 </r>
       <r>  -13.0818    1.0000 </r>
       <r>  -13.0791    1.0000 </r>
       <r>  -13.0735    1.0000 </r>
       <r>  -12.9877    1.0000 </r>
       <r>  -12.9770    1.0000 </r>
       <r>  -12.9419    1.0000 </r>
       <r>  -12.9412    1.0000 </r>
       <r>   -7.6453    1.0000 </r>
       <r>   -7.4069    1.0000 </r>
       <r>   -7.3277    1.0000 </r>
       <r>   -7.3254    1.0000 </r>
       <r>   -7.3110    1.0000 </r>
       <r>   -7.3089    1.0000 </r>
       <r>   -7.3083    1.0000 </r>
       <r>   -7.3058    1.0000 </r>
       <r>   -7.1694    1.0000 </r>
       <r>   -7.1575    1.0000 </r>
       <r>   -7.1247    1.0000 </r>
       <r>   -7.1229    1.0000 </r>
       <r>   -7.0366    1.0000 </r>
       <r>   -7.0219    1.0000 </r>
       <r>   -7.0024    1.0000 </r>
       <r>   -7.0018    1.0000 </r>
       <r>   -6.9415    1.0000 </r>
       <r>   -6.9403    1.0000 </r>
       <r>   -6.8876    1.0000 </r>
       <r>   -6.8868    1.0000 </r>
       <r>   -6.8651    1.0000 </r>
       <r>   -6.8621    1.0000 </r>
       <r>   -6.8345    1.0000 </r>
       <r>   -6.8038    1.0000 </r>
       <r>   -1.9357    1.0000 </r>
       <r>   -1.9355    1.0000 </r>
       <r>   -1.9106    1.0000 </r>
       <r>   -1.8936    1.0000 </r>
       <r>   -1.6675    1.0000 </r>
       <r>   -1.6656    1.0000 </r>
       <r>   -1.6594    1.0000 </r>
       <r>   -1.6562    1.0000 </r>
       <r>   -1.6008    1.0000 </r>
       <r>   -1.5972    1.0000 </r>
       <r>   -1.5871    1.0000 </r>
       <r>   -1.5852    1.0000 </r>
       <r>   -1.2983    1.0000 </r>
       <r>   -1.1757    1.0000 </r>
       <r>   -1.1735    1.0000 </r>
       <r>   -1.1145    1.0000 </r>
       <r>   -1.1124    1.0000 </r>
       <r>   -1.1072    1.0000 </r>
       <r>   -1.0494    1.0000 </r>
       <r>   -0.9811    1.0000 </r>
       <r>   -0.9648    1.0000 </r>
       <r>   -0.9597    1.0000 </r>
       <r>   -0.9575    1.0000 </r>
       <r>   -0.9575    1.0000 </r>
       <r>   -0.9469    1.0000 </r>
       <r>   -0.9449    1.0000 </r>
       <r>   -0.9228    1.0000 </r>
       <r>   -0.8713    1.0000 </r>
       <r>   -0.8711    1.0000 </r>
       <r>   -0.8035    1.0000 </r>
       <r>   -0.8029    1.0000 </r>
       <r>   -0.8026    1.0000 </r>
       <r>   -0.7747    1.0000 </r>
       <r>   -0.7743    1.0000 </r>
       <r>   -0.7732    1.0000 </r>
       <r>   -0.7612    1.0000 </r>
       <r>   -0.7175    1.0000 </r>
       <r>   -0.7159    1.0000 </r>
       <r>   -0.7062    1.0000 </r>
       <r>   -0.7055    1.0000 </r>
       <r>   -0.6992    1.0000 </r>
       <r>   -0.6988    1.0000 </r>
       <r>   -0.6089    1.0000 </r>
       <r>   -0.6084    1.0000 </r>
       <r>   -0.5615    1.0000 </r>
       <r>   -0.5614    1.0000 </r>
       <r>   -0.5495    1.0000 </r>
       <r>   -0.5480    1.0000 </r>
       <r>   -0.4083    1.0000 </r>
       <r>   -0.4077    1.0000 </r>
       <r>   -0.3578    1.0000 </r>
       <r>   -0.3483    1.0000 </r>
       <r>   -0.3296    1.0000 </r>
       <r>   -0.3291    1.0000 </r>
       <r>   -0.2986    1.0000 </r>
       <r>   -0.2983    1.0000 </r>
       <r>   -0.2814    1.0000 </r>
       <r>   -0.2693    1.0000 </r>
       <r>   -0.2627    1.0000 </r>
       <r>   -0.2557    1.0000 </r>
       <r>   -0.2550    1.0000 </r>
       <r>   -0.2094    1.0000 </r>
       <r>   -0.2085    1.0000 </r>
       <r>   -0.1884    1.0000 </r>
       <r>   -0.1867    1.0000 </r>
       <r>   -0.1865    1.0000 </r>
       <r>   -0.1758    1.0000 </r>
       <r>   -0.1579    1.0000 </r>
       <r>   -0.1260    1.0000 </r>
       <r>   -0.1249    1.0000 </r>
       <r>   -0.1094    1.0000 </r>
       <r>   -0.0709    1.0000 </r>
       <r>   -0.0703    1.0000 </r>
       <r>   -0.0604    1.0000 </r>
       <r>   -0.0433    1.0000 </r>
       <r>   -0.0178    1.0000 </r>
       <r>   -0.0173    1.0000 </r>
       <r>   -0.0116    1.0000 </r>
       <r>    0.0017    1.0000 </r>
       <r>    0.0017    1.0000 </r>
       <r>    0.0461    1.0000 </r>
       <r>    0.0490    1.0000 </r>
       <r>    0.0501    1.0000 </r>
       <r>    0.0912    1.0000 </r>
       <r>    0.0934    1.0000 </r>
       <r>    0.1183    1.0000 </r>
       <r>    0.1186    1.0000 </r>
       <r>    0.1577    1.0000 </r>
       <r>    0.1626    1.0000 </r>
       <r>    0.1768    1.0000 </r>
       <r>    0.1792    1.0000 </r>
       <r>    0.1818    1.0000 </r>
       <r>    0.1823    1.0000 </r>
       <r>    0.1857    1.0000 </r>
       <r>    0.1892    1.0000 </r>
       <r>    0.1933    1.0000 </r>
       <r>    0.1942    1.0000 </r>
       <r>    0.2001    1.0000 </r>
       <r>    0.2015    1.0000 </r>
       <r>    0.2388    1.0000 </r>
       <r>    0.2515    1.0000 </r>
       <r>    0.2570    1.0000 </r>
       <r>    0.2570    1.0000 </r>
       <r>    0.2765    1.0000 </r>
       <r>    0.3374    1.0000 </r>
       <r>    0.3474    1.0000 </r>
       <r>    0.3585    1.0000 </r>
       <r>    0.3592    1.0000 </r>
       <r>    0.3604    1.0000 </r>
       <r>    0.3607    1.0000 </r>
       <r>    0.3881    1.0000 </r>
       <r>    0.4018    1.0000 </r>
       <r>    0.4527    1.0000 </r>
       <r>    0.4527    1.0000 </r>
       <r>    0.5789    1.0000 </r>
       <r>    0.5789    1.0000 </r>
       <r>    0.5843    1.0000 </r>
       <r>    0.6020    1.0000 </r>
       <r>    0.6021    1.0000 </r>
       <r>    0.6065    1.0000 </r>
       <r>    0.6080    1.0000 </r>
       <r>    0.6404    1.0000 </r>
       <r>    0.6511    1.0000 </r>
       <r>    0.6514    1.0000 </r>
       <r>    0.6620    1.0000 </r>
       <r>    0.6625    1.0000 </r>
       <r>    0.6657    1.0000 </r>
       <r>    0.6728    1.0000 </r>
       <r>    0.6748    1.0000 </r>
       <r>    0.6752    1.0000 </r>
       <r>    0.6966    1.0000 </r>
       <r>    0.7229    1.0000 </r>
       <r>    0.7834    1.0000 </r>
       <r>    0.8197    1.0000 </r>
       <r>    0.8294    1.0000 </r>
       <r>    0.8317    1.0000 </r>
       <r>    0.8326    1.0000 </r>
       <r>    0.8612    1.0000 </r>
       <r>    0.8614    1.0000 </r>
       <r>    0.9094    1.0000 </r>
       <r>    0.9405    1.0000 </r>
       <r>    0.9483    1.0000 </r>
       <r>    0.9483    1.0000 </r>
       <r>    0.9831    1.0000 </r>
       <r>    1.0258    1.0000 </r>
       <r>    1.0704    1.0000 </r>
       <r>    1.2694    1.0000 </r>
       <r>    1.2980    1.0000 </r>
       <r>    1.2985    1.0000 </r>
       <r>    1.3116    1.0000 </r>
       <r>    1.3331    1.0000 </r>
       <r>    1.3332    1.0000 </r>
       <r>    1.3381    1.0000 </r>
       <r>    1.3848    1.0000 </r>
       <r>    1.4049    1.0000 </r>
       <r>    1.4283    1.0000 </r>
       <r>    1.4669    1.0000 </r>
       <r>    1.4679    1.0000 </r>
       <r>    1.4681    1.0000 </r>
       <r>    1.4815    1.0000 </r>
       <r>    1.5109    1.0000 </r>
       <r>    1.5112    1.0000 </r>
       <r>    1.5408    1.0000 </r>
       <r>    1.5610    1.0000 </r>
       <r>    1.5769    1.0000 </r>
       <r>    1.6464    1.0000 </r>
       <r>    1.6554    1.0000 </r>
       <r>    1.7560    1.0000 </r>
       <r>    1.7566    1.0000 </r>
       <r>    1.7627    1.0000 </r>
       <r>    1.7788    1.0000 </r>
       <r>    1.8029    1.0000 </r>
       <r>    1.8030    1.0000 </r>
       <r>    1.8108    1.0000 </r>
       <r>    1.8232    1.0000 </r>
       <r>    1.8365    1.0000 </r>
       <r>    1.8366    1.0000 </r>
       <r>    1.8461    1.0000 </r>
       <r>    1.8468    1.0000 </r>
       <r>    1.8784    1.0000 </r>
       <r>    1.8900    1.0000 </r>
       <r>    1.9471    1.0000 </r>
       <r>    1.9929    1.0000 </r>
       <r>    1.9941    1.0000 </r>
       <r>    2.0063    1.0000 </r>
       <r>    2.0065    1.0000 </r>
       <r>    2.0100    1.0000 </r>
       <r>    2.0186    1.0000 </r>
       <r>    2.0202    1.0000 </r>
       <r>    2.0206    1.0000 </r>
       <r>    2.0392    1.0000 </r>
       <r>    2.0466    1.0000 </r>
       <r>    2.0468    1.0000 </r>
       <r>    2.0572    1.0000 </r>
       <r>    2.0687    1.0000 </r>
       <r>    2.0690    1.0000 </r>
       <r>    2.0916    1.0000 </r>
       <r>    2.1130    1.0000 </r>
       <r>    2.1907    1.0000 </r>
       <r>    2.1909    1.0000 </r>
       <r>    2.2466    1.0000 </r>
       <r>    2.2475    1.0000 </r>
       <r>    2.2711    1.0000 </r>
       <r>    2.2730    1.0000 </r>
       <r>    2.2847    1.0000 </r>
       <r>    2.4278    1.0000 </r>
       <r>    2.4659    1.0000 </r>
       <r>    2.4663    1.0000 </r>
       <r>    2.4776    1.0000 </r>
       <r>    2.5036    1.0000 </r>
       <r>    2.5276    1.0000 </r>
       <r>    2.5540    1.0000 </r>
       <r>    2.5921    1.0000 </r>
       <r>    2.6265    1.0000 </r>
       <r>    2.6270    1.0000 </r>
       <r>    2.6562    1.0000 </r>
       <r>    2.7384    1.0000 </r>
       <r>    2.7394    1.0000 </r>
       <r>    2.7603    1.0000 </r>
       <r>    2.7613    1.0000 </r>
       <r>    2.8339    1.0000 </r>
       <r>    2.8726    1.0000 </r>
       <r>    2.9258    1.0000 </r>
       <r>    2.9342    1.0000 </r>
       <r>    2.9346    1.0000 </r>
       <r>    2.9689    1.0000 </r>
       <r>    3.0274    1.0000 </r>
       <r>    3.0276    1.0000 </r>
       <r>    3.0616    1.0000 </r>
       <r>    3.0980    1.0000 </r>
       <r>    3.3079    1.0000 </r>
       <r>    3.3101    1.0000 </r>
       <r>    3.3481    1.0000 </r>
       <r>    3.3757    1.0000 </r>
       <r>    3.4218    1.0000 </r>
       <r>    3.4220    1.0000 </r>
       <r>    3.4405    1.0000 </r>
       <r>    3.4582    1.0000 </r>
       <r>    3.4588    1.0000 </r>
       <r>    3.5316    1.0000 </r>
       <r>    3.7480    1.0000 </r>
       <r>    3.8083    1.0000 </r>
       <r>    3.8089    1.0000 </r>
       <r>    3.8152    1.0000 </r>
       <r>    3.8153    1.0000 </r>
       <r>    3.8824    1.0000 </r>
       <r>    3.8827    1.0000 </r>
       <r>    3.9325    1.0000 </r>
       <r>    3.9351    1.0000 </r>
       <r>    3.9401    1.0000 </r>
       <r>    3.9409    1.0000 </r>
       <r>    4.0392    1.0000 </r>
       <r>    4.0395    1.0000 </r>
       <r>    4.0703    1.0000 </r>
       <r>    4.1386    1.0000 </r>
       <r>    4.1491    1.0000 </r>
       <r>    4.1512    1.0000 </r>
       <r>    4.3149    1.0000 </r>
       <r>    4.3183    1.0000 </r>
       <r>    4.3380    1.0000 </r>
       <r>    4.3582    1.0000 </r>
       <r>    4.3588    1.0000 </r>
       <r>    4.4288    1.0000 </r>
       <r>    4.4444    1.0000 </r>
       <r>    4.4461    1.0000 </r>
       <r>    4.4536    1.0000 </r>
       <r>    4.4561    1.0000 </r>
       <r>    4.4569    1.0000 </r>
       <r>    4.6362    1.0000 </r>
       <r>    4.6364    1.0000 </r>
       <r>    4.7323    1.0000 </r>
       <r>    4.7325    1.0000 </r>
       <r>    4.7636    1.0000 </r>
       <r>    4.7644    1.0000 </r>
       <r>    4.7692    1.0000 </r>
       <r>    4.7696    1.0000 </r>
       <r>    4.8106    1.0000 </r>
       <r>    4.8534    1.0000 </r>
       <r>    4.8534    1.0000 </r>
       <r>    4.8572    1.0000 </r>
       <r>    7.3436    0.0000 </r>
       <r>    8.1284    0.0000 </r>
       <r>    8.4449    0.0000 </r>
       <r>    8.6425    0.0000 </r>
       <r>    8.6428    0.0000 </r>
       <r>    8.8581    0.0000 </r>
       <r>    9.0843    0.0000 </r>
       <r>    9.0849    0.0000 </r>
       <r>    9.2614    0.0000 </r>
       <r>    9.2732    0.0000 </r>
       <r>    9.2891    0.0000 </r>
       <r>    9.2892    0.0000 </r>
       <r>    9.7265    0.0000 </r>
       <r>    9.7718    0.0000 </r>
       <r>    9.7720    0.0000 </r>
       <r>    9.7903    0.0000 </r>
       <r>    9.8546    0.0000 </r>
       <r>    9.8548    0.0000 </r>
       <r>    9.8590    0.0000 </r>
       <r>    9.8789    0.0000 </r>
       <r>    9.8892    0.0000 </r>
       <r>   10.0601    0.0000 </r>
       <r>   10.0830    0.0000 </r>
       <r>   10.1359    0.0000 </r>
       <r>   10.1366    0.0000 </r>
       <r>   10.3057    0.0000 </r>
       <r>   10.3063    0.0000 </r>
       <r>   10.4166    0.0000 </r>
       <r>   10.5265    0.0000 </r>
       <r>   10.5708    0.0000 </r>
       <r>   10.5714    0.0000 </r>
       <r>   10.5724    0.0000 </r>
       <r>   10.5784    0.0000 </r>
       <r>   10.5785    0.0000 </r>
       <r>   10.6757    0.0000 </r>
       <r>   10.9760    0.0000 </r>
       <r>   11.0189    0.0000 </r>
       <r>   11.0194    0.0000 </r>
       <r>   11.0405    0.0000 </r>
       <r>   11.0408    0.0000 </r>
       <r>   11.0774    0.0000 </r>
       <r>   11.1283    0.0000 </r>
       <r>   11.1782    0.0000 </r>
       <r>   11.1887    0.0000 </r>
       <r>   11.2284    0.0000 </r>
       <r>   11.2491    0.0000 </r>
       <r>   11.2498    0.0000 </r>
       <r>   11.2905    0.0000 </r>
       <r>   11.3067    0.0000 </r>
       <r>   11.4174    0.0000 </r>
       <r>   11.4177    0.0000 </r>
       <r>   11.4588    0.0000 </r>
       <r>   11.5210    0.0000 </r>
       <r>   11.5213    0.0000 </r>
       <r>   11.5304    0.0000 </r>
       <r>   11.5775    0.0000 </r>
       <r>   11.6799    0.0000 </r>
       <r>   11.6802    0.0000 </r>
       <r>   11.7972    0.0000 </r>
       <r>   11.7975    0.0000 </r>
       <r>   11.8156    0.0000 </r>
       <r>   11.8157    0.0000 </r>
       <r>   11.8823    0.0000 </r>
       <r>   11.9413    0.0000 </r>
       <r>   11.9758    0.0000 </r>
       <r>   11.9767    0.0000 </r>
       <r>   11.9819    0.0000 </r>
       <r>   12.0281    0.0000 </r>
       <r>   12.0282    0.0000 </r>
       <r>   12.0580    0.0000 </r>
       <r>   12.1615    0.0000 </r>
       <r>   12.2426    0.0000 </r>
       <r>   12.2569    0.0000 </r>
       <r>   12.2577    0.0000 </r>
       <r>   12.3153    0.0000 </r>
       <r>   12.3161    0.0000 </r>
       <r>   12.3218    0.0000 </r>
       <r>   12.3479    0.0000 </r>
       <r>   12.4614    0.0000 </r>
       <r>   12.4800    0.0000 </r>
       <r>   12.5164    0.0000 </r>
       <r>   12.5173    0.0000 </r>
       <r>   12.6140    0.0000 </r>
       <r>   12.6146    0.0000 </r>
       <r>   12.6602    0.0000 </r>
       <r>   12.6624    0.0000 </r>
       <r>   12.6639    0.0000 </r>
       <r>   12.6899    0.0000 </r>
       <r>   12.7473    0.0000 </r>
       <r>   12.8315    0.0000 </r>
       <r>   12.8725    0.0000 </r>
       <r>   12.8727    0.0000 </r>
       <r>   12.8729    0.0000 </r>
       <r>   13.1201    0.0000 </r>
       <r>   13.1204    0.0000 </r>
       <r>   13.2008    0.0000 </r>
       <r>   13.3785    0.0000 </r>
       <r>   13.4095    0.0000 </r>
       <r>   13.4110    0.0000 </r>
       <r>   13.4331    0.0000 </r>
       <r>   13.4382    0.0000 </r>
       <r>   13.4559    0.0000 </r>
       <r>   13.4842    0.0000 </r>
       <r>   13.5118    0.0000 </r>
       <r>   13.5452    0.0000 </r>
       <r>   13.5467    0.0000 </r>
      </set>
      <set comment="kpoint 2">
       <r>  -51.0581    1.0000 </r>
       <r>  -51.0554    1.0000 </r>
       <r>  -51.0552    1.0000 </r>
       <r>  -51.0547    1.0000 </r>
       <r>  -51.0542    1.0000 </r>
       <r>  -51.0540    1.0000 </r>
       <r>  -51.0538    1.0000 </r>
       <r>  -51.0535    1.0000 </r>
       <r>  -51.0528    1.0000 </r>
       <r>  -51.0525    1.0000 </r>
       <r>  -51.0520    1.0000 </r>
       <r>  -51.0519    1.0000 </r>
       <r>  -51.0515    1.0000 </r>
       <r>  -51.0513    1.0000 </r>
       <r>  -51.0506    1.0000 </r>
       <r>  -51.0487    1.0000 </r>
       <r>  -51.0477    1.0000 </r>
       <r>  -51.0453    1.0000 </r>
       <r>  -51.0452    1.0000 </r>
       <r>  -51.0445    1.0000 </r>
       <r>  -51.0435    1.0000 </r>
       <r>  -51.0428    1.0000 </r>
       <r>  -51.0427    1.0000 </r>
       <r>  -51.0403    1.0000 </r>
       <r>  -51.0403    1.0000 </r>
       <r>  -51.0398    1.0000 </r>
       <r>  -51.0394    1.0000 </r>
       <r>  -51.0394    1.0000 </r>
       <r>  -51.0394    1.0000 </r>
       <r>  -51.0393    1.0000 </r>
       <r>  -51.0388    1.0000 </r>
       <r>  -51.0379    1.0000 </r>
       <r>  -49.7056    1.0000 </r>
       <r>  -49.7032    1.0000 </r>
       <r>  -49.7028    1.0000 </r>
       <r>  -49.7021    1.0000 </r>
       <r>  -49.7011    1.0000 </r>
       <r>  -49.7003    1.0000 </r>
       <r>  -49.6999    1.0000 </r>
       <r>  -49.6976    1.0000 </r>
       <r>  -49.6951    1.0000 </r>
       <r>  -49.6945    1.0000 </r>
       <r>  -49.6940    1.0000 </r>
       <r>  -49.6940    1.0000 </r>
       <r>  -49.6940    1.0000 </r>
       <r>  -49.6939    1.0000 </r>
       <r>  -49.6939    1.0000 </r>
       <r>  -49.6925    1.0000 </r>
       <r>  -49.6007    1.0000 </r>
       <r>  -49.5987    1.0000 </r>
       <r>  -49.5980    1.0000 </r>
       <r>  -49.5978    1.0000 </r>
       <r>  -49.5974    1.0000 </r>
       <r>  -49.5973    1.0000 </r>
       <r>  -49.5968    1.0000 </r>
       <r>  -49.5966    1.0000 </r>
       <r>  -49.5966    1.0000 </r>
       <r>  -49.5964    1.0000 </r>
       <r>  -49.5961    1.0000 </r>
       <r>  -49.5957    1.0000 </r>
       <r>  -49.5955    1.0000 </r>
       <r>  -49.5954    1.0000 </r>
       <r>  -49.5952    1.0000 </r>
       <r>  -49.5930    1.0000 </r>
       <r>  -49.5696    1.0000 </r>
       <r>  -49.5673    1.0000 </r>
       <r>  -49.5668    1.0000 </r>
       <r>  -49.5664    1.0000 </r>
       <r>  -49.5660    1.0000 </r>
       <r>  -49.5658    1.0000 </r>
       <r>  -49.5654    1.0000 </r>
       <r>  -49.5652    1.0000 </r>
       <r>  -49.5650    1.0000 </r>
       <r>  -49.5646    1.0000 </r>
       <r>  -49.5644    1.0000 </r>
       <r>  -49.5639    1.0000 </r>
       <r>  -49.5639    1.0000 </r>
       <r>  -49.5636    1.0000 </r>
       <r>  -49.5634    1.0000 </r>
       <r>  -49.5610    1.0000 </r>
       <r>  -49.5578    1.0000 </r>
       <r>  -49.5560    1.0000 </r>
       <r>  -49.5558    1.0000 </r>
       <r>  -49.5547    1.0000 </r>
       <r>  -49.5536    1.0000 </r>
       <r>  -49.5524    1.0000 </r>
       <r>  -49.5523    1.0000 </r>
       <r>  -49.5504    1.0000 </r>
       <r>  -49.5409    1.0000 </r>
       <r>  -49.5399    1.0000 </r>
       <r>  -49.5395    1.0000 </r>
       <r>  -49.5394    1.0000 </r>
       <r>  -49.5394    1.0000 </r>
       <r>  -49.5394    1.0000 </r>
       <r>  -49.5393    1.0000 </r>
       <r>  -49.5376    1.0000 </r>
       <r>  -39.8731    1.0000 </r>
       <r>  -39.8670    1.0000 </r>
       <r>  -39.8670    1.0000 </r>
       <r>  -39.8658    1.0000 </r>
       <r>  -39.8657    1.0000 </r>
       <r>  -39.8650    1.0000 </r>
       <r>  -39.8648    1.0000 </r>
       <r>  -39.8647    1.0000 </r>
       <r>  -39.8647    1.0000 </r>
       <r>  -39.8645    1.0000 </r>
       <r>  -39.8645    1.0000 </r>
       <r>  -39.8641    1.0000 </r>
       <r>  -39.8640    1.0000 </r>
       <r>  -39.8629    1.0000 </r>
       <r>  -39.8622    1.0000 </r>
       <r>  -39.8570    1.0000 </r>
       <r>  -13.2085    1.0000 </r>
       <r>  -13.2074    1.0000 </r>
       <r>  -13.1956    1.0000 </r>
       <r>  -13.1712    1.0000 </r>
       <r>  -13.1591    1.0000 </r>
[...]
       <r>   -49.2844     0.0000     0.0000 </r>
       <r>   -49.0436     0.0000     0.0000 </r>
       <r>   -48.8027     0.0000     0.0000 </r>
       <r>   -48.5618     0.0000     0.0000 </r>
       <r>   -48.3210     0.0000     0.0000 </r>
       <r>   -48.0801     0.0000     0.0000 </r>
       <r>   -47.8392     0.0000     0.0000 </r>
       <r>   -47.5983     0.0000     0.0000 </r>
       <r>   -47.3575     0.0000     0.0000 </r>
       <r>   -47.1166     0.0000     0.0000 </r>
       <r>   -46.8757     0.0000     0.0000 </r>
       <r>   -46.6349     0.0000     0.0000 </r>
       <r>   -46.3940     0.3576     0.0861 </r>
       <r>   -46.1531   132.4496    31.9890 </r>
       <r>   -45.9123    59.6892    46.3662 </r>
       <r>   -45.6714   206.0620    96.0000 </r>
       <r>   -45.4305     0.0000    96.0000 </r>
       <r>   -45.1897     0.0000    96.0000 </r>
       <r>   -44.9488     0.0000    96.0000 </r>
       <r>   -44.7079     0.0000    96.0000 </r>
       <r>   -44.4671     0.0000    96.0000 </r>
       <r>   -44.2262     0.0000    96.0000 </r>
       <r>   -43.9853     0.0000    96.0000 </r>
       <r>   -43.7445     0.0000    96.0000 </r>
       <r>   -43.5036     0.0000    96.0000 </r>
       <r>   -43.2627     0.0000    96.0000 </r>
       <r>   -43.0219     0.0000    96.0000 </r>
       <r>   -42.7810     0.0000    96.0000 </r>
       <r>   -42.5401     0.0000    96.0000 </r>
       <r>   -42.2993     0.0000    96.0000 </r>
       <r>   -42.0584     0.0000    96.0000 </r>
       <r>   -41.8175     0.0000    96.0000 </r>
       <r>   -41.5766     0.0000    96.0000 </r>
       <r>   -41.3358     0.0000    96.0000 </r>
       <r>   -41.0949     0.0000    96.0000 </r>
       <r>   -40.8540     0.0000    96.0000 </r>
       <r>   -40.6132     0.0000    96.0000 </r>
       <r>   -40.3723     0.0000    96.0000 </r>
       <r>   -40.1314     0.0000    96.0000 </r>
       <r>   -39.8906    14.3740    99.4622 </r>
       <r>   -39.6497    52.0525   112.0000 </r>
       <r>   -39.4088     0.0000   112.0000 </r>
       <r>   -39.1680     0.0000   112.0000 </r>
       <r>   -38.9271     0.0000   112.0000 </r>
       <r>   -38.6862     0.0000   112.0000 </r>
       <r>   -38.4454     0.0000   112.0000 </r>
       <r>   -38.2045     0.0000   112.0000 </r>
       <r>   -37.9636     0.0000   112.0000 </r>
       <r>   -37.7228     0.0000   112.0000 </r>
       <r>   -37.4819     0.0000   112.0000 </r>
       <r>   -37.2410     0.0000   112.0000 </r>
       <r>   -37.0002     0.0000   112.0000 </r>
       <r>   -36.7593     0.0000   112.0000 </r>
       <r>   -36.5184     0.0000   112.0000 </r>
       <r>   -36.2775     0.0000   112.0000 </r>
       <r>   -36.0367     0.0000   112.0000 </r>
       <r>   -35.7958     0.0000   112.0000 </r>
       <r>   -35.5549     0.0000   112.0000 </r>
       <r>   -35.3141     0.0000   112.0000 </r>
       <r>   -35.0732     0.0000   112.0000 </r>
       <r>   -34.8323     0.0000   112.0000 </r>
       <r>   -34.5915     0.0000   112.0000 </r>
       <r>   -34.3506     0.0000   112.0000 </r>
       <r>   -34.1097     0.0000   112.0000 </r>
       <r>   -33.8689     0.0000   112.0000 </r>
       <r>   -33.6280     0.0000   112.0000 </r>
       <r>   -33.3871     0.0000   112.0000 </r>
       <r>   -33.1463     0.0000   112.0000 </r>
       <r>   -32.9054     0.0000   112.0000 </r>
       <r>   -32.6645     0.0000   112.0000 </r>
       <r>   -32.4237     0.0000   112.0000 </r>
       <r>   -32.1828     0.0000   112.0000 </r>
       <r>   -31.9419     0.0000   112.0000 </r>
       <r>   -31.7011     0.0000   112.0000 </r>
       <r>   -31.4602     0.0000   112.0000 </r>
       <r>   -31.2193     0.0000   112.0000 </r>
       <r>   -30.9785     0.0000   112.0000 </r>
       <r>   -30.7376     0.0000   112.0000 </r>
       <r>   -30.4967     0.0000   112.0000 </r>
       <r>   -30.2558     0.0000   112.0000 </r>
       <r>   -30.0150     0.0000   112.0000 </r>
       <r>   -29.7741     0.0000   112.0000 </r>
       <r>   -29.5332     0.0000   112.0000 </r>
       <r>   -29.2924     0.0000   112.0000 </r>
       <r>   -29.0515     0.0000   112.0000 </r>
       <r>   -28.8106     0.0000   112.0000 </r>
       <r>   -28.5698     0.0000   112.0000 </r>
       <r>   -28.3289     0.0000   112.0000 </r>
       <r>   -28.0880     0.0000   112.0000 </r>
       <r>   -27.8472     0.0000   112.0000 </r>
       <r>   -27.6063     0.0000   112.0000 </r>
       <r>   -27.3654     0.0000   112.0000 </r>
       <r>   -27.1246     0.0000   112.0000 </r>
       <r>   -26.8837     0.0000   112.0000 </r>
       <r>   -26.6428     0.0000   112.0000 </r>
       <r>   -26.4020     0.0000   112.0000 </r>
       <r>   -26.1611     0.0000   112.0000 </r>
       <r>   -25.9202     0.0000   112.0000 </r>
       <r>   -25.6794     0.0000   112.0000 </r>
       <r>   -25.4385     0.0000   112.0000 </r>
       <r>   -25.1976     0.0000   112.0000 </r>
       <r>   -24.9568     0.0000   112.0000 </r>
       <r>   -24.7159     0.0000   112.0000 </r>
       <r>   -24.4750     0.0000   112.0000 </r>
       <r>   -24.2341     0.0000   112.0000 </r>
       <r>   -23.9933     0.0000   112.0000 </r>
       <r>   -23.7524     0.0000   112.0000 </r>
       <r>   -23.5115     0.0000   112.0000 </r>
       <r>   -23.2707     0.0000   112.0000 </r>
       <r>   -23.0298     0.0000   112.0000 </r>
       <r>   -22.7889     0.0000   112.0000 </r>
       <r>   -22.5481     0.0000   112.0000 </r>
       <r>   -22.3072     0.0000   112.0000 </r>
       <r>   -22.0663     0.0000   112.0000 </r>
       <r>   -21.8255     0.0000   112.0000 </r>
       <r>   -21.5846     0.0000   112.0000 </r>
       <r>   -21.3437     0.0000   112.0000 </r>
       <r>   -21.1029     0.0000   112.0000 </r>
       <r>   -20.8620     0.0000   112.0000 </r>
       <r>   -20.6211     0.0000   112.0000 </r>
       <r>   -20.3803     0.0000   112.0000 </r>
       <r>   -20.1394     0.0000   112.0000 </r>
       <r>   -19.8985     0.0000   112.0000 </r>
       <r>   -19.6577     0.0000   112.0000 </r>
       <r>   -19.4168     0.0000   112.0000 </r>
       <r>   -19.1759     0.0000   112.0000 </r>
       <r>   -18.9351     0.0000   112.0000 </r>
       <r>   -18.6942     0.0000   112.0000 </r>
       <r>   -18.4533     0.0000   112.0000 </r>
       <r>   -18.2124     0.0000   112.0000 </r>
       <r>   -17.9716     0.0000   112.0000 </r>
       <r>   -17.7307     0.0000   112.0000 </r>
       <r>   -17.4898     0.0000   112.0000 </r>
       <r>   -17.2490     0.0000   112.0000 </r>
       <r>   -17.0081     0.0000   112.0000 </r>
       <r>   -16.7672     0.0000   112.0000 </r>
       <r>   -16.5264     0.0000   112.0000 </r>
       <r>   -16.2855     0.0000   112.0000 </r>
       <r>   -16.0446     0.0000   112.0000 </r>
       <r>   -15.8038     0.0000   112.0000 </r>
       <r>   -15.5629     0.0000   112.0000 </r>
       <r>   -15.3220     0.0000   112.0000 </r>
       <r>   -15.0812     0.0000   112.0000 </r>
       <r>   -14.8403     0.0000   112.0000 </r>
       <r>   -14.5994     0.0000   112.0000 </r>
       <r>   -14.3586     0.0000   112.0000 </r>
       <r>   -14.1177     0.0000   112.0000 </r>
       <r>   -13.8768     0.0000   112.0000 </r>
       <r>   -13.6360     0.0000   112.0000 </r>
       <r>   -13.3951     0.0000   112.0000 </r>
       <r>   -13.1542     0.0000   112.0000 </r>
       <r>   -12.9134     0.0146   112.0035 </r>
       <r>   -12.6725    43.9615   122.5924 </r>
       <r>   -12.4316    22.4503   128.0000 </r>
       <r>   -12.1907     0.0000   128.0000 </r>
       <r>   -11.9499     0.0000   128.0000 </r>
       <r>   -11.7090     0.0000   128.0000 </r>
       <r>   -11.4681     0.0000   128.0000 </r>
       <r>   -11.2273     0.0000   128.0000 </r>
       <r>   -10.9864     0.0000   128.0000 </r>
       <r>   -10.7455     0.0000   128.0000 </r>
       <r>   -10.5047     0.0000   128.0000 </r>
       <r>   -10.2638     0.0000   128.0000 </r>
       <r>   -10.0229     0.0000   128.0000 </r>
       <r>    -9.7821     0.0000   128.0000 </r>
       <r>    -9.5412     0.0000   128.0000 </r>
       <r>    -9.3003     0.0000   128.0000 </r>
       <r>    -9.0595     0.0000   128.0000 </r>
       <r>    -8.8186     0.0000   128.0000 </r>
       <r>    -8.5777     0.0000   128.0000 </r>
       <r>    -8.3369     0.0000   128.0000 </r>
       <r>    -8.0960     0.0000   128.0000 </r>
       <r>    -7.8551     0.0000   128.0000 </r>
       <r>    -7.6143     0.0000   128.0000 </r>
       <r>    -7.3734     0.6300   128.1517 </r>
       <r>    -7.1325    14.5101   131.6468 </r>
       <r>    -6.8917    29.3514   138.7166 </r>
       <r>    -6.6508    26.9178   145.2002 </r>
       <r>    -6.4099    28.1954   151.9916 </r>
       <r>    -6.1690     0.0348   152.0000 </r>
       <r>    -5.9282     0.0000   152.0000 </r>
       <r>    -5.6873     0.0000   152.0000 </r>
       <r>    -5.4464     0.0000   152.0000 </r>
       <r>    -5.2056     0.0000   152.0000 </r>
       <r>    -4.9647     0.0000   152.0000 </r>
       <r>    -4.7238     0.0000   152.0000 </r>
       <r>    -4.4830     0.0000   152.0000 </r>
       <r>    -4.2421     0.0000   152.0000 </r>
       <r>    -4.0012     0.0000   152.0000 </r>
       <r>    -3.7604     0.0000   152.0000 </r>
       <r>    -3.5195     0.0000   152.0000 </r>
       <r>    -3.2786     0.0000   152.0000 </r>
       <r>    -3.0378     0.0000   152.0000 </r>
       <r>    -2.7969     0.0000   152.0000 </r>
       <r>    -2.5560     0.0000   152.0000 </r>
       <r>    -2.3152     0.0000   152.0000 </r>
       <r>    -2.0743     0.0000   152.0000 </r>
       <r>    -1.8334     0.0000   152.0000 </r>
       <r>    -1.5926     0.0000   152.0000 </r>
       <r>    -1.3517     0.0000   152.0000 </r>
       <r>    -1.1108     0.0000   152.0000 </r>
       <r>    -0.8700     0.0000   152.0000 </r>
       <r>    -0.6291     0.0000   152.0000 </r>
       <r>    -0.3882     4.7665   153.1481 </r>
       <r>    -0.1473    20.2751   158.0317 </r>
       <r>     0.0935    12.2847   160.9907 </r>
       <r>     0.3344    18.8988   165.5428 </r>
       <r>     0.5753    29.7190   172.7012 </r>
       <r>     0.8161    39.5037   182.2164 </r>
       <r>     1.0570    37.2691   191.1933 </r>
       <r>     1.2979    30.6494   198.5758 </r>
       <r>     1.5387    20.8897   203.6074 </r>
       <r>     1.7796    28.7298   210.5275 </r>
       <r>     2.0205    37.5205   219.5650 </r>
       <r>     2.2613    26.8036   226.0211 </r>
       <r>     2.5022    27.1320   232.5564 </r>
       <r>     2.7431    31.6186   240.1723 </r>
       <r>     2.9839    44.7346   250.9474 </r>
       <r>     3.2248    45.3978   261.8823 </r>
       <r>     3.4657    30.9882   269.3463 </r>
       <r>     3.7065    12.0166   272.2408 </r>
       <r>     3.9474    18.7132   276.7482 </r>
       <r>     4.1883    51.8842   289.2454 </r>
       <r>     4.4291    45.5984   300.2286 </r>
       <r>     4.6700    15.6553   303.9995 </r>
       <r>     4.9109     0.0022   304.0000 </r>
       <r>     5.1517     0.0000   304.0000 </r>
       <r>     5.3926     0.0000   304.0000 </r>
       <r>     5.6335     0.0000   304.0000 </r>
       <r>     5.8744     0.0000   304.0000 </r>
       <r>     6.1152     0.0000   304.0000 </r>
       <r>     6.3561     0.4571   304.1101 </r>
       <r>     6.5970     4.2202   305.1266 </r>
       <r>     6.8378     8.0899   307.0752 </r>
       <r>     7.0787    20.1882   311.9379 </r>
       <r>     7.3196    44.7785   322.7236 </r>
       <r>     7.5604    54.1118   335.7574 </r>
       <r>     7.8013    62.8607   350.8985 </r>
       <r>     8.0422    66.3860   366.8888 </r>
       <r>     8.2830    70.5854   383.8906 </r>
       <r>     8.5239    58.4042   397.9583 </r>
       <r>     8.7648    58.8793   412.1404 </r>
       <r>     9.0056    46.6998   423.3889 </r>
       <r>     9.2465    28.9675   430.3662 </r>
       <r>     9.4874     8.5109   432.4162 </r>
       <r>     9.7282     3.2378   433.1961 </r>
       <r>     9.9691     8.5118   435.2463 </r>
       <r>    10.2100    18.9015   439.7991 </r>
       <r>    10.4508    17.9695   444.1274 </r>
       <r>    10.6917    17.4131   448.3216 </r>
       <r>    10.9326    27.4843   454.9417 </r>
       <r>    11.1734    18.9490   459.5059 </r>
       <r>    11.4143    24.1153   465.3145 </r>
       <r>    11.6552    14.3215   468.7641 </r>
       <r>    11.8961    13.9406   472.1220 </r>
       <r>    12.1369    16.4464   476.0834 </r>
       <r>    12.3778    37.4251   485.0979 </r>
       <r>    12.6187    32.4023   492.9026 </r>
       <r>    12.8595    29.1589   499.9260 </r>
       <r>    13.1004    20.1750   504.7855 </r>
       <r>    13.3413    22.6346   510.2375 </r>
       <r>    13.5821    27.3006   516.8133 </r>
       <r>    13.8230    23.7268   522.5284 </r>
       <r>    14.0639    26.0894   528.8125 </r>
       <r>    14.3047    19.0238   533.3947 </r>
       <r>    14.5456    16.3245   537.3267 </r>
       <r>    14.7865     2.7952   538.0000 </r>
       <r>    15.0273     0.0000   538.0000 </r>
       <r>    15.2682     0.0000   538.0000 </r>
       <r>    15.5091     0.0000   538.0000 </r>
       <r>    15.7499     0.0000   538.0000 </r>
       <r>    15.9908     0.0000   538.0000 </r>
       <r>    16.2317     0.0000   538.0000 </r>
       <r>    16.4725     0.0000   538.0000 </r>
       <r>    16.7134     0.0000   538.0000 </r>
       <r>    16.9543     0.0000   538.0000 </r>
       <r>    17.1951     0.0000   538.0000 </r>
       <r>    17.4360     0.0000   538.0000 </r>
       <r>    17.6769     0.0000   538.0000 </r>
       <r>    17.9178     0.0000   538.0000 </r>
      </set>
     </set>
    </array>
   </total>
  </dos>
 </calculation>
 <structure name="finalpos" >
  <crystal>
   <varray name="basis" >
    <v>      11.11223374       0.00000000      -0.00029034 </v>
    <v>       0.00000000      11.11745194       0.00000000 </v>
    <v>      -2.77510898       0.00000000      10.19872221 </v>
   </varray>
   <i name="volume">   1259.93837498 </i>
   <varray name="rec_basis" >
    <v>       0.08999155       0.00000000       0.02448702 </v>
    <v>       0.00000000       0.08994867       0.00000000 </v>
    <v>       0.00000256       0.00000000       0.09805220 </v>
   </varray>
  </crystal>
  <varray name="positions" >
   <v>       0.28894969       0.46933910       0.15583616 </v>
   <v>       0.78894969       0.46933910       0.15583616 </v>
   <v>       0.28894969       0.96933910       0.15583616 </v>
   <v>       0.78894969       0.96933910       0.15583616 </v>
   <v>       0.04646972       0.21934976       0.18586770 </v>
   <v>       0.54646972       0.21934976       0.18586770 </v>
   <v>       0.04646972       0.71934976       0.18586770 </v>
   <v>       0.54646972       0.71934976       0.18586770 </v>
   <v>       0.45353028       0.46934976       0.81413230 </v>
   <v>       0.95353028       0.46934976       0.81413230 </v>
   <v>       0.45353028       0.96934976       0.81413230 </v>
   <v>       0.95353028       0.96934976       0.81413230 </v>
   <v>       0.21105031       0.21933910       0.84416384 </v>
   <v>       0.71105031       0.21933910       0.84416384 </v>
   <v>       0.21105031       0.71933910       0.84416384 </v>
   <v>       0.71105031       0.71933910       0.84416384 </v>
   <v>       0.07654971       0.09530995       0.80250593 </v>
   <v>       0.57654971       0.09530995       0.80250593 </v>
   <v>       0.07654971       0.59530995       0.80250593 </v>
   <v>       0.57654971       0.59530995       0.80250593 </v>
   <v>       0.32470466       0.34338175       0.80250383 </v>
   <v>       0.82470466       0.34338175       0.80250383 </v>
   <v>       0.32470466       0.84338175       0.80250383 </v>
   <v>       0.82470466       0.84338175       0.80250383 </v>
   <v>       0.17529534       0.09338175       0.19749617 </v>
   <v>       0.67529534       0.09338175       0.19749617 </v>
   <v>       0.17529534       0.59338175       0.19749617 </v>
   <v>       0.67529534       0.59338175       0.19749617 </v>
   <v>       0.42345029       0.34530995       0.19749407 </v>
   <v>       0.92345029       0.34530995       0.19749407 </v>
   <v>       0.42345029       0.84530995       0.19749407 </v>
   <v>       0.92345029       0.84530995       0.19749407 </v>
   <v>       0.21868463       0.34523395       0.37102476 </v>
   <v>       0.71868463       0.34523395       0.37102476 </v>
   <v>       0.21868463       0.84523395       0.37102476 </v>
   <v>       0.71868463       0.84523395       0.37102476 </v>
   <v>       0.46681660       0.09344897       0.37102399 </v>
   <v>       0.96681660       0.09344897       0.37102399 </v>
   <v>       0.46681660       0.59344897       0.37102399 </v>
   <v>       0.96681660       0.59344897       0.37102399 </v>
   <v>       0.03318340       0.34344897       0.62897601 </v>
   <v>       0.53318340       0.34344897       0.62897601 </v>
   <v>       0.03318340       0.84344897       0.62897601 </v>
   <v>       0.53318340       0.84344897       0.62897601 </v>
   <v>       0.28131537       0.09523395       0.62897524 </v>
   <v>       0.78131537       0.09523395       0.62897524 </v>
   <v>       0.28131537       0.59523395       0.62897524 </v>
   <v>       0.78131537       0.59523395       0.62897524 </v>
   <v>       0.12439279       0.34434306       0.00000412 </v>
   <v>       0.62439279       0.34434306       0.00000412 </v>
   <v>       0.12439279       0.84434306       0.00000412 </v>
   <v>       0.62439279       0.84434306       0.00000412 </v>
   <v>       0.37560721       0.09434306       0.99999588 </v>
   <v>       0.87560721       0.09434306       0.99999588 </v>
   <v>       0.37560721       0.59434306       0.99999588 </v>
   <v>       0.87560721       0.59434306       0.99999588 </v>
   <v>       0.03824426       0.10634799       0.60632306 </v>
   <v>       0.53824426       0.10634799       0.60632306 </v>
   <v>       0.03824426       0.60634799       0.60632306 </v>
   <v>       0.53824426       0.60634799       0.60632306 </v>
   <v>       0.26492712       0.33232651       0.60632763 </v>
   <v>       0.76492712       0.33232651       0.60632763 </v>
   <v>       0.26492712       0.83232651       0.60632763 </v>
   <v>       0.76492712       0.83232651       0.60632763 </v>
   <v>       0.23507288       0.08232651       0.39367237 </v>
   <v>       0.73507288       0.08232651       0.39367237 </v>
   <v>       0.23507288       0.58232651       0.39367237 </v>
   <v>       0.73507288       0.58232651       0.39367237 </v>
   <v>       0.46175574       0.35634799       0.39367694 </v>
   <v>       0.96175574       0.35634799       0.39367694 </v>
   <v>       0.46175574       0.85634799       0.39367694 </v>
   <v>       0.96175574       0.85634799       0.39367694 </v>
   <v>       0.03938389       0.46936404       0.15397331 </v>
   <v>       0.53848398       0.46936404       0.15397331 </v>
   <v>       0.03848398       0.96936404       0.15397331 </v>
   <v>       0.53848398       0.96936404       0.15397331 </v>
   <v>       0.28861657       0.21935690       0.15447525 </v>
   <v>       0.78861657       0.21935690       0.15447525 </v>
   <v>       0.28861657       0.71935690       0.15447525 </v>
   <v>       0.78861657       0.71935690       0.15447525 </v>
   <v>       0.21138343       0.46935690       0.84552475 </v>
   <v>       0.71138343       0.46935690       0.84552475 </v>
   <v>       0.21138343       0.96935690       0.84552475 </v>
   <v>       0.71138343       0.96935690       0.84552475 </v>
   <v>       0.46151602       0.21936404       0.84602669 </v>
   <v>       0.96151602       0.21936404       0.84602669 </v>
   <v>       0.46151602       0.71936404       0.84602669 </v>
   <v>       0.96151602       0.71936404       0.84602669 </v>
  </varray>
 </structure>
</modeling>
