   95   95   60    2
  0.1340737E+02  0.1119672E-08  0.1119672E-08  0.1055337E-08  0.5000000E-15
   1.0000000000000000E-004
  CAR 
 unknown system                          
    668      8    488

  0.1262379E-14  0.1262379E-14  0.1262379E-14  0.1250000E+00
    1      -51.719402    -46.973482   1.000000   1.000000
    2      -51.712403    -46.966007   1.000000   1.000000
    3      -51.710329    -46.964978   1.000000   1.000000
    4      -51.690681    -46.954784   1.000000   1.000000
    5      -51.687185    -46.951630   1.000000   1.000000
    6      -51.684735    -46.950556   1.000000   1.000000
    7      -51.681404    -46.949256   1.000000   1.000000
    8      -51.643240    -46.948879   1.000000   1.000000
    9      -51.641582    -46.947452   1.000000   1.000000
   10      -51.633835    -46.947272   1.000000   1.000000
   11      -51.631068    -46.946832   1.000000   1.000000
   12      -51.626150    -46.933603   1.000000   1.000000
   13      -51.625570    -46.929975   1.000000   1.000000
   14      -51.617306    -46.908683   1.000000   1.000000
   15      -51.574059    -46.906742   1.000000   1.000000
   16      -51.571420    -46.875344   1.000000   1.000000
   17      -51.564767    -46.831069   1.000000   1.000000
   18      -51.563912    -46.827865   1.000000   1.000000
   19      -51.554423    -46.815216   1.000000   1.000000
   20      -51.551771    -46.811777   1.000000   1.000000
   21      -51.550418    -46.811041   1.000000   1.000000
   22      -51.547100    -46.807033   1.000000   1.000000
   23      -51.480950    -46.735575   1.000000   1.000000
   24      -51.477790    -46.733308   1.000000   1.000000
   25      -50.272526    -46.517051   1.000000   1.000000
   26      -50.260074    -46.510036   1.000000   1.000000
   27      -50.256673    -46.505944   1.000000   1.000000
   28      -50.244916    -46.496019   1.000000   1.000000
   29      -50.234511    -46.491006   1.000000   1.000000
   30      -50.232571    -46.490359   1.000000   1.000000
   31      -50.196718    -46.488300   1.000000   1.000000
   32      -50.194132    -46.487273   1.000000   1.000000
   33      -50.183950    -46.485964   1.000000   1.000000
   34      -50.183841    -46.485742   1.000000   1.000000
   35      -50.180393    -46.482874   1.000000   1.000000
   36      -50.176871    -46.482191   1.000000   1.000000
   37      -50.174322    -46.481342   1.000000   1.000000
   38      -50.170417    -46.480761   1.000000   1.000000
   39      -50.170106    -46.473790   1.000000   1.000000
   40      -50.169933    -46.473389   1.000000   1.000000
   41      -50.168718    -46.466422   1.000000   1.000000
   42      -50.168225    -46.465011   1.000000   1.000000
   43      -50.167885    -46.464711   1.000000   1.000000
   44      -50.164551    -46.463915   1.000000   1.000000
   45      -50.163319    -46.462887   1.000000   1.000000
   46      -50.138384    -46.461260   1.000000   1.000000
   47      -50.136735    -46.458770   1.000000   1.000000
   48      -50.131889    -46.458309   1.000000   1.000000
   49      -50.130659    -46.456714   1.000000   1.000000
   50      -50.122109    -46.455761   1.000000   1.000000
   51      -50.118592    -46.455208   1.000000   1.000000
   52      -50.118191    -46.428238   1.000000   1.000000
   53      -50.117223    -46.427533   1.000000   1.000000
   54      -50.112326    -46.414122   1.000000   1.000000
   55      -50.109689    -46.412331   1.000000   1.000000
   56      -50.098860    -46.412123   1.000000   1.000000
   57      -50.097268    -46.409767   1.000000   1.000000
   58      -50.094876    -46.398633   1.000000   1.000000
   59      -50.092916    -46.396176   1.000000   1.000000
   60      -50.090454    -46.395116   1.000000   1.000000
   61      -50.086917    -46.393563   1.000000   1.000000
   62      -50.083782    -46.392884   1.000000   1.000000
   63      -50.077596    -46.390750   1.000000   1.000000
   64      -50.071078    -46.390307   1.000000   1.000000
   65      -50.067728    -46.381555   1.000000   1.000000
   66      -50.066549    -46.375317   1.000000   1.000000
   67      -50.066465    -46.370956   1.000000   1.000000
   68      -50.064056    -46.363054   1.000000   1.000000
   69      -50.028126    -46.321572   1.000000   1.000000
   70      -50.023526    -46.317631   1.000000   1.000000
   71      -50.016670    -46.310007   1.000000   1.000000
   72      -50.012582    -46.306143   1.000000   1.000000
   73      -40.611644    -40.605656   1.000000   1.000000
   74      -40.603242    -40.597220   1.000000   1.000000
   75      -40.600566    -40.594708   1.000000   1.000000
   76      -40.569865    -40.563868   1.000000   1.000000
   77      -40.567106    -40.560634   1.000000   1.000000
   78      -40.554750    -40.548228   1.000000   1.000000
   79      -40.552450    -40.546166   1.000000   1.000000
   80      -40.404945    -40.399041   1.000000   1.000000
   81      -40.310999    -40.311316   1.000000   1.000000
   82      -40.307547    -40.307600   1.000000   1.000000
   83      -40.301986    -40.301927   1.000000   1.000000
   84      -40.299535    -40.299388   1.000000   1.000000
   85      -40.293239    -40.293213   1.000000   1.000000
   86      -40.288323    -40.288085   1.000000   1.000000
   87      -40.288142    -40.287901   1.000000   1.000000
   88      -40.279008    -40.279191   1.000000   1.000000
   89      -40.147355    -40.149215   1.000000   1.000000
   90      -40.140003    -40.142128   1.000000   1.000000
   91      -40.106598    -40.106381   1.000000   1.000000
   92      -40.102838    -40.104741   1.000000   1.000000
   93      -40.097940    -40.097740   1.000000   1.000000
   94      -40.090841    -40.092793   1.000000   1.000000
   95      -40.088082    -40.090030   1.000000   1.000000
   96      -40.087027    -40.089248   1.000000   1.000000
   97      -40.086538    -40.087091   1.000000   1.000000
   98      -40.084797    -40.086096   1.000000   1.000000
   99      -40.082423    -40.082079   1.000000   1.000000
  100      -40.044782    -40.043616   1.000000   1.000000
  101      -40.044662    -40.043541   1.000000   1.000000
  102      -39.861847    -39.859709   1.000000   1.000000
  103      -39.832352    -39.829743   1.000000   1.000000
  104      -13.857293    -13.490003   1.000000   1.000000
  105      -13.766357    -13.413745   1.000000   1.000000
  106      -13.723096    -13.398746   1.000000   1.000000
  107      -13.707789    -13.383707   1.000000   1.000000
  108      -13.619094    -13.306751   1.000000   1.000000
  109      -13.582927    -13.290891   1.000000   1.000000
  110      -13.566430    -13.276660   1.000000   1.000000
  111      -13.391087    -13.141075   1.000000   1.000000
  112      -13.369366    -13.047625   1.000000   1.000000
  113      -13.276970    -13.046608   1.000000   1.000000
  114      -13.249429    -13.041195   1.000000   1.000000
  115      -13.241836    -13.033074   1.000000   1.000000
  116      -13.144725    -12.959429   1.000000   1.000000
  117      -13.096699    -12.936733   1.000000   1.000000
  118      -13.089147    -12.911683   1.000000   1.000000
  119      -12.885761    -12.699796   1.000000   1.000000
  120       -7.879590     -7.697300   1.000000   1.000000
  121       -7.634779     -7.476896   1.000000   1.000000
  122       -7.616672     -7.453870   1.000000   1.000000
  123       -7.602741     -7.439480   1.000000   1.000000
  124       -7.499936     -7.346064   1.000000   1.000000
  125       -7.494323     -7.333267   1.000000   1.000000
  126       -7.441740     -7.292121   1.000000   1.000000
  127       -7.414282     -7.275252   1.000000   1.000000
  128       -7.399148     -7.201802   1.000000   1.000000
  129       -7.339278     -7.196277   1.000000   1.000000
  130       -7.333497     -7.171543   1.000000   1.000000
  131       -7.326435     -7.166402   1.000000   1.000000
  132       -7.291881     -7.108037   1.000000   1.000000
  133       -7.252609     -7.078520   1.000000   1.000000
  134       -7.247719     -7.059572   1.000000   1.000000
  135       -7.216726     -7.054252   1.000000   1.000000
  136       -7.199604     -7.053201   1.000000   1.000000
  137       -7.189942     -7.040154   1.000000   1.000000
  138       -7.155354     -7.013339   1.000000   1.000000
  139       -7.149287     -6.966885   1.000000   1.000000
  140       -7.146918     -6.963686   1.000000   1.000000
  141       -7.131826     -6.945625   1.000000   1.000000
  142       -7.120774     -6.924639   1.000000   1.000000
  143       -6.966374     -6.769968   1.000000   1.000000
  144       -2.715820     -1.243389   1.000000   1.000000
  145       -2.607581     -1.031668   1.000000   1.000000
  146       -2.419034     -0.883707   1.000000   1.000000
  147       -2.308829     -0.613697   1.000000   1.000000
  148       -1.972689     -0.508283   1.000000   1.000000
  149       -1.968028     -0.498970   1.000000   1.000000
  150       -1.906556     -0.418482   1.000000   1.000000
  151       -1.889597     -0.380208   1.000000   1.000000
  152       -1.872147     -0.325663   1.000000   1.000000
  153       -1.784413     -0.315639   1.000000   1.000000
  154       -1.577760     -0.249033   1.000000   1.000000
  155       -1.570998     -0.247402   1.000000   1.000000
  156       -1.553008     -0.181735   1.000000   1.000000
  157       -1.542458     -0.165550   1.000000   1.000000
  158       -1.536849     -0.122492   1.000000   1.000000
  159       -1.492926     -0.081936   1.000000   1.000000
  160       -1.480299     -0.037085   1.000000   1.000000
  161       -1.457008     -0.001788   1.000000   1.000000
  162       -1.454864      0.080264   1.000000   1.000000
  163       -1.435569      0.122271   1.000000   1.000000
  164       -1.391858      0.134618   1.000000   1.000000
  165       -1.286992      0.179986   1.000000   1.000000
  166       -1.233117      0.258131   1.000000   1.000000
  167       -1.218733      0.346516   1.000000   1.000000
  168       -1.209357      0.373164   1.000000   1.000000
  169       -1.164452      0.405390   1.000000   1.000000
  170       -1.156537      0.431122   1.000000   1.000000
  171       -1.153708      0.444593   1.000000   1.000000
  172       -1.109206      0.461881   1.000000   1.000000
  173       -1.086020      0.556863   1.000000   1.000000
  174       -1.064961      0.604702   1.000000   1.000000
  175       -1.045409      0.608990   1.000000   1.000000
  176       -1.034968      0.640468   1.000000   1.000000
  177       -0.969751      0.653384   1.000000   1.000000
  178       -0.953032      0.660871   1.000000   1.000000
  179       -0.937530      0.744416   1.000000   1.000000
  180       -0.935813      0.771651   1.000000   1.000000
  181       -0.931567      0.804891   1.000000   1.000000
  182       -0.924840      0.829395   1.000000   1.000000
  183       -0.868860      0.840183   1.000000   1.000000
  184       -0.864061      0.856015   1.000000   1.000000
  185       -0.849168      0.878411   1.000000   1.000000
  186       -0.816009      0.883462   1.000000   1.000000
  187       -0.809008      0.893388   1.000000   1.000000
  188       -0.802380      0.915983   1.000000   1.000000
  189       -0.774096      0.966476   1.000000   1.000000
  190       -0.771097      0.979718   1.000000   1.000000
  191       -0.764102      0.998222   1.000000   1.000000
  192       -0.756375      1.031016   1.000000   1.000000
  193       -0.750409      1.078309   1.000000   1.000000
  194       -0.703949      1.088691   1.000000   1.000000
  195       -0.701897      1.165556   1.000000   1.000000
  196       -0.690928      1.176638   1.000000   1.000000
  197       -0.687003      1.188071   1.000000   1.000000
  198       -0.639804      1.211731   1.000000   1.000000
  199       -0.610125      1.244331   1.000000   1.000000
  200       -0.599873      1.264953   1.000000   1.000000
  201       -0.569837      1.296914   1.000000   1.000000
  202       -0.565470      1.335205   1.000000   1.000000
  203       -0.556003      1.380346   1.000000   1.000000
  204       -0.542294      1.425284   1.000000   1.000000
  205       -0.535468      1.461137   1.000000   1.000000
  206       -0.518625      1.464296   1.000000   1.000000
  207       -0.511400      1.491790   1.000000   1.000000
  208       -0.441266      1.567925   1.000000   1.000000
  209       -0.437723      1.578776   1.000000   1.000000
  210       -0.432521      1.673323   1.000000   1.000000
  211       -0.385505      1.678598   1.000000   1.000000
  212       -0.367506      1.708346   1.000000   1.000000
  213       -0.358224      1.719222   1.000000   1.000000
  214       -0.348268      1.742215   1.000000   1.000000
  215       -0.340941      1.834431   1.000000   1.000000
  216       -0.326351      1.851352   1.000000   1.000000
  217       -0.319015      1.909262   1.000000   1.000000
  218       -0.293878      1.926138   1.000000   1.000000
  219       -0.285555      1.969136   1.000000   1.000000
  220       -0.277465      2.015479   1.000000   1.000000
  221       -0.251848      2.103054   1.000000   1.000000
  222       -0.242405      2.122598   1.000000   1.000000
  223       -0.215302      2.196599   1.000000   1.000000
  224       -0.210049      2.246609   1.000000   1.000000
  225       -0.193473      2.271837   1.000000   1.000000
  226       -0.168138      2.308285   1.000000   1.000000
  227       -0.164819      2.320014   1.000000   1.000000
  228       -0.150846      2.361941   1.000000   1.000000
  229       -0.138803      2.399108   1.000000   1.000000
  230       -0.131054      2.411379   1.000000   1.000000
  231       -0.114560      2.507012   1.000000   1.000000
  232       -0.108509      2.574702   1.000000   1.000000
  233       -0.104951      2.580981   1.000000   1.000000
  234       -0.095437      2.596868   1.000000   1.000000
  235       -0.071751      2.652152   1.000000   1.000000
  236       -0.067408      2.672266   1.000000   1.000000
  237       -0.038716      2.693385   1.000000   1.000000
  238       -0.005610      2.709620   1.000000   1.000000
  239        0.116099      2.758472   1.000000   1.000000
  240        0.142813      2.772741   1.000000   1.000000
  241        0.154759      2.785659   1.000000   1.000000
  242        0.186718      2.811125   1.000000   1.000000
  243        0.216924      2.853394   1.000000   1.000000
  244        0.313243      2.866158   1.000000   1.000000
  245        0.342250      2.877254   1.000000   1.000000
  246        0.345368      2.886485   1.000000   1.000000
  247        0.372269      2.897597   1.000000   1.000000
  248        0.393622      2.905441   1.000000   1.000000
  249        0.414056      2.913596   1.000000   1.000000
  250        0.417107      2.931805   1.000000   1.000000
  251        0.428367      2.942817   1.000000   1.000000
  252        0.442792      2.976269   1.000000   1.000000
  253        0.460837      2.996942   1.000000   1.000000
  254        0.467982      3.024888   1.000000   1.000000
  255        0.497547      3.084351   1.000000   1.000000
  256        0.606949      3.095463   1.000000   1.000000
  257        0.671331      3.163285   1.000000   1.000000
  258        0.689843      3.170681   1.000000   1.000000
  259        0.702668      3.177032   1.000000   1.000000
  260        0.707653      3.217926   1.000000   1.000000
  261        0.716948      3.278228   1.000000   1.000000
  262        0.753649      3.295175   1.000000   1.000000
  263        0.797489      3.300056   1.000000   1.000000
  264        0.822143      3.467609   1.000000   1.000000
  265        0.863626      3.488331   1.000000   1.000000
  266        0.870958      3.514159   1.000000   1.000000
  267        0.891921      3.551491   1.000000   1.000000
  268        0.904059      3.563231   1.000000   1.000000
  269        0.916377      3.577903   1.000000   1.000000
  270        0.931242      3.579101   1.000000   1.000000
  271        0.941730      3.609052   1.000000   1.000000
  272        0.963715      3.619819   1.000000   1.000000
  273        0.970518      3.628059   1.000000   1.000000
  274        1.049537      3.642793   1.000000   1.000000
  275        1.069935      3.654292   1.000000   1.000000
  276        1.081849      3.668986   1.000000   1.000000
  277        1.091948      3.680470   1.000000   1.000000
  278        1.126124      3.687312   1.000000   1.000000
  279        1.167800      3.717335   1.000000   1.000000
  280        1.209026      3.727469   1.000000   1.000000
  281        1.265059      3.736525   1.000000   1.000000
  282        1.308856      3.742262   1.000000   1.000000
  283        1.329644      3.763942   1.000000   1.000000
  284        1.338656      3.788477   1.000000   1.000000
  285        1.351277      3.791231   1.000000   1.000000
  286        1.369195      3.869591   1.000000   1.000000
  287        1.388699      3.886231   1.000000   1.000000
  288        1.391872      6.127195   1.000000   0.000000
  289        1.446532      6.236837   1.000000   0.000000
  290        1.449450      6.456449   1.000000   0.000000
  291        1.469941      6.516365   1.000000   0.000000
  292        1.485040      6.541775   1.000000   0.000000
  293        1.489323      6.566531   1.000000   0.000000
  294        1.515549      6.570235   1.000000   0.000000
  295        1.532995      6.590242   1.000000   0.000000
  296        1.539253      6.605174   1.000000   0.000000
  297        1.572059      6.665472   1.000000   0.000000
  298        1.589985      6.744357   1.000000   0.000000
  299        1.600263      6.754473   1.000000   0.000000
  300        1.611927      6.781886   1.000000   0.000000
  301        1.615577      6.848984   1.000000   0.000000
  302        1.622553      6.863122   1.000000   0.000000
  303        1.639909      6.867949   1.000000   0.000000
  304        1.659135      6.895715   1.000000   0.000000
  305        1.696068      6.959181   1.000000   0.000000
  306        1.723846      6.962725   1.000000   0.000000
  307        1.736760      6.977045   1.000000   0.000000
  308        1.766776      6.993602   1.000000   0.000000
  309        1.814113      7.016906   1.000000   0.000000
  310        1.834082      7.039841   1.000000   0.000000
  311        1.856551      7.061251   1.000000   0.000000
  312        1.935821      7.080482   1.000000   0.000000
  313        1.961026      7.105536   1.000000   0.000000
  314        1.978009      7.117949   1.000000   0.000000
  315        2.001551      7.128135   1.000000   0.000000
  316        2.143446      7.150930   1.000000   0.000000
  317        2.155003      7.163491   1.000000   0.000000
  318        2.170576      7.176651   1.000000   0.000000
  319        2.326963      7.192954   1.000000   0.000000
  320        2.339637      7.200497   1.000000   0.000000
  321        2.360202      7.215018   1.000000   0.000000
  322        2.383441      7.223887   1.000000   0.000000
  323        2.406250      7.232837   1.000000   0.000000
  324        2.412701      7.240281   1.000000   0.000000
  325        2.414440      7.251320   1.000000   0.000000
  326        2.489904      7.268633   1.000000   0.000000
  327        2.511733      7.278558   1.000000   0.000000
  328        2.532117      7.305754   1.000000   0.000000
  329        2.556694      7.307479   1.000000   0.000000
  330        2.560987      7.315530   1.000000   0.000000
  331        2.587892      7.337241   1.000000   0.000000
  332        2.628007      7.354036   1.000000   0.000000
  333        2.686504      7.397948   1.000000   0.000000
  334        2.711757      7.442749   1.000000   0.000000
  335        2.739037      7.503842   1.000000   0.000000
  336        2.848355      7.525957   1.000000   0.000000
  337        2.864850      7.540306   1.000000   0.000000
  338        2.882836      7.547932   1.000000   0.000000
  339        2.981433      7.554483   1.000000   0.000000
  340        3.014105      7.568230   1.000000   0.000000
  341        3.031169      7.582760   1.000000   0.000000
  342        3.100194      7.598185   1.000000   0.000000
  343        3.122710      7.630024   1.000000   0.000000
  344        3.153504      7.654230   1.000000   0.000000
  345        3.185578      7.660351   1.000000   0.000000
  346        3.230776      7.684060   1.000000   0.000000
  347        3.254725      7.690609   1.000000   0.000000
  348        3.268418      7.727179   1.000000   0.000000
  349        3.291685      7.747548   1.000000   0.000000
  350        3.373945      7.760879   1.000000   0.000000
  351        3.381393      7.761891   1.000000   0.000000
  352        3.406828      7.783131   1.000000   0.000000
  353        3.421608      7.789260   1.000000   0.000000
  354        3.434809      7.796703   1.000000   0.000000
  355        3.457552      7.807582   1.000000   0.000000
  356        3.486049      7.833554   1.000000   0.000000
  357        3.519943      7.849345   1.000000   0.000000
  358        3.578463      7.858377   1.000000   0.000000
  359        3.585686      7.897569   1.000000   0.000000
  360        3.603790      7.959650   1.000000   0.000000
  361        3.619018      8.027614   1.000000   0.000000
  362        3.650428      8.046155   1.000000   0.000000
  363        3.677344      8.092163   1.000000   0.000000
  364        3.689447      8.116718   1.000000   0.000000
  365        3.746407      8.153104   1.000000   0.000000
  366        3.788635      8.174162   1.000000   0.000000
  367        3.855944      8.183072   1.000000   0.000000
  368        3.866422      8.218286   1.000000   0.000000
  369        3.879644      8.233076   1.000000   0.000000
  370        3.967800      8.239726   1.000000   0.000000
  371        3.985221      8.263059   1.000000   0.000000
  372        4.023693      8.324520   1.000000   0.000000
  373        4.038515      8.345318   1.000000   0.000000
  374        4.058216      8.361641   1.000000   0.000000
  375        4.094834      8.380470   1.000000   0.000000
  376        4.133087      8.389130   1.000000   0.000000
  377        4.140481      8.429910   1.000000   0.000000
  378        4.173276      8.522609   1.000000   0.000000
  379        4.179093      8.545096   1.000000   0.000000
  380        4.373466      8.549303   0.998474   0.000000
  381        4.418970      8.617515   0.954129   0.000000
  382        4.568582      8.641274   0.005393   0.000000
  383        4.587652      8.675617   0.001011   0.000000
  384        7.390271      8.777464   0.000000   0.000000
  385        7.681119      8.840945   0.000000   0.000000
  386        8.954409      8.899921   0.000000   0.000000
  387        9.099437      8.971378   0.000000   0.000000
  388        9.129336      9.079839   0.000000   0.000000
  389        9.276912      9.135694   0.000000   0.000000
  390        9.346591      9.470981   0.000000   0.000000
  391        9.363716      9.601647   0.000000   0.000000
  392        9.475932      9.632904   0.000000   0.000000
  393        9.502059      9.946344   0.000000   0.000000
  394        9.615785     10.068745   0.000000   0.000000
  395        9.615826     10.083828   0.000000   0.000000
  396        9.644458     10.191636   0.000000   0.000000
  397        9.649755     10.248175   0.000000   0.000000
  398        9.698379     10.292106   0.000000   0.000000
  399        9.790194     10.328200   0.000000   0.000000
  400        9.939284     10.415030   0.000000   0.000000
  401        9.968894     10.427194   0.000000   0.000000
  402        9.974263     10.441302   0.000000   0.000000
  403       10.002884     10.445196   0.000000   0.000000
  404       10.017583     10.450772   0.000000   0.000000
  405       10.032194     10.547652   0.000000   0.000000
  406       10.038372     10.553107   0.000000   0.000000
  407       10.048369     10.634108   0.000000   0.000000
  408       10.109710     10.641167   0.000000   0.000000
  409       10.122411     10.739572   0.000000   0.000000
  410       10.200224     10.807447   0.000000   0.000000
  411       10.210297     10.827220   0.000000   0.000000
  412       10.217727     10.839507   0.000000   0.000000
  413       10.265251     10.852132   0.000000   0.000000
  414       10.303984     10.859766   0.000000   0.000000
  415       10.326086     10.871306   0.000000   0.000000
  416       10.343489     10.875905   0.000000   0.000000
  417       10.365138     10.941251   0.000000   0.000000
  418       10.373669     11.004125   0.000000   0.000000
  419       10.378293     11.050570   0.000000   0.000000
  420       10.446966     11.079237   0.000000   0.000000
  421       10.454244     11.095761   0.000000   0.000000
  422       10.475095     11.121893   0.000000   0.000000
  423       10.478416     11.130426   0.000000   0.000000
  424       10.515876     11.192580   0.000000   0.000000
  425       10.516471     11.249344   0.000000   0.000000
  426       10.533674     11.306601   0.000000   0.000000
  427       10.551832     11.370021   0.000000   0.000000
  428       10.600426     11.393387   0.000000   0.000000
  429       10.779250     11.430267   0.000000   0.000000
  430       10.843818     11.580765   0.000000   0.000000
  431       10.895000     11.587752   0.000000   0.000000
  432       11.020677     11.609668   0.000000   0.000000
  433       11.083554     11.620042   0.000000   0.000000
  434       11.137106     11.630934   0.000000   0.000000
  435       11.273876     11.646323   0.000000   0.000000
  436       11.304586     11.675206   0.000000   0.000000
  437       11.331817     11.690246   0.000000   0.000000
  438       11.404164     11.751381   0.000000   0.000000
  439       11.419337     11.774774   0.000000   0.000000
  440       11.421101     11.786329   0.000000   0.000000
  441       11.421817     11.833487   0.000000   0.000000
  442       11.491890     11.843087   0.000000   0.000000
  443       11.492995     11.883107   0.000000   0.000000
  444       11.500128     11.904163   0.000000   0.000000
  445       11.505815     11.939246   0.000000   0.000000
  446       11.539241     11.948550   0.000000   0.000000
  447       11.544328     12.039507   0.000000   0.000000
  448       11.549575     12.088416   0.000000   0.000000
  449       11.551060     12.103672   0.000000   0.000000
  450       11.561104     12.136346   0.000000   0.000000
  451       11.567357     12.150959   0.000000   0.000000
  452       11.571066     12.157420   0.000000   0.000000
  453       11.599404     12.197673   0.000000   0.000000
  454       11.622251     12.218076   0.000000   0.000000
  455       11.684099     12.222608   0.000000   0.000000
  456       11.688235     12.250281   0.000000   0.000000
  457       11.695216     12.295913   0.000000   0.000000
  458       11.701043     12.334865   0.000000   0.000000
  459       11.710386     12.353026   0.000000   0.000000
  460       11.716514     12.367521   0.000000   0.000000
  461       11.722715     12.386679   0.000000   0.000000
  462       11.767386     12.445816   0.000000   0.000000
  463       11.848650     12.514043   0.000000   0.000000
  464       11.872545     12.522885   0.000000   0.000000
  465       11.920534     12.676642   0.000000   0.000000
  466       11.942100     12.784266   0.000000   0.000000
  467       11.964719     12.831816   0.000000   0.000000
  468       11.965179     12.846926   0.000000   0.000000
  469       11.968920     12.926464   0.000000   0.000000
  470       11.977872     12.949389   0.000000   0.000000
  471       12.054209     12.983585   0.000000   0.000000
  472       12.116770     13.022266   0.000000   0.000000
  473       12.209720     13.069228   0.000000   0.000000
  474       12.242143     13.121606   0.000000   0.000000
  475       12.294202     13.131137   0.000000   0.000000
  476       12.367930     13.193890   0.000000   0.000000
  477       12.381729     13.234765   0.000000   0.000000
  478       12.412940     13.238032   0.000000   0.000000
  479       12.472275     13.257659   0.000000   0.000000
  480       12.773118     13.364207   0.000000   0.000000
  481       12.871915     13.391235   0.000000   0.000000
  482       12.933990     13.489360   0.000000   0.000000
  483       12.972890     13.668857   0.000000   0.000000
  484       13.030064     13.753151   0.000000   0.000000
  485       13.261736     13.814485   0.000000   0.000000
  486       13.378330     13.935032   0.000000   0.000000
  487       13.513508     14.020370   0.000000   0.000000
  488       13.590915     14.219168   0.000000   0.000000

  0.5000000E+00  0.1339234E-14  0.1262012E-14  0.1250000E+00
    1      -51.719401    -46.973481   1.000000   1.000000
    2      -51.712402    -46.966007   1.000000   1.000000
    3      -51.710328    -46.964977   1.000000   1.000000
    4      -51.690681    -46.954784   1.000000   1.000000
    5      -51.687184    -46.951651   1.000000   1.000000
    6      -51.684734    -46.950534   1.000000   1.000000
    7      -51.681403    -46.949258   1.000000   1.000000
    8      -51.643244    -46.948888   1.000000   1.000000
    9      -51.641585    -46.947452   1.000000   1.000000
   10      -51.633839    -46.947273   1.000000   1.000000
   11      -51.631071    -46.946830   1.000000   1.000000
   12      -51.626154    -46.933603   1.000000   1.000000
   13      -51.625572    -46.929974   1.000000   1.000000
   14      -51.617305    -46.908685   1.000000   1.000000
   15      -51.574062    -46.906743   1.000000   1.000000
   16      -51.571423    -46.875343   1.000000   1.000000
   17      -51.564772    -46.831071   1.000000   1.000000
   18      -51.563913    -46.827867   1.000000   1.000000
   19      -51.554426    -46.815218   1.000000   1.000000
   20      -51.551774    -46.811779   1.000000   1.000000
   21      -51.550420    -46.811042   1.000000   1.000000
   22      -51.547103    -46.807034   1.000000   1.000000
   23      -51.480953    -46.735577   1.000000   1.000000