  11  11   0   0
  0.1430410E+02  0.3925825E-09  0.3925825E-09  0.1058004E-08  0.5000000E-15
  1.000000000000000E-004
  CAR 
 unknown system                          
     20.68424043    -54.46632847  301      5.21574833      1.00000000
    -54.466  0.0000E+00  0.0000E+00  0.0000E+00  0.0000E+00
    -54.216  0.0000E+00  0.0000E+00  0.0000E+00  0.0000E+00
    -53.965  0.0000E+00  0.0000E+00  0.0000E+00  0.0000E+00
    -53.715  0.0000E+00  0.0000E+00  0.0000E+00  0.0000E+00
    -53.464  0.0000E+00  0.0000E+00  0.0000E+00  0.0000E+00
    -53.214  0.0000E+00  0.0000E+00  0.0000E+00  0.0000E+00
    -52.963  0.0000E+00  0.0000E+00  0.0000E+00  0.0000E+00
    -52.713  0.0000E+00  0.0000E+00  0.0000E+00  0.0000E+00
    -52.462  0.0000E+00  0.0000E+00  0.0000E+00  0.0000E+00
    -52.212  0.0000E+00  0.0000E+00  0.0000E+00  0.0000E+00
    -51.961  0.0000E+00  0.0000E+00  0.0000E+00  0.0000E+00
    -51.711  0.0000E+00  0.0000E+00  0.0000E+00  0.0000E+00
    -51.460  0.0000E+00  0.0000E+00  0.0000E+00  0.0000E+00
    -51.210  0.2563E-04  0.0000E+00  0.6422E-05  0.0000E+00
    -50.959  0.1581E+02  0.0000E+00  0.3959E+01  0.0000E+00
    -50.709  0.1617E+00  0.0000E+00  0.4000E+01  0.0000E+00
    -50.458  0.0000E+00  0.0000E+00  0.4000E+01  0.0000E+00
    -50.208  0.0000E+00  0.0000E+00  0.4000E+01  0.0000E+00
    -49.957  0.1362E-12  0.0000E+00  0.4000E+01  0.0000E+00
    -49.707  0.2476E+01  0.0000E+00  0.4620E+01  0.0000E+00
    -49.456  0.2941E+02  0.0000E+00  0.1199E+02  0.0000E+00
    -49.206  0.5416E-01  0.0000E+00  0.1200E+02  0.0000E+00
    -48.955  0.0000E+00  0.0000E+00  0.1200E+02  0.0000E+00
    -48.705  0.0000E+00  0.0000E+00  0.1200E+02  0.0000E+00
    -48.454  0.0000E+00  0.0000E+00  0.1200E+02  0.0000E+00
    -48.204  0.0000E+00  0.0000E+00  0.1200E+02  0.0000E+00
    -47.953  0.0000E+00  0.0000E+00  0.1200E+02  0.0000E+00
    -47.703  0.0000E+00  0.0000E+00  0.1200E+02  0.0000E+00
    -47.452  0.0000E+00  0.0000E+00  0.1200E+02  0.0000E+00
    -47.202  0.0000E+00  0.0000E+00  0.1200E+02  0.0000E+00
    -46.951  0.0000E+00  0.0000E+00  0.1200E+02  0.0000E+00
    -46.701  0.0000E+00  0.0000E+00  0.1200E+02  0.0000E+00
    -46.450  0.0000E+00  0.4122E-04  0.1200E+02  0.1033E-04
    -46.200  0.0000E+00  0.1565E+02  0.1200E+02  0.3921E+01
    -45.949  0.0000E+00  0.2692E+01  0.1200E+02  0.4595E+01
    -45.699  0.0000E+00  0.2956E+02  0.1200E+02  0.1200E+02
    -45.448  0.0000E+00  0.4072E-03  0.1200E+02  0.1200E+02
    -45.198  0.0000E+00  0.0000E+00  0.1200E+02  0.1200E+02
    -44.947  0.0000E+00  0.0000E+00  0.1200E+02  0.1200E+02
    -44.697  0.0000E+00  0.0000E+00  0.1200E+02  0.1200E+02
    -44.446  0.0000E+00  0.0000E+00  0.1200E+02  0.1200E+02
    -44.196  0.0000E+00  0.0000E+00  0.1200E+02  0.1200E+02
    -43.945  0.0000E+00  0.0000E+00  0.1200E+02  0.1200E+02
    -43.695  0.0000E+00  0.0000E+00  0.1200E+02  0.1200E+02
    -43.444  0.0000E+00  0.0000E+00  0.1200E+02  0.1200E+02
    -43.194  0.0000E+00  0.0000E+00  0.1200E+02  0.1200E+02
    -42.943  0.0000E+00  0.0000E+00  0.1200E+02  0.1200E+02
    -42.693  0.0000E+00  0.0000E+00  0.1200E+02  0.1200E+02
    -42.442  0.0000E+00  0.0000E+00  0.1200E+02  0.1200E+02
    -42.192  0.0000E+00  0.0000E+00  0.1200E+02  0.1200E+02
    -41.941  0.0000E+00  0.0000E+00  0.1200E+02  0.1200E+02
    -41.691  0.0000E+00  0.0000E+00  0.1200E+02  0.1200E+02
    -41.440  0.0000E+00  0.0000E+00  0.1200E+02  0.1200E+02
    -41.190  0.0000E+00  0.0000E+00  0.1200E+02  0.1200E+02
    -40.939  0.0000E+00  0.0000E+00  0.1200E+02  0.1200E+02
    -40.689  0.0000E+00  0.0000E+00  0.1200E+02  0.1200E+02
    -40.438  0.0000E+00  0.0000E+00  0.1200E+02  0.1200E+02
    -40.188  0.0000E+00  0.0000E+00  0.1200E+02  0.1200E+02
    -39.937  0.1393E+00  0.1204E+00  0.1203E+02  0.1203E+02
    -39.687  0.7845E+01  0.7864E+01  0.1400E+02  0.1400E+02
    -39.436  0.0000E+00  0.0000E+00  0.1400E+02  0.1400E+02
    -39.186  0.0000E+00  0.0000E+00  0.1400E+02  0.1400E+02
    -38.935  0.0000E+00  0.0000E+00  0.1400E+02  0.1400E+02
    -38.685  0.0000E+00  0.0000E+00  0.1400E+02  0.1400E+02
    -38.434  0.0000E+00  0.0000E+00  0.1400E+02  0.1400E+02
    -38.184  0.0000E+00  0.0000E+00  0.1400E+02  0.1400E+02
    -37.933  0.0000E+00  0.0000E+00  0.1400E+02  0.1400E+02
    -37.683  0.0000E+00  0.0000E+00  0.1400E+02  0.1400E+02
    -37.432  0.0000E+00  0.0000E+00  0.1400E+02  0.1400E+02
    -37.182  0.0000E+00  0.0000E+00  0.1400E+02  0.1400E+02
    -36.931  0.0000E+00  0.0000E+00  0.1400E+02  0.1400E+02
    -36.681  0.0000E+00  0.0000E+00  0.1400E+02  0.1400E+02
    -36.430  0.0000E+00  0.0000E+00  0.1400E+02  0.1400E+02
    -36.180  0.0000E+00  0.0000E+00  0.1400E+02  0.1400E+02
    -35.929  0.0000E+00  0.0000E+00  0.1400E+02  0.1400E+02
    -35.679  0.0000E+00  0.0000E+00  0.1400E+02  0.1400E+02
    -35.428  0.0000E+00  0.0000E+00  0.1400E+02  0.1400E+02
    -35.178  0.0000E+00  0.0000E+00  0.1400E+02  0.1400E+02
    -34.927  0.0000E+00  0.0000E+00  0.1400E+02  0.1400E+02
    -34.677  0.0000E+00  0.0000E+00  0.1400E+02  0.1400E+02
    -34.426  0.0000E+00  0.0000E+00  0.1400E+02  0.1400E+02
    -34.176  0.0000E+00  0.0000E+00  0.1400E+02  0.1400E+02
    -33.925  0.0000E+00  0.0000E+00  0.1400E+02  0.1400E+02
    -33.675  0.0000E+00  0.0000E+00  0.1400E+02  0.1400E+02
    -33.424  0.0000E+00  0.0000E+00  0.1400E+02  0.1400E+02
    -33.174  0.0000E+00  0.0000E+00  0.1400E+02  0.1400E+02
    -32.923  0.0000E+00  0.0000E+00  0.1400E+02  0.1400E+02
    -32.673  0.0000E+00  0.0000E+00  0.1400E+02  0.1400E+02
    -32.422  0.0000E+00  0.0000E+00  0.1400E+02  0.1400E+02
    -32.172  0.0000E+00  0.0000E+00  0.1400E+02  0.1400E+02
    -31.921  0.0000E+00  0.0000E+00  0.1400E+02  0.1400E+02
    -31.671  0.0000E+00  0.0000E+00  0.1400E+02  0.1400E+02
    -31.420  0.0000E+00  0.0000E+00  0.1400E+02  0.1400E+02
    -31.170  0.0000E+00  0.0000E+00  0.1400E+02  0.1400E+02
    -30.919  0.0000E+00  0.0000E+00  0.1400E+02  0.1400E+02
    -30.669  0.0000E+00  0.0000E+00  0.1400E+02  0.1400E+02
    -30.418  0.0000E+00  0.0000E+00  0.1400E+02  0.1400E+02
    -30.168  0.0000E+00  0.0000E+00  0.1400E+02  0.1400E+02
    -29.917  0.0000E+00  0.0000E+00  0.1400E+02  0.1400E+02
    -29.667  0.0000E+00  0.0000E+00  0.1400E+02  0.1400E+02
    -29.416  0.0000E+00  0.0000E+00  0.1400E+02  0.1400E+02
    -29.166  0.0000E+00  0.0000E+00  0.1400E+02  0.1400E+02
    -28.915  0.0000E+00  0.0000E+00  0.1400E+02  0.1400E+02
    -28.665  0.0000E+00  0.0000E+00  0.1400E+02  0.1400E+02
    -28.414  0.0000E+00  0.0000E+00  0.1400E+02  0.1400E+02
    -28.164  0.0000E+00  0.0000E+00  0.1400E+02  0.1400E+02
    -27.913  0.0000E+00  0.0000E+00  0.1400E+02  0.1400E+02
    -27.663  0.0000E+00  0.0000E+00  0.1400E+02  0.1400E+02
    -27.412  0.0000E+00  0.0000E+00  0.1400E+02  0.1400E+02
    -27.162  0.0000E+00  0.0000E+00  0.1400E+02  0.1400E+02
    -26.911  0.0000E+00  0.0000E+00  0.1400E+02  0.1400E+02
    -26.661  0.0000E+00  0.0000E+00  0.1400E+02  0.1400E+02
    -26.410  0.0000E+00  0.0000E+00  0.1400E+02  0.1400E+02
    -26.160  0.0000E+00  0.0000E+00  0.1400E+02  0.1400E+02
    -25.909  0.0000E+00  0.0000E+00  0.1400E+02  0.1400E+02
    -25.659  0.0000E+00  0.0000E+00  0.1400E+02  0.1400E+02
    -25.408  0.0000E+00  0.0000E+00  0.1400E+02  0.1400E+02
    -25.158  0.0000E+00  0.0000E+00  0.1400E+02  0.1400E+02
    -24.907  0.0000E+00  0.0000E+00  0.1400E+02  0.1400E+02
    -24.657  0.0000E+00  0.0000E+00  0.1400E+02  0.1400E+02
    -24.406  0.0000E+00  0.0000E+00  0.1400E+02  0.1400E+02
    -24.156  0.0000E+00  0.0000E+00  0.1400E+02  0.1400E+02
    -23.905  0.0000E+00  0.0000E+00  0.1400E+02  0.1400E+02
    -23.655  0.0000E+00  0.0000E+00  0.1400E+02  0.1400E+02
    -23.404  0.0000E+00  0.0000E+00  0.1400E+02  0.1400E+02
    -23.154  0.0000E+00  0.0000E+00  0.1400E+02  0.1400E+02
    -22.903  0.0000E+00  0.0000E+00  0.1400E+02  0.1400E+02
    -22.653  0.0000E+00  0.0000E+00  0.1400E+02  0.1400E+02
    -22.402  0.0000E+00  0.0000E+00  0.1400E+02  0.1400E+02
    -22.152  0.0000E+00  0.0000E+00  0.1400E+02  0.1400E+02
    -21.901  0.0000E+00  0.0000E+00  0.1400E+02  0.1400E+02
    -21.651  0.0000E+00  0.0000E+00  0.1400E+02  0.1400E+02
    -21.400  0.0000E+00  0.0000E+00  0.1400E+02  0.1400E+02
    -21.150  0.0000E+00  0.0000E+00  0.1400E+02  0.1400E+02
    -20.899  0.0000E+00  0.0000E+00  0.1400E+02  0.1400E+02
    -20.649  0.0000E+00  0.0000E+00  0.1400E+02  0.1400E+02
    -20.398  0.0000E+00  0.0000E+00  0.1400E+02  0.1400E+02
    -20.148  0.0000E+00  0.0000E+00  0.1400E+02  0.1400E+02
    -19.897  0.0000E+00  0.0000E+00  0.1400E+02  0.1400E+02
    -19.647  0.0000E+00  0.0000E+00  0.1400E+02  0.1400E+02
    -19.396  0.0000E+00  0.0000E+00  0.1400E+02  0.1400E+02
    -19.146  0.0000E+00  0.0000E+00  0.1400E+02  0.1400E+02
    -18.895  0.0000E+00  0.0000E+00  0.1400E+02  0.1400E+02
    -18.645  0.0000E+00  0.0000E+00  0.1400E+02  0.1400E+02
    -18.394  0.0000E+00  0.0000E+00  0.1400E+02  0.1400E+02
    -18.144  0.0000E+00  0.0000E+00  0.1400E+02  0.1400E+02
    -17.893  0.0000E+00  0.0000E+00  0.1400E+02  0.1400E+02
    -17.643  0.0000E+00  0.0000E+00  0.1400E+02  0.1400E+02
    -17.392  0.0000E+00  0.0000E+00  0.1400E+02  0.1400E+02
    -17.142  0.0000E+00  0.0000E+00  0.1400E+02  0.1400E+02
    -16.891  0.0000E+00  0.0000E+00  0.1400E+02  0.1400E+02
    -16.641  0.0000E+00  0.0000E+00  0.1400E+02  0.1400E+02
    -16.390  0.0000E+00  0.0000E+00  0.1400E+02  0.1400E+02
    -16.140  0.0000E+00  0.0000E+00  0.1400E+02  0.1400E+02
    -15.889  0.0000E+00  0.0000E+00  0.1400E+02  0.1400E+02
    -15.639  0.0000E+00  0.0000E+00  0.1400E+02  0.1400E+02
    -15.388  0.0000E+00  0.0000E+00  0.1400E+02  0.1400E+02
    -15.138  0.0000E+00  0.0000E+00  0.1400E+02  0.1400E+02
    -14.887  0.0000E+00  0.0000E+00  0.1400E+02  0.1400E+02
    -14.637  0.0000E+00  0.0000E+00  0.1400E+02  0.1400E+02
    -14.386  0.0000E+00  0.0000E+00  0.1400E+02  0.1400E+02
    -14.136  0.0000E+00  0.0000E+00  0.1400E+02  0.1400E+02
    -13.885  0.0000E+00  0.0000E+00  0.1400E+02  0.1400E+02
    -13.635  0.0000E+00  0.0000E+00  0.1400E+02  0.1400E+02
    -13.384  0.1144E-04  0.0000E+00  0.1400E+02  0.1400E+02
    -13.134  0.3314E+01  0.0000E+00  0.1483E+02  0.1400E+02
    -12.883  0.4662E+01  0.5827E-01  0.1600E+02  0.1401E+02
    -12.633  0.8207E-02  0.6889E+01  0.1600E+02  0.1574E+02
    -12.382  0.0000E+00  0.1036E+01  0.1600E+02  0.1600E+02
    -12.132  0.0000E+00  0.0000E+00  0.1600E+02  0.1600E+02
    -11.881  0.0000E+00  0.0000E+00  0.1600E+02  0.1600E+02
    -11.631  0.0000E+00  0.0000E+00  0.1600E+02  0.1600E+02
    -11.380  0.0000E+00  0.0000E+00  0.1600E+02  0.1600E+02
    -11.130  0.0000E+00  0.0000E+00  0.1600E+02  0.1600E+02
    -10.879  0.0000E+00  0.0000E+00  0.1600E+02  0.1600E+02
    -10.628  0.0000E+00  0.0000E+00  0.1600E+02  0.1600E+02
    -10.378  0.0000E+00  0.0000E+00  0.1600E+02  0.1600E+02
    -10.127  0.0000E+00  0.0000E+00  0.1600E+02  0.1600E+02
     -9.877  0.0000E+00  0.0000E+00  0.1600E+02  0.1600E+02
     -9.626  0.0000E+00  0.0000E+00  0.1600E+02  0.1600E+02
     -9.376  0.0000E+00  0.0000E+00  0.1600E+02  0.1600E+02
     -9.125  0.0000E+00  0.0000E+00  0.1600E+02  0.1600E+02
     -8.875  0.0000E+00  0.0000E+00  0.1600E+02  0.1600E+02
     -8.624  0.0000E+00  0.0000E+00  0.1600E+02  0.1600E+02
     -8.374  0.0000E+00  0.0000E+00  0.1600E+02  0.1600E+02
     -8.123  0.0000E+00  0.0000E+00  0.1600E+02  0.1600E+02
     -7.873  0.3812E-14  0.0000E+00  0.1600E+02  0.1600E+02
     -7.622  0.2305E-01  0.2647E-14  0.1601E+02  0.1600E+02
     -7.372  0.1606E+01  0.2612E-01  0.1641E+02  0.1601E+02
     -7.121  0.3659E+01  0.1934E+01  0.1732E+02  0.1649E+02
     -6.871  0.3687E+01  0.3422E+01  0.1825E+02  0.1735E+02
     -6.620  0.3001E+01  0.2920E+01  0.1900E+02  0.1808E+02
     -6.370  0.2713E-05  0.3670E+01  0.1900E+02  0.1900E+02
     -6.119  0.0000E+00  0.3315E-02  0.1900E+02  0.1900E+02
     -5.869  0.0000E+00  0.0000E+00  0.1900E+02  0.1900E+02
     -5.618  0.0000E+00  0.0000E+00  0.1900E+02  0.1900E+02
     -5.368  0.0000E+00  0.0000E+00  0.1900E+02  0.1900E+02
     -5.117  0.0000E+00  0.0000E+00  0.1900E+02  0.1900E+02
     -4.867  0.0000E+00  0.0000E+00  0.1900E+02  0.1900E+02
     -4.616  0.0000E+00  0.0000E+00  0.1900E+02  0.1900E+02
     -4.366  0.0000E+00  0.0000E+00  0.1900E+02  0.1900E+02
     -4.115  0.0000E+00  0.0000E+00  0.1900E+02  0.1900E+02
     -3.865  0.0000E+00  0.0000E+00  0.1900E+02  0.1900E+02
     -3.614  0.0000E+00  0.0000E+00  0.1900E+02  0.1900E+02
     -3.364  0.0000E+00  0.0000E+00  0.1900E+02  0.1900E+02
     -3.113  0.0000E+00  0.0000E+00  0.1900E+02  0.1900E+02
     -2.863  0.0000E+00  0.0000E+00  0.1900E+02  0.1900E+02
     -2.612  0.0000E+00  0.0000E+00  0.1900E+02  0.1900E+02
     -2.362  0.0000E+00  0.0000E+00  0.1900E+02  0.1900E+02
     -2.111  0.2555E-06  0.0000E+00  0.1900E+02  0.1900E+02
     -1.861  0.2122E+01  0.0000E+00  0.1953E+02  0.1900E+02
     -1.610  0.2417E+01  0.0000E+00  0.2014E+02  0.1900E+02
     -1.360  0.1767E+01  0.0000E+00  0.2058E+02  0.1900E+02
     -1.109  0.1870E+01  0.0000E+00  0.2105E+02  0.1900E+02
     -0.859  0.6042E+01  0.0000E+00  0.2256E+02  0.1900E+02
     -0.608  0.7130E+01  0.1284E-04  0.2435E+02  0.1900E+02
     -0.358  0.4560E+01  0.1104E+01  0.2549E+02  0.1928E+02
     -0.107  0.9101E+01  0.2055E+01  0.2777E+02  0.1979E+02
      0.143  0.9798E+01  0.1882E+01  0.3022E+02  0.2026E+02
      0.394  0.9101E+01  0.2125E+01  0.3250E+02  0.2079E+02
      0.644  0.8360E+01  0.4605E+01  0.3460E+02  0.2195E+02
      0.895  0.5693E+01  0.4935E+01  0.3602E+02  0.2318E+02
      1.145  0.4505E+01  0.4386E+01  0.3715E+02  0.2428E+02
      1.396  0.4426E+01  0.3294E+01  0.3826E+02  0.2511E+02
      1.646  0.5101E+01  0.3136E+01  0.3954E+02  0.2589E+02
      1.897  0.7584E+01  0.3813E+01  0.4144E+02  0.2685E+02
      2.147  0.8970E+01  0.4212E+01  0.4369E+02  0.2790E+02
      2.398  0.4334E+01  0.3089E+01  0.4477E+02  0.2868E+02
      2.648  0.3876E+01  0.3135E+01  0.4574E+02  0.2946E+02
      2.899  0.5193E+01  0.5281E+01  0.4704E+02  0.3079E+02
      3.149  0.1388E+01  0.5289E+01  0.4739E+02  0.3211E+02
      3.400  0.2678E+01  0.5552E+01  0.4806E+02  0.3350E+02
      3.650  0.3451E+01  0.1400E+01  0.4893E+02  0.3385E+02
      3.901  0.3697E+01  0.1474E+01  0.4985E+02  0.3422E+02
      4.151  0.4291E+01  0.6546E+01  0.5093E+02  0.3586E+02
      4.402  0.4545E+01  0.6644E+01  0.5207E+02  0.3753E+02
      4.652  0.3687E+01  0.1891E+01  0.5299E+02  0.3800E+02
      4.903  0.3260E+01  0.3279E-03  0.5381E+02  0.3800E+02
      5.153  0.7726E+00  0.0000E+00  0.5400E+02  0.3800E+02
      5.404  0.0000E+00  0.0000E+00  0.5400E+02  0.3800E+02
      5.654  0.0000E+00  0.0000E+00  0.5400E+02  0.3800E+02
      5.905  0.0000E+00  0.0000E+00  0.5400E+02  0.3800E+02
      6.155  0.0000E+00  0.9499E-11  0.5400E+02  0.3800E+02
      6.406  0.0000E+00  0.2067E+00  0.5400E+02  0.3805E+02
      6.656  0.0000E+00  0.4569E+00  0.5400E+02  0.3817E+02
      6.907  0.0000E+00  0.1249E+01  0.5400E+02  0.3848E+02
      7.157  0.6028E-10  0.3693E+01  0.5400E+02  0.3940E+02
      7.408  0.2413E-01  0.5686E+01  0.5401E+02  0.4083E+02
      7.658  0.3029E-02  0.7748E+01  0.5401E+02  0.4277E+02
      7.909  0.1044E-01  0.6969E+01  0.5401E+02  0.4452E+02
      8.159  0.1571E+00  0.8639E+01  0.5405E+02  0.4668E+02
      8.410  0.3528E+00  0.9166E+01  0.5414E+02  0.4898E+02
      8.660  0.7847E+00  0.7157E+01  0.5433E+02  0.5077E+02
      8.911  0.1012E+01  0.6630E+01  0.5459E+02  0.5243E+02
      9.161  0.2196E+01  0.4337E+01  0.5514E+02  0.5352E+02
      9.412  0.2172E+01  0.1776E+01  0.5568E+02  0.5396E+02
      9.662  0.1094E+01  0.6711E+00  0.5596E+02  0.5413E+02
      9.913  0.3042E+01  0.1170E+01  0.5672E+02  0.5442E+02
     10.163  0.1809E+01  0.1365E+01  0.5717E+02  0.5476E+02
     10.414  0.2402E+01  0.2366E+01  0.5777E+02  0.5536E+02
     10.664  0.2072E+01  0.3302E+01  0.5829E+02  0.5618E+02
     10.915  0.1470E+01  0.1770E+01  0.5866E+02  0.5663E+02
     11.165  0.2536E+01  0.3432E+01  0.5929E+02  0.5749E+02
     11.416  0.3093E+01  0.2436E+01  0.6007E+02  0.5810E+02
     11.666  0.3745E+01  0.2426E+01  0.6101E+02  0.5870E+02
     11.917  0.3110E+01  0.1375E+01  0.6179E+02  0.5905E+02
     12.167  0.3343E+01  0.2001E+01  0.6262E+02  0.5955E+02
     12.418  0.2093E+01  0.4890E+01  0.6315E+02  0.6078E+02
     12.668  0.3717E+01  0.4500E+01  0.6408E+02  0.6190E+02
     12.919  0.3048E+01  0.2386E+01  0.6484E+02  0.6250E+02
     13.169  0.2293E+01  0.3159E+01  0.6542E+02  0.6329E+02
     13.420  0.2999E+01  0.3280E+01  0.6617E+02  0.6411E+02
     13.670  0.3511E+01  0.2928E+01  0.6705E+02  0.6485E+02
     13.921  0.2255E+01  0.3453E+01  0.6761E+02  0.6571E+02
     14.171  0.1598E+01  0.3130E+01  0.6801E+02  0.6650E+02
     14.422  0.2368E+01  0.2053E+01  0.6861E+02  0.6701E+02
     14.672  0.1880E+01  0.2421E+01  0.6908E+02  0.6762E+02
     14.923  0.1384E+01  0.1784E+01  0.6942E+02  0.6806E+02
     15.173  0.1275E+01  0.2524E+01  0.6974E+02  0.6870E+02
     15.424  0.1901E+01  0.2302E+01  0.7022E+02  0.6927E+02
     15.674  0.2321E+01  0.1398E+01  0.7080E+02  0.6962E+02
     15.925  0.1078E+01  0.1218E+01  0.7107E+02  0.6993E+02
     16.175  0.1380E+01  0.1241E+01  0.7142E+02  0.7024E+02
     16.426  0.1952E+01  0.2521E+01  0.7191E+02  0.7087E+02
     16.676  0.3784E+00  0.1057E+01  0.7200E+02  0.7114E+02
     16.927  0.6299E-03  0.1483E+01  0.7200E+02  0.7151E+02
     17.177  0.0000E+00  0.1475E+01  0.7200E+02  0.7188E+02
     17.428  0.0000E+00  0.4950E+00  0.7200E+02  0.7200E+02
     17.678  0.0000E+00  0.0000E+00  0.7200E+02  0.7200E+02
     17.929  0.0000E+00  0.0000E+00  0.7200E+02  0.7200E+02
     18.179  0.0000E+00  0.0000E+00  0.7200E+02  0.7200E+02
     18.430  0.0000E+00  0.0000E+00  0.7200E+02  0.7200E+02
     18.680  0.0000E+00  0.0000E+00  0.7200E+02  0.7200E+02
     18.931  0.0000E+00  0.0000E+00  0.7200E+02  0.7200E+02
     19.181  0.0000E+00  0.0000E+00  0.7200E+02  0.7200E+02
     19.432  0.0000E+00  0.0000E+00  0.7200E+02  0.7200E+02
     19.682  0.0000E+00  0.0000E+00  0.7200E+02  0.7200E+02
     19.933  0.0000E+00  0.0000E+00  0.7200E+02  0.7200E+02
     20.183  0.0000E+00  0.0000E+00  0.7200E+02  0.7200E+02
     20.434  0.0000E+00  0.0000E+00  0.7200E+02  0.7200E+02
     20.684  0.0000E+00  0.0000E+00  0.7200E+02  0.7200E+02
