   11   11    1    2
  0.1430410E+02  0.3925825E-09  0.3925825E-09  0.1058004E-08  0.5000000E-15
  1.000000000000000E-004
  CAR 
 unknown system                          
     92     74     72
 
  0.0000000E+00  0.0000000E+00  0.0000000E+00  0.6802721E-02
    1      -51.048633    -46.294696   1.000000   1.000000
    2      -51.046352    -46.291617   1.000000   1.000000
    3      -51.037168    -46.263430   1.000000   1.000000
    4      -51.037129    -46.263390   1.000000   1.000000
    5      -49.688831    -45.929212   1.000000   1.000000
    6      -49.688792    -45.929180   1.000000   1.000000
    7      -49.590164    -45.855507   1.000000   1.000000
    8      -49.588350    -45.855284   1.000000   1.000000
    9      -49.559224    -45.843204   1.000000   1.000000
   10      -49.557533    -45.842883   1.000000   1.000000
   11      -49.548681    -45.841658   1.000000   1.000000
   12      -49.548312    -45.841451   1.000000   1.000000
   13      -39.863451    -39.861418   1.000000   1.000000
   14      -39.863295    -39.861262   1.000000   1.000000
   15      -13.225897    -12.820213   1.000000   1.000000
   16      -13.198715    -12.790830   1.000000   1.000000
   17       -7.614739     -7.362387   1.000000   1.000000
   18       -7.411498     -7.202908   1.000000   1.000000
   19       -6.984453     -6.669823   1.000000   1.000000
   20       -1.280831      0.602014   1.000000   1.000000
   21       -0.946929      0.865507   1.000000   1.000000
   22       -0.938481      0.866605   1.000000   1.000000
   23       -0.931139      1.002215   1.000000   1.000000
   24       -0.257915      1.042075   1.000000   1.000000
   25       -0.242676      1.300492   1.000000   1.000000
   26       -0.220396      1.305969   1.000000   1.000000
   27       -0.059502      1.419601   1.000000   1.000000
   28        0.158281      2.980026   1.000000   1.000000
   29        0.163860      3.040089   1.000000   1.000000
   30        0.165529      3.111164   1.000000   1.000000
   31        0.192293      3.385956   1.000000   1.000000
   32        0.380088      3.465729   1.000000   1.000000
   33        0.383123      3.541090   1.000000   1.000000
   34        0.614769      3.724840   1.000000   1.000000
   35        0.793155      3.737106   1.000000   1.000000
   36        0.979289      4.167778   1.000000   1.000000
   37        1.263870      4.223551   1.000000   1.000000
   38        1.464168      4.531311   1.000000   1.000000
   39        1.475451      6.432753   1.000000   0.000000
   40        1.547451      7.297004   1.000000   0.000000
   41        1.678768      7.311867   1.000000   0.000000
   42        1.839482      7.425676   1.000000   0.000000
   43        1.875989      7.447006   1.000000   0.000000
   44        1.886654      7.514479   1.000000   0.000000
   45        2.499637      7.630361   1.000000   0.000000
   46        2.565292      7.898773   1.000000   0.000000
   47        3.170155      8.034648   1.000000   0.000000
   48        3.393146      8.037067   1.000000   0.000000
   49        3.401919      8.080732   1.000000   0.000000
   50        4.106304      8.327712   1.000000   0.000000
   51        4.116908      8.335087   1.000000   0.000000
   52        4.122136      8.355839   1.000000   0.000000
   53        4.433670      8.806569   1.000000   0.000000
   54        4.434302      9.042552   1.000000   0.000000
   55        7.364566      9.048687   0.000000   0.000000
   56        8.430353      9.948637   0.000000   0.000000
   57        9.873248     10.443485   0.000000   0.000000
   58        9.878695     10.742869   0.000000   0.000000
   59       10.488809     11.245817   0.000000   0.000000
   60       11.051234     11.670186   0.000000   0.000000
   61       11.448103     12.375731   0.000000   0.000000
   62       11.803193     12.396344   0.000000   0.000000
   63       11.832863     12.453713   0.000000   0.000000
   64       12.265610     12.663387   0.000000   0.000000
   65       14.209321     14.724812   0.000000   0.000000
   66       14.363118     15.146267   0.000000   0.000000
   67       14.379381     15.167322   0.000000   0.000000
   68       14.642484     15.412506   0.000000   0.000000
   69       14.670161     15.424255   0.000000   0.000000
   70       15.602809     15.886200   0.000000   0.000000
   71       15.975994     16.885432   0.000000   0.000000
   72       16.118699     16.942939   0.000000   0.000000
 
  0.1428571E+00  0.2710505E-19 -0.4163336E-16  0.1360544E-01
    1      -51.048853    -46.294748   1.000000   1.000000
    2      -51.046764    -46.291957   1.000000   1.000000
    3      -51.037163    -46.263460   1.000000   1.000000
    4      -51.036799    -46.263417   1.000000   1.000000
    5      -49.689011    -45.929467   1.000000   1.000000
    6      -49.688775    -45.929155   1.000000   1.000000
    7      -49.590150    -45.855682   1.000000   1.000000
    8      -49.588489    -45.855256   1.000000   1.000000
    9      -49.559223    -45.845129   1.000000   1.000000
   10      -49.558145    -45.842991   1.000000   1.000000
   11      -49.548563    -45.841496   1.000000   1.000000
   12      -49.547956    -45.839803   1.000000   1.000000
   13      -39.863327    -39.861281   1.000000   1.000000
   14      -39.863130    -39.861090   1.000000   1.000000
   15      -13.220631    -12.814541   1.000000   1.000000
   16      -13.162350    -12.765610   1.000000   1.000000
   17       -7.550133     -7.303818   1.000000   1.000000
   18       -7.362430     -7.149144   1.000000   1.000000
   19       -6.950562     -6.647155   1.000000   1.000000
   20       -1.422784      0.316856   1.000000   1.000000
   21       -1.163896      0.745806   1.000000   1.000000
   22       -0.925871      0.861438   1.000000   1.000000
   23       -0.719634      0.920895   1.000000   1.000000
   24       -0.402478      1.022278   1.000000   1.000000
   25       -0.380744      1.313897   1.000000   1.000000
   26       -0.242720      1.373832   1.000000   1.000000
   27        0.000046      1.608836   1.000000   1.000000
   28        0.029225      2.635439   1.000000   1.000000
   29        0.136627      2.866538   1.000000   1.000000
   30        0.207764      3.045239   1.000000   1.000000
   31        0.255629      3.201296   1.000000   1.000000
   32        0.321885      3.334411   1.000000   1.000000
   33        0.364024      3.481433   1.000000   1.000000
   34        0.592411      3.777186   1.000000   1.000000
   35        0.704039      3.848780   1.000000   1.000000
   36        0.797567      3.963196   1.000000   1.000000
   37        1.144855      4.089000   1.000000   1.000000
   38        1.333725      4.515623   1.000000   1.000000
   39        1.498708      6.936036   1.000000   0.000000
   40        1.682152      7.311759   1.000000   0.000000
   41        1.708928      7.331770   1.000000   0.000000
   42        1.771389      7.416187   1.000000   0.000000
   43        1.966188      7.579947   1.000000   0.000000
   44        2.069904      7.650200   1.000000   0.000000
   45        2.344415      7.824451   1.000000   0.000000
   46        2.490178      7.958761   1.000000   0.000000
   47        2.695836      7.975641   1.000000   0.000000
   48        3.601749      8.110379   1.000000   0.000000
   49        3.699840      8.236231   1.000000   0.000000
   50        4.042467      8.329022   1.000000   0.000000
   51        4.177419      8.357068   1.000000   0.000000
   52        4.282715      8.515476   1.000000   0.000000
   53        4.411376      8.843963   1.000000   0.000000
   54        4.494118      9.063016   1.000000   0.000000
   55        7.994982      9.247344   0.000000   0.000000
   56        8.714747     10.032013   0.000000   0.000000
   57        9.780501     10.538741   0.000000   0.000000
   58       10.038678     10.937443   0.000000   0.000000
   59       10.755626     11.472465   0.000000   0.000000
   60       11.103207     11.606828   0.000000   0.000000
   61       11.610221     12.232061   0.000000   0.000000
   62       11.720121     12.401346   0.000000   0.000000
   63       11.815101     12.549850   0.000000   0.000000
   64       12.595575     13.107597   0.000000   0.000000
   65       13.247848     13.764338   0.000000   0.000000
   66       13.780901     14.617406   0.000000   0.000000
   67       13.852595     14.704820   0.000000   0.000000
   68       14.030889     15.023839   0.000000   0.000000
   69       14.906933     15.648341   0.000000   0.000000
   70       15.299365     15.993440   0.000000   0.000000
   71       15.402083     16.289789   0.000000   0.000000
   72       15.729997     16.332837   0.000000   0.000000
 
  0.2857143E+00  0.2168404E-18 -0.5551115E-16  0.1360544E-01
    1      -51.049606    -46.294940   1.000000   1.000000
    2      -51.047281    -46.292632   1.000000   1.000000
    3      -51.037137    -46.263620   1.000000   1.000000
    4      -51.036175    -46.263380   1.000000   1.000000
    5      -49.689416    -45.930053   1.000000   1.000000
    6      -49.688725    -45.929086   1.000000   1.000000
    7      -49.590104    -45.856087   1.000000   1.000000
    8      -49.588804    -45.855177   1.000000   1.000000
    9      -49.559387    -45.847406   1.000000   1.000000
   10      -49.559172    -45.842962   1.000000   1.000000
   11      -49.548490    -45.841486   1.000000   1.000000
   12      -49.547105    -45.838046   1.000000   1.000000
   13      -39.863082    -39.861002   1.000000   1.000000
   14      -39.862666    -39.860612   1.000000   1.000000
   15      -13.230919    -12.822749   1.000000   1.000000
   16      -13.055313    -12.686167   1.000000   1.000000
   17       -7.414136     -7.181979   1.000000   1.000000
   18       -7.217237     -6.991461   1.000000   1.000000
   19       -6.884817     -6.610526   1.000000   1.000000
   20       -1.752061     -0.152986   1.000000   1.000000
   21       -1.191370      0.431638   1.000000   1.000000
   22       -0.895011      0.634244   1.000000   1.000000
   23       -0.784508      0.786286   1.000000   1.000000
   24       -0.630880      1.034504   1.000000   1.000000
   25       -0.578654      1.341146   1.000000   1.000000
   26       -0.317400      1.488868   1.000000   1.000000
   27       -0.127157      1.814834   1.000000   1.000000
   28       -0.087295      2.121741   1.000000   1.000000
   29       -0.061406      2.466506   1.000000   1.000000
   30        0.074411      2.832187   1.000000   1.000000
   31        0.177481      3.052203   1.000000   1.000000
   32        0.299433      3.282251   1.000000   1.000000
   33        0.360771      3.353382   1.000000   1.000000
   34        0.470190      3.692091   1.000000   1.000000
   35        0.531641      3.851436   1.000000   1.000000
   36        0.640463      4.024157   1.000000   1.000000
   37        1.033201      4.113001   1.000000   1.000000
   38        1.275190      4.440882   1.000000   1.000000
   39        1.360508      7.200963   1.000000   0.000000
   40        1.709538      7.323507   1.000000   0.000000
   41        1.793916      7.525545   1.000000   0.000000
   42        2.017369      7.564336   1.000000   0.000000
   43        2.027974      7.705988   1.000000   0.000000
   44        2.094902      7.757866   1.000000   0.000000
   45        2.291750      7.908762   1.000000   0.000000
   46        2.470123      8.097041   1.000000   0.000000
   47        2.804923      8.105466   1.000000   0.000000
   48        3.341753      8.183569   1.000000   0.000000
   49        3.987364      8.234768   1.000000   0.000000
   50        4.026038      8.509349   1.000000   0.000000
   51        4.242689      8.644439   1.000000   0.000000
   52        4.473543      8.873735   1.000000   0.000000
   53        4.731757      8.938827   1.000000   0.000000
   54        4.808155      9.143404   1.000000   0.000000
   55        8.956825      9.814669   0.000000   0.000000
   56        9.078400     10.143833   0.000000   0.000000
   57        9.461915     10.473375   0.000000   0.000000
   58        9.845097     10.690462   0.000000   0.000000
   59       10.928507     11.593867   0.000000   0.000000
   60       11.463417     12.174387   0.000000   0.000000
   61       11.540529     12.350653   0.000000   0.000000
   62       12.129102     12.651746   0.000000   0.000000
   63       12.479035     13.065295   0.000000   0.000000
   64       12.534332     13.259755   0.000000   0.000000
   65       12.658946     13.543186   0.000000   0.000000
   66       12.989871     13.699906   0.000000   0.000000
   67       13.045140     13.830718   0.000000   0.000000
   68       13.767041     14.468214   0.000000   0.000000
   69       14.251436     14.920745   0.000000   0.000000
   70       14.500953     15.404132   0.000000   0.000000
   71       15.112949     15.877853   0.000000   0.000000
   72       15.898509     16.565617   0.000000   0.000000
 
  0.4285714E+00  0.4336809E-18 -0.2775558E-16  0.1360544E-01
    1      -51.050372    -46.295229   1.000000   1.000000
    2      -51.047446    -46.293041   1.000000   1.000000
    3      -51.037118    -46.263740   1.000000   1.000000
    4      -51.035757    -46.263352   1.000000   1.000000
    5      -49.689739    -45.930521   1.000000   1.000000
    6      -49.688689    -45.929033   1.000000   1.000000
    7      -49.590069    -45.856408   1.000000   1.000000
    8      -49.589050    -45.855114   1.000000   1.000000
    9      -49.560221    -45.848764   1.000000   1.000000
   10      -49.559178    -45.842938   1.000000   1.000000
   11      -49.548452    -45.841478   1.000000   1.000000
   12      -49.546511    -45.837112   1.000000   1.000000
   13      -39.862892    -39.860786   1.000000   1.000000
   14      -39.862280    -39.860216   1.000000   1.000000
   15      -13.240700    -12.831481   1.000000   1.000000
   16      -12.964505    -12.618406   1.000000   1.000000
   17       -7.323681     -7.094831   1.000000   1.000000
   18       -7.019141     -6.788865   1.000000   1.000000
   19       -6.878242     -6.632534   1.000000   1.000000
   20       -1.939318     -0.445830   1.000000   1.000000
   21       -1.201351      0.102723   1.000000   1.000000
   22       -1.049160      0.316094   1.000000   1.000000
   23       -0.869007      0.728230   1.000000   1.000000
   24       -0.791811      1.141873   1.000000   1.000000
   25       -0.676312      1.252248   1.000000   1.000000
   26       -0.513232      1.366925   1.000000   1.000000
   27       -0.363011      1.776883   1.000000   1.000000
   28       -0.278993      2.047655   1.000000   1.000000
   29       -0.171987      2.467524   1.000000   1.000000
   30       -0.009242      2.816202   1.000000   1.000000
   31        0.113550      3.032805   1.000000   1.000000
   32        0.205625      3.199831   1.000000   1.000000
   33        0.364767      3.280099   1.000000   1.000000
   34        0.498604      3.455032   1.000000   1.000000
   35        0.599675      3.983018   1.000000   1.000000
   36        0.620298      4.153305   1.000000   1.000000
   37        0.890563      4.202890   1.000000   1.000000
   38        1.040362      4.273894   1.000000   1.000000
   39        1.463944      7.112276   1.000000   0.000000
   40        1.789213      7.456963   1.000000   0.000000
   41        1.842841      7.579597   1.000000   0.000000
   42        1.998409      7.633152   1.000000   0.000000
   43        2.110830      7.759095   1.000000   0.000000
   44        2.153319      7.796076   1.000000   0.000000
   45        2.508011      7.946535   1.000000   0.000000
   46        2.673502      8.062162   1.000000   0.000000
   47        2.710664      8.181796   1.000000   0.000000
   48        3.391944      8.320033   1.000000   0.000000
   49        3.972621      8.333786   1.000000   0.000000
   50        4.025342      8.518941   1.000000   0.000000
   51        4.633619      8.821569   1.000000   0.000000
   52        4.647943      8.966029   1.000000   0.000000
   53        4.856499      9.376574   1.000000   0.000000
   54        4.901559      9.490310   1.000000   0.000000
   55        8.669654      9.698814   0.000000   0.000000
   56        9.342699     10.060988   0.000000   0.000000
   57        9.724166     10.576302   0.000000   0.000000
   58       10.238106     11.164652   0.000000   0.000000
   59       10.587732     11.373443   0.000000   0.000000
   60       11.134495     11.897537   0.000000   0.000000
   61       11.266468     12.113332   0.000000   0.000000
   62       11.604889     12.416458   0.000000   0.000000
   63       11.999412     12.605036   0.000000   0.000000
   64       12.318006     13.179709   0.000000   0.000000
   65       12.679262     13.436664   0.000000   0.000000
   66       13.378063     14.058035   0.000000   0.000000
   67       13.643594     14.127747   0.000000   0.000000
   68       13.704787     14.483014   0.000000   0.000000
   69       14.217486     15.059786   0.000000   0.000000
   70       14.430122     15.134252   0.000000   0.000000
   71       15.547249     16.355211   0.000000   0.000000
   72       16.076093     16.821811   0.000000   0.000000
 
  0.0000000E+00  0.1428571E+00 -0.2775558E-16  0.1360544E-01
    1      -51.048858    -46.294747   1.000000   1.000000
    2      -51.046761    -46.291959   1.000000   1.000000
    3      -51.037124    -46.263499   1.000000   1.000000
    4      -51.036837    -46.263377   1.000000   1.000000
    5      -49.688972    -45.929435   1.000000   1.000000
    6      -49.688814    -45.929187   1.000000   1.000000
    7      -49.590303    -45.855511   1.000000   1.000000
    8      -49.588336    -45.855427   1.000000   1.000000
    9      -49.559774    -45.845033   1.000000   1.000000
   10      -49.557530    -45.843057   1.000000   1.000000
   11      -49.548522    -45.841631   1.000000   1.000000
   12      -49.548061    -45.839699   1.000000   1.000000
   13      -39.863306    -39.861260   1.000000   1.000000
   14      -39.863151    -39.861110   1.000000   1.000000
   15      -13.220631    -12.814540   1.000000   1.000000
   16      -13.162349    -12.765611   1.000000   1.000000
   17       -7.550135     -7.303819   1.000000   1.000000
   18       -7.362430     -7.149145   1.000000   1.000000
   19       -6.950565     -6.647157   1.000000   1.000000
   20       -1.422830      0.316857   1.000000   1.000000
   21       -1.163949      0.745817   1.000000   1.000000
   22       -0.925712      0.861471   1.000000   1.000000
   23       -0.719683      0.920917   1.000000   1.000000
   24       -0.402710      1.022295   1.000000   1.000000
   25       -0.380497      1.313918   1.000000   1.000000
   26       -0.242807      1.373833   1.000000   1.000000
   27       -0.000093      1.608809   1.000000   1.000000
   28        0.029210      2.634984   1.000000   1.000000
   29        0.136726      2.866501   1.000000   1.000000
   30        0.207709      3.045233   1.000000   1.000000
   31        0.255851      3.200584   1.000000   1.000000
   32        0.321795      3.334390   1.000000   1.000000
   33        0.364308      3.481500   1.000000   1.000000
   34        0.592453      3.777342   1.000000   1.000000
   35        0.704122      3.849380   1.000000   1.000000
   36        0.797645      3.963699   1.000000   1.000000
   37        1.144772      4.089286   1.000000   1.000000
   38        1.333324      4.515582   1.000000   1.000000
   39        1.498917      6.935713   1.000000   0.000000
   40        1.681905      7.311709   1.000000   0.000000
   41        1.709061      7.331525   1.000000   0.000000
   42        1.771509      7.416373   1.000000   0.000000
   43        1.966244      7.579888   1.000000   0.000000
   44        2.069772      7.650103   1.000000   0.000000
   45        2.344165      7.824431   1.000000   0.000000
   46        2.490042      7.958662   1.000000   0.000000
   47        2.695913      7.975728   1.000000   0.000000
   48        3.601753      8.110428   1.000000   0.000000
   49        3.699913      8.235984   1.000000   0.000000
   50        4.042518      8.329235   1.000000   0.000000
   51        4.177385      8.357072   1.000000   0.000000
   52        4.282800      8.515469   1.000000   0.000000
   53        4.411492      8.843953   1.000000   0.000000
   54        4.494092      9.063004   1.000000   0.000000
   55        7.994950      9.247335   0.000000   0.000000
   56        8.714625     10.032221   0.000000   0.000000
   57        9.780495     10.538790   0.000000   0.000000
   58       10.038608     10.937535   0.000000   0.000000
   59       10.755620     11.472441   0.000000   0.000000
   60       11.103215     11.606844   0.000000   0.000000
   61       11.610249     12.232210   0.000000   0.000000
   62       11.720164     12.401337   0.000000   0.000000
   63       11.815140     12.549617   0.000000   0.000000
   64       12.595607     13.107571   0.000000   0.000000
   65       13.247843     13.764327   0.000000   0.000000
   66       13.780852     14.617392   0.000000   0.000000
   67       13.852746     14.704814   0.000000   0.000000
   68       14.031109     15.023828   0.000000   0.000000
   69       14.906975     15.648340   0.000000   0.000000
   70       15.299175     15.993418   0.000000   0.000000
   71       15.402087     16.289739   0.000000   0.000000
   72       15.729906     16.332818   0.000000   0.000000
 
  0.1428571E+00  0.1428571E+00 -0.2775558E-16  0.1360544E-01
    1      -51.048992    -46.294780   1.000000   1.000000
    2      -51.047237    -46.292306   1.000000   1.000000
    3      -51.036862    -46.263491   1.000000   1.000000
    4      -51.036750    -46.263429   1.000000   1.000000
    5      -49.688991    -45.929450   1.000000   1.000000
    6      -49.688941    -45.929388   1.000000   1.000000
    7      -49.590305    -45.855817   1.000000   1.000000
    8      -49.588448    -45.855264   1.000000   1.000000
    9      -49.559803    -45.845270   1.000000   1.000000
   10      -49.558095    -45.844860   1.000000   1.000000
   11      -49.548201    -45.839925   1.000000   1.000000
   12      -49.547896    -45.839559   1.000000   1.000000
   13      -39.863132    -39.861081   1.000000   1.000000
   14      -39.863008    -39.860958   1.000000   1.000000
   15      -13.182066    -12.787072   1.000000   1.000000
   16      -13.160055    -12.763220   1.000000   1.000000
   17       -7.487513     -7.246244   1.000000   1.000000
   18       -7.318447     -7.097832   1.000000   1.000000
   19       -6.915870     -6.620541   1.000000   1.000000
   20       -1.441964      0.251196   1.000000   1.000000
   21       -1.373284      0.576868   1.000000   1.000000
   22       -0.916396      0.734947   1.000000   1.000000
   23       -0.629876      0.882220   1.000000   1.000000
   24       -0.539319      1.006685   1.000000   1.000000
   25       -0.422415      1.189444   1.000000   1.000000
   26       -0.276609      1.616585   1.000000   1.000000
   27       -0.091315      1.806717   1.000000   1.000000
   28        0.063276      2.534046   1.000000   1.000000
   29        0.100097      2.674035   1.000000   1.000000
   30        0.132004      2.769350   1.000000   1.000000
   31        0.236410      2.965094   1.000000   1.000000
   32        0.353296      3.202912   1.000000   1.000000
   33        0.374597      3.345624   1.000000   1.000000
   34        0.609125      3.525364   1.000000   1.000000
   35        0.670548      3.903530   1.000000   1.000000
   36        0.820651      3.960333   1.000000   1.000000
   37        1.119901      4.352931   1.000000   1.000000
   38        1.212001      4.541544   1.000000   1.000000
   39        1.437595      7.042762   1.000000   0.000000
   40        1.561129      7.205816   1.000000   0.000000
   41        1.721427      7.385067   1.000000   0.000000
   42        1.845097      7.467059   1.000000   0.000000
   43        1.922913      7.528721   1.000000   0.000000
   44        2.097761      7.721999   1.000000   0.000000
   45        2.292221      7.842828   1.000000   0.000000
   46        2.657431      7.985343   1.000000   0.000000
   47        2.788559      8.073784   1.000000   0.000000
   48        3.356188      8.153292   1.000000   0.000000
   49        3.578891      8.271660   1.000000   0.000000
   50        3.955920      8.348814   1.000000   0.000000
   51        4.016052      8.512680   1.000000   0.000000
   52        4.187118      8.658679   1.000000   0.000000
   53        4.644917      8.880728   1.000000   0.000000
   54        4.728454      9.069483   1.000000   0.000000
   55        8.511199      9.632389   0.000000   0.000000
   56        9.125489     10.258498   0.000000   0.000000
   57        9.799088     10.889843   0.000000   0.000000
   58       10.423554     11.114321   0.000000   0.000000
   59       10.995222     11.652700   0.000000   0.000000
   60       11.252430     11.704930   0.000000   0.000000
   61       11.372110     12.222232   0.000000   0.000000
   62       11.852459     12.376416   0.000000   0.000000
   63       11.981123     12.570368   0.000000   0.000000
   64       12.225630     12.853527   0.000000   0.000000
   65       12.664701     13.410355   0.000000   0.000000
   66       13.232361     13.997507   0.000000   0.000000
   67       13.284496     14.252207   0.000000   0.000000
   68       13.497382     14.426016   0.000000   0.000000
   69       14.505523     15.279715   0.000000   0.000000
   70       15.062688     15.639192   0.000000   0.000000
   71       15.335075     16.097700   0.000000   0.000000
   72       15.979300     16.751789   0.000000   0.000000
 
  0.2857143E+00  0.1428571E+00 -0.2775558E-16  0.1360544E-01
    1      -51.049613    -46.294935   1.000000   1.000000
    2      -51.047885    -46.293011   1.000000   1.000000
    3      -51.036808    -46.263605   1.000000   1.000000
    4      -51.036158    -46.263430   1.000000   1.000000
    5      -49.689394    -45.930019   1.000000   1.000000
    6      -49.688895    -45.929325   1.000000   1.000000
    7      -49.590346    -45.856327   1.000000   1.000000
    8      -49.588684    -45.855097   1.000000   1.000000
    9      -49.560010    -45.847433   1.000000   1.000000
   10      -49.559078    -45.844964   1.000000   1.000000
   11      -49.548084    -45.839697   1.000000   1.000000
   12      -49.547090    -45.837985   1.000000   1.000000
   13      -39.862898    -39.860824   1.000000   1.000000
   14      -39.862596    -39.860540   1.000000   1.000000
   15      -13.185092    -12.788661   1.000000   1.000000
   16      -13.062217    -12.692933   1.000000   1.000000
   17       -7.358941     -7.126728   1.000000   1.000000
   18       -7.179861     -6.946065   1.000000   1.000000
   19       -6.853460     -6.575349   1.000000   1.000000
   20       -1.740525     -0.124753   1.000000   1.000000
   21       -1.388467      0.421853   1.000000   1.000000
   22       -0.935796      0.613881   1.000000   1.000000
   23       -0.743435      0.700172   1.000000   1.000000
   24       -0.648757      0.940882   1.000000   1.000000
   25       -0.574215      1.228150   1.000000   1.000000
   26       -0.322337      1.666043   1.000000   1.000000
   27       -0.196333      1.896744   1.000000   1.000000
   28       -0.108335      2.071289   1.000000   1.000000
   29       -0.076172      2.319543   1.000000   1.000000
   30        0.047880      2.729513   1.000000   1.000000
   31        0.202319      2.860437   1.000000   1.000000
   32        0.290902      2.977940   1.000000   1.000000
   33        0.429188      3.299049   1.000000   1.000000
   34        0.475705      3.344263   1.000000   1.000000
   35        0.612152      3.949989   1.000000   1.000000
   36        0.672694      4.103482   1.000000   1.000000
   37        1.015932      4.309092   1.000000   1.000000
   38        1.281737      4.458918   1.000000   1.000000
   39        1.409932      7.092175   1.000000   0.000000
   40        1.548769      7.241991   1.000000   0.000000
   41        1.777779      7.407209   1.000000   0.000000
   42        1.860710      7.589256   1.000000   0.000000
   43        2.074618      7.638212   1.000000   0.000000
   44        2.103575      7.703713   1.000000   0.000000
   45        2.262921      7.865770   1.000000   0.000000
   46        2.670811      8.042996   1.000000   0.000000
   47        2.765762      8.098113   1.000000   0.000000
   48        3.388470      8.268627   1.000000   0.000000
   49        3.606580      8.302329   1.000000   0.000000
   50        3.835623      8.558732   1.000000   0.000000
   51        4.022597      8.644775   1.000000   0.000000
   52        4.291751      8.770949   1.000000   0.000000
   53        4.647515      8.918491   1.000000   0.000000
   54        4.926672      9.213315   1.000000   0.000000
   55        9.236045     10.377293   0.000000   0.000000
   56        9.574826     10.600291   0.000000   0.000000
   57        9.862658     11.004316   0.000000   0.000000
   58       10.314139     11.049367   0.000000   0.000000
   59       10.832939     11.465289   0.000000   0.000000
   60       11.363970     12.107806   0.000000   0.000000
   61       11.490660     12.294866   0.000000   0.000000
   62       11.802074     12.641652   0.000000   0.000000
   63       12.172188     12.902328   0.000000   0.000000
   64       12.437185     12.969409   0.000000   0.000000
   65       12.536393     13.141104   0.000000   0.000000
   66       12.736496     13.430514   0.000000   0.000000
   67       12.961140     13.739429   0.000000   0.000000
   68       13.587691     14.276117   0.000000   0.000000
   69       13.706842     14.546117   0.000000   0.000000
   70       14.573626     15.277855   0.000000   0.000000
   71       15.488007     16.223129   0.000000   0.000000
   72       16.164244     16.902647   0.000000   0.000000
 
  0.4285714E+00  0.1428571E+00 -0.5551115E-16  0.1360544E-01
    1      -51.050363    -46.295211   1.000000   1.000000