<?xml version="1.0" encoding="ISO-8859-1"?>
<modeling>
 <generator>
  <i name="program" type="string">vasp </i>
  <i name="version" type="string">5.4.4.18Apr17-6-g9f103f2a35  </i>
  <i name="subversion" type="string">(build Oct 25 2017 14:42:18) complex            parallel </i>
  <i name="platform" type="string">LinuxIFC </i>
  <i name="date" type="string">2021 05 28 </i>
  <i name="time" type="string">05:39:30 </i>
 </generator>
 <incar>
  <i type="string" name="PREC">accurate</i>
  <i type="string" name="ALGO"> normal</i>
  <i type="logical" name="ADDGRID"> T  </i>
  <i type="int" name="ISPIN">     2</i>
  <i type="int" name="NELM">   200</i>
  <i type="int" name="NELMIN">     8</i>
  <i name="EDIFF">      0.00000001</i>
  <i type="int" name="ISYM">     0</i>
  <i name="ENCUT">    650.00000000</i>
  <v name="MAGMOM">      0.60000000      0.60000000      0.60000000      0.60000000      0.60000000      0.60000000      0.60000000      5.00000000      5.00000000      5.00000000      5.00000000</v>
  <i type="logical" name="LREAL"> F  </i>
  <i type="int" name="ISMEAR">     0</i>
  <i name="SIGMA">      0.05000000</i>
  <i type="int" name="NWRITE">     1</i>
  <i type="int" name="LMAXMIX">     4</i>
  <i type="logical" name="LWAVE"> F  </i>
  <i type="logical" name="LASPH"> T  </i>
  <v type="int" name="KPOINT_BSE">    -1     0     0     0</v>
  <i type="int" name="NELM">   200</i>
  <i type="string" name="GGA"> pe</i>
  <i type="logical" name="LDAU"> T  </i>
  <v type="int" name="LDAUTYPE">     2</v>
  <v type="int" name="LDAUL">    -1    -1    -1     2</v>
  <v name="LDAUU">      0.00000000      0.00000000      0.00000000      4.00000000</v>
  <v name="LDAUJ">      0.00000000      0.00000000      0.00000000      0.00000000</v>
  <i type="logical" name="LEPSILON"> T  </i>
  <i type="logical" name="LASPH"> T  </i>
 </incar>
 <structure name="primitive_cell" >
  <crystal>
   <varray name="basis" >
    <v>       3.92575658       0.00282957       0.02307772 </v>
    <v>      -0.01009416       3.92574462       0.02307772 </v>
    <v>      -2.02000231      -2.02666320      10.18574622 </v>
   </varray>
   <i name="volume">    157.34505730 </i>
   <varray name="rec_basis" >
    <v>       0.25443068       0.00035717       0.05052889 </v>
    <v>      -0.00048042       0.25443047       0.05052889 </v>
    <v>      -0.00057537      -0.00057727       0.09794744 </v>
   </varray>
  </crystal>
  <varray name="positions" >
   <v>      -0.39325183      -0.27379144      -0.16816581 </v>
   <v>      -0.40796448       0.21066978      -0.19686089 </v>
   <v>       0.19052696      -0.19052696       0.00000000 </v>
   <v>       0.11284172       0.23193920      -0.15457223 </v>
   <v>       0.00761804      -0.38028111      -0.37079665 </v>
   <v>       0.48355180       0.12918178      -0.39352170 </v>
   <v>      -0.23193920      -0.11284172       0.15457223 </v>
   <v>      -0.21066978       0.40796448       0.19686089 </v>
   <v>       0.27379144       0.39325183       0.16816581 </v>
   <v>      -0.12918178      -0.48355180       0.39352170 </v>
   <v>       0.38028111      -0.00761804       0.37079665 </v>
  </varray>
 </structure>
 <varray name="primitive_index" >
  <v type="int" >        1 </v>
  <v type="int" >        4 </v>
  <v type="int" >        7 </v>
  <v type="int" >       10 </v>
  <v type="int" >        5 </v>
  <v type="int" >        9 </v>
  <v type="int" >       11 </v>
  <v type="int" >        3 </v>
  <v type="int" >        2 </v>
  <v type="int" >        8 </v>
  <v type="int" >        6 </v>
 </varray>
 <kpoints>
  <generation param="Gamma">
   <v type="int" name="divisions">       7        7        3 </v>
   <v name="usershift">      0.00000000       0.00000000       0.00000000 </v>
   <v name="genvec1">      0.14285714      -0.00000000       0.00000000 </v>
   <v name="genvec2">      0.00000000       0.14285714      -0.00000000 </v>
   <v name="genvec3">     -0.00000000       0.00000000       0.33333333 </v>
   <v name="shift">      0.00000000       0.00000000       0.00000000 </v>
  </generation>
  <varray name="kpointlist" >
   <v>       0.00000000       0.00000000       0.00000000 </v>
   <v>       0.14285714       0.00000000      -0.00000000 </v>
   <v>       0.28571429       0.00000000      -0.00000000 </v>
   <v>       0.42857143       0.00000000      -0.00000000 </v>
   <v>       0.00000000       0.14285714      -0.00000000 </v>
   <v>       0.14285714       0.14285714      -0.00000000 </v>
   <v>       0.28571429       0.14285714      -0.00000000 </v>
   <v>       0.42857143       0.14285714      -0.00000000 </v>
   <v>      -0.42857143       0.14285714       0.00000000 </v>
   <v>      -0.28571429       0.14285714       0.00000000 </v>
   <v>      -0.14285714       0.14285714       0.00000000 </v>
   <v>       0.00000000       0.28571429      -0.00000000 </v>
   <v>       0.14285714       0.28571429      -0.00000000 </v>
   <v>       0.28571429       0.28571429      -0.00000000 </v>
   <v>       0.42857143       0.28571429       0.00000000 </v>
   <v>      -0.42857143       0.28571429       0.00000000 </v>
   <v>      -0.28571429       0.28571429      -0.00000000 </v>
   <v>      -0.14285714       0.28571429      -0.00000000 </v>
   <v>       0.00000000       0.42857143       0.00000000 </v>
   <v>       0.14285714       0.42857143       0.00000000 </v>
   <v>       0.28571429       0.42857143       0.00000000 </v>
   <v>       0.42857143       0.42857143      -0.00000000 </v>
   <v>      -0.42857143       0.42857143       0.00000000 </v>
   <v>      -0.28571429       0.42857143       0.00000000 </v>
   <v>      -0.14285714       0.42857143       0.00000000 </v>
   <v>      -0.00000000      -0.00000000       0.33333333 </v>
   <v>       0.14285714      -0.00000000       0.33333333 </v>
   <v>       0.28571429       0.00000000       0.33333333 </v>
   <v>       0.42857143       0.00000000       0.33333333 </v>
   <v>      -0.42857143      -0.00000000       0.33333333 </v>
   <v>      -0.28571429      -0.00000000       0.33333333 </v>
   <v>      -0.14285714      -0.00000000       0.33333333 </v>
   <v>      -0.00000000       0.14285714       0.33333333 </v>
   <v>       0.14285714       0.14285714       0.33333333 </v>
   <v>       0.28571429       0.14285714       0.33333333 </v>
   <v>       0.42857143       0.14285714       0.33333333 </v>
   <v>      -0.42857143       0.14285714       0.33333333 </v>
   <v>      -0.28571429       0.14285714       0.33333333 </v>
   <v>      -0.14285714       0.14285714       0.33333333 </v>
   <v>      -0.00000000       0.28571429       0.33333333 </v>
   <v>       0.14285714       0.28571429       0.33333333 </v>
   <v>       0.28571429       0.28571429       0.33333333 </v>
   <v>       0.42857143       0.28571429       0.33333333 </v>
   <v>      -0.42857143       0.28571429       0.33333333 </v>
   <v>      -0.28571429       0.28571429       0.33333333 </v>
   <v>      -0.14285714       0.28571429       0.33333333 </v>
   <v>       0.00000000       0.42857143       0.33333333 </v>
   <v>       0.14285714       0.42857143       0.33333333 </v>
   <v>       0.28571429       0.42857143       0.33333333 </v>
   <v>       0.42857143       0.42857143       0.33333333 </v>
   <v>      -0.42857143       0.42857143       0.33333333 </v>
   <v>      -0.28571429       0.42857143       0.33333333 </v>
   <v>      -0.14285714       0.42857143       0.33333333 </v>
   <v>      -0.00000000      -0.42857143       0.33333333 </v>
   <v>       0.14285714      -0.42857143       0.33333333 </v>
   <v>       0.28571429      -0.42857143       0.33333333 </v>
   <v>       0.42857143      -0.42857143       0.33333333 </v>
   <v>      -0.42857143      -0.42857143       0.33333333 </v>
   <v>      -0.28571429      -0.42857143       0.33333333 </v>
   <v>      -0.14285714      -0.42857143       0.33333333 </v>
   <v>      -0.00000000      -0.28571429       0.33333333 </v>
   <v>       0.14285714      -0.28571429       0.33333333 </v>
   <v>       0.28571429      -0.28571429       0.33333333 </v>
   <v>       0.42857143      -0.28571429       0.33333333 </v>
   <v>      -0.42857143      -0.28571429       0.33333333 </v>
   <v>      -0.28571429      -0.28571429       0.33333333 </v>
   <v>      -0.14285714      -0.28571429       0.33333333 </v>
   <v>      -0.00000000      -0.14285714       0.33333333 </v>
   <v>       0.14285714      -0.14285714       0.33333333 </v>
   <v>       0.28571429      -0.14285714       0.33333333 </v>
   <v>       0.42857143      -0.14285714       0.33333333 </v>
   <v>      -0.42857143      -0.14285714       0.33333333 </v>
   <v>      -0.28571429      -0.14285714       0.33333333 </v>
   <v>      -0.14285714      -0.14285714       0.33333333 </v>
  </varray>
  <varray name="weights" >
   <v>       0.00680272 </v>
   <v>       0.01360544 </v>
   <v>       0.01360544 </v>
   <v>       0.01360544 </v>
   <v>       0.01360544 </v>
   <v>       0.01360544 </v>
   <v>       0.01360544 </v>
   <v>       0.01360544 </v>
   <v>       0.01360544 </v>
   <v>       0.01360544 </v>
   <v>       0.01360544 </v>
   <v>       0.01360544 </v>
   <v>       0.01360544 </v>
   <v>       0.01360544 </v>
   <v>       0.01360544 </v>
   <v>       0.01360544 </v>
   <v>       0.01360544 </v>
   <v>       0.01360544 </v>
   <v>       0.01360544 </v>
   <v>       0.01360544 </v>
   <v>       0.01360544 </v>
   <v>       0.01360544 </v>
   <v>       0.01360544 </v>
   <v>       0.01360544 </v>
   <v>       0.01360544 </v>
   <v>       0.01360544 </v>
   <v>       0.01360544 </v>
   <v>       0.01360544 </v>
   <v>       0.01360544 </v>
   <v>       0.01360544 </v>
   <v>       0.01360544 </v>
   <v>       0.01360544 </v>
   <v>       0.01360544 </v>
   <v>       0.01360544 </v>
   <v>       0.01360544 </v>
   <v>       0.01360544 </v>
   <v>       0.01360544 </v>
   <v>       0.01360544 </v>
   <v>       0.01360544 </v>
   <v>       0.01360544 </v>
   <v>       0.01360544 </v>
   <v>       0.01360544 </v>
   <v>       0.01360544 </v>
   <v>       0.01360544 </v>
   <v>       0.01360544 </v>
   <v>       0.01360544 </v>
   <v>       0.01360544 </v>
   <v>       0.01360544 </v>
   <v>       0.01360544 </v>
   <v>       0.01360544 </v>
   <v>       0.01360544 </v>
   <v>       0.01360544 </v>
   <v>       0.01360544 </v>
   <v>       0.01360544 </v>
   <v>       0.01360544 </v>
   <v>       0.01360544 </v>
   <v>       0.01360544 </v>
   <v>       0.01360544 </v>
   <v>       0.01360544 </v>
   <v>       0.01360544 </v>
   <v>       0.01360544 </v>
   <v>       0.01360544 </v>
   <v>       0.01360544 </v>
   <v>       0.01360544 </v>
   <v>       0.01360544 </v>
   <v>       0.01360544 </v>
   <v>       0.01360544 </v>
   <v>       0.01360544 </v>
   <v>       0.01360544 </v>
   <v>       0.01360544 </v>
   <v>       0.01360544 </v>
   <v>       0.01360544 </v>
   <v>       0.01360544 </v>
   <v>       0.01360544 </v>
  </varray>
 </kpoints>
 <parameters>
  <separator name="general" >
   <i type="string" name="SYSTEM">unknown system</i>
   <i type="logical" name="LCOMPAT"> F  </i>
  </separator>
  <separator name="electronic" >
   <i type="string" name="PREC">accura</i>
   <i name="ENMAX">    650.00000000</i>
   <i name="ENAUG">    628.94500000</i>
   <i name="EDIFF">      0.00000001</i>
   <i type="int" name="IALGO">    38</i>
   <i type="int" name="IWAVPR">    10</i>
   <i type="int" name="NBANDS">    72</i>
   <i name="NELECT">     92.00000000</i>
   <i type="int" name="TURBO">     0</i>
   <i type="int" name="IRESTART">     0</i>
   <i type="int" name="NREBOOT">     0</i>
   <i type="int" name="NMIN">     0</i>
   <i name="EREF">      0.00000000</i>
   <separator name="electronic smearing" >
    <i type="int" name="ISMEAR">     0</i>
    <i name="SIGMA">      0.05000000</i>
    <i name="KSPACING">      0.50000000</i>
    <i type="logical" name="KGAMMA"> T  </i>
   </separator>
   <separator name="electronic projectors" >
    <i type="logical" name="LREAL"> F  </i>
    <v name="ROPT">      0.00000000      0.00000000      0.00000000      0.00000000</v>
    <i type="int" name="LMAXPAW">  -100</i>
    <i type="int" name="LMAXMIX">     4</i>
    <i type="logical" name="NLSPLINE"> F  </i>
   </separator>
   <separator name="electronic startup" >
    <i type="int" name="ISTART">     0</i>
    <i type="int" name="ICHARG">     2</i>
    <i type="int" name="INIWAV">     1</i>
   </separator>
   <separator name="electronic spin" >
    <i type="int" name="ISPIN">     2</i>
    <i type="logical" name="LNONCOLLINEAR"> F  </i>
    <v name="MAGMOM">      0.60000000      0.60000000      0.60000000      0.60000000      0.60000000      0.60000000      0.60000000      5.00000000      5.00000000      5.00000000      5.00000000</v>
    <i name="NUPDOWN">     -1.00000000</i>
    <i type="logical" name="LSORBIT"> F  </i>
    <v name="SAXIS">      0.00000000      0.00000000      1.00000000</v>
    <i type="logical" name="LSPIRAL"> F  </i>
    <v name="QSPIRAL">      0.00000000      0.00000000      0.00000000</v>
    <i type="logical" name="LZEROZ"> F  </i>
   </separator>
   <separator name="electronic exchange-correlation" >
    <i type="logical" name="LASPH"> T  </i>
    <i type="logical" name="LMETAGGA"> F  </i>
   </separator>
   <separator name="electronic convergence" >
    <i type="int" name="NELM">   200</i>
    <i type="int" name="NELMDL">    -5</i>
    <i type="int" name="NELMIN">     8</i>
    <i name="ENINI">    650.00000000</i>
    <separator name="electronic convergence detail" >
     <i type="logical" name="LDIAG"> T  </i>
     <i type="logical" name="LSUBROT"> F  </i>
     <i name="WEIMIN">      0.00000000</i>
     <i name="EBREAK">      0.00000000</i>
     <i name="DEPER">      0.30000000</i>
     <i type="int" name="NRMM">     4</i>
     <i name="TIME">      0.40000000</i>
    </separator>
   </separator>
   <separator name="electronic mixer" >
    <i name="AMIX">      0.40000000</i>
    <i name="BMIX">      1.00000000</i>
    <i name="AMIN">      0.10000000</i>
    <i name="AMIX_MAG">      1.60000000</i>
    <i name="BMIX_MAG">      1.00000000</i>
    <separator name="electronic mixer details" >
     <i type="int" name="IMIX">     4</i>
     <i type="logical" name="MIXFIRST"> F  </i>
     <i type="int" name="MAXMIX">   -45</i>
     <i name="WC">    100.00000000</i>
     <i type="int" name="INIMIX">     1</i>
     <i type="int" name="MIXPRE">     1</i>
     <i type="int" name="MREMOVE">     5</i>
    </separator>
   </separator>
   <separator name="electronic dipolcorrection" >
    <i type="logical" name="LDIPOL"> F  </i>
    <i type="logical" name="LMONO"> F  </i>
    <i type="int" name="IDIPOL">     0</i>
    <i name="EPSILON">      1.00000000</i>
    <v name="DIPOL">   -100.00000000   -100.00000000   -100.00000000</v>
    <i name="EFIELD">      0.00000000</i>
   </separator>
  </separator>
  <separator name="grids" >
   <i type="int" name="NGX">    36</i>
   <i type="int" name="NGY">    36</i>
   <i type="int" name="NGZ">    90</i>
   <i type="int" name="NGXF">    72</i>
   <i type="int" name="NGYF">    72</i>
   <i type="int" name="NGZF">   180</i>
   <i type="logical" name="ADDGRID"> T  </i>
  </separator>
  <separator name="ionic" >
   <i type="int" name="NSW">     0</i>
   <i type="int" name="IBRION">    -1</i>
   <i type="int" name="MDALGO">     0</i>
   <i type="int" name="ISIF">     2</i>
   <i name="PSTRESS">      0.00000000</i>
   <i name="EDIFFG">      0.00000010</i>
   <i type="int" name="NFREE">     0</i>
   <i name="POTIM">      0.50000000</i>
   <i name="SMASS">     -3.00000000</i>
   <i name="SCALEE">      1.00000000</i>
  </separator>
  <separator name="ionic md" >
   <i name="TEBEG">      0.00010000</i>
   <i name="TEEND">      0.00010000</i>
   <i type="int" name="NBLOCK">     1</i>
   <i type="int" name="KBLOCK">     1</i>
   <i type="int" name="NPACO">   256</i>
   <i name="APACO">     16.00000000</i>
  </separator>
  <separator name="symmetry" >
   <i type="int" name="ISYM">     0</i>
   <i name="SYMPREC">      0.00001000</i>
  </separator>
  <separator name="dos" >
   <i type="int" name="LORBIT">     0</i>
   <v name="RWIGS">     -1.00000000     -1.00000000     -1.00000000     -1.00000000</v>
   <i type="int" name="NEDOS">   301</i>
   <i name="EMIN">     10.00000000</i>
   <i name="EMAX">    -10.00000000</i>
   <i name="EFERMI">      0.00000000</i>
  </separator>
  <separator name="writing" >
   <i type="int" name="NWRITE">     1</i>
   <i type="logical" name="LWAVE"> F  </i>
   <i type="logical" name="LDOWNSAMPLE"> F  </i>
   <i type="logical" name="LCHARG"> T  </i>
   <i type="logical" name="LPARD"> F  </i>
   <i type="logical" name="LVTOT"> F  </i>
   <i type="logical" name="LVHAR"> F  </i>
   <i type="logical" name="LELF"> F  </i>
   <i type="logical" name="LOPTICS"> F  </i>
   <v name="STM">      0.00000000      0.00000000      0.00000000      0.00000000      0.00000000      0.00000000      0.00000000</v>
  </separator>
  <separator name="performance" >
   <i type="int" name="NPAR">    24</i>
   <i type="int" name="NSIM">     4</i>
   <i type="int" name="NBLK">    -1</i>
   <i type="logical" name="LPLANE"> T  </i>
   <i type="logical" name="LSCALAPACK"> T  </i>
   <i type="logical" name="LSCAAWARE"> F  </i>
   <i type="logical" name="LSCALU"> F  </i>
   <i type="logical" name="LASYNC"> F  </i>
   <i type="logical" name="LORBITALREAL"> F  </i>
  </separator>
  <separator name="miscellaneous" >
   <i type="int" name="IDIOT">     3</i>
   <i type="int" name="ISPECIAL">     0</i>
   <i type="logical" name="LMUSIC"> F  </i>
   <v name="POMASS">      7.01000000     16.00000000     32.06600000     55.84700000</v>
   <v name="DARWINR">      0.00000000      0.00000000      0.00000000      0.00000000</v>
   <v name="DARWINV">      1.00000000      1.00000000      1.00000000      1.00000000</v>
   <i type="logical" name="LCORR"> T  </i>
  </separator>
  <i type="logical" name="GGA_COMPAT"> T  </i>
  <i type="logical" name="LBERRY"> F  </i>
  <i type="int" name="ICORELEVEL">     0</i>
  <i type="logical" name="LDAU"> T  </i>
  <v type="int" name="LDAUTYPE">     2</v>
  <v type="int" name="LDAUL">    -1</v>
  <v name="LDAUU">      0.00000000</v>
  <v name="LDAUJ">      0.00000000</v>
  <i type="int" name="LDAUPRINT">     0</i>
  <i type="int" name="I_CONSTRAINED_M">     0</i>
  <separator name="electronic exchange-correlation" >
   <i type="string" name="GGA">PE</i>
   <i type="int" name="VOSKOWN">     0</i>
   <i type="logical" name="LHFCALC"> F  </i>
   <i type="string" name="PRECFOCK"></i>
   <i type="logical" name="LSYMGRAD"> F  </i>
   <i type="logical" name="LHFONE"> F  </i>
   <i type="logical" name="LRHFCALC"> F  </i>
   <i type="logical" name="LTHOMAS"> F  </i>
   <i type="logical" name="LMODELHF"> F  </i>
   <i name="ENCUT4O">     -1.00000000</i>
   <i type="int" name="EXXOEP">     0</i>
   <i type="int" name="FOURORBIT">     0</i>
   <i name="AEXX">      0.00000000</i>
   <i name="HFALPHA">      0.00000000</i>
   <i name="MCALPHA">      0.00000000</i>
   <i name="ALDAX">      1.00000000</i>
   <i name="AGGAX">      1.00000000</i>
   <i name="ALDAC">      1.00000000</i>
   <i name="AGGAC">      1.00000000</i>
   <i type="int" name="NKREDX">     1</i>
   <i type="int" name="NKREDY">     1</i>
   <i type="int" name="NKREDZ">     1</i>
   <i type="logical" name="SHIFTRED"> F  </i>
   <i type="logical" name="ODDONLY"> F  </i>
   <i type="logical" name="EVENONLY"> F  </i>
   <i type="int" name="LMAXFOCK">     0</i>
   <i type="int" name="NMAXFOCKAE">     0</i>
   <i type="logical" name="LFOCKAEDFT"> F  </i>
   <i name="HFSCREEN">      0.00000000</i>
   <i name="HFSCREENC">      0.00000000</i>
   <i type="int" name="NBANDSGWLOW">     0</i>
  </separator>
  <separator name="vdW DFT" >
   <i type="logical" name="LUSE_VDW"> F  </i>
   <i name="Zab_VDW">     -0.84910000</i>
   <i name="PARAM1">      0.12340000</i>
   <i name="PARAM2">      1.00000000</i>
   <i name="PARAM3">      0.00000000</i>
  </separator>
  <separator name="model GW" >
   <i type="int" name="MODEL_GW">     0</i>
   <i name="MODEL_EPS0">      8.58245767</i>
   <i name="MODEL_ALPHA">      1.00000000</i>
  </separator>
  <separator name="linear response parameters" >
   <i type="logical" name="LEPSILON"> T  </i>
   <i type="logical" name="LRPA"> F  </i>
   <i type="logical" name="LNABLA"> F  </i>
   <i type="logical" name="LVEL"> F  </i>
   <i type="int" name="KINTER">     0</i>
   <i name="CSHIFT">      0.10000000</i>
   <i name="OMEGAMAX">     -1.00000000</i>
   <i name="DEG_THRESHOLD">      0.00200000</i>
   <i name="RTIME">     -0.10000000</i>
   <i name="WPLASMAI">      0.00000000</i>
   <v name="DFIELD">      0.00000000      0.00000000      0.00000000</v>
   <v name="WPLASMA">      0.00000000      0.00000000      0.00000000      0.00000000      0.00000000      0.00000000      0.00000000      0.00000000      0.00000000</v>
  </separator>
  <separator name="orbital magnetization" >
   <i type="logical" name="NUCIND"> F  </i>
   <v name="MAGPOS">      0.00000000      0.00000000      0.00000000</v>
   <i type="logical" name="LNICSALL"> T  </i>
   <i type="logical" name="ORBITALMAG"> F  </i>
   <i type="logical" name="LMAGBLOCH"> F  </i>
   <i type="logical" name="LCHIMAG"> F  </i>
   <i type="logical" name="LGAUGE"> T  </i>
   <i type="int" name="MAGATOM">     0</i>
   <v name="MAGDIPOL">      0.00000000      0.00000000      0.00000000</v>
   <v name="AVECCONST">      0.00000000      0.00000000      0.00000000</v>
  </separator>
  <separator name="response functions" >
   <i type="logical" name="LADDER"> F  </i>
   <i type="logical" name="LRPAFORCE"> F  </i>
   <i type="logical" name="LFXC"> F  </i>
   <i type="logical" name="LHARTREE"> T  </i>
   <i type="int" name="IBSE">     0</i>
   <v type="int" name="KPOINT">    -1     0     0     0</v>
   <i type="logical" name="LTCTE"> F  </i>
   <i type="logical" name="LTETE"> F  </i>
   <i type="logical" name="LTRIPLET"> F  </i>
   <i type="logical" name="LFXCEPS"> F  </i>
   <i type="logical" name="LFXHEG"> F  </i>
   <i type="int" name="NATURALO">     2</i>
   <i type="logical" name="L2ORDER"> F  </i>
   <i type="logical" name="LMP2LT"> F  </i>
   <i type="logical" name="LUSEW"> F  </i>
   <i name="ENCUTGW">     -2.00000000</i>
   <i name="ENCUTGWSOFT">     -2.00000000</i>
   <i name="ENCUTLF">     -1.00000000</i>
   <i type="int" name="LMAXMP2">    -1</i>
   <i name="SCISSOR">      0.00000000</i>
   <i type="int" name="NOMEGA">     0</i>
   <i type="int" name="NOMEGAR">     0</i>
   <i type="int" name="NBANDSGW">    -1</i>
   <i type="int" name="NBANDSO">    -1</i>
   <i type="int" name="NBANDSV">    -1</i>
   <i type="int" name="NELM">   200</i>
   <i type="int" name="NELMHF">     1</i>
   <i type="int" name="DIM">     3</i>
   <i type="int" name="ANTIRES">     0</i>
   <i name="OMEGAMAX">    -30.00000000</i>
   <i name="OMEGAMIN">    -30.00000000</i>
   <i name="OMEGATL">   -200.00000000</i>
   <i type="int" name="OMEGAGRID">   140</i>
   <i name="CSHIFT">     -0.10000000</i>
   <i type="logical" name="SELFENERGY"> F  </i>
   <i type="logical" name="LSPECTRAL"> F  </i>
   <i type="logical" name="LSPECTRALGW"> F  </i>
   <i type="logical" name="LSINGLES"> F  </i>
   <i type="logical" name="LFERMIGW"> F  </i>
   <i type="logical" name="ODDONLYGW"> F  </i>
   <i type="logical" name="EVENONLYGW"> F  </i>
   <i type="int" name="NKREDLFX">     1</i>
   <i type="int" name="NKREDLFY">     1</i>
   <i type="int" name="NKREDLFZ">     1</i>
   <i type="int" name="MAXMEM">  2800</i>
   <i type="int" name="TELESCOPE">     0</i>
   <i type="int" name="TAUPAR">     1</i>
   <i type="int" name="OMEGAPAR">    -1</i>
   <i name="LAMBDA">      1.00000000</i>
  </separator>
  <separator name="External order field" >
   <i name="OFIELD_KAPPA">      0.00000000</i>
   <v name="OFIELD_K">      0.00000000      0.00000000      0.00000000</v>
   <i name="OFIELD_Q6_NEAR">      0.00000000</i>
   <i name="OFIELD_Q6_FAR">      0.00000000</i>
   <i name="OFIELD_A">      0.00000000</i>
  </separator>
 </parameters>
 <atominfo>
  <atoms>      11 </atoms>
  <types>       4 </types>
  <array name="atoms" >
   <dimension dim="1">ion</dimension>
   <field type="string">element</field>
   <field type="int">atomtype</field>
   <set>
    <rc><c>Li</c><c>   1</c></rc>
    <rc><c>Li</c><c>   1</c></rc>
    <rc><c>O </c><c>   2</c></rc>
    <rc><c>O </c><c>   2</c></rc>
    <rc><c>S </c><c>   3</c></rc>
    <rc><c>S </c><c>   3</c></rc>
    <rc><c>S </c><c>   3</c></rc>
    <rc><c>Fe</c><c>   4</c></rc>
    <rc><c>Fe</c><c>   4</c></rc>
    <rc><c>Fe</c><c>   4</c></rc>
    <rc><c>Fe</c><c>   4</c></rc>
   </set>
  </array>
  <array name="atomtypes" >
   <dimension dim="1">type</dimension>
   <field type="int">atomspertype</field>
   <field type="string">element</field>
   <field>mass</field>
   <field>valence</field>
   <field type="string">pseudopotential</field>
   <set>
    <rc><c>   2</c><c>Li</c><c>      7.01000000</c><c>      3.00000000</c><c>  PAW_PBE Li_sv 10Sep2004               </c></rc>
    <rc><c>   2</c><c>O </c><c>     16.00000000</c><c>      6.00000000</c><c>  PAW_PBE O 08Apr2002                   </c></rc>
    <rc><c>   3</c><c>S </c><c>     32.06600000</c><c>      6.00000000</c><c>  PAW_PBE S 06Sep2000                   </c></rc>
    <rc><c>   4</c><c>Fe</c><c>     55.84700000</c><c>     14.00000000</c><c>  PAW_PBE Fe_pv 02Aug2007               </c></rc>
   </set>
  </array>
 </atominfo>
 <structure name="initialpos" >
  <crystal>
   <varray name="basis" >
    <v>       3.92575658       0.00282957       0.02307772 </v>
    <v>      -0.01009416       3.92574462       0.02307772 </v>
    <v>      -2.02000231      -2.02666320      10.18574622 </v>
   </varray>
   <i name="volume">    157.34505730 </i>
   <varray name="rec_basis" >
    <v>       0.25443068       0.00035717       0.05052889 </v>
    <v>      -0.00048042       0.25443047       0.05052889 </v>
    <v>      -0.00057537      -0.00057727       0.09794744 </v>
   </varray>
  </crystal>
  <varray name="positions" >
   <v>       0.60674817       0.72620856       0.83183419 </v>
   <v>       0.27379144       0.39325183       0.16816581 </v>
   <v>       0.78933022       0.40796448       0.19686089 </v>
   <v>       0.59203552       0.21066978       0.80313911 </v>
   <v>       0.00761804       0.61971889       0.62920335 </v>
   <v>       0.38028111       0.99238196       0.37079665 </v>
   <v>       0.19052696       0.80947304       0.00000000 </v>
   <v>       0.87081822       0.51644820       0.39352170 </v>
   <v>       0.48355180       0.12918178       0.60647830 </v>
   <v>       0.11284172       0.23193920       0.84542777 </v>
   <v>       0.76806080       0.88715828       0.15457223 </v>
  </varray>
 </structure>
 <calculation>
  <scstep>
   <time name="dav">   16.10   16.54</time>
   <time name="total">   16.74   17.19</time>
   <energy>
    <i name="alphaZ">    289.58280179 </i>
    <i name="ewald">  -7223.07798124 </i>
    <i name="hartreedc">  -3904.58646351 </i>
    <i name="XCdc">    408.23658791 </i>
    <i name="pawpsdc">   9500.59049533 </i>
    <i name="pawaedc">  -9848.57379432 </i>
    <i name="eentropy">     -0.00426204 </i>
    <i name="bandstr">   -139.13788932 </i>
    <i name="atom">  11930.43496369 </i>
    <i name="e_fr_energy">   1013.46445829 </i>
    <i name="e_wo_entrp">   1013.46872033 </i>
    <i name="e_0_energy">   1013.46658931 </i>
   </energy>
  </scstep>
  <scstep>
   <time name="dav">   14.58   14.80</time>
   <time name="total">   14.59   14.81</time>
   <energy>
    <i name="e_fr_energy">     12.07264922 </i>
    <i name="e_wo_entrp">     12.08146709 </i>
    <i name="e_0_energy">     12.07705816 </i>
   </energy>
  </scstep>
  <scstep>
   <time name="dav">   19.63   20.17</time>
   <time name="total">   19.63   20.17</time>
   <energy>
    <i name="e_fr_energy">    -62.06762297 </i>
    <i name="e_wo_entrp">    -62.05815484 </i>
    <i name="e_0_energy">    -62.06288891 </i>
   </energy>
  </scstep>
  <scstep>
   <time name="dav">   22.70   23.05</time>
   <time name="total">   22.70   23.05</time>
   <energy>
    <i name="e_fr_energy">    -67.19164234 </i>
    <i name="e_wo_entrp">    -67.18120380 </i>
    <i name="e_0_energy">    -67.18642307 </i>
   </energy>
  </scstep>
  <scstep>
   <time name="dav">   19.19   19.75</time>
   <time name="total">   19.95   20.52</time>
   <energy>
    <i name="e_fr_energy">    -67.23661380 </i>
    <i name="e_wo_entrp">    -67.22616977 </i>
    <i name="e_0_energy">    -67.23139179 </i>
   </energy>
  </scstep>
  <scstep>
   <time name="dav">   21.36   21.85</time>
   <time name="total">   22.74   23.24</time>
   <energy>
    <i name="e_fr_energy">    -58.35660226 </i>
    <i name="e_wo_entrp">    -58.33655907 </i>
    <i name="e_0_energy">    -58.34658067 </i>
   </energy>
  </scstep>
  <scstep>
   <time name="dav">   18.04   18.37</time>
   <time name="total">   19.43   19.76</time>
   <energy>
    <i name="e_fr_energy">    -59.63379848 </i>
    <i name="e_wo_entrp">    -59.62514668 </i>
    <i name="e_0_energy">    -59.62947258 </i>
   </energy>
  </scstep>
  <scstep>
   <time name="dav">   17.93   18.24</time>
   <time name="total">   19.31   19.63</time>
   <energy>
    <i name="e_fr_energy">    -57.52797022 </i>
    <i name="e_wo_entrp">    -57.51306018 </i>
    <i name="e_0_energy">    -57.52051520 </i>
   </energy>
  </scstep>
  <scstep>
   <time name="dav">   18.84   19.13</time>
   <time name="total">   20.23   20.53</time>
   <energy>
    <i name="e_fr_energy">    -59.77379898 </i>
    <i name="e_wo_entrp">    -59.77379898 </i>
    <i name="e_0_energy">    -59.77379898 </i>
   </energy>
  </scstep>
  <scstep>
   <time name="dav">   17.69   17.86</time>
   <time name="total">   19.07   19.25</time>
   <energy>
    <i name="e_fr_energy">    -60.58122926 </i>
    <i name="e_wo_entrp">    -60.58122926 </i>
    <i name="e_0_energy">    -60.58122926 </i>
   </energy>
  </scstep>
  <scstep>
   <time name="dav">   18.36   18.72</time>
   <time name="total">   19.75   20.11</time>
   <energy>
    <i name="e_fr_energy">    -61.03015803 </i>
    <i name="e_wo_entrp">    -61.03015803 </i>
    <i name="e_0_energy">    -61.03015803 </i>
   </energy>
  </scstep>
  <scstep>
   <time name="dav">   18.84   19.16</time>
   <time name="total">   20.24   20.56</time>
   <energy>
    <i name="e_fr_energy">    -61.11576236 </i>
    <i name="e_wo_entrp">    -61.11576236 </i>
    <i name="e_0_energy">    -61.11576236 </i>
   </energy>
  </scstep>
  <scstep>
   <time name="dav">   18.61   18.91</time>
   <time name="total">   20.01   20.33</time>
   <energy>
    <i name="e_fr_energy">    -61.13102257 </i>
    <i name="e_wo_entrp">    -61.13102257 </i>
    <i name="e_0_energy">    -61.13102257 </i>
   </energy>
  </scstep>
  <scstep>
   <time name="dav">   18.35   18.55</time>
   <time name="total">   19.74   19.94</time>
   <energy>
    <i name="e_fr_energy">    -61.14070881 </i>
    <i name="e_wo_entrp">    -61.14070881 </i>
    <i name="e_0_energy">    -61.14070881 </i>
   </energy>
  </scstep>
  <scstep>
   <time name="dav">   19.92   20.27</time>
   <time name="total">   21.32   21.68</time>
   <energy>
    <i name="e_fr_energy">    -61.14222517 </i>
    <i name="e_wo_entrp">    -61.14222517 </i>
    <i name="e_0_energy">    -61.14222517 </i>
   </energy>
  </scstep>
  <scstep>
   <time name="dav">   20.71   20.96</time>
   <time name="total">   22.05   22.37</time>
   <energy>
    <i name="e_fr_energy">    -61.14312687 </i>
    <i name="e_wo_entrp">    -61.14312687 </i>
    <i name="e_0_energy">    -61.14312687 </i>
   </energy>
  </scstep>
  <scstep>
   <time name="dav">   21.10   21.58</time>
   <time name="total">   22.49   22.97</time>
   <energy>
    <i name="e_fr_energy">    -61.14399254 </i>
    <i name="e_wo_entrp">    -61.14399254 </i>
    <i name="e_0_energy">    -61.14399254 </i>
   </energy>
  </scstep>
  <scstep>
   <time name="dav">   20.96   21.34</time>
   <time name="total">   22.35   22.73</time>
   <energy>
    <i name="e_fr_energy">    -61.14465768 </i>
    <i name="e_wo_entrp">    -61.14465768 </i>
    <i name="e_0_energy">    -61.14465768 </i>
   </energy>
  </scstep>
  <scstep>
   <time name="dav">   17.96   18.14</time>
   <time name="total">   19.35   19.53</time>
   <energy>
    <i name="e_fr_energy">    -61.14549127 </i>
    <i name="e_wo_entrp">    -61.14549127 </i>
    <i name="e_0_energy">    -61.14549127 </i>
   </energy>
  </scstep>
  <scstep>
   <time name="dav">   22.47   23.02</time>
   <time name="total">   23.86   24.41</time>
   <energy>
    <i name="e_fr_energy">    -61.14616174 </i>
    <i name="e_wo_entrp">    -61.14616174 </i>
    <i name="e_0_energy">    -61.14616174 </i>
   </energy>
  </scstep>
  <scstep>
   <time name="dav">   18.84   18.93</time>
   <time name="total">   20.25   20.35</time>
   <energy>
    <i name="e_fr_energy">    -61.14678915 </i>
    <i name="e_wo_entrp">    -61.14678915 </i>
    <i name="e_0_energy">    -61.14678915 </i>
   </energy>
  </scstep>
  <scstep>
   <time name="dav">   21.53   21.90</time>
   <time name="total">   22.95   23.35</time>
   <energy>
    <i name="e_fr_energy">    -61.14718752 </i>
    <i name="e_wo_entrp">    -61.14718752 </i>
    <i name="e_0_energy">    -61.14718752 </i>
   </energy>
  </scstep>
  <scstep>
   <time name="dav">   20.87   21.42</time>
   <time name="total">   22.26   22.83</time>
   <energy>
    <i name="e_fr_energy">    -61.14731594 </i>
    <i name="e_wo_entrp">    -61.14731594 </i>
    <i name="e_0_energy">    -61.14731594 </i>
   </energy>
  </scstep>
  <scstep>
   <time name="dav">   18.33   18.65</time>
   <time name="total">   19.74   20.08</time>
   <energy>
    <i name="e_fr_energy">    -61.14733754 </i>
    <i name="e_wo_entrp">    -61.14733754 </i>
    <i name="e_0_energy">    -61.14733754 </i>
   </energy>
  </scstep>
  <scstep>
   <time name="dav">   19.04   19.55</time>
   <time name="total">   20.42   20.98</time>
   <energy>
    <i name="e_fr_energy">    -61.14739695 </i>
    <i name="e_wo_entrp">    -61.14739695 </i>
    <i name="e_0_energy">    -61.14739695 </i>
   </energy>
  </scstep>
  <scstep>
   <time name="dav">   22.42   22.78</time>
   <time name="total">   23.79   24.17</time>
   <energy>
    <i name="e_fr_energy">    -61.14742432 </i>
    <i name="e_wo_entrp">    -61.14742432 </i>
    <i name="e_0_energy">    -61.14742432 </i>
   </energy>
  </scstep>
  <scstep>
   <time name="dav">   17.10   17.62</time>
   <time name="total">   18.50   19.03</time>
   <energy>
    <i name="e_fr_energy">    -61.14743306 </i>
    <i name="e_wo_entrp">    -61.14743306 </i>
    <i name="e_0_energy">    -61.14743306 </i>
   </energy>
  </scstep>
  <scstep>
   <time name="dav">   20.43   20.81</time>
   <time name="total">   21.82   22.20</time>
   <energy>
    <i name="e_fr_energy">    -61.14743424 </i>
    <i name="e_wo_entrp">    -61.14743424 </i>
    <i name="e_0_energy">    -61.14743424 </i>
   </energy>
  </scstep>
  <scstep>
   <time name="dav">   20.27   20.62</time>
   <time name="total">   21.68   22.04</time>
   <energy>
    <i name="e_fr_energy">    -61.14743728 </i>
    <i name="e_wo_entrp">    -61.14743728 </i>
    <i name="e_0_energy">    -61.14743728 </i>
   </energy>
  </scstep>
  <scstep>
   <time name="dav">   20.15   20.59</time>
   <time name="total">   21.52   22.01</time>
   <energy>
    <i name="e_fr_energy">    -61.14744062 </i>
    <i name="e_wo_entrp">    -61.14744062 </i>
    <i name="e_0_energy">    -61.14744062 </i>
   </energy>
  </scstep>
  <scstep>
   <time name="dav">   21.70   22.10</time>
   <time name="total">   23.11   23.54</time>
   <energy>
    <i name="e_fr_energy">    -61.14744403 </i>
    <i name="e_wo_entrp">    -61.14744403 </i>
    <i name="e_0_energy">    -61.14744403 </i>
   </energy>
  </scstep>
  <scstep>
   <time name="dav">   18.91   19.31</time>
   <time name="total">   20.29   20.74</time>
   <energy>
    <i name="e_fr_energy">    -61.14744867 </i>
    <i name="e_wo_entrp">    -61.14744867 </i>
    <i name="e_0_energy">    -61.14744867 </i>
   </energy>
  </scstep>
  <scstep>
   <time name="dav">   19.14   19.25</time>
   <time name="total">   20.56   20.68</time>
   <energy>
    <i name="e_fr_energy">    -61.14745056 </i>
    <i name="e_wo_entrp">    -61.14745056 </i>
    <i name="e_0_energy">    -61.14745056 </i>
   </energy>
  </scstep>
  <scstep>
   <time name="dav">   19.91   20.34</time>
   <time name="total">   21.30   21.76</time>
   <energy>
    <i name="e_fr_energy">    -61.14745106 </i>
    <i name="e_wo_entrp">    -61.14745106 </i>
    <i name="e_0_energy">    -61.14745106 </i>
   </energy>
  </scstep>
  <scstep>
   <time name="dav">   19.38   19.72</time>
   <time name="total">   20.77   21.15</time>
   <energy>
    <i name="e_fr_energy">    -61.14745134 </i>
    <i name="e_wo_entrp">    -61.14745134 </i>
    <i name="e_0_energy">    -61.14745134 </i>
   </energy>
  </scstep>
  <scstep>
   <time name="dav">   20.78   21.18</time>
   <time name="total">   22.12   22.59</time>
   <energy>
    <i name="e_fr_energy">    -61.14745168 </i>
    <i name="e_wo_entrp">    -61.14745168 </i>
    <i name="e_0_energy">    -61.14745168 </i>
   </energy>
  </scstep>
  <scstep>
   <time name="dav">   19.48   20.05</time>
   <time name="total">   20.87   21.45</time>
   <energy>
    <i name="e_fr_energy">    -61.14745189 </i>
    <i name="e_wo_entrp">    -61.14745189 </i>
    <i name="e_0_energy">    -61.14745189 </i>
   </energy>
  </scstep>
  <scstep>
   <time name="dav">   18.80   19.32</time>
   <time name="total">   20.18   20.71</time>
   <energy>
    <i name="e_fr_energy">    -61.14745198 </i>
    <i name="e_wo_entrp">    -61.14745198 </i>
    <i name="e_0_energy">    -61.14745198 </i>
   </energy>
  </scstep>
  <scstep>
   <time name="dav">   20.88   21.39</time>
   <time name="total">   22.28   22.79</time>
   <energy>
    <i name="e_fr_energy">    -61.14745204 </i>
    <i name="e_wo_entrp">    -61.14745204 </i>
    <i name="e_0_energy">    -61.14745204 </i>
   </energy>
  </scstep>
  <scstep>
   <time name="dav">   22.00   22.55</time>
   <time name="total">   23.39   23.95</time>
   <energy>
    <i name="e_fr_energy">    -61.14745209 </i>
    <i name="e_wo_entrp">    -61.14745209 </i>
    <i name="e_0_energy">    -61.14745209 </i>
   </energy>
  </scstep>
  <scstep>
   <time name="dav">   19.11   19.28</time>
   <time name="total">   20.50   20.68</time>
   <energy>
    <i name="e_fr_energy">    -61.14745212 </i>
    <i name="e_wo_entrp">    -61.14745212 </i>
    <i name="e_0_energy">    -61.14745212 </i>
   </energy>
  </scstep>
  <scstep>
   <time name="dav">   20.21   20.63</time>
   <time name="total">   21.59   22.02</time>
   <energy>
    <i name="e_fr_energy">    -61.14745214 </i>
    <i name="e_wo_entrp">    -61.14745214 </i>
    <i name="e_0_energy">    -61.14745214 </i>
   </energy>
  </scstep>
  <scstep>
   <time name="dav">   14.77   15.17</time>
   <time name="total">   16.16   16.56</time>
   <energy>
    <i name="e_fr_energy">    -61.14745215 </i>
    <i name="e_wo_entrp">    -61.14745215 </i>
    <i name="e_0_energy">    -61.14745215 </i>
   </energy>
  </scstep>
  <scstep>
   <time name="dav">   11.81   12.09</time>
   <time name="total">   12.44   12.72</time>
   <energy>
    <i name="alphaZ">    289.58280179 </i>
    <i name="ewald">  -7223.07798124 </i>
    <i name="hartreedc">  -3786.87538568 </i>
    <i name="XCdc">    403.64865823 </i>
    <i name="pawpsdc">  11572.14812619 </i>
    <i name="pawaedc"> -11928.98715705 </i>
    <i name="eentropy">     -0.00000000 </i>
    <i name="bandstr">  -1318.02147808 </i>
    <i name="atom">  11930.43496369 </i>
    <i name="e_fr_energy">    -61.14745215 </i>
    <i name="e_wo_entrp">    -61.14745215 </i>
    <i name="e_0_energy">    -61.14745215 </i>
   </energy>
  </scstep>
  <structure>
   <crystal>
    <varray name="basis" >
     <v>       3.92575658       0.00282957       0.02307772 </v>
     <v>      -0.01009416       3.92574462       0.02307772 </v>
     <v>      -2.02000231      -2.02666320      10.18574622 </v>
    </varray>
    <i name="volume">    157.34505730 </i>
    <varray name="rec_basis" >
     <v>       0.25443068       0.00035717       0.05052889 </v>
     <v>      -0.00048042       0.25443047       0.05052889 </v>
     <v>      -0.00057537      -0.00057727       0.09794744 </v>
    </varray>
   </crystal>
   <varray name="positions" >
    <v>       0.60674817       0.72620856       0.83183419 </v>
    <v>       0.27379144       0.39325183       0.16816581 </v>
    <v>       0.78933022       0.40796448       0.19686089 </v>
    <v>       0.59203552       0.21066978       0.80313911 </v>
    <v>       0.00761804       0.61971889       0.62920335 </v>
    <v>       0.38028111       0.99238196       0.37079665 </v>
    <v>       0.19052696       0.80947304       0.00000000 </v>
    <v>       0.87081822       0.51644820       0.39352170 </v>
    <v>       0.48355180       0.12918178       0.60647830 </v>
    <v>       0.11284172       0.23193920       0.84542777 </v>
    <v>       0.76806080       0.88715828       0.15457223 </v>
   </varray>
  </structure>
  <varray name="forces" >
   <v>       0.00001725       0.00003335       0.00002782 </v>
   <v>      -0.00001821      -0.00001612       0.00003690 </v>
   <v>      -0.00008714       0.00010241      -0.00009333 </v>
   <v>      -0.00007312       0.00012802       0.00009425 </v>
   <v>       0.00002240       0.00005345       0.00012094 </v>
   <v>       0.00006086       0.00003453      -0.00008476 </v>
   <v>      -0.00000490       0.00000722       0.00000264 </v>
   <v>      -0.00002490      -0.00011501       0.00002724 </v>
   <v>       0.00000773      -0.00014299      -0.00001952 </v>
   <v>       0.00006620      -0.00003286      -0.00002768 </v>
   <v>       0.00003384      -0.00005200      -0.00008450 </v>
  </varray>
  <varray name="stress" >
   <v>      -0.01196311      -0.00000459      -0.00618798 </v>
   <v>       0.00045987       0.00607194      -0.00528076 </v>
   <v>       0.00344091       0.00464975      -0.00293675 </v>
  </varray>
  <energy>
   <i name="e_fr_energy">    -61.14745215 </i>
   <i name="e_wo_entrp">    -61.14745215 </i>
   <i name="e_0_energy">     -0.00000000 </i>
  </energy>
  <scstep>
   <time name="total">   12.06   12.09</time>
   <energy>
    <i name="e_fr_energy">   -294.39820975 </i>
    <i name="e_wo_entrp">   -294.39820975 </i>
    <i name="e_0_energy">   -294.39820975 </i>
   </energy>
  </scstep>
  <scstep>
   <time name="total">   18.66   18.92</time>
   <energy>
    <i name="e_fr_energy">   -404.35571877 </i>
    <i name="e_wo_entrp">   -404.35571877 </i>
    <i name="e_0_energy">   -404.35571877 </i>
   </energy>
  </scstep>
  <scstep>
   <time name="total">   21.08   21.56</time>
   <energy>
    <i name="e_fr_energy">   -405.60650079 </i>
    <i name="e_wo_entrp">   -405.60650079 </i>
    <i name="e_0_energy">   -405.60650079 </i>
   </energy>
  </scstep>
  <scstep>
   <time name="total">   18.54   20.85</time>
   <energy>
    <i name="e_fr_energy">   -405.89410510 </i>
    <i name="e_wo_entrp">   -405.89410510 </i>
    <i name="e_0_energy">   -405.89410510 </i>
   </energy>
  </scstep>
  <scstep>
   <time name="total">   18.75   19.05</time>
   <energy>
    <i name="e_fr_energy">   -405.99487687 </i>
    <i name="e_wo_entrp">   -405.99487687 </i>
    <i name="e_0_energy">   -405.99487687 </i>
   </energy>
  </scstep>
  <scstep>
   <time name="total">   18.90   19.10</time>
   <energy>
    <i name="e_fr_energy">   -406.02304304 </i>
    <i name="e_wo_entrp">   -406.02304304 </i>
    <i name="e_0_energy">   -406.02304304 </i>
   </energy>
  </scstep>
  <scstep>
   <time name="total">   18.85   19.05</time>
   <energy>
    <i name="e_fr_energy">   -406.03068730 </i>
    <i name="e_wo_entrp">   -406.03068730 </i>
    <i name="e_0_energy">   -406.03068730 </i>
   </energy>
  </scstep>
  <scstep>
   <time name="total">   18.90   19.16</time>
   <energy>
    <i name="e_fr_energy">   -406.03278480 </i>
    <i name="e_wo_entrp">   -406.03278480 </i>
    <i name="e_0_energy">   -406.03278480 </i>
   </energy>
  </scstep>
  <scstep>
   <time name="total">   18.89   19.08</time>
   <energy>
    <i name="e_fr_energy">   -406.03342718 </i>
    <i name="e_wo_entrp">   -406.03342718 </i>
    <i name="e_0_energy">   -406.03342718 </i>
   </energy>
  </scstep>
  <scstep>
   <time name="total">   18.75   19.13</time>
   <energy>
    <i name="e_fr_energy">   -406.03361415 </i>
    <i name="e_wo_entrp">   -406.03361415 </i>
    <i name="e_0_energy">   -406.03361415 </i>
   </energy>
  </scstep>
  <scstep>
   <time name="total">   18.83   19.08</time>
   <energy>
    <i name="e_fr_energy">   -406.03368439 </i>
    <i name="e_wo_entrp">   -406.03368439 </i>
    <i name="e_0_energy">   -406.03368439 </i>
   </energy>
  </scstep>
  <scstep>
   <time name="total">   18.97   19.01</time>
   <energy>
    <i name="e_fr_energy">   -406.03370804 </i>
    <i name="e_wo_entrp">   -406.03370804 </i>
    <i name="e_0_energy">   -406.03370804 </i>
   </energy>
  </scstep>
  <scstep>
   <time name="total">   18.78   18.82</time>
   <energy>
    <i name="e_fr_energy">   -406.03371267 </i>
    <i name="e_wo_entrp">   -406.03371267 </i>
    <i name="e_0_energy">   -406.03371267 </i>
   </energy>
  </scstep>
  <scstep>
   <time name="total">   18.56   18.83</time>
   <energy>
    <i name="e_fr_energy">   -406.03371999 </i>
    <i name="e_wo_entrp">   -406.03371999 </i>
    <i name="e_0_energy">   -406.03371999 </i>
   </energy>
  </scstep>
  <scstep>
   <time name="total">   18.39   18.67</time>
   <energy>
    <i name="e_fr_energy">   -406.03371843 </i>
    <i name="e_wo_entrp">   -406.03371843 </i>
    <i name="e_0_energy">   -406.03371843 </i>
   </energy>
  </scstep>
  <scstep>
   <time name="total">   18.16   19.04</time>
   <energy>
    <i name="e_fr_energy">   -406.03372005 </i>
    <i name="e_wo_entrp">   -406.03372005 </i>
    <i name="e_0_energy">   -406.03372005 </i>
   </energy>
  </scstep>
  <scstep>
   <time name="total">   17.99   18.23</time>
   <energy>
    <i name="e_fr_energy">   -406.03372174 </i>
    <i name="e_wo_entrp">   -406.03372174 </i>
    <i name="e_0_energy">   -406.03372174 </i>
   </energy>
  </scstep>
  <scstep>
   <time name="total">   17.41   17.50</time>
   <energy>
    <i name="e_fr_energy">   -406.03372072 </i>
    <i name="e_wo_entrp">   -406.03372072 </i>
    <i name="e_0_energy">   -406.03372072 </i>
   </energy>
  </scstep>
  <scstep>
   <time name="total">   16.60   16.66</time>
   <energy>
    <i name="e_fr_energy">   -406.03372169 </i>
    <i name="e_wo_entrp">   -406.03372169 </i>
    <i name="e_0_energy">   -406.03372169 </i>
   </energy>
  </scstep>
  <scstep>
   <time name="total">   15.84   16.00</time>
   <energy>
    <i name="e_fr_energy">   -406.03372173 </i>
    <i name="e_wo_entrp">   -406.03372173 </i>
    <i name="e_0_energy">   -406.03372173 </i>
   </energy>
  </scstep>
  <scstep>
   <time name="total">   15.34   15.58</time>
   <energy>
    <i name="e_fr_energy">   -406.03371980 </i>
    <i name="e_wo_entrp">   -406.03371980 </i>
    <i name="e_0_energy">   -406.03371980 </i>
   </energy>
  </scstep>
  <scstep>
   <time name="total">   14.84   14.99</time>
   <energy>
    <i name="e_fr_energy">   -406.03372217 </i>
    <i name="e_wo_entrp">   -406.03372217 </i>
    <i name="e_0_energy">   -406.03372217 </i>
   </energy>
  </scstep>
  <scstep>
   <time name="total">   11.94   12.02</time>
   <energy>
    <i name="e_fr_energy">   -294.39965562 </i>
    <i name="e_wo_entrp">   -294.39965562 </i>
    <i name="e_0_energy">   -294.39965562 </i>
   </energy>
  </scstep>
  <scstep>
   <time name="total">   18.69   18.89</time>
   <energy>
    <i name="e_fr_energy">   -404.36731896 </i>
    <i name="e_wo_entrp">   -404.36731896 </i>
    <i name="e_0_energy">   -404.36731896 </i>
   </energy>
  </scstep>
  <scstep>
   <time name="total">   21.06   21.40</time>
   <energy>
    <i name="e_fr_energy">   -405.60703145 </i>
    <i name="e_wo_entrp">   -405.60703145 </i>
    <i name="e_0_energy">   -405.60703145 </i>
   </energy>
  </scstep>
  <scstep>
   <time name="total">   18.67   18.84</time>
   <energy>
    <i name="e_fr_energy">   -405.89185248 </i>
    <i name="e_wo_entrp">   -405.89185248 </i>
    <i name="e_0_energy">   -405.89185248 </i>
   </energy>
  </scstep>
  <scstep>
   <time name="total">   18.72   21.33</time>
   <energy>
    <i name="e_fr_energy">   -405.99212513 </i>
    <i name="e_wo_entrp">   -405.99212513 </i>
    <i name="e_0_energy">   -405.99212513 </i>
   </energy>
  </scstep>
  <scstep>
   <time name="total">   18.84   18.98</time>
   <energy>
    <i name="e_fr_energy">   -406.01954561 </i>
    <i name="e_wo_entrp">   -406.01954561 </i>
    <i name="e_0_energy">   -406.01954561 </i>
   </energy>
  </scstep>
  <scstep>
   <time name="total">   18.76   19.00</time>
   <energy>
    <i name="e_fr_energy">   -406.02712637 </i>
    <i name="e_wo_entrp">   -406.02712637 </i>
    <i name="e_0_energy">   -406.02712637 </i>
   </energy>
  </scstep>
  <scstep>
   <time name="total">   18.78   19.11</time>
   <energy>
    <i name="e_fr_energy">   -406.02915124 </i>
    <i name="e_wo_entrp">   -406.02915124 </i>
    <i name="e_0_energy">   -406.02915124 </i>
   </energy>
  </scstep>
  <scstep>
   <time name="total">   18.94   19.28</time>
   <energy>
    <i name="e_fr_energy">   -406.02976203 </i>
    <i name="e_wo_entrp">   -406.02976203 </i>
    <i name="e_0_energy">   -406.02976203 </i>
   </energy>
  </scstep>
  <scstep>
   <time name="total">   19.15   19.19</time>
   <energy>
    <i name="e_fr_energy">   -406.02993499 </i>
    <i name="e_wo_entrp">   -406.02993499 </i>
    <i name="e_0_energy">   -406.02993499 </i>
   </energy>
  </scstep>
  <scstep>
   <time name="total">   18.84   18.95</time>
   <energy>
    <i name="e_fr_energy">   -406.02998410 </i>
    <i name="e_wo_entrp">   -406.02998410 </i>
    <i name="e_0_energy">   -406.02998410 </i>
   </energy>
  </scstep>
  <scstep>
   <time name="total">   18.89   19.04</time>
   <energy>
    <i name="e_fr_energy">   -406.02999923 </i>
    <i name="e_wo_entrp">   -406.02999923 </i>
    <i name="e_0_energy">   -406.02999923 </i>
   </energy>
  </scstep>
  <scstep>
   <time name="total">   18.81   18.98</time>
   <energy>
    <i name="e_fr_energy">   -406.02999983 </i>
    <i name="e_wo_entrp">   -406.02999983 </i>
    <i name="e_0_energy">   -406.02999983 </i>
   </energy>
  </scstep>
  <scstep>
   <time name="total">   18.69   18.83</time>
   <energy>
    <i name="e_fr_energy">   -406.03000440 </i>
    <i name="e_wo_entrp">   -406.03000440 </i>
    <i name="e_0_energy">   -406.03000440 </i>
   </energy>
  </scstep>
  <scstep>
   <time name="total">   18.54   18.75</time>
   <energy>
    <i name="e_fr_energy">   -406.02999761 </i>
    <i name="e_wo_entrp">   -406.02999761 </i>
    <i name="e_0_energy">   -406.02999761 </i>
   </energy>
  </scstep>
  <scstep>
   <time name="total">   18.25   18.51</time>
   <energy>
    <i name="e_fr_energy">   -406.02999690 </i>
    <i name="e_wo_entrp">   -406.02999690 </i>
    <i name="e_0_energy">   -406.02999690 </i>
   </energy>
  </scstep>
  <scstep>
   <time name="total">   18.01   18.06</time>
   <energy>
    <i name="e_fr_energy">   -406.02999966 </i>
    <i name="e_wo_entrp">   -406.02999966 </i>
    <i name="e_0_energy">   -406.02999966 </i>
   </energy>
  </scstep>
  <scstep>
   <time name="total">   17.21   17.38</time>
   <energy>
    <i name="e_fr_energy">   -406.02999670 </i>
    <i name="e_wo_entrp">   -406.02999670 </i>
    <i name="e_0_energy">   -406.02999670 </i>
   </energy>
  </scstep>
  <scstep>
   <time name="total">   16.71   16.82</time>
   <energy>
    <i name="e_fr_energy">   -406.02999854 </i>
    <i name="e_wo_entrp">   -406.02999854 </i>
    <i name="e_0_energy">   -406.02999854 </i>
   </energy>
  </scstep>
  <scstep>
   <time name="total">   15.91   16.03</time>
   <energy>
    <i name="e_fr_energy">   -406.02999942 </i>
    <i name="e_wo_entrp">   -406.02999942 </i>
    <i name="e_0_energy">   -406.02999942 </i>
   </energy>
  </scstep>
  <scstep>
   <time name="total">   15.28   15.94</time>
   <energy>
    <i name="e_fr_energy">   -406.02999755 </i>
    <i name="e_wo_entrp">   -406.02999755 </i>
    <i name="e_0_energy">   -406.02999755 </i>
   </energy>
  </scstep>
  <scstep>
   <time name="total">   14.97   15.97</time>
   <energy>
    <i name="e_fr_energy">   -406.02999801 </i>
    <i name="e_wo_entrp">   -406.02999801 </i>
    <i name="e_0_energy">   -406.02999801 </i>
   </energy>
  </scstep>
  <scstep>
   <time name="total">   11.86   12.03</time>
   <energy>
    <i name="e_fr_energy">   -298.56788225 </i>
    <i name="e_wo_entrp">   -298.56788225 </i>
    <i name="e_0_energy">   -298.56788225 </i>
   </energy>
  </scstep>
  <scstep>
   <time name="total">   19.24   19.42</time>
   <energy>
    <i name="e_fr_energy">   -403.81702450 </i>
    <i name="e_wo_entrp">   -403.81702450 </i>
    <i name="e_0_energy">   -403.81702450 </i>
   </energy>
  </scstep>
  <scstep>
   <time name="total">   21.09   21.32</time>
   <energy>
    <i name="e_fr_energy">   -404.71166199 </i>
    <i name="e_wo_entrp">   -404.71166199 </i>
    <i name="e_0_energy">   -404.71166199 </i>
   </energy>
  </scstep>
  <scstep>
   <time name="total">   18.57   18.65</time>
   <energy>
    <i name="e_fr_energy">   -404.88156916 </i>
    <i name="e_wo_entrp">   -404.88156916 </i>
    <i name="e_0_energy">   -404.88156916 </i>
   </energy>
  </scstep>
  <scstep>
   <time name="total">   18.75   18.90</time>
   <energy>
    <i name="e_fr_energy">   -404.94666371 </i>
    <i name="e_wo_entrp">   -404.94666371 </i>
    <i name="e_0_energy">   -404.94666371 </i>
   </energy>
  </scstep>
  <scstep>
   <time name="total">   18.77   18.98</time>
   <energy>
    <i name="e_fr_energy">   -404.96794914 </i>
    <i name="e_wo_entrp">   -404.96794914 </i>
    <i name="e_0_energy">   -404.96794914 </i>
   </energy>
  </scstep>
  <scstep>
   <time name="total">   18.78   19.12</time>
   <energy>
    <i name="e_fr_energy">   -404.97412575 </i>
    <i name="e_wo_entrp">   -404.97412575 </i>
    <i name="e_0_energy">   -404.97412575 </i>
   </energy>
  </scstep>
  <scstep>
   <time name="total">   18.89   19.03</time>
   <energy>
    <i name="e_fr_energy">   -404.97595929 </i>
    <i name="e_wo_entrp">   -404.97595929 </i>
    <i name="e_0_energy">   -404.97595929 </i>
   </energy>
  </scstep>
  <scstep>
   <time name="total">   19.12   19.30</time>
   <energy>
    <i name="e_fr_energy">   -404.97654254 </i>
    <i name="e_wo_entrp">   -404.97654254 </i>
    <i name="e_0_energy">   -404.97654254 </i>
   </energy>
  </scstep>
  <scstep>
   <time name="total">   18.89   19.02</time>
   <energy>
    <i name="e_fr_energy">   -404.97671300 </i>
    <i name="e_wo_entrp">   -404.97671300 </i>
    <i name="e_0_energy">   -404.97671300 </i>
   </energy>
  </scstep>
  <scstep>
   <time name="total">   18.87   19.08</time>
   <energy>
    <i name="e_fr_energy">   -404.97676097 </i>
    <i name="e_wo_entrp">   -404.97676097 </i>
    <i name="e_0_energy">   -404.97676097 </i>
   </energy>
  </scstep>
  <scstep>
   <time name="total">   18.98   19.15</time>
   <energy>
    <i name="e_fr_energy">   -404.97677314 </i>
    <i name="e_wo_entrp">   -404.97677314 </i>
    <i name="e_0_energy">   -404.97677314 </i>
   </energy>
  </scstep>
  <scstep>
   <time name="total">   18.72   18.98</time>
   <energy>
    <i name="e_fr_energy">   -404.97677613 </i>
    <i name="e_wo_entrp">   -404.97677613 </i>
    <i name="e_0_energy">   -404.97677613 </i>
   </energy>
  </scstep>
  <scstep>
   <time name="total">   18.75   18.92</time>
   <energy>
    <i name="e_fr_energy">   -404.97677837 </i>
    <i name="e_wo_entrp">   -404.97677837 </i>
    <i name="e_0_energy">   -404.97677837 </i>
   </energy>
  </scstep>
  <scstep>
   <time name="total">   18.58   18.67</time>
   <energy>
    <i name="e_fr_energy">   -404.97677758 </i>
    <i name="e_wo_entrp">   -404.97677758 </i>
    <i name="e_0_energy">   -404.97677758 </i>
   </energy>
  </scstep>
  <scstep>
   <time name="total">   18.27   18.32</time>
   <energy>
    <i name="e_fr_energy">   -404.97677882 </i>
    <i name="e_wo_entrp">   -404.97677882 </i>
    <i name="e_0_energy">   -404.97677882 </i>
   </energy>
  </scstep>
  <scstep>
   <time name="total">   17.66   17.86</time>
   <energy>
    <i name="e_fr_energy">   -404.97677742 </i>
    <i name="e_wo_entrp">   -404.97677742 </i>
    <i name="e_0_energy">   -404.97677742 </i>
   </energy>
  </scstep>
  <scstep>
   <time name="total">   16.95   17.11</time>
   <energy>
    <i name="e_fr_energy">   -404.97677887 </i>
    <i name="e_wo_entrp">   -404.97677887 </i>
    <i name="e_0_energy">   -404.97677887 </i>
   </energy>
  </scstep>
  <scstep>
   <time name="total">   16.45   16.64</time>
   <energy>
    <i name="e_fr_energy">   -404.97677755 </i>
    <i name="e_wo_entrp">   -404.97677755 </i>
    <i name="e_0_energy">   -404.97677755 </i>
   </energy>
  </scstep>
  <scstep>
   <time name="total">   15.86   17.06</time>
   <energy>
    <i name="e_fr_energy">   -404.97677893 </i>
    <i name="e_wo_entrp">   -404.97677893 </i>
    <i name="e_0_energy">   -404.97677893 </i>
   </energy>
  </scstep>
  <scstep>
   <time name="total">   15.76   15.80</time>
   <energy>
    <i name="e_fr_energy">     -1.53021742 </i>
    <i name="e_wo_entrp">     -1.53021742 </i>
    <i name="e_0_energy">     -1.53021742 </i>
   </energy>
  </scstep>
  <scstep>
   <time name="total">   19.04   19.30</time>
   <energy>
    <i name="e_fr_energy">     -2.40530640 </i>
    <i name="e_wo_entrp">     -2.40530640 </i>
    <i name="e_0_energy">     -2.40530640 </i>
   </energy>
  </scstep>
  <scstep>
   <time name="total">   21.99   22.35</time>
   <energy>
    <i name="e_fr_energy">     -2.41539431 </i>
    <i name="e_wo_entrp">     -2.41539431 </i>
    <i name="e_0_energy">     -2.41539431 </i>
   </energy>
  </scstep>
  <scstep>
   <time name="total">   19.17   24.98</time>
   <energy>
    <i name="e_fr_energy">     -2.41738741 </i>
    <i name="e_wo_entrp">     -2.41738741 </i>
    <i name="e_0_energy">     -2.41738741 </i>
   </energy>
  </scstep>
  <scstep>
   <time name="total">   23.42   23.56</time>
   <energy>
    <i name="e_fr_energy">     -2.41797229 </i>
    <i name="e_wo_entrp">     -2.41797229 </i>
    <i name="e_0_energy">     -2.41797229 </i>
   </energy>
  </scstep>
  <scstep>
   <time name="total">   20.73   24.88</time>
   <energy>
    <i name="e_fr_energy">     -2.41810466 </i>
    <i name="e_wo_entrp">     -2.41810466 </i>
    <i name="e_0_energy">     -2.41810466 </i>
   </energy>
  </scstep>
  <scstep>
   <time name="total">   23.44   23.75</time>
   <energy>
    <i name="e_fr_energy">     -2.41813844 </i>
    <i name="e_wo_entrp">     -2.41813844 </i>
    <i name="e_0_energy">     -2.41813844 </i>
   </energy>
  </scstep>
  <scstep>
   <time name="total">   23.45   23.59</time>
   <energy>
    <i name="e_fr_energy">     -2.41814743 </i>
    <i name="e_wo_entrp">     -2.41814743 </i>
    <i name="e_0_energy">     -2.41814743 </i>
   </energy>
  </scstep>
  <scstep>
   <time name="total">   23.25   23.60</time>
   <energy>
    <i name="e_fr_energy">     -2.41815018 </i>
    <i name="e_wo_entrp">     -2.41815018 </i>
    <i name="e_0_energy">     -2.41815018 </i>
   </energy>
  </scstep>
  <scstep>
   <time name="total">   23.18   23.44</time>
   <energy>
    <i name="e_fr_energy">     -2.41815103 </i>
    <i name="e_wo_entrp">     -2.41815103 </i>
    <i name="e_0_energy">     -2.41815103 </i>
   </energy>
  </scstep>
  <scstep>
   <time name="total">   23.18   23.48</time>
   <energy>
    <i name="e_fr_energy">     -2.41815132 </i>
    <i name="e_wo_entrp">     -2.41815132 </i>
    <i name="e_0_energy">     -2.41815132 </i>
   </energy>
  </scstep>
  <scstep>
   <time name="total">   23.18   23.37</time>
   <energy>
    <i name="e_fr_energy">     -2.41815142 </i>
    <i name="e_wo_entrp">     -2.41815142 </i>
    <i name="e_0_energy">     -2.41815142 </i>
   </energy>
  </scstep>
  <scstep>
   <time name="total">   22.95   23.18</time>
   <energy>
    <i name="e_fr_energy">     -2.41815146 </i>
    <i name="e_wo_entrp">     -2.41815146 </i>
    <i name="e_0_energy">     -2.41815146 </i>
   </energy>
  </scstep>
  <scstep>
   <time name="total">   22.04   22.52</time>
   <energy>
    <i name="e_fr_energy">     -2.41815147 </i>
    <i name="e_wo_entrp">     -2.41815147 </i>
    <i name="e_0_energy">     -2.41815147 </i>
   </energy>
  </scstep>
  <scstep>
   <time name="total">   21.49   21.59</time>
   <energy>
    <i name="e_fr_energy">     -2.41815148 </i>
    <i name="e_wo_entrp">     -2.41815148 </i>
    <i name="e_0_energy">     -2.41815148 </i>
   </energy>
  </scstep>
  <scstep>
   <time name="total">   15.72   15.90</time>
   <energy>
    <i name="e_fr_energy">     -1.52969795 </i>
    <i name="e_wo_entrp">     -1.52969795 </i>
    <i name="e_0_energy">     -1.52969795 </i>
   </energy>
  </scstep>
  <scstep>
   <time name="total">   19.09   19.38</time>
   <energy>
    <i name="e_fr_energy">     -2.40505991 </i>
    <i name="e_wo_entrp">     -2.40505991 </i>
    <i name="e_0_energy">     -2.40505991 </i>
   </energy>
  </scstep>
  <scstep>
   <time name="total">   21.95   22.32</time>
   <energy>
    <i name="e_fr_energy">     -2.41512345 </i>
    <i name="e_wo_entrp">     -2.41512345 </i>
    <i name="e_0_energy">     -2.41512345 </i>
   </energy>
  </scstep>
  <scstep>
   <time name="total">   22.99   23.17</time>
   <energy>
    <i name="e_fr_energy">     -2.41711590 </i>
    <i name="e_wo_entrp">     -2.41711590 </i>
    <i name="e_0_energy">     -2.41711590 </i>
   </energy>
  </scstep>
  <scstep>
   <time name="total">   23.65   23.91</time>
   <energy>
    <i name="e_fr_energy">     -2.41769985 </i>
    <i name="e_wo_entrp">     -2.41769985 </i>
    <i name="e_0_energy">     -2.41769985 </i>
   </energy>
  </scstep>
  <scstep>
   <time name="total">   23.50   23.79</time>
   <energy>
    <i name="e_fr_energy">     -2.41783201 </i>
    <i name="e_wo_entrp">     -2.41783201 </i>
    <i name="e_0_energy">     -2.41783201 </i>
   </energy>
  </scstep>
  <scstep>
   <time name="total">   23.63   23.75</time>
   <energy>
    <i name="e_fr_energy">     -2.41786570 </i>
    <i name="e_wo_entrp">     -2.41786570 </i>
    <i name="e_0_energy">     -2.41786570 </i>
   </energy>
  </scstep>
  <scstep>
   <time name="total">   23.55   23.66</time>
   <energy>
    <i name="e_fr_energy">     -2.41787466 </i>
    <i name="e_wo_entrp">     -2.41787466 </i>
    <i name="e_0_energy">     -2.41787466 </i>
   </energy>
  </scstep>
  <scstep>
   <time name="total">   23.24   23.54</time>
   <energy>
    <i name="e_fr_energy">     -2.41787739 </i>
    <i name="e_wo_entrp">     -2.41787739 </i>
    <i name="e_0_energy">     -2.41787739 </i>
   </energy>
  </scstep>
  <scstep>
   <time name="total">   23.36   23.69</time>
   <energy>
    <i name="e_fr_energy">     -2.41787823 </i>
    <i name="e_wo_entrp">     -2.41787823 </i>
    <i name="e_0_energy">     -2.41787823 </i>
   </energy>
  </scstep>
  <scstep>
   <time name="total">   23.33   23.45</time>
   <energy>
    <i name="e_fr_energy">     -2.41787852 </i>
    <i name="e_wo_entrp">     -2.41787852 </i>
    <i name="e_0_energy">     -2.41787852 </i>
   </energy>
  </scstep>
  <scstep>
   <time name="total">   22.36   23.44</time>
   <energy>
    <i name="e_fr_energy">     -2.41787861 </i>
    <i name="e_wo_entrp">     -2.41787861 </i>
    <i name="e_0_energy">     -2.41787861 </i>
   </energy>
  </scstep>
  <scstep>
   <time name="total">   21.43   23.07</time>
   <energy>
    <i name="e_fr_energy">     -2.41787865 </i>
    <i name="e_wo_entrp">     -2.41787865 </i>
    <i name="e_0_energy">     -2.41787865 </i>
   </energy>
  </scstep>
  <scstep>
   <time name="total">   22.46   22.58</time>
   <energy>
    <i name="e_fr_energy">     -2.41787866 </i>
    <i name="e_wo_entrp">     -2.41787866 </i>
    <i name="e_0_energy">     -2.41787866 </i>
   </energy>
  </scstep>
  <scstep>
   <time name="total">   21.81   22.09</time>
   <energy>
    <i name="e_fr_energy">     -2.41787866 </i>
    <i name="e_wo_entrp">     -2.41787866 </i>
    <i name="e_0_energy">     -2.41787866 </i>
   </energy>
  </scstep>
  <scstep>
   <time name="total">   15.97   16.14</time>
   <energy>
    <i name="e_fr_energy">     -1.59379961 </i>
    <i name="e_wo_entrp">     -1.59379961 </i>
    <i name="e_0_energy">     -1.59379961 </i>
   </energy>
  </scstep>
  <scstep>
   <time name="total">   18.72   19.01</time>
   <energy>
    <i name="e_fr_energy">     -2.48024560 </i>
    <i name="e_wo_entrp">     -2.48024560 </i>
    <i name="e_0_energy">     -2.48024560 </i>
   </energy>
  </scstep>
  <scstep>
   <time name="total">   21.97   22.16</time>
   <energy>
    <i name="e_fr_energy">     -2.49168137 </i>
    <i name="e_wo_entrp">     -2.49168137 </i>
    <i name="e_0_energy">     -2.49168137 </i>
   </energy>
  </scstep>
  <scstep>
   <time name="total">   23.06   23.31</time>
   <energy>
    <i name="e_fr_energy">     -2.49399224 </i>
    <i name="e_wo_entrp">     -2.49399224 </i>
    <i name="e_0_energy">     -2.49399224 </i>
   </energy>
  </scstep>
  <scstep>
   <time name="total">   23.18   23.85</time>
   <energy>
    <i name="e_fr_energy">     -2.49467137 </i>
    <i name="e_wo_entrp">     -2.49467137 </i>
    <i name="e_0_energy">     -2.49467137 </i>
   </energy>
  </scstep>
  <scstep>
   <time name="total">   23.36   23.74</time>
   <energy>
    <i name="e_fr_energy">     -2.49481545 </i>
    <i name="e_wo_entrp">     -2.49481545 </i>
    <i name="e_0_energy">     -2.49481545 </i>
   </energy>
  </scstep>
  <scstep>
   <time name="total">   23.62   23.73</time>
   <energy>
    <i name="e_fr_energy">     -2.49484909 </i>
    <i name="e_wo_entrp">     -2.49484909 </i>
    <i name="e_0_energy">     -2.49484909 </i>
   </energy>
  </scstep>
  <scstep>
   <time name="total">   23.26   23.57</time>
   <energy>
    <i name="e_fr_energy">     -2.49485705 </i>
    <i name="e_wo_entrp">     -2.49485705 </i>
    <i name="e_0_energy">     -2.49485705 </i>
   </energy>
  </scstep>
  <scstep>
   <time name="total">   23.19   23.54</time>
   <energy>
    <i name="e_fr_energy">     -2.49485923 </i>
    <i name="e_wo_entrp">     -2.49485923 </i>
    <i name="e_0_energy">     -2.49485923 </i>
   </energy>
  </scstep>
  <scstep>
   <time name="total">   23.41   23.51</time>
   <energy>
    <i name="e_fr_energy">     -2.49485984 </i>
    <i name="e_wo_entrp">     -2.49485984 </i>
    <i name="e_0_energy">     -2.49485984 </i>
   </energy>
  </scstep>
  <scstep>
   <time name="total">   23.33   23.65</time>
   <energy>
    <i name="e_fr_energy">     -2.49486003 </i>
    <i name="e_wo_entrp">     -2.49486003 </i>
    <i name="e_0_energy">     -2.49486003 </i>
   </energy>
  </scstep>
  <scstep>
   <time name="total">   23.29   23.56</time>
   <energy>
    <i name="e_fr_energy">     -2.49486010 </i>
    <i name="e_wo_entrp">     -2.49486010 </i>
    <i name="e_0_energy">     -2.49486010 </i>
   </energy>
  </scstep>
  <scstep>
   <time name="total">   22.97   23.11</time>
   <energy>
    <i name="e_fr_energy">     -2.49486012 </i>
    <i name="e_wo_entrp">     -2.49486012 </i>
    <i name="e_0_energy">     -2.49486012 </i>
   </energy>
  </scstep>
  <scstep>
   <time name="total">   22.25   22.47</time>
   <energy>
    <i name="e_fr_energy">     -2.49486012 </i>
    <i name="e_wo_entrp">     -2.49486012 </i>
    <i name="e_0_energy">     -2.49486012 </i>
   </energy>
  </scstep>
  <varray name="epsilon_rpa" >
   <v>       6.56193970       0.01242649      -0.00460502 </v>
   <v>       0.01241490       6.56131248      -0.00461695 </v>
   <v>      -0.00457481      -0.00460253       6.73837693 </v>
  </varray>
  <scstep>
   <time name="total">   15.85   16.00</time>
   <energy>
    <i name="e_fr_energy">     -1.53021742 </i>
    <i name="e_wo_entrp">     -1.53021742 </i>
    <i name="e_0_energy">     -1.53021742 </i>
   </energy>
  </scstep>
  <scstep>
   <time name="total">   20.70   21.10</time>
   <energy>
    <i name="e_fr_energy">     -2.40530640 </i>
    <i name="e_wo_entrp">     -2.40530640 </i>
    <i name="e_0_energy">     -2.40530640 </i>
   </energy>
  </scstep>
  <scstep>
   <time name="total">   21.34   21.48</time>
   <energy>
    <i name="e_fr_energy">     -2.36466615 </i>
    <i name="e_wo_entrp">     -2.36466615 </i>
    <i name="e_0_energy">     -2.36466615 </i>
   </energy>
  </scstep>
  <scstep>
   <time name="total">   22.35   22.70</time>
   <energy>
    <i name="e_fr_energy">     -2.40664720 </i>
    <i name="e_wo_entrp">     -2.40664720 </i>
    <i name="e_0_energy">     -2.40664720 </i>
   </energy>
  </scstep>
  <scstep>
   <time name="total">   23.40   23.66</time>
   <energy>
    <i name="e_fr_energy">     -2.45519811 </i>
    <i name="e_wo_entrp">     -2.45519811 </i>
    <i name="e_0_energy">     -2.45519811 </i>
   </energy>
  </scstep>
  <scstep>
   <time name="total">   23.78   24.17</time>
   <energy>
    <i name="e_fr_energy">     -2.48418516 </i>
    <i name="e_wo_entrp">     -2.48418516 </i>
    <i name="e_0_energy">     -2.48418516 </i>
   </energy>
  </scstep>
  <scstep>
   <time name="total">   24.61   24.90</time>
   <energy>
    <i name="e_fr_energy">     -2.49405697 </i>
    <i name="e_wo_entrp">     -2.49405697 </i>
    <i name="e_0_energy">     -2.49405697 </i>
   </energy>
  </scstep>
  <scstep>
   <time name="total">   23.59   23.87</time>
   <energy>
    <i name="e_fr_energy">     -2.50089094 </i>
    <i name="e_wo_entrp">     -2.50089094 </i>
    <i name="e_0_energy">     -2.50089094 </i>
   </energy>
  </scstep>
  <scstep>
   <time name="total">   21.90   22.11</time>
   <energy>
    <i name="e_fr_energy">     -2.51045309 </i>
    <i name="e_wo_entrp">     -2.51045309 </i>
    <i name="e_0_energy">     -2.51045309 </i>
   </energy>
  </scstep>
  <scstep>
   <time name="total">   21.85   21.98</time>
   <energy>
    <i name="e_fr_energy">     -2.51566963 </i>
    <i name="e_wo_entrp">     -2.51566963 </i>
    <i name="e_0_energy">     -2.51566963 </i>
   </energy>
  </scstep>
  <scstep>
   <time name="total">   21.18   21.53</time>
   <energy>
    <i name="e_fr_energy">     -2.52519162 </i>
    <i name="e_wo_entrp">     -2.52519162 </i>
    <i name="e_0_energy">     -2.52519162 </i>
   </energy>
  </scstep>
  <scstep>
   <time name="total">   21.82   22.04</time>
   <energy>
    <i name="e_fr_energy">     -2.52698680 </i>
    <i name="e_wo_entrp">     -2.52698680 </i>
    <i name="e_0_energy">     -2.52698680 </i>
   </energy>
  </scstep>
  <scstep>
   <time name="total">   22.71   23.05</time>
   <energy>
    <i name="e_fr_energy">     -2.52763878 </i>
    <i name="e_wo_entrp">     -2.52763878 </i>
    <i name="e_0_energy">     -2.52763878 </i>
   </energy>
  </scstep>
  <scstep>
   <time name="total">   22.58   22.66</time>
   <energy>
    <i name="e_fr_energy">     -2.52832041 </i>
    <i name="e_wo_entrp">     -2.52832041 </i>
    <i name="e_0_energy">     -2.52832041 </i>
   </energy>
  </scstep>
  <scstep>
   <time name="total">   21.54   21.68</time>
   <energy>
    <i name="e_fr_energy">     -2.52992053 </i>
    <i name="e_wo_entrp">     -2.52992053 </i>
    <i name="e_0_energy">     -2.52992053 </i>
   </energy>
  </scstep>
  <scstep>
   <time name="total">   21.54   21.63</time>
   <energy>
    <i name="e_fr_energy">     -2.53067545 </i>
    <i name="e_wo_entrp">     -2.53067545 </i>
    <i name="e_0_energy">     -2.53067545 </i>
   </energy>
  </scstep>
  <scstep>
   <time name="total">   21.37   21.53</time>
   <energy>
    <i name="e_fr_energy">     -2.53100835 </i>
    <i name="e_wo_entrp">     -2.53100835 </i>
    <i name="e_0_energy">     -2.53100835 </i>
   </energy>
  </scstep>
  <scstep>
   <time name="total">   21.30   21.44</time>
   <energy>
    <i name="e_fr_energy">     -2.53179134 </i>
    <i name="e_wo_entrp">     -2.53179134 </i>
    <i name="e_0_energy">     -2.53179134 </i>
   </energy>
  </scstep>
  <scstep>
   <time name="total">   21.61   21.79</time>
   <energy>
    <i name="e_fr_energy">     -2.53272028 </i>
    <i name="e_wo_entrp">     -2.53272028 </i>
    <i name="e_0_energy">     -2.53272028 </i>
   </energy>
  </scstep>
  <scstep>
   <time name="total">   24.11   24.19</time>
   <energy>
    <i name="e_fr_energy">     -2.53308309 </i>
    <i name="e_wo_entrp">     -2.53308309 </i>
    <i name="e_0_energy">     -2.53308309 </i>
   </energy>
  </scstep>
  <scstep>
   <time name="total">   24.27   24.45</time>
   <energy>
    <i name="e_fr_energy">     -2.53295778 </i>
    <i name="e_wo_entrp">     -2.53295778 </i>
    <i name="e_0_energy">     -2.53295778 </i>
   </energy>
  </scstep>
  <scstep>
   <time name="total">   23.65   23.84</time>
   <energy>
    <i name="e_fr_energy">     -2.53307358 </i>
    <i name="e_wo_entrp">     -2.53307358 </i>
    <i name="e_0_energy">     -2.53307358 </i>
   </energy>
  </scstep>
  <scstep>
   <time name="total">   22.39   22.50</time>
   <energy>
    <i name="e_fr_energy">     -2.53304170 </i>
    <i name="e_wo_entrp">     -2.53304170 </i>
    <i name="e_0_energy">     -2.53304170 </i>
   </energy>
  </scstep>
  <scstep>
   <time name="total">   22.10   22.18</time>
   <energy>
    <i name="e_fr_energy">     -2.53308327 </i>
    <i name="e_wo_entrp">     -2.53308327 </i>
    <i name="e_0_energy">     -2.53308327 </i>
   </energy>
  </scstep>
  <scstep>
   <time name="total">   22.35   22.52</time>
   <energy>
    <i name="e_fr_energy">     -2.53305490 </i>
    <i name="e_wo_entrp">     -2.53305490 </i>
    <i name="e_0_energy">     -2.53305490 </i>
   </energy>
  </scstep>
  <scstep>
   <time name="total">   23.61   23.91</time>
   <energy>
    <i name="e_fr_energy">     -2.53311548 </i>
    <i name="e_wo_entrp">     -2.53311548 </i>
    <i name="e_0_energy">     -2.53311548 </i>
   </energy>
  </scstep>
  <scstep>
   <time name="total">   24.81   25.22</time>
   <energy>
    <i name="e_fr_energy">     -2.53308687 </i>
    <i name="e_wo_entrp">     -2.53308687 </i>
    <i name="e_0_energy">     -2.53308687 </i>
   </energy>
  </scstep>
  <scstep>
   <time name="total">   24.94   25.07</time>
   <energy>
    <i name="e_fr_energy">     -2.53309106 </i>
    <i name="e_wo_entrp">     -2.53309106 </i>
    <i name="e_0_energy">     -2.53309106 </i>
   </energy>
  </scstep>
  <scstep>
   <time name="total">   24.07   24.24</time>
   <energy>
    <i name="e_fr_energy">     -2.53308314 </i>
    <i name="e_wo_entrp">     -2.53308314 </i>
    <i name="e_0_energy">     -2.53308314 </i>
   </energy>
  </scstep>
  <scstep>
   <time name="total">   22.74   23.03</time>
   <energy>
    <i name="e_fr_energy">     -2.53309067 </i>
    <i name="e_wo_entrp">     -2.53309067 </i>
    <i name="e_0_energy">     -2.53309067 </i>
   </energy>
  </scstep>
  <scstep>
   <time name="total">   22.87   23.04</time>
   <energy>
    <i name="e_fr_energy">     -2.53308782 </i>
    <i name="e_wo_entrp">     -2.53308782 </i>
    <i name="e_0_energy">     -2.53308782 </i>
   </energy>
  </scstep>
  <scstep>
   <time name="total">   22.99   23.20</time>
   <energy>
    <i name="e_fr_energy">     -2.53309548 </i>
    <i name="e_wo_entrp">     -2.53309548 </i>
    <i name="e_0_energy">     -2.53309548 </i>
   </energy>
  </scstep>
  <scstep>
   <time name="total">   24.15   24.31</time>
   <energy>
    <i name="e_fr_energy">     -2.53308306 </i>
    <i name="e_wo_entrp">     -2.53308306 </i>
    <i name="e_0_energy">     -2.53308306 </i>
   </energy>
  </scstep>
  <scstep>
   <time name="total">   23.90   24.11</time>
   <energy>
    <i name="e_fr_energy">     -2.53309771 </i>
    <i name="e_wo_entrp">     -2.53309771 </i>
    <i name="e_0_energy">     -2.53309771 </i>
   </energy>
  </scstep>
  <scstep>
   <time name="total">   22.86   23.14</time>
   <energy>
    <i name="e_fr_energy">     -2.53308937 </i>
    <i name="e_wo_entrp">     -2.53308937 </i>
    <i name="e_0_energy">     -2.53308937 </i>
   </energy>
  </scstep>
  <scstep>
   <time name="total">   16.01   16.12</time>
   <energy>
    <i name="e_fr_energy">     -1.52969795 </i>
    <i name="e_wo_entrp">     -1.52969795 </i>
    <i name="e_0_energy">     -1.52969795 </i>
   </energy>
  </scstep>
  <scstep>
   <time name="total">   21.19   21.35</time>
   <energy>
    <i name="e_fr_energy">     -2.40505991 </i>
    <i name="e_wo_entrp">     -2.40505991 </i>
    <i name="e_0_energy">     -2.40505991 </i>
   </energy>
  </scstep>
  <scstep>
   <time name="total">   21.10   21.62</time>
   <energy>
    <i name="e_fr_energy">     -2.37982621 </i>
    <i name="e_wo_entrp">     -2.37982621 </i>
    <i name="e_0_energy">     -2.37982621 </i>
   </energy>
  </scstep>
  <scstep>
   <time name="total">   22.38   22.53</time>
   <energy>
    <i name="e_fr_energy">     -2.41213738 </i>
    <i name="e_wo_entrp">     -2.41213738 </i>
    <i name="e_0_energy">     -2.41213738 </i>
   </energy>
  </scstep>
  <scstep>
   <time name="total">   23.71   23.84</time>
   <energy>
    <i name="e_fr_energy">     -2.46107465 </i>
    <i name="e_wo_entrp">     -2.46107465 </i>
    <i name="e_0_energy">     -2.46107465 </i>
   </energy>
  </scstep>
  <scstep>
   <time name="total">   23.96   24.28</time>
   <energy>
    <i name="e_fr_energy">     -2.49171085 </i>
    <i name="e_wo_entrp">     -2.49171085 </i>
    <i name="e_0_energy">     -2.49171085 </i>
   </energy>
  </scstep>
  <scstep>
   <time name="total">   24.64   24.82</time>
   <energy>
    <i name="e_fr_energy">     -2.49718613 </i>
    <i name="e_wo_entrp">     -2.49718613 </i>
    <i name="e_0_energy">     -2.49718613 </i>
   </energy>
  </scstep>
  <scstep>
   <time name="total">   23.77   23.85</time>
   <energy>
    <i name="e_fr_energy">     -2.50225828 </i>
    <i name="e_wo_entrp">     -2.50225828 </i>
    <i name="e_0_energy">     -2.50225828 </i>
   </energy>
  </scstep>
  <scstep>
   <time name="total">   21.86   22.04</time>
   <energy>
    <i name="e_fr_energy">     -2.50881546 </i>
    <i name="e_wo_entrp">     -2.50881546 </i>
    <i name="e_0_energy">     -2.50881546 </i>
   </energy>
  </scstep>
  <scstep>
   <time name="total">   21.85   21.95</time>
   <energy>
    <i name="e_fr_energy">     -2.50929355 </i>
    <i name="e_wo_entrp">     -2.50929355 </i>
    <i name="e_0_energy">     -2.50929355 </i>
   </energy>
  </scstep>
  <scstep>
   <time name="total">   21.16   21.43</time>
   <energy>
    <i name="e_fr_energy">     -2.51147864 </i>
    <i name="e_wo_entrp">     -2.51147864 </i>
    <i name="e_0_energy">     -2.51147864 </i>
   </energy>
  </scstep>
  <scstep>
   <time name="total">   22.11   22.30</time>
   <energy>
    <i name="e_fr_energy">     -2.51133594 </i>
    <i name="e_wo_entrp">     -2.51133594 </i>
    <i name="e_0_energy">     -2.51133594 </i>
   </energy>
  </scstep>
  <scstep>
   <time name="total">   22.89   23.15</time>
   <energy>
    <i name="e_fr_energy">     -2.51253036 </i>
    <i name="e_wo_entrp">     -2.51253036 </i>
    <i name="e_0_energy">     -2.51253036 </i>
   </energy>
  </scstep>
  <scstep>
   <time name="total">   22.47   22.72</time>
   <energy>
    <i name="e_fr_energy">     -2.51435912 </i>
    <i name="e_wo_entrp">     -2.51435912 </i>
    <i name="e_0_energy">     -2.51435912 </i>
   </energy>
  </scstep>
  <scstep>
   <time name="total">   21.35   21.61</time>
   <energy>
    <i name="e_fr_energy">     -2.51758905 </i>
    <i name="e_wo_entrp">     -2.51758905 </i>
    <i name="e_0_energy">     -2.51758905 </i>
   </energy>
  </scstep>
  <scstep>
   <time name="total">   21.71   21.82</time>
   <energy>
[...]
       <r>     1.6461     5.1006    39.5396 </r>
       <r>     1.8966     7.5843    41.4395 </r>
       <r>     2.1471     8.9697    43.6864 </r>
       <r>     2.3976     4.3338    44.7721 </r>
       <r>     2.6481     3.8758    45.7430 </r>
       <r>     2.8986     5.1933    47.0439 </r>
       <r>     3.1491     1.3878    47.3915 </r>
       <r>     3.3996     2.6775    48.0623 </r>
       <r>     3.6501     3.4512    48.9268 </r>
       <r>     3.9006     3.6965    49.8528 </r>
       <r>     4.1511     4.2910    50.9277 </r>
       <r>     4.4016     4.5451    52.0662 </r>
       <r>     4.6521     3.6868    52.9898 </r>
       <r>     4.9026     3.2601    53.8065 </r>
       <r>     5.1531     0.7726    54.0000 </r>
       <r>     5.4036     0.0000    54.0000 </r>
       <r>     5.6541     0.0000    54.0000 </r>
       <r>     5.9046     0.0000    54.0000 </r>
       <r>     6.1551     0.0000    54.0000 </r>
       <r>     6.4056     0.0000    54.0000 </r>
       <r>     6.6561     0.0000    54.0000 </r>
       <r>     6.9066     0.0000    54.0000 </r>
       <r>     7.1571     0.0000    54.0000 </r>
       <r>     7.4076     0.0241    54.0060 </r>
       <r>     7.6581     0.0030    54.0068 </r>
       <r>     7.9086     0.0104    54.0094 </r>
       <r>     8.1591     0.1571    54.0488 </r>
       <r>     8.4096     0.3528    54.1371 </r>
       <r>     8.6601     0.7847    54.3337 </r>
       <r>     8.9107     1.0118    54.5872 </r>
       <r>     9.1612     2.1962    55.1373 </r>
       <r>     9.4117     2.1716    55.6813 </r>
       <r>     9.6622     1.0937    55.9553 </r>
       <r>     9.9127     3.0417    56.7172 </r>
       <r>    10.1632     1.8086    57.1703 </r>
       <r>    10.4137     2.4017    57.7719 </r>
       <r>    10.6642     2.0716    58.2909 </r>
       <r>    10.9147     1.4695    58.6590 </r>
       <r>    11.1652     2.5360    59.2943 </r>
       <r>    11.4157     3.0926    60.0690 </r>
       <r>    11.6662     3.7452    61.0071 </r>
       <r>    11.9167     3.1098    61.7861 </r>
       <r>    12.1672     3.3434    62.6237 </r>
       <r>    12.4177     2.0933    63.1480 </r>
       <r>    12.6682     3.7171    64.0792 </r>
       <r>    12.9187     3.0478    64.8427 </r>
       <r>    13.1692     2.2925    65.4169 </r>
       <r>    13.4197     2.9995    66.1683 </r>
       <r>    13.6702     3.5105    67.0477 </r>
       <r>    13.9207     2.2551    67.6126 </r>
       <r>    14.1712     1.5979    68.0129 </r>
       <r>    14.4217     2.3676    68.6060 </r>
       <r>    14.6722     1.8798    69.0769 </r>
       <r>    14.9227     1.3836    69.4235 </r>
       <r>    15.1732     1.2746    69.7428 </r>
       <r>    15.4237     1.9011    70.2190 </r>
       <r>    15.6742     2.3206    70.8003 </r>
       <r>    15.9247     1.0780    71.0703 </r>
       <r>    16.1752     1.3800    71.4160 </r>
       <r>    16.4257     1.9521    71.9051 </r>
       <r>    16.6762     0.3784    71.9998 </r>
       <r>    16.9267     0.0006    72.0000 </r>
       <r>    17.1772     0.0000    72.0000 </r>
       <r>    17.4277     0.0000    72.0000 </r>
       <r>    17.6782     0.0000    72.0000 </r>
       <r>    17.9287     0.0000    72.0000 </r>
       <r>    18.1792     0.0000    72.0000 </r>
       <r>    18.4297     0.0000    72.0000 </r>
       <r>    18.6802     0.0000    72.0000 </r>
       <r>    18.9307     0.0000    72.0000 </r>
       <r>    19.1812     0.0000    72.0000 </r>
       <r>    19.4317     0.0000    72.0000 </r>
       <r>    19.6822     0.0000    72.0000 </r>
       <r>    19.9327     0.0000    72.0000 </r>
       <r>    20.1832     0.0000    72.0000 </r>
       <r>    20.4337     0.0000    72.0000 </r>
       <r>    20.6842     0.0000    72.0000 </r>
      </set>
      <set comment="spin 2">
       <r>   -54.4663     0.0000     0.0000 </r>
       <r>   -54.2158     0.0000     0.0000 </r>
       <r>   -53.9653     0.0000     0.0000 </r>
       <r>   -53.7148     0.0000     0.0000 </r>
       <r>   -53.4643     0.0000     0.0000 </r>
       <r>   -53.2138     0.0000     0.0000 </r>
       <r>   -52.9633     0.0000     0.0000 </r>
       <r>   -52.7128     0.0000     0.0000 </r>
       <r>   -52.4623     0.0000     0.0000 </r>
       <r>   -52.2118     0.0000     0.0000 </r>
       <r>   -51.9613     0.0000     0.0000 </r>
       <r>   -51.7108     0.0000     0.0000 </r>
       <r>   -51.4603     0.0000     0.0000 </r>
       <r>   -51.2098     0.0000     0.0000 </r>
       <r>   -50.9593     0.0000     0.0000 </r>
       <r>   -50.7088     0.0000     0.0000 </r>
       <r>   -50.4583     0.0000     0.0000 </r>
       <r>   -50.2078     0.0000     0.0000 </r>
       <r>   -49.9573     0.0000     0.0000 </r>
       <r>   -49.7068     0.0000     0.0000 </r>
       <r>   -49.4563     0.0000     0.0000 </r>
       <r>   -49.2058     0.0000     0.0000 </r>
       <r>   -48.9553     0.0000     0.0000 </r>
       <r>   -48.7048     0.0000     0.0000 </r>
       <r>   -48.4543     0.0000     0.0000 </r>
       <r>   -48.2038     0.0000     0.0000 </r>
       <r>   -47.9533     0.0000     0.0000 </r>
       <r>   -47.7028     0.0000     0.0000 </r>
       <r>   -47.4523     0.0000     0.0000 </r>
       <r>   -47.2018     0.0000     0.0000 </r>
       <r>   -46.9513     0.0000     0.0000 </r>
       <r>   -46.7008     0.0000     0.0000 </r>
       <r>   -46.4503     0.0000     0.0000 </r>
       <r>   -46.1998    15.6530     3.9211 </r>
       <r>   -45.9493     2.6919     4.5955 </r>
       <r>   -45.6988    29.5584    11.9999 </r>
       <r>   -45.4483     0.0004    12.0000 </r>
       <r>   -45.1978     0.0000    12.0000 </r>
       <r>   -44.9473     0.0000    12.0000 </r>
       <r>   -44.6968     0.0000    12.0000 </r>
       <r>   -44.4463     0.0000    12.0000 </r>
       <r>   -44.1958     0.0000    12.0000 </r>
       <r>   -43.9452     0.0000    12.0000 </r>
       <r>   -43.6947     0.0000    12.0000 </r>
       <r>   -43.4442     0.0000    12.0000 </r>
       <r>   -43.1937     0.0000    12.0000 </r>
       <r>   -42.9432     0.0000    12.0000 </r>
       <r>   -42.6927     0.0000    12.0000 </r>
       <r>   -42.4422     0.0000    12.0000 </r>
       <r>   -42.1917     0.0000    12.0000 </r>
       <r>   -41.9412     0.0000    12.0000 </r>
       <r>   -41.6907     0.0000    12.0000 </r>
       <r>   -41.4402     0.0000    12.0000 </r>
       <r>   -41.1897     0.0000    12.0000 </r>
       <r>   -40.9392     0.0000    12.0000 </r>
       <r>   -40.6887     0.0000    12.0000 </r>
       <r>   -40.4382     0.0000    12.0000 </r>
       <r>   -40.1877     0.0000    12.0000 </r>
       <r>   -39.9372     0.1204    12.0302 </r>
       <r>   -39.6867     7.8635    14.0000 </r>
       <r>   -39.4362     0.0000    14.0000 </r>
       <r>   -39.1857     0.0000    14.0000 </r>
       <r>   -38.9352     0.0000    14.0000 </r>
       <r>   -38.6847     0.0000    14.0000 </r>
       <r>   -38.4342     0.0000    14.0000 </r>
       <r>   -38.1837     0.0000    14.0000 </r>
       <r>   -37.9332     0.0000    14.0000 </r>
       <r>   -37.6827     0.0000    14.0000 </r>
       <r>   -37.4322     0.0000    14.0000 </r>
       <r>   -37.1817     0.0000    14.0000 </r>
       <r>   -36.9312     0.0000    14.0000 </r>
       <r>   -36.6807     0.0000    14.0000 </r>
       <r>   -36.4302     0.0000    14.0000 </r>
       <r>   -36.1797     0.0000    14.0000 </r>
       <r>   -35.9292     0.0000    14.0000 </r>
       <r>   -35.6787     0.0000    14.0000 </r>
       <r>   -35.4282     0.0000    14.0000 </r>
       <r>   -35.1777     0.0000    14.0000 </r>
       <r>   -34.9272     0.0000    14.0000 </r>
       <r>   -34.6767     0.0000    14.0000 </r>
       <r>   -34.4262     0.0000    14.0000 </r>
       <r>   -34.1757     0.0000    14.0000 </r>
       <r>   -33.9252     0.0000    14.0000 </r>
       <r>   -33.6747     0.0000    14.0000 </r>
       <r>   -33.4242     0.0000    14.0000 </r>
       <r>   -33.1737     0.0000    14.0000 </r>
       <r>   -32.9232     0.0000    14.0000 </r>
       <r>   -32.6727     0.0000    14.0000 </r>
       <r>   -32.4222     0.0000    14.0000 </r>
       <r>   -32.1717     0.0000    14.0000 </r>
       <r>   -31.9212     0.0000    14.0000 </r>
       <r>   -31.6707     0.0000    14.0000 </r>
       <r>   -31.4202     0.0000    14.0000 </r>
       <r>   -31.1697     0.0000    14.0000 </r>
       <r>   -30.9192     0.0000    14.0000 </r>
       <r>   -30.6686     0.0000    14.0000 </r>
       <r>   -30.4181     0.0000    14.0000 </r>
       <r>   -30.1676     0.0000    14.0000 </r>
       <r>   -29.9171     0.0000    14.0000 </r>
       <r>   -29.6666     0.0000    14.0000 </r>
       <r>   -29.4161     0.0000    14.0000 </r>
       <r>   -29.1656     0.0000    14.0000 </r>
       <r>   -28.9151     0.0000    14.0000 </r>
       <r>   -28.6646     0.0000    14.0000 </r>
       <r>   -28.4141     0.0000    14.0000 </r>
       <r>   -28.1636     0.0000    14.0000 </r>
       <r>   -27.9131     0.0000    14.0000 </r>
       <r>   -27.6626     0.0000    14.0000 </r>
       <r>   -27.4121     0.0000    14.0000 </r>
       <r>   -27.1616     0.0000    14.0000 </r>
       <r>   -26.9111     0.0000    14.0000 </r>
       <r>   -26.6606     0.0000    14.0000 </r>
       <r>   -26.4101     0.0000    14.0000 </r>
       <r>   -26.1596     0.0000    14.0000 </r>
       <r>   -25.9091     0.0000    14.0000 </r>
       <r>   -25.6586     0.0000    14.0000 </r>
       <r>   -25.4081     0.0000    14.0000 </r>
       <r>   -25.1576     0.0000    14.0000 </r>
       <r>   -24.9071     0.0000    14.0000 </r>
       <r>   -24.6566     0.0000    14.0000 </r>
       <r>   -24.4061     0.0000    14.0000 </r>
       <r>   -24.1556     0.0000    14.0000 </r>
       <r>   -23.9051     0.0000    14.0000 </r>
       <r>   -23.6546     0.0000    14.0000 </r>
       <r>   -23.4041     0.0000    14.0000 </r>
       <r>   -23.1536     0.0000    14.0000 </r>
       <r>   -22.9031     0.0000    14.0000 </r>
       <r>   -22.6526     0.0000    14.0000 </r>
       <r>   -22.4021     0.0000    14.0000 </r>
       <r>   -22.1516     0.0000    14.0000 </r>
       <r>   -21.9011     0.0000    14.0000 </r>
       <r>   -21.6506     0.0000    14.0000 </r>
       <r>   -21.4001     0.0000    14.0000 </r>
       <r>   -21.1496     0.0000    14.0000 </r>
       <r>   -20.8991     0.0000    14.0000 </r>
       <r>   -20.6486     0.0000    14.0000 </r>
       <r>   -20.3981     0.0000    14.0000 </r>
       <r>   -20.1476     0.0000    14.0000 </r>
       <r>   -19.8971     0.0000    14.0000 </r>
       <r>   -19.6466     0.0000    14.0000 </r>
       <r>   -19.3961     0.0000    14.0000 </r>
       <r>   -19.1456     0.0000    14.0000 </r>
       <r>   -18.8951     0.0000    14.0000 </r>
       <r>   -18.6446     0.0000    14.0000 </r>
       <r>   -18.3941     0.0000    14.0000 </r>
       <r>   -18.1436     0.0000    14.0000 </r>
       <r>   -17.8931     0.0000    14.0000 </r>
       <r>   -17.6425     0.0000    14.0000 </r>
       <r>   -17.3920     0.0000    14.0000 </r>
       <r>   -17.1415     0.0000    14.0000 </r>
       <r>   -16.8910     0.0000    14.0000 </r>
       <r>   -16.6405     0.0000    14.0000 </r>
       <r>   -16.3900     0.0000    14.0000 </r>
       <r>   -16.1395     0.0000    14.0000 </r>
       <r>   -15.8890     0.0000    14.0000 </r>
       <r>   -15.6385     0.0000    14.0000 </r>
       <r>   -15.3880     0.0000    14.0000 </r>
       <r>   -15.1375     0.0000    14.0000 </r>
       <r>   -14.8870     0.0000    14.0000 </r>
       <r>   -14.6365     0.0000    14.0000 </r>
       <r>   -14.3860     0.0000    14.0000 </r>
       <r>   -14.1355     0.0000    14.0000 </r>
       <r>   -13.8850     0.0000    14.0000 </r>
       <r>   -13.6345     0.0000    14.0000 </r>
       <r>   -13.3840     0.0000    14.0000 </r>
       <r>   -13.1335     0.0000    14.0000 </r>
       <r>   -12.8830     0.0583    14.0146 </r>
       <r>   -12.6325     6.8895    15.7404 </r>
       <r>   -12.3820     1.0362    16.0000 </r>
       <r>   -12.1315     0.0000    16.0000 </r>
       <r>   -11.8810     0.0000    16.0000 </r>
       <r>   -11.6305     0.0000    16.0000 </r>
       <r>   -11.3800     0.0000    16.0000 </r>
       <r>   -11.1295     0.0000    16.0000 </r>
       <r>   -10.8790     0.0000    16.0000 </r>
       <r>   -10.6285     0.0000    16.0000 </r>
       <r>   -10.3780     0.0000    16.0000 </r>
       <r>   -10.1275     0.0000    16.0000 </r>
       <r>    -9.8770     0.0000    16.0000 </r>
       <r>    -9.6265     0.0000    16.0000 </r>
       <r>    -9.3760     0.0000    16.0000 </r>
       <r>    -9.1255     0.0000    16.0000 </r>
       <r>    -8.8750     0.0000    16.0000 </r>
       <r>    -8.6245     0.0000    16.0000 </r>
       <r>    -8.3740     0.0000    16.0000 </r>
       <r>    -8.1235     0.0000    16.0000 </r>
       <r>    -7.8730     0.0000    16.0000 </r>
       <r>    -7.6225     0.0000    16.0000 </r>
       <r>    -7.3720     0.0261    16.0065 </r>
       <r>    -7.1215     1.9344    16.4911 </r>
       <r>    -6.8710     3.4219    17.3483 </r>
       <r>    -6.6205     2.9204    18.0799 </r>
       <r>    -6.3700     3.6698    18.9992 </r>
       <r>    -6.1195     0.0033    19.0000 </r>
       <r>    -5.8690     0.0000    19.0000 </r>
       <r>    -5.6185     0.0000    19.0000 </r>
       <r>    -5.3680     0.0000    19.0000 </r>
       <r>    -5.1175     0.0000    19.0000 </r>
       <r>    -4.8670     0.0000    19.0000 </r>
       <r>    -4.6165     0.0000    19.0000 </r>
       <r>    -4.3659     0.0000    19.0000 </r>
       <r>    -4.1154     0.0000    19.0000 </r>
       <r>    -3.8649     0.0000    19.0000 </r>
       <r>    -3.6144     0.0000    19.0000 </r>
       <r>    -3.3639     0.0000    19.0000 </r>
       <r>    -3.1134     0.0000    19.0000 </r>
       <r>    -2.8629     0.0000    19.0000 </r>
       <r>    -2.6124     0.0000    19.0000 </r>
       <r>    -2.3619     0.0000    19.0000 </r>
       <r>    -2.1114     0.0000    19.0000 </r>
       <r>    -1.8609     0.0000    19.0000 </r>
       <r>    -1.6104     0.0000    19.0000 </r>
       <r>    -1.3599     0.0000    19.0000 </r>
       <r>    -1.1094     0.0000    19.0000 </r>
       <r>    -0.8589     0.0000    19.0000 </r>
       <r>    -0.6084     0.0000    19.0000 </r>
       <r>    -0.3579     1.1038    19.2765 </r>
       <r>    -0.1074     2.0550    19.7913 </r>
       <r>     0.1431     1.8819    20.2627 </r>
       <r>     0.3936     2.1248    20.7950 </r>
       <r>     0.6441     4.6048    21.9485 </r>
       <r>     0.8946     4.9348    23.1847 </r>
       <r>     1.1451     4.3865    24.2835 </r>
       <r>     1.3956     3.2944    25.1087 </r>
       <r>     1.6461     3.1363    25.8944 </r>
       <r>     1.8966     3.8126    26.8494 </r>
       <r>     2.1471     4.2121    27.9046 </r>
       <r>     2.3976     3.0890    28.6784 </r>
       <r>     2.6481     3.1345    29.4636 </r>
       <r>     2.8986     5.2815    30.7866 </r>
       <r>     3.1491     5.2889    32.1115 </r>
       <r>     3.3996     5.5522    33.5023 </r>
       <r>     3.6501     1.4001    33.8531 </r>
       <r>     3.9006     1.4735    34.2222 </r>
       <r>     4.1511     6.5459    35.8620 </r>
       <r>     4.4016     6.6441    37.5263 </r>
       <r>     4.6521     1.8906    37.9999 </r>
       <r>     4.9026     0.0003    38.0000 </r>
       <r>     5.1531     0.0000    38.0000 </r>
       <r>     5.4036     0.0000    38.0000 </r>
       <r>     5.6541     0.0000    38.0000 </r>
       <r>     5.9046     0.0000    38.0000 </r>
       <r>     6.1551     0.0000    38.0000 </r>
       <r>     6.4056     0.2067    38.0518 </r>
       <r>     6.6561     0.4569    38.1662 </r>
       <r>     6.9066     1.2491    38.4791 </r>
       <r>     7.1571     3.6934    39.4043 </r>
       <r>     7.4076     5.6863    40.8287 </r>
       <r>     7.6581     7.7478    42.7696 </r>
       <r>     7.9086     6.9685    44.5152 </r>
       <r>     8.1591     8.6386    46.6792 </r>
       <r>     8.4096     9.1658    48.9753 </r>
       <r>     8.6601     7.1570    50.7681 </r>
       <r>     8.9107     6.6299    52.4289 </r>
       <r>     9.1612     4.3374    53.5154 </r>
       <r>     9.4117     1.7758    53.9603 </r>
       <r>     9.6622     0.6711    54.1284 </r>
       <r>     9.9127     1.1700    54.4215 </r>
       <r>    10.1632     1.3646    54.7633 </r>
       <r>    10.4137     2.3663    55.3561 </r>
       <r>    10.6642     3.3017    56.1832 </r>
       <r>    10.9147     1.7700    56.6265 </r>
       <r>    11.1652     3.4323    57.4864 </r>
       <r>    11.4157     2.4359    58.0965 </r>
       <r>    11.6662     2.4261    58.7043 </r>
       <r>    11.9167     1.3753    59.0488 </r>
       <r>    12.1672     2.0010    59.5501 </r>
       <r>    12.4177     4.8904    60.7751 </r>
       <r>    12.6682     4.4995    61.9022 </r>
       <r>    12.9187     2.3863    62.5000 </r>
       <r>    13.1692     3.1588    63.2913 </r>
       <r>    13.4197     3.2801    64.1129 </r>
       <r>    13.6702     2.9283    64.8465 </r>
       <r>    13.9207     3.4528    65.7114 </r>
       <r>    14.1712     3.1302    66.4956 </r>
       <r>    14.4217     2.0525    67.0097 </r>
       <r>    14.6722     2.4214    67.6163 </r>
       <r>    14.9227     1.7844    68.0633 </r>
       <r>    15.1732     2.5243    68.6956 </r>
       <r>    15.4237     2.3025    69.2724 </r>
       <r>    15.6742     1.3982    69.6226 </r>
       <r>    15.9247     1.2179    69.9277 </r>
       <r>    16.1752     1.2412    70.2386 </r>
       <r>    16.4257     2.5214    70.8702 </r>
       <r>    16.6762     1.0572    71.1351 </r>
       <r>    16.9267     1.4831    71.5066 </r>
       <r>    17.1772     1.4747    71.8760 </r>
       <r>    17.4277     0.4950    72.0000 </r>
       <r>    17.6782     0.0000    72.0000 </r>
       <r>    17.9287     0.0000    72.0000 </r>
       <r>    18.1792     0.0000    72.0000 </r>
       <r>    18.4297     0.0000    72.0000 </r>
       <r>    18.6802     0.0000    72.0000 </r>
       <r>    18.9307     0.0000    72.0000 </r>
       <r>    19.1812     0.0000    72.0000 </r>
       <r>    19.4317     0.0000    72.0000 </r>
       <r>    19.6822     0.0000    72.0000 </r>
       <r>    19.9327     0.0000    72.0000 </r>
       <r>    20.1832     0.0000    72.0000 </r>
       <r>    20.4337     0.0000    72.0000 </r>
       <r>    20.6842     0.0000    72.0000 </r>
      </set>
     </set>
    </array>
   </total>
  </dos>
 </calculation>
 <structure name="finalpos" >
  <crystal>
   <varray name="basis" >
    <v>       3.92575658       0.00282957       0.02307772 </v>
    <v>      -0.01009416       3.92574462       0.02307772 </v>
    <v>      -2.02000231      -2.02666320      10.18574622 </v>
   </varray>
   <i name="volume">    157.34505730 </i>
   <varray name="rec_basis" >
    <v>       0.25443068       0.00035717       0.05052889 </v>
    <v>      -0.00048042       0.25443047       0.05052889 </v>
    <v>      -0.00057537      -0.00057727       0.09794744 </v>
   </varray>
  </crystal>
  <varray name="positions" >
   <v>       0.60674817       0.72620856       0.83183419 </v>
   <v>       0.27379144       0.39325183       0.16816581 </v>
   <v>       0.78933022       0.40796448       0.19686089 </v>
   <v>       0.59203552       0.21066978       0.80313911 </v>
   <v>       0.00761804       0.61971889       0.62920335 </v>
   <v>       0.38028111       0.99238196       0.37079665 </v>
   <v>       0.19052696       0.80947304       0.00000000 </v>
   <v>       0.87081822       0.51644820       0.39352170 </v>
   <v>       0.48355180       0.12918178       0.60647830 </v>
   <v>       0.11284172       0.23193920       0.84542777 </v>
   <v>       0.76806080       0.88715828       0.15457223 </v>
  </varray>
 </structure>
</modeling>
