 running on   24 total cores
 distrk:  each k-point on   24 cores,    1 groups
 distr:  one band on    1 cores,   24 groups
 using from now: INCAR     
 vasp.5.4.4.18Apr17-6-g9f103f2a35 (build Oct 25 2017 14:42:18) complex          
  
 POSCAR found type information on POSCAR  Li O  S  Fe
 POSCAR found :  4 types and      11 ions
 scaLAPACK will be used

 ----------------------------------------------------------------------------- 
|                                                                             |
|           W    W    AA    RRRRR   N    N  II  N    N   GGGG   !!!           |
|           W    W   A  A   R    R  NN   N  II  NN   N  G    G  !!!           |
|           W    W  A    A  R    R  N N  N  II  N N  N  G       !!!           |
|           W WW W  AAAAAA  RRRRR   N  N N  II  N  N N  G  GGG   !            |
|           WW  WW  A    A  R   R   N   NN  II  N   NN  G    G                |
|           W    W  A    A  R    R  N    N  II  N    N   GGGG   !!!           |
|                                                                             |
|      For optimal performance we recommend to set                            |
|        NCORE= 4 - approx SQRT( number of cores)                             |
|      NCORE specifies how many cores store one orbital (NPAR=cpu/NCORE).     |
|      This setting can  greatly improve the performance of VASP for DFT.     |
|      The default,   NCORE=1            might be grossly inefficient         |
|      on modern multi-core architectures or massively parallel machines.     |
|      Do your own testing !!!!                                               |
|      Unfortunately you need to use the default for GW and RPA calculations. |
|      (for HF NCORE is supported but not extensively tested yet)             |
|                                                                             |
 ----------------------------------------------------------------------------- 

 LDA part: xc-table for Pade appr. of Perdew
 POSCAR, INCAR and KPOINTS ok, starting setup
 FFT: planning ...
 WAVECAR not read
 entering main loop
       N       E                     dE             d eps       ncg     rms          rms(c)
DAV:   1     0.101346445829E+04    0.10135E+04   -0.58355E+04 21312   0.179E+03
DAV:   2     0.120726492212E+02   -0.10014E+04   -0.95361E+03 21408   0.468E+02
DAV:   3    -0.620676229731E+02   -0.74140E+02   -0.72954E+02 28224   0.126E+02
DAV:   4    -0.671916423416E+02   -0.51240E+01   -0.51065E+01 35040   0.220E+01
DAV:   5    -0.672366137960E+02   -0.44971E-01   -0.44950E-01 27312   0.198E+00    0.348E+01
DAV:   6    -0.583566022645E+02    0.88800E+01   -0.10752E+02 31056   0.654E+01    0.428E+01
DAV:   7    -0.596337984834E+02   -0.12772E+01   -0.86776E+01 26400   0.373E+01    0.352E+01
DAV:   8    -0.575279702160E+02    0.21058E+01   -0.26029E+01 27000   0.273E+01    0.154E+01
DAV:   9    -0.597737989762E+02   -0.22458E+01   -0.12420E+01 26880   0.117E+01    0.985E+00
DAV:  10    -0.605812292607E+02   -0.80743E+00   -0.18259E+00 27456   0.823E+00    0.450E+00
DAV:  11    -0.610301580348E+02   -0.44893E+00   -0.35568E-01 26904   0.591E+00    0.161E+00
DAV:  12    -0.611157623604E+02   -0.85604E-01   -0.87534E-02 28752   0.176E+00    0.100E+00
DAV:  13    -0.611310225707E+02   -0.15260E-01   -0.13193E-02 28320   0.552E-01    0.506E-01
DAV:  14    -0.611407088098E+02   -0.96862E-02   -0.14021E-02 28152   0.500E-01    0.259E-01
DAV:  15    -0.611422251652E+02   -0.15164E-02   -0.52091E-03 29040   0.262E-01    0.171E-01
DAV:  16    -0.611431268671E+02   -0.90170E-03   -0.38438E-03 33864   0.216E-01    0.120E-01
DAV:  17    -0.611439925425E+02   -0.86568E-03   -0.57321E-03 30288   0.246E-01    0.994E-02
DAV:  18    -0.611446576767E+02   -0.66513E-03   -0.46972E-03 31032   0.213E-01    0.866E-02
DAV:  19    -0.611454912679E+02   -0.83359E-03   -0.11047E-02 28128   0.329E-01    0.714E-02
DAV:  20    -0.611461617399E+02   -0.67047E-03   -0.10506E-02 32712   0.324E-01    0.581E-02
DAV:  21    -0.611467891463E+02   -0.62741E-03   -0.16224E-02 30264   0.393E-01    0.437E-02
DAV:  22    -0.611471875197E+02   -0.39837E-03   -0.15776E-02 32952   0.373E-01    0.322E-02
DAV:  23    -0.611473159375E+02   -0.12842E-03   -0.21772E-03 30192   0.135E-01    0.261E-02
DAV:  24    -0.611473375394E+02   -0.21602E-04   -0.10532E-04 26976   0.399E-02    0.212E-02
DAV:  25    -0.611473969540E+02   -0.59415E-04   -0.30487E-03 27984   0.177E-01    0.162E-02
DAV:  26    -0.611474243232E+02   -0.27369E-04   -0.20410E-03 32616   0.149E-01    0.122E-02
DAV:  27    -0.611474330638E+02   -0.87406E-05   -0.53500E-05 22248   0.343E-02    0.987E-03
DAV:  28    -0.611474342396E+02   -0.11758E-05   -0.69850E-06 30120   0.117E-02    0.791E-03
DAV:  29    -0.611474372849E+02   -0.30453E-05   -0.34411E-05 30288   0.221E-02    0.649E-03
DAV:  30    -0.611474406215E+02   -0.33366E-05   -0.32407E-05 28056   0.194E-02    0.577E-03
DAV:  31    -0.611474440340E+02   -0.34125E-05   -0.51630E-05 31608   0.231E-02    0.474E-03
DAV:  32    -0.611474486671E+02   -0.46331E-05   -0.22522E-04 28368   0.498E-02    0.342E-03
DAV:  33    -0.611474505561E+02   -0.18890E-05   -0.47290E-05 30384   0.219E-02    0.261E-03
DAV:  34    -0.611474510578E+02   -0.50175E-06   -0.69784E-06 29232   0.775E-03    0.205E-03
DAV:  35    -0.611474513396E+02   -0.28173E-06   -0.25841E-06 27792   0.499E-03    0.185E-03
DAV:  36    -0.611474516821E+02   -0.34253E-06   -0.11723E-05 29616   0.110E-02    0.149E-03
DAV:  37    -0.611474518901E+02   -0.20801E-06   -0.93888E-06 29328   0.950E-03    0.120E-03
DAV:  38    -0.611474519791E+02   -0.88996E-07   -0.11565E-06 27552   0.408E-03    0.978E-04
DAV:  39    -0.611474520388E+02   -0.59701E-07   -0.11696E-06 29352   0.389E-03    0.799E-04
DAV:  40    -0.611474520946E+02   -0.55781E-07   -0.14871E-06 31320   0.398E-03    0.676E-04
DAV:  41    -0.611474521247E+02   -0.30112E-07   -0.29938E-06 28512   0.539E-03    0.586E-04
DAV:  42    -0.611474521447E+02   -0.19974E-07   -0.30128E-07 29160   0.196E-03    0.485E-04
DAV:  43    -0.611474521509E+02   -0.62118E-08   -0.12163E-07 18696   0.124E-03    0.418E-04
DAV:  44    -0.611474521509E+02   -0.69122E-10   -0.38402E-08 14184   0.632E-04
   1 F= -.61147452E+02 E0= -.61147452E+02  d E =-.910129E-12  mag=    16.0000
 Linear response reoptimize wavefunctions to high precision
DAV:   1    -0.611474521517E+02   -0.75852E-09   -0.68479E-09 11880   0.285E-04
DAV:   2    -0.611474521517E+02   -0.43656E-10   -0.49751E-10 11208   0.123E-04
 Linear response G [H, r] |phi>, progress :
  Direction:   1
       N       E                     dE             d eps       ncg     rms
RMM:   1    -0.294398209749E+03   -0.29440E+03   -0.20782E+04 22384   0.121E+03
RMM:   2    -0.404355718775E+03   -0.10996E+03   -0.11822E+02 43848   0.408E+01
RMM:   3    -0.405606500791E+03   -0.12508E+01   -0.87343E+00 51832   0.829E+00
RMM:   4    -0.405894105102E+03   -0.28760E+00   -0.24673E+00 57098   0.322E+00
RMM:   5    -0.405994876875E+03   -0.10077E+00   -0.70340E-01 58421   0.159E+00
RMM:   6    -0.406023043038E+03   -0.28166E-01   -0.19298E-01 59850   0.806E-01
RMM:   7    -0.406030687303E+03   -0.76443E-02   -0.55679E-02 60593   0.419E-01
RMM:   8    -0.406032784805E+03   -0.20975E-02   -0.16222E-02 61263   0.221E-01
RMM:   9    -0.406033427179E+03   -0.64237E-03   -0.48424E-03 61750   0.118E-01
RMM:  10    -0.406033614155E+03   -0.18698E-03   -0.13954E-03 61837   0.642E-02
RMM:  11    -0.406033684393E+03   -0.70238E-04   -0.43743E-04 61926   0.354E-02
RMM:  12    -0.406033708045E+03   -0.23652E-04   -0.15262E-04 62013   0.200E-02
RMM:  13    -0.406033712668E+03   -0.46231E-05   -0.28948E-05 61813   0.115E-02
RMM:  14    -0.406033719988E+03   -0.73206E-05   -0.46785E-05 61323   0.692E-03
RMM:  15    -0.406033718431E+03    0.15573E-05   -0.12602E-05 60394   0.438E-03
RMM:  16    -0.406033720047E+03   -0.16161E-05   -0.22499E-05 58987   0.298E-03
RMM:  17    -0.406033721738E+03   -0.16908E-05   -0.37246E-05 57008   0.221E-03
RMM:  18    -0.406033720723E+03    0.10149E-05   -0.26357E-05 54516   0.180E-03
RMM:  19    -0.406033721694E+03   -0.97061E-06   -0.35812E-05 51680   0.159E-03
RMM:  20    -0.406033721728E+03   -0.34270E-07   -0.36006E-05 49097   0.148E-03
RMM:  21    -0.406033719804E+03    0.19245E-05   -0.16760E-05 47018   0.143E-03
RMM:  22    -0.406033722170E+03   -0.23662E-05   -0.40410E-05 45551   0.141E-03
 Linear response G [H, r] |phi>, progress :
  Direction:   2
       N       E                     dE             d eps       ncg     rms
RMM:   1    -0.294399655616E+03   -0.29440E+03   -0.20783E+04 22384   0.121E+03
RMM:   2    -0.404367318964E+03   -0.10997E+03   -0.11838E+02 43840   0.409E+01
RMM:   3    -0.405607031451E+03   -0.12397E+01   -0.87784E+00 51838   0.830E+00
RMM:   4    -0.405891852485E+03   -0.28482E+00   -0.24828E+00 57096   0.322E+00
RMM:   5    -0.405992125135E+03   -0.10027E+00   -0.71337E-01 58501   0.159E+00
RMM:   6    -0.406019545611E+03   -0.27420E-01   -0.19528E-01 59873   0.807E-01
RMM:   7    -0.406027126369E+03   -0.75808E-02   -0.57306E-02 60550   0.419E-01
RMM:   8    -0.406029151236E+03   -0.20249E-02   -0.17114E-02 61238   0.221E-01
RMM:   9    -0.406029762026E+03   -0.61079E-03   -0.54178E-03 61691   0.118E-01
RMM:  10    -0.406029934991E+03   -0.17297E-03   -0.18316E-03 61749   0.643E-02
RMM:  11    -0.406029984099E+03   -0.49108E-04   -0.66305E-04 61864   0.355E-02
RMM:  12    -0.406029999227E+03   -0.15127E-04   -0.29304E-04 62004   0.200E-02
RMM:  13    -0.406029999834E+03   -0.60764E-06   -0.12941E-04 61860   0.116E-02
RMM:  14    -0.406030004401E+03   -0.45670E-05   -0.11975E-04 61422   0.696E-03
RMM:  15    -0.406029997607E+03    0.67946E-05   -0.33188E-05 60426   0.441E-03
RMM:  16    -0.406029996904E+03    0.70290E-06   -0.19993E-05 59040   0.301E-03
RMM:  17    -0.406029999656E+03   -0.27521E-05   -0.45350E-05 56933   0.225E-03
RMM:  18    -0.406029996696E+03    0.29599E-05   -0.14916E-05 54416   0.184E-03
RMM:  19    -0.406029998537E+03   -0.18414E-05   -0.33162E-05 51571   0.162E-03
RMM:  20    -0.406029999415E+03   -0.87775E-06   -0.41845E-05 49104   0.152E-03
RMM:  21    -0.406029997550E+03    0.18647E-05   -0.23044E-05 47059   0.147E-03
RMM:  22    -0.406029998010E+03   -0.45963E-06   -0.27699E-05 45556   0.145E-03
 Linear response G [H, r] |phi>, progress :
  Direction:   3
       N       E                     dE             d eps       ncg     rms
RMM:   1    -0.298567882253E+03   -0.29857E+03   -0.21370E+04 22640   0.120E+03
RMM:   2    -0.403817024500E+03   -0.10525E+03   -0.11365E+02 44197   0.406E+01
RMM:   3    -0.404711661993E+03   -0.89464E+00   -0.56555E+00 50901   0.729E+00
RMM:   4    -0.404881569159E+03   -0.16991E+00   -0.16121E+00 56820   0.272E+00
RMM:   5    -0.404946663710E+03   -0.65095E-01   -0.51129E-01 59115   0.140E+00
RMM:   6    -0.404967949138E+03   -0.21285E-01   -0.15115E-01 60696   0.725E-01
RMM:   7    -0.404974125747E+03   -0.61766E-02   -0.46665E-02 61265   0.383E-01
RMM:   8    -0.404975959290E+03   -0.18335E-02   -0.14477E-02 61952   0.205E-01
RMM:   9    -0.404976542539E+03   -0.58325E-03   -0.47017E-03 62443   0.111E-01
RMM:  10    -0.404976712999E+03   -0.17046E-03   -0.15535E-03 62517   0.607E-02
RMM:  11    -0.404976760972E+03   -0.47973E-04   -0.54572E-04 62303   0.340E-02
RMM:  12    -0.404976773139E+03   -0.12167E-04   -0.21398E-04 62167   0.197E-02
RMM:  13    -0.404976776127E+03   -0.29882E-05   -0.10093E-04 61957   0.120E-02
RMM:  14    -0.404976778372E+03   -0.22449E-05   -0.77711E-05 61316   0.775E-03
RMM:  15    -0.404976777584E+03    0.78855E-06   -0.55596E-05 60301   0.544E-03
RMM:  16    -0.404976778824E+03   -0.12403E-05   -0.63403E-05 58881   0.418E-03
RMM:  17    -0.404976777416E+03    0.14079E-05   -0.47766E-05 56367   0.350E-03
RMM:  18    -0.404976778874E+03   -0.14580E-05   -0.61815E-05 53337   0.314E-03
RMM:  19    -0.404976777551E+03    0.13233E-05   -0.48389E-05 50439   0.297E-03
RMM:  20    -0.404976778927E+03   -0.13767E-05   -0.62091E-05 48075   0.288E-03
 Linear response to external field (no local field effect), progress :
  Direction:   1
       N       E                     dE             d eps       ncg     rms          rms(c)
RMM:   1    -0.153021741636E+01   -0.15302E+01   -0.12768E+00 31503   0.192E+01
RMM:   2    -0.240530640477E+01   -0.87509E+00   -0.28072E-01 41695   0.161E+00
RMM:   3    -0.241539431152E+01   -0.10088E-01   -0.52699E-02 51769   0.427E-01
RMM:   4    -0.241738740903E+01   -0.19931E-02   -0.13151E-02 56717   0.187E-01
RMM:   5    -0.241797228942E+01   -0.58488E-03   -0.30832E-03 59084   0.897E-02
RMM:   6    -0.241810466019E+01   -0.13237E-03   -0.78096E-04 59501   0.441E-02
RMM:   7    -0.241813843717E+01   -0.33777E-04   -0.21523E-04 59542   0.221E-02
RMM:   8    -0.241814742952E+01   -0.89924E-05   -0.64716E-05 58842   0.115E-02
RMM:   9    -0.241815018421E+01   -0.27547E-05   -0.20622E-05 58192   0.607E-03
RMM:  10    -0.241815102941E+01   -0.84520E-06   -0.68182E-06 57487   0.331E-03
RMM:  11    -0.241815132157E+01   -0.29217E-06   -0.23660E-06 56276   0.183E-03
RMM:  12    -0.241815141938E+01   -0.97808E-07   -0.84044E-07 55140   0.104E-03
RMM:  13    -0.241815145663E+01   -0.37252E-07   -0.31067E-07 53734   0.596E-04
RMM:  14    -0.241815146986E+01   -0.13231E-07   -0.11629E-07 51908   0.353E-04
RMM:  15    -0.241815147523E+01   -0.53642E-08   -0.44823E-08 49313   0.215E-04
 change of polarisation eV/A/(eV/A) component  1 :     4.836     0.011    -0.004
 dielectric tensor                  component  1 :     6.562     0.012    -0.005
 Linear response to external field (no local field effect), progress :
  Direction:   2
       N       E                     dE             d eps       ncg     rms          rms(c)
RMM:   1    -0.152969794930E+01   -0.15297E+01   -0.12727E+00 31496   0.192E+01
RMM:   2    -0.240505990894E+01   -0.87536E+00   -0.28094E-01 41697   0.161E+00
RMM:   3    -0.241512345485E+01   -0.10064E-01   -0.52622E-02 51749   0.427E-01
RMM:   4    -0.241711590206E+01   -0.19924E-02   -0.13135E-02 56757   0.187E-01
RMM:   5    -0.241769985112E+01   -0.58395E-03   -0.30810E-03 59089   0.897E-02
RMM:   6    -0.241783200899E+01   -0.13216E-03   -0.78085E-04 59575   0.441E-02
RMM:   7    -0.241786570193E+01   -0.33693E-04   -0.21558E-04 59607   0.221E-02
RMM:   8    -0.241787465755E+01   -0.89556E-05   -0.64997E-05 59040   0.115E-02
RMM:   9    -0.241787739312E+01   -0.27356E-05   -0.20804E-05 58304   0.607E-03
RMM:  10    -0.241787822863E+01   -0.83551E-06   -0.69268E-06 57543   0.331E-03
RMM:  11    -0.241787851515E+01   -0.28653E-06   -0.24276E-06 56175   0.183E-03
RMM:  12    -0.241787860993E+01   -0.94775E-07   -0.87557E-07 55115   0.104E-03
RMM:  13    -0.241787864533E+01   -0.35403E-07   -0.32927E-07 53651   0.595E-04
RMM:  14    -0.241787865764E+01   -0.12305E-07   -0.12690E-07 51981   0.353E-04
RMM:  15    -0.241787866245E+01   -0.48140E-08   -0.50452E-08 49261   0.215E-04
 change of polarisation eV/A/(eV/A) component  2 :     0.011     4.836    -0.004
 dielectric tensor                  component  2 :     0.012     6.561    -0.005
 Linear response to external field (no local field effect), progress :
  Direction:   3
       N       E                     dE             d eps       ncg     rms          rms(c)
RMM:   1    -0.159379960599E+01   -0.15938E+01   -0.15793E+00 32158   0.190E+01
RMM:   2    -0.248024560411E+01   -0.88645E+00   -0.29543E-01 41107   0.163E+00
RMM:   3    -0.249168137159E+01   -0.11436E-01   -0.63208E-02 51491   0.435E-01
RMM:   4    -0.249399224500E+01   -0.23109E-02   -0.15815E-02 56632   0.189E-01
RMM:   5    -0.249467137327E+01   -0.67913E-03   -0.35202E-03 59184   0.900E-02
RMM:   6    -0.249481544936E+01   -0.14408E-03   -0.82403E-04 59434   0.434E-02
RMM:   7    -0.249484908831E+01   -0.33639E-04   -0.20264E-04 59470   0.213E-02
RMM:   8    -0.249485705356E+01   -0.79653E-05   -0.54682E-05 58688   0.109E-02
RMM:   9    -0.249485923202E+01   -0.21785E-05   -0.15500E-05 58126   0.566E-03
RMM:  10    -0.249485984454E+01   -0.61252E-06   -0.47396E-06 57202   0.304E-03
RMM:  11    -0.249486003381E+01   -0.18926E-06   -0.14886E-06 55813   0.166E-03
RMM:  12    -0.249486009526E+01   -0.61450E-07   -0.48515E-07 54612   0.929E-04
RMM:  13    -0.249486011688E+01   -0.21625E-07   -0.15957E-07 53267   0.530E-04
RMM:  14    -0.249486012409E+01   -0.72081E-08   -0.45114E-08 51231   0.312E-04
 change of polarisation eV/A/(eV/A) component  3 :    -0.004    -0.004     4.990
 dielectric tensor                  component  3 :    -0.005    -0.005     6.738
 Linear response to external field, progress :
  Direction:   1
       N       E                     dE             d eps       ncg     rms          rms(c)
RMM:   1    -0.153021741636E+01   -0.15302E+01   -0.12768E+00 31503   0.192E+01
RMM:   2    -0.240530640477E+01   -0.87509E+00   -0.28072E-01 41695   0.161E+00    0.276E+00
RMM:   3    -0.236466614946E+01    0.40640E-01   -0.18223E-01 42559   0.132E+00    0.153E+00
RMM:   4    -0.240664720215E+01   -0.41981E-01   -0.10663E-01 47209   0.821E-01    0.712E-01
RMM:   5    -0.245519811377E+01   -0.48551E-01   -0.16576E-02 50664   0.405E-01    0.323E-01
RMM:   6    -0.248418515606E+01   -0.28987E-01   -0.94162E-03 53108   0.208E-01    0.153E-01
RMM:   7    -0.249405696679E+01   -0.98718E-02   -0.54690E-03 54418   0.108E-01    0.111E-01
RMM:   8    -0.250089094008E+01   -0.68340E-02   -0.79303E-03 54359   0.774E-02    0.902E-02
RMM:   9    -0.251045309075E+01   -0.95622E-02   -0.16326E-02 47915   0.916E-02    0.686E-02
RMM:  10    -0.251566962536E+01   -0.52165E-02   -0.23401E-02 47537   0.755E-02    0.551E-02
RMM:  11    -0.252519162498E+01   -0.95220E-02   -0.33360E-02 43750   0.146E-01    0.297E-02
RMM:  12    -0.252698680280E+01   -0.17952E-02   -0.32770E-02 48302   0.566E-02    0.222E-02
RMM:  13    -0.252763878126E+01   -0.65198E-03   -0.33210E-02 52349   0.277E-02    0.186E-02
RMM:  14    -0.252832041288E+01   -0.68163E-03   -0.30399E-02 49682   0.247E-02    0.153E-02
RMM:  15    -0.252992052763E+01   -0.16001E-02   -0.26769E-02 45801   0.358E-02    0.124E-02
RMM:  16    -0.253067544764E+01   -0.75492E-03   -0.25688E-02 47281   0.252E-02    0.959E-03
RMM:  17    -0.253100834577E+01   -0.33290E-03   -0.26326E-02 47034   0.227E-02    0.651E-03
RMM:  18    -0.253179133776E+01   -0.78299E-03   -0.26144E-02 46531   0.214E-02    0.390E-03
RMM:  19    -0.253272028358E+01   -0.92895E-03   -0.26699E-02 47512   0.191E-02    0.237E-03
RMM:  20    -0.253308309295E+01   -0.36281E-03   -0.28859E-02 54005   0.101E-02    0.201E-03
RMM:  21    -0.253295777562E+01    0.12532E-03   -0.27668E-02 55515   0.822E-03    0.170E-03
RMM:  22    -0.253307358008E+01   -0.11580E-03   -0.28429E-02 53575   0.784E-03    0.148E-03
RMM:  23    -0.253304169548E+01    0.31885E-04   -0.27875E-02 48990   0.856E-03    0.115E-03
RMM:  24    -0.253308326753E+01   -0.41572E-04   -0.28358E-02 47931   0.876E-03    0.612E-04
RMM:  25    -0.253305489688E+01    0.28371E-04   -0.27683E-02 49234   0.790E-03    0.323E-04
RMM:  26    -0.253311547765E+01   -0.60581E-04   -0.27967E-02 53589   0.695E-03    0.215E-04
RMM:  27    -0.253308687049E+01    0.28607E-04   -0.27735E-02 58508   0.653E-03    0.185E-04
RMM:  28    -0.253309106385E+01   -0.41934E-05   -0.27822E-02 58669   0.642E-03    0.164E-04
RMM:  29    -0.253308314060E+01    0.79233E-05   -0.27747E-02 55452   0.641E-03    0.137E-04
RMM:  30    -0.253309067075E+01   -0.75301E-05   -0.27802E-02 50901   0.647E-03    0.973E-05
RMM:  31    -0.253308782297E+01    0.28478E-05   -0.27703E-02 50695   0.645E-03    0.589E-05
RMM:  32    -0.253309548198E+01   -0.76590E-05   -0.27832E-02 51365   0.638E-03    0.329E-05
RMM:  33    -0.253308306049E+01    0.12421E-04   -0.27722E-02 53704   0.632E-03    0.210E-05
RMM:  34    -0.253309771277E+01   -0.14652E-04   -0.27848E-02 50719   0.629E-03    0.117E-05
RMM:  35    -0.253308937267E+01    0.83401E-05   -0.27760E-02 45692   0.629E-03    0.706E-06
 change of polarisation eV/A/(eV/A) component  1 :     4.621     0.014    -0.003
 dielectric tensor                  component  1 :     6.314     0.016    -0.004
 Linear response to external field, progress :
  Direction:   2
       N       E                     dE             d eps       ncg     rms          rms(c)
RMM:   1    -0.152969794930E+01   -0.15297E+01   -0.12727E+00 31496   0.192E+01
RMM:   2    -0.240505990894E+01   -0.87536E+00   -0.28094E-01 41697   0.161E+00    0.276E+00
RMM:   3    -0.237982620612E+01    0.25234E-01   -0.20858E-01 42553   0.132E+00    0.153E+00
RMM:   4    -0.241213737714E+01   -0.32311E-01   -0.94864E-02 47252   0.821E-01    0.712E-01
RMM:   5    -0.246107465467E+01   -0.48937E-01   -0.16117E-02 50686   0.406E-01    0.323E-01
RMM:   6    -0.249171085430E+01   -0.30636E-01   -0.32345E-02 53267   0.209E-01    0.153E-01
RMM:   7    -0.249718612560E+01   -0.54753E-02   -0.17330E-03 54686   0.110E-01    0.111E-01
RMM:   8    -0.250225827767E+01   -0.50722E-02    0.27873E-03 54633   0.796E-02    0.901E-02
RMM:   9    -0.250881546395E+01   -0.65572E-02    0.17228E-02 48184   0.939E-02    0.686E-02
RMM:  10    -0.250929354933E+01   -0.47809E-03    0.53093E-02 47712   0.780E-02    0.550E-02
RMM:  11    -0.251147863574E+01   -0.21851E-02    0.11118E-01 43927   0.148E-01    0.295E-02
RMM:  12    -0.251133593831E+01    0.14270E-03    0.13261E-01 48459   0.590E-02    0.220E-02
RMM:  13    -0.251253035779E+01   -0.11944E-02    0.12892E-01 52550   0.301E-02    0.185E-02
RMM:  14    -0.251435911569E+01   -0.18288E-02    0.12298E-01 49977   0.270E-02    0.152E-02
RMM:  15    -0.251758905356E+01   -0.32299E-02    0.11341E-01 46067   0.376E-02    0.123E-02
RMM:  16    -0.251893941870E+01   -0.13504E-02    0.10945E-01 47550   0.270E-02    0.947E-03
RMM:  17    -0.251917451067E+01   -0.23509E-03    0.10938E-01 47017   0.247E-02    0.642E-03
RMM:  18    -0.251966533040E+01   -0.49082E-03    0.11142E-01 46662   0.235E-02    0.383E-03
RMM:  19    -0.252026228254E+01   -0.59695E-03    0.11292E-01 47604   0.211E-02    0.231E-03
RMM:  20    -0.252029351823E+01   -0.31236E-04    0.11365E-01 53825   0.123E-02    0.195E-03
RMM:  21    -0.252002417436E+01    0.26934E-03    0.11609E-01 55351   0.105E-02    0.165E-03
RMM:  22    -0.252010107546E+01   -0.76901E-04    0.11563E-01 53582   0.101E-02    0.144E-03
RMM:  23    -0.252009237350E+01    0.87020E-05    0.11588E-01 48682   0.107E-02    0.112E-03
RMM:  24    -0.252006754164E+01    0.24832E-04    0.11606E-01 47538   0.110E-02    0.594E-04
RMM:  25    -0.252015432993E+01   -0.86788E-04    0.11559E-01 48974   0.101E-02    0.307E-04
RMM:  26    -0.252017575561E+01   -0.21426E-04    0.11567E-01 53674   0.919E-03    0.201E-04
RMM:  27    -0.252019528277E+01   -0.19527E-04    0.11543E-01 58315   0.880E-03    0.171E-04
RMM:  28    -0.252018781437E+01    0.74684E-05    0.11549E-01 57864   0.870E-03    0.151E-04
RMM:  29    -0.252020435826E+01   -0.16544E-04    0.11532E-01 55015   0.868E-03    0.124E-04
RMM:  30    -0.252021396856E+01   -0.96103E-05    0.11528E-01 49879   0.877E-03    0.820E-05
RMM:  31    -0.252022222916E+01   -0.82606E-05    0.11521E-01 51270   0.869E-03    0.480E-05
RMM:  32    -0.252021948809E+01    0.27411E-05    0.11518E-01 51368   0.865E-03    0.281E-05
RMM:  33    -0.252021783578E+01    0.16523E-05    0.11520E-01 53109   0.859E-03    0.167E-05
RMM:  34    -0.252022167340E+01   -0.38376E-05    0.11517E-01 49104   0.857E-03    0.918E-06
 change of polarisation eV/A/(eV/A) component  2 :     0.014     4.621    -0.003
 dielectric tensor                  component  2 :     0.016     6.314    -0.004
 Linear response to external field, progress :
  Direction:   3
       N       E                     dE             d eps       ncg     rms          rms(c)
RMM:   1    -0.159379960599E+01   -0.15938E+01   -0.15793E+00 32158   0.190E+01
RMM:   2    -0.248024560411E+01   -0.88645E+00   -0.29543E-01 41107   0.163E+00    0.308E+00
RMM:   3    -0.240269019752E+01    0.77555E-01   -0.30917E-01 42883   0.159E+00    0.174E+00
RMM:   4    -0.243168950197E+01   -0.28999E-01   -0.70781E-02 46477   0.904E-01    0.101E+00
RMM:   5    -0.249574288867E+01   -0.64053E-01   -0.82556E-02 49516   0.477E-01    0.528E-01
RMM:   6    -0.253764668189E+01   -0.41904E-01   -0.12844E-01 52148   0.269E-01    0.283E-01
RMM:   7    -0.256171249176E+01   -0.24066E-01   -0.11814E-01 49857   0.189E-01    0.149E-01
RMM:   8    -0.257633645119E+01   -0.14624E-01   -0.16371E-01 53682   0.114E-01    0.899E-02
RMM:   9    -0.258515554429E+01   -0.88191E-02   -0.18181E-01 48727   0.990E-02    0.452E-02
RMM:  10    -0.259084935531E+01   -0.56938E-02   -0.22311E-01 56705   0.564E-02    0.344E-02
RMM:  11    -0.258928134457E+01    0.15680E-02   -0.20233E-01 52294   0.466E-02    0.272E-02
RMM:  12    -0.259291428533E+01   -0.36329E-02   -0.23694E-01 49825   0.409E-02    0.239E-02
RMM:  13    -0.259079332586E+01    0.21210E-02   -0.21250E-01 48110   0.386E-02    0.212E-02
RMM:  14    -0.259504904070E+01   -0.42557E-02   -0.23669E-01 43320   0.842E-02    0.117E-02
RMM:  15    -0.259470283880E+01    0.34620E-03   -0.21832E-01 44716   0.569E-02    0.644E-03
RMM:  16    -0.259767110311E+01   -0.29683E-02   -0.24174E-01 46847   0.341E-02    0.399E-03
RMM:  17    -0.259620377844E+01    0.14673E-02   -0.22373E-01 49226   0.270E-02    0.285E-03
RMM:  18    -0.259820026311E+01   -0.19965E-02   -0.24228E-01 54026   0.239E-02    0.248E-03
RMM:  19    -0.259637994375E+01    0.18203E-02   -0.22289E-01 48978   0.237E-02    0.200E-03
RMM:  20    -0.259830963754E+01   -0.19297E-02   -0.24211E-01 48807   0.232E-02    0.156E-03
RMM:  21    -0.259650717505E+01    0.18025E-02   -0.22381E-01 47329   0.237E-02    0.108E-03
RMM:  22    -0.259807354458E+01   -0.15664E-02   -0.23959E-01 49263   0.221E-02    0.828E-04
RMM:  23    -0.259637134102E+01    0.17022E-02   -0.22254E-01 50277   0.216E-02    0.612E-04
RMM:  24    -0.259840259645E+01   -0.20313E-02   -0.24275E-01 49132   0.217E-02    0.432E-04
RMM:  25    -0.259638130478E+01    0.20213E-02   -0.22235E-01 52579   0.211E-02    0.354E-04
RMM:  26    -0.259822732898E+01   -0.18460E-02   -0.24071E-01 50363   0.211E-02    0.281E-04
RMM:  27    -0.259648555148E+01    0.17418E-02   -0.22317E-01 51401   0.209E-02    0.195E-04
RMM:  28    -0.259824595601E+01   -0.17604E-02   -0.24094E-01 48389   0.211E-02    0.105E-04
RMM:  29    -0.259646211004E+01    0.17838E-02   -0.22301E-01 54544   0.207E-02    0.560E-05
RMM:  30    -0.259829900706E+01   -0.18369E-02   -0.24140E-01 56396   0.207E-02    0.404E-05
RMM:  31    -0.259649531414E+01    0.18037E-02   -0.22335E-01 55789   0.206E-02    0.277E-05
RMM:  32    -0.259826308782E+01   -0.17678E-02   -0.24103E-01 48399   0.206E-02    0.312E-05
RMM:  33    -0.259649539986E+01    0.17677E-02   -0.22335E-01 43351   0.205E-02    0.259E-05
RMM:  34    -0.259822784614E+01   -0.17324E-02   -0.24067E-01 39135   0.206E-02    0.290E-05
RMM:  35    -0.259640775233E+01    0.18201E-02   -0.22247E-01 36980   0.205E-02    0.256E-05
RMM:  36    -0.259830913789E+01   -0.19014E-02   -0.24148E-01 35966   0.206E-02    0.274E-05
 change of polarisation eV/A/(eV/A) component  3 :    -0.003    -0.003     4.680
 dielectric tensor                  component  3 :    -0.004    -0.004     6.382
 Born effective charges drift removed
