  99  99   0   0
  0.1430410E+02  0.1177748E-08  0.1177748E-08  0.1058004E-08  0.5000000E-15
  1.000000000000000E-004
  CAR 
 unknown system                          
     17.95862750    -54.34147445  301      5.24585958      1.00000000
    -54.341  0.0000E+00  0.0000E+00  0.0000E+00  0.0000E+00
    -54.100  0.0000E+00  0.0000E+00  0.0000E+00  0.0000E+00
    -53.859  0.0000E+00  0.0000E+00  0.0000E+00  0.0000E+00
    -53.618  0.0000E+00  0.0000E+00  0.0000E+00  0.0000E+00
    -53.377  0.0000E+00  0.0000E+00  0.0000E+00  0.0000E+00
    -53.136  0.0000E+00  0.0000E+00  0.0000E+00  0.0000E+00
    -52.895  0.0000E+00  0.0000E+00  0.0000E+00  0.0000E+00
    -52.654  0.0000E+00  0.0000E+00  0.0000E+00  0.0000E+00
    -52.413  0.0000E+00  0.0000E+00  0.0000E+00  0.0000E+00
    -52.172  0.0000E+00  0.0000E+00  0.0000E+00  0.0000E+00
    -51.931  0.0000E+00  0.0000E+00  0.0000E+00  0.0000E+00
    -51.690  0.0000E+00  0.0000E+00  0.0000E+00  0.0000E+00
    -51.449  0.0000E+00  0.0000E+00  0.0000E+00  0.0000E+00
    -51.208  0.2952E-03  0.0000E+00  0.7113E-04  0.0000E+00
    -50.967  0.1466E+03  0.0000E+00  0.3534E+02  0.0000E+00
    -50.726  0.2742E+01  0.0000E+00  0.3600E+02  0.0000E+00
    -50.485  0.0000E+00  0.0000E+00  0.3600E+02  0.0000E+00
    -50.244  0.0000E+00  0.0000E+00  0.3600E+02  0.0000E+00
    -50.003  0.0000E+00  0.0000E+00  0.3600E+02  0.0000E+00
    -49.762  0.1438E+01  0.0000E+00  0.3635E+02  0.0000E+00
    -49.521  0.2675E+03  0.0000E+00  0.1008E+03  0.0000E+00
    -49.280  0.2984E+02  0.0000E+00  0.1080E+03  0.0000E+00
    -49.039  0.0000E+00  0.0000E+00  0.1080E+03  0.0000E+00
    -48.798  0.0000E+00  0.0000E+00  0.1080E+03  0.0000E+00
    -48.557  0.0000E+00  0.0000E+00  0.1080E+03  0.0000E+00
    -48.316  0.0000E+00  0.0000E+00  0.1080E+03  0.0000E+00
    -48.075  0.0000E+00  0.0000E+00  0.1080E+03  0.0000E+00
    -47.834  0.0000E+00  0.0000E+00  0.1080E+03  0.0000E+00
    -47.593  0.0000E+00  0.0000E+00  0.1080E+03  0.0000E+00
    -47.352  0.0000E+00  0.0000E+00  0.1080E+03  0.0000E+00
    -47.111  0.0000E+00  0.0000E+00  0.1080E+03  0.0000E+00
    -46.870  0.0000E+00  0.0000E+00  0.1080E+03  0.0000E+00
    -46.629  0.0000E+00  0.0000E+00  0.1080E+03  0.0000E+00
    -46.388  0.0000E+00  0.3048E+00  0.1080E+03  0.7347E-01
    -46.147  0.0000E+00  0.1490E+03  0.1080E+03  0.3599E+02
    -45.906  0.0000E+00  0.6681E+02  0.1080E+03  0.5209E+02
    -45.665  0.0000E+00  0.2320E+03  0.1080E+03  0.1080E+03
    -45.424  0.0000E+00  0.0000E+00  0.1080E+03  0.1080E+03
    -45.183  0.0000E+00  0.0000E+00  0.1080E+03  0.1080E+03
    -44.942  0.0000E+00  0.0000E+00  0.1080E+03  0.1080E+03
    -44.701  0.0000E+00  0.0000E+00  0.1080E+03  0.1080E+03
    -44.460  0.0000E+00  0.0000E+00  0.1080E+03  0.1080E+03
    -44.219  0.0000E+00  0.0000E+00  0.1080E+03  0.1080E+03
    -43.978  0.0000E+00  0.0000E+00  0.1080E+03  0.1080E+03
    -43.737  0.0000E+00  0.0000E+00  0.1080E+03  0.1080E+03
    -43.496  0.0000E+00  0.0000E+00  0.1080E+03  0.1080E+03
    -43.255  0.0000E+00  0.0000E+00  0.1080E+03  0.1080E+03
    -43.014  0.0000E+00  0.0000E+00  0.1080E+03  0.1080E+03
    -42.773  0.0000E+00  0.0000E+00  0.1080E+03  0.1080E+03
    -42.532  0.0000E+00  0.0000E+00  0.1080E+03  0.1080E+03
    -42.291  0.0000E+00  0.0000E+00  0.1080E+03  0.1080E+03
    -42.050  0.0000E+00  0.0000E+00  0.1080E+03  0.1080E+03
    -41.809  0.0000E+00  0.0000E+00  0.1080E+03  0.1080E+03
    -41.568  0.0000E+00  0.0000E+00  0.1080E+03  0.1080E+03
    -41.327  0.0000E+00  0.0000E+00  0.1080E+03  0.1080E+03
    -41.086  0.0000E+00  0.0000E+00  0.1080E+03  0.1080E+03
    -40.845  0.0000E+00  0.0000E+00  0.1080E+03  0.1080E+03
    -40.604  0.0000E+00  0.0000E+00  0.1080E+03  0.1080E+03
    -40.363  0.0000E+00  0.0000E+00  0.1080E+03  0.1080E+03
    -40.122  0.8942E-11  0.5782E-11  0.1080E+03  0.1080E+03
    -39.881  0.2193E+02  0.2045E+02  0.1133E+03  0.1129E+03
    -39.640  0.5276E+02  0.5423E+02  0.1260E+03  0.1260E+03
    -39.399  0.0000E+00  0.0000E+00  0.1260E+03  0.1260E+03
    -39.158  0.0000E+00  0.0000E+00  0.1260E+03  0.1260E+03
    -38.917  0.0000E+00  0.0000E+00  0.1260E+03  0.1260E+03
    -38.676  0.0000E+00  0.0000E+00  0.1260E+03  0.1260E+03
    -38.435  0.0000E+00  0.0000E+00  0.1260E+03  0.1260E+03
    -38.194  0.0000E+00  0.0000E+00  0.1260E+03  0.1260E+03
    -37.953  0.0000E+00  0.0000E+00  0.1260E+03  0.1260E+03
    -37.712  0.0000E+00  0.0000E+00  0.1260E+03  0.1260E+03
    -37.471  0.0000E+00  0.0000E+00  0.1260E+03  0.1260E+03
    -37.230  0.0000E+00  0.0000E+00  0.1260E+03  0.1260E+03
    -36.989  0.0000E+00  0.0000E+00  0.1260E+03  0.1260E+03
    -36.748  0.0000E+00  0.0000E+00  0.1260E+03  0.1260E+03
    -36.507  0.0000E+00  0.0000E+00  0.1260E+03  0.1260E+03
    -36.266  0.0000E+00  0.0000E+00  0.1260E+03  0.1260E+03
    -36.025  0.0000E+00  0.0000E+00  0.1260E+03  0.1260E+03
    -35.784  0.0000E+00  0.0000E+00  0.1260E+03  0.1260E+03
    -35.543  0.0000E+00  0.0000E+00  0.1260E+03  0.1260E+03
    -35.302  0.0000E+00  0.0000E+00  0.1260E+03  0.1260E+03
    -35.061  0.0000E+00  0.0000E+00  0.1260E+03  0.1260E+03
    -34.820  0.0000E+00  0.0000E+00  0.1260E+03  0.1260E+03
    -34.579  0.0000E+00  0.0000E+00  0.1260E+03  0.1260E+03
    -34.338  0.0000E+00  0.0000E+00  0.1260E+03  0.1260E+03
    -34.097  0.0000E+00  0.0000E+00  0.1260E+03  0.1260E+03
    -33.856  0.0000E+00  0.0000E+00  0.1260E+03  0.1260E+03
    -33.615  0.0000E+00  0.0000E+00  0.1260E+03  0.1260E+03
    -33.374  0.0000E+00  0.0000E+00  0.1260E+03  0.1260E+03
    -33.133  0.0000E+00  0.0000E+00  0.1260E+03  0.1260E+03
    -32.892  0.0000E+00  0.0000E+00  0.1260E+03  0.1260E+03
    -32.651  0.0000E+00  0.0000E+00  0.1260E+03  0.1260E+03
    -32.410  0.0000E+00  0.0000E+00  0.1260E+03  0.1260E+03
    -32.169  0.0000E+00  0.0000E+00  0.1260E+03  0.1260E+03
    -31.928  0.0000E+00  0.0000E+00  0.1260E+03  0.1260E+03
    -31.687  0.0000E+00  0.0000E+00  0.1260E+03  0.1260E+03
    -31.446  0.0000E+00  0.0000E+00  0.1260E+03  0.1260E+03
    -31.205  0.0000E+00  0.0000E+00  0.1260E+03  0.1260E+03
    -30.964  0.0000E+00  0.0000E+00  0.1260E+03  0.1260E+03
    -30.723  0.0000E+00  0.0000E+00  0.1260E+03  0.1260E+03
    -30.482  0.0000E+00  0.0000E+00  0.1260E+03  0.1260E+03
    -30.241  0.0000E+00  0.0000E+00  0.1260E+03  0.1260E+03
    -30.000  0.0000E+00  0.0000E+00  0.1260E+03  0.1260E+03
    -29.759  0.0000E+00  0.0000E+00  0.1260E+03  0.1260E+03
    -29.518  0.0000E+00  0.0000E+00  0.1260E+03  0.1260E+03
    -29.277  0.0000E+00  0.0000E+00  0.1260E+03  0.1260E+03
    -29.036  0.0000E+00  0.0000E+00  0.1260E+03  0.1260E+03
    -28.795  0.0000E+00  0.0000E+00  0.1260E+03  0.1260E+03
    -28.554  0.0000E+00  0.0000E+00  0.1260E+03  0.1260E+03
    -28.313  0.0000E+00  0.0000E+00  0.1260E+03  0.1260E+03
    -28.072  0.0000E+00  0.0000E+00  0.1260E+03  0.1260E+03
    -27.831  0.0000E+00  0.0000E+00  0.1260E+03  0.1260E+03
    -27.590  0.0000E+00  0.0000E+00  0.1260E+03  0.1260E+03
    -27.349  0.0000E+00  0.0000E+00  0.1260E+03  0.1260E+03
    -27.108  0.0000E+00  0.0000E+00  0.1260E+03  0.1260E+03
    -26.867  0.0000E+00  0.0000E+00  0.1260E+03  0.1260E+03
    -26.626  0.0000E+00  0.0000E+00  0.1260E+03  0.1260E+03
    -26.385  0.0000E+00  0.0000E+00  0.1260E+03  0.1260E+03
    -26.144  0.0000E+00  0.0000E+00  0.1260E+03  0.1260E+03
    -25.903  0.0000E+00  0.0000E+00  0.1260E+03  0.1260E+03
    -25.662  0.0000E+00  0.0000E+00  0.1260E+03  0.1260E+03
    -25.421  0.0000E+00  0.0000E+00  0.1260E+03  0.1260E+03
    -25.180  0.0000E+00  0.0000E+00  0.1260E+03  0.1260E+03
    -24.939  0.0000E+00  0.0000E+00  0.1260E+03  0.1260E+03
    -24.698  0.0000E+00  0.0000E+00  0.1260E+03  0.1260E+03
    -24.457  0.0000E+00  0.0000E+00  0.1260E+03  0.1260E+03
    -24.216  0.0000E+00  0.0000E+00  0.1260E+03  0.1260E+03
    -23.975  0.0000E+00  0.0000E+00  0.1260E+03  0.1260E+03
    -23.734  0.0000E+00  0.0000E+00  0.1260E+03  0.1260E+03
    -23.493  0.0000E+00  0.0000E+00  0.1260E+03  0.1260E+03
    -23.252  0.0000E+00  0.0000E+00  0.1260E+03  0.1260E+03
    -23.011  0.0000E+00  0.0000E+00  0.1260E+03  0.1260E+03
    -22.770  0.0000E+00  0.0000E+00  0.1260E+03  0.1260E+03
    -22.529  0.0000E+00  0.0000E+00  0.1260E+03  0.1260E+03
    -22.288  0.0000E+00  0.0000E+00  0.1260E+03  0.1260E+03
    -22.047  0.0000E+00  0.0000E+00  0.1260E+03  0.1260E+03
    -21.806  0.0000E+00  0.0000E+00  0.1260E+03  0.1260E+03
    -21.565  0.0000E+00  0.0000E+00  0.1260E+03  0.1260E+03
    -21.324  0.0000E+00  0.0000E+00  0.1260E+03  0.1260E+03
    -21.083  0.0000E+00  0.0000E+00  0.1260E+03  0.1260E+03
    -20.842  0.0000E+00  0.0000E+00  0.1260E+03  0.1260E+03
    -20.601  0.0000E+00  0.0000E+00  0.1260E+03  0.1260E+03
    -20.360  0.0000E+00  0.0000E+00  0.1260E+03  0.1260E+03
    -20.119  0.0000E+00  0.0000E+00  0.1260E+03  0.1260E+03
    -19.878  0.0000E+00  0.0000E+00  0.1260E+03  0.1260E+03
    -19.637  0.0000E+00  0.0000E+00  0.1260E+03  0.1260E+03
    -19.396  0.0000E+00  0.0000E+00  0.1260E+03  0.1260E+03
    -19.155  0.0000E+00  0.0000E+00  0.1260E+03  0.1260E+03
    -18.914  0.0000E+00  0.0000E+00  0.1260E+03  0.1260E+03
    -18.673  0.0000E+00  0.0000E+00  0.1260E+03  0.1260E+03
    -18.432  0.0000E+00  0.0000E+00  0.1260E+03  0.1260E+03
    -18.191  0.0000E+00  0.0000E+00  0.1260E+03  0.1260E+03
    -17.950  0.0000E+00  0.0000E+00  0.1260E+03  0.1260E+03
    -17.709  0.0000E+00  0.0000E+00  0.1260E+03  0.1260E+03
    -17.468  0.0000E+00  0.0000E+00  0.1260E+03  0.1260E+03
    -17.227  0.0000E+00  0.0000E+00  0.1260E+03  0.1260E+03
    -16.986  0.0000E+00  0.0000E+00  0.1260E+03  0.1260E+03
    -16.745  0.0000E+00  0.0000E+00  0.1260E+03  0.1260E+03
    -16.504  0.0000E+00  0.0000E+00  0.1260E+03  0.1260E+03
    -16.263  0.0000E+00  0.0000E+00  0.1260E+03  0.1260E+03
    -16.022  0.0000E+00  0.0000E+00  0.1260E+03  0.1260E+03
    -15.781  0.0000E+00  0.0000E+00  0.1260E+03  0.1260E+03
    -15.540  0.0000E+00  0.0000E+00  0.1260E+03  0.1260E+03
    -15.299  0.0000E+00  0.0000E+00  0.1260E+03  0.1260E+03
    -15.058  0.0000E+00  0.0000E+00  0.1260E+03  0.1260E+03
    -14.817  0.0000E+00  0.0000E+00  0.1260E+03  0.1260E+03
    -14.576  0.0000E+00  0.0000E+00  0.1260E+03  0.1260E+03
    -14.335  0.0000E+00  0.0000E+00  0.1260E+03  0.1260E+03
    -14.094  0.0000E+00  0.0000E+00  0.1260E+03  0.1260E+03
    -13.853  0.0000E+00  0.0000E+00  0.1260E+03  0.1260E+03
    -13.612  0.0000E+00  0.0000E+00  0.1260E+03  0.1260E+03
    -13.371  0.4239E-03  0.0000E+00  0.1260E+03  0.1260E+03
    -13.130  0.3171E+02  0.0000E+00  0.1336E+03  0.1260E+03
    -12.889  0.4283E+02  0.3749E+00  0.1440E+03  0.1261E+03
    -12.648  0.1520E+00  0.6002E+02  0.1440E+03  0.1406E+03
    -12.407  0.0000E+00  0.1430E+02  0.1440E+03  0.1440E+03
    -12.166  0.0000E+00  0.0000E+00  0.1440E+03  0.1440E+03
    -11.925  0.0000E+00  0.0000E+00  0.1440E+03  0.1440E+03
    -11.684  0.0000E+00  0.0000E+00  0.1440E+03  0.1440E+03
    -11.443  0.0000E+00  0.0000E+00  0.1440E+03  0.1440E+03
    -11.202  0.0000E+00  0.0000E+00  0.1440E+03  0.1440E+03
    -10.961  0.0000E+00  0.0000E+00  0.1440E+03  0.1440E+03
    -10.720  0.0000E+00  0.0000E+00  0.1440E+03  0.1440E+03
    -10.479  0.0000E+00  0.0000E+00  0.1440E+03  0.1440E+03
    -10.238  0.0000E+00  0.0000E+00  0.1440E+03  0.1440E+03
     -9.997  0.0000E+00  0.0000E+00  0.1440E+03  0.1440E+03
     -9.756  0.0000E+00  0.0000E+00  0.1440E+03  0.1440E+03
     -9.515  0.0000E+00  0.0000E+00  0.1440E+03  0.1440E+03
     -9.274  0.0000E+00  0.0000E+00  0.1440E+03  0.1440E+03
     -9.033  0.0000E+00  0.0000E+00  0.1440E+03  0.1440E+03
     -8.792  0.0000E+00  0.0000E+00  0.1440E+03  0.1440E+03
     -8.551  0.0000E+00  0.0000E+00  0.1440E+03  0.1440E+03
     -8.310  0.0000E+00  0.0000E+00  0.1440E+03  0.1440E+03
     -8.069  0.0000E+00  0.0000E+00  0.1440E+03  0.1440E+03
     -7.828  0.1199E-09  0.0000E+00  0.1440E+03  0.1440E+03
     -7.587  0.7109E+00  0.1622E-10  0.1442E+03  0.1440E+03
     -7.346  0.1810E+02  0.6084E+00  0.1485E+03  0.1441E+03
     -7.105  0.3204E+02  0.2003E+02  0.1563E+03  0.1490E+03
     -6.864  0.3502E+02  0.3055E+02  0.1647E+03  0.1563E+03
     -6.623  0.2617E+02  0.2599E+02  0.1710E+03  0.1626E+03
     -6.382  0.3598E-04  0.3479E+02  0.1710E+03  0.1710E+03
     -6.141  0.0000E+00  0.6996E-01  0.1710E+03  0.1710E+03
     -5.900  0.0000E+00  0.0000E+00  0.1710E+03  0.1710E+03
     -5.659  0.0000E+00  0.0000E+00  0.1710E+03  0.1710E+03
     -5.418  0.0000E+00  0.0000E+00  0.1710E+03  0.1710E+03
     -5.177  0.0000E+00  0.0000E+00  0.1710E+03  0.1710E+03
     -4.936  0.0000E+00  0.0000E+00  0.1710E+03  0.1710E+03
     -4.695  0.0000E+00  0.0000E+00  0.1710E+03  0.1710E+03
     -4.454  0.0000E+00  0.0000E+00  0.1710E+03  0.1710E+03
     -4.213  0.0000E+00  0.0000E+00  0.1710E+03  0.1710E+03
     -3.972  0.0000E+00  0.0000E+00  0.1710E+03  0.1710E+03
     -3.731  0.0000E+00  0.0000E+00  0.1710E+03  0.1710E+03
     -3.490  0.0000E+00  0.0000E+00  0.1710E+03  0.1710E+03
     -3.249  0.0000E+00  0.0000E+00  0.1710E+03  0.1710E+03
     -3.008  0.0000E+00  0.0000E+00  0.1710E+03  0.1710E+03
     -2.767  0.0000E+00  0.0000E+00  0.1710E+03  0.1710E+03
     -2.526  0.0000E+00  0.0000E+00  0.1710E+03  0.1710E+03
     -2.285  0.0000E+00  0.0000E+00  0.1710E+03  0.1710E+03
     -2.044  0.1529E-01  0.0000E+00  0.1710E+03  0.1710E+03
     -1.803  0.2489E+02  0.0000E+00  0.1770E+03  0.1710E+03
     -1.562  0.1871E+02  0.0000E+00  0.1815E+03  0.1710E+03
     -1.321  0.1468E+02  0.0000E+00  0.1850E+03  0.1710E+03
     -1.080  0.2367E+02  0.0000E+00  0.1908E+03  0.1710E+03
     -0.839  0.5677E+02  0.0000E+00  0.2044E+03  0.1710E+03
     -0.598  0.6235E+02  0.4281E-03  0.2195E+03  0.1710E+03
     -0.357  0.4017E+02  0.9807E+01  0.2291E+03  0.1734E+03
     -0.116  0.8224E+02  0.2116E+02  0.2490E+03  0.1785E+03
      0.125  0.8926E+02  0.1318E+02  0.2705E+03  0.1816E+03
      0.366  0.8335E+02  0.2377E+02  0.2906E+03  0.1874E+03
      0.607  0.7277E+02  0.3161E+02  0.3081E+03  0.1950E+03
      0.848  0.6046E+02  0.4762E+02  0.3227E+03  0.2065E+03
      1.089  0.3904E+02  0.4071E+02  0.3321E+03  0.2163E+03
      1.330  0.3585E+02  0.3332E+02  0.3407E+03  0.2243E+03
      1.571  0.5032E+02  0.2462E+02  0.3528E+03  0.2302E+03
      1.812  0.5374E+02  0.3282E+02  0.3658E+03  0.2381E+03
      2.053  0.7575E+02  0.4097E+02  0.3840E+03  0.2480E+03
      2.294  0.6330E+02  0.2750E+02  0.3993E+03  0.2546E+03
      2.535  0.3176E+02  0.2951E+02  0.4070E+03  0.2618E+03
      2.776  0.5086E+02  0.3988E+02  0.4192E+03  0.2714E+03
      3.017  0.2385E+02  0.4599E+02  0.4250E+03  0.2825E+03
      3.258  0.1017E+02  0.4796E+02  0.4274E+03  0.2940E+03
      3.499  0.3881E+02  0.4100E+02  0.4368E+03  0.3039E+03
      3.740  0.2569E+02  0.7095E+01  0.4430E+03  0.3056E+03
      3.981  0.3738E+02  0.2309E+02  0.4520E+03  0.3112E+03
      4.222  0.3899E+02  0.7400E+02  0.4614E+03  0.3290E+03
      4.463  0.3838E+02  0.4328E+02  0.4706E+03  0.3394E+03
      4.704  0.3595E+02  0.1066E+02  0.4793E+03  0.3420E+03
      4.945  0.2478E+02  0.0000E+00  0.4853E+03  0.3420E+03
      5.186  0.3110E+01  0.0000E+00  0.4860E+03  0.3420E+03
      5.427  0.0000E+00  0.0000E+00  0.4860E+03  0.3420E+03
      5.668  0.0000E+00  0.0000E+00  0.4860E+03  0.3420E+03
      5.909  0.0000E+00  0.0000E+00  0.4860E+03  0.3420E+03
      6.150  0.0000E+00  0.1970E-08  0.4860E+03  0.3420E+03
      6.391  0.0000E+00  0.1414E+01  0.4860E+03  0.3423E+03
      6.632  0.0000E+00  0.5072E+01  0.4860E+03  0.3436E+03
      6.873  0.0000E+00  0.1052E+02  0.4860E+03  0.3461E+03
      7.114  0.9788E-13  0.2084E+02  0.4860E+03  0.3511E+03
      7.355  0.5986E-01  0.6079E+02  0.4860E+03  0.3658E+03
      7.596  0.9382E-01  0.6133E+02  0.4860E+03  0.3806E+03
      7.837  0.5931E+00  0.6279E+02  0.4862E+03  0.3957E+03
      8.078  0.6355E+00  0.7516E+02  0.4863E+03  0.4138E+03
      8.319  0.2465E+01  0.8016E+02  0.4869E+03  0.4331E+03
      8.560  0.4611E+01  0.6916E+02  0.4880E+03  0.4498E+03
      8.801  0.9743E+01  0.6566E+02  0.4904E+03  0.4656E+03
      9.042  0.1487E+02  0.4572E+02  0.4940E+03  0.4766E+03
      9.283  0.1646E+02  0.3243E+02  0.4979E+03  0.4844E+03
      9.524  0.1957E+02  0.8668E+01  0.5027E+03  0.4865E+03
      9.765  0.1599E+02  0.5750E+01  0.5065E+03  0.4879E+03
     10.006  0.2442E+02  0.1162E+02  0.5124E+03  0.4907E+03
     10.247  0.1656E+02  0.1698E+02  0.5164E+03  0.4948E+03
     10.488  0.2194E+02  0.2344E+02  0.5217E+03  0.5005E+03
     10.729  0.1384E+02  0.2216E+02  0.5250E+03  0.5058E+03
     10.970  0.1527E+02  0.2260E+02  0.5287E+03  0.5112E+03
     11.211  0.2243E+02  0.3123E+02  0.5341E+03  0.5188E+03
     11.452  0.3260E+02  0.2002E+02  0.5419E+03  0.5236E+03
     11.693  0.2845E+02  0.1816E+02  0.5488E+03  0.5280E+03
     11.934  0.3328E+02  0.1159E+02  0.5568E+03  0.5308E+03
     12.175  0.3616E+02  0.2548E+02  0.5655E+03  0.5369E+03
     12.416  0.2198E+02  0.4521E+02  0.5708E+03  0.5478E+03
     12.657  0.1966E+02  0.3509E+02  0.5756E+03  0.5563E+03
     12.898  0.2513E+02  0.3217E+02  0.5816E+03  0.5640E+03
     13.139  0.2608E+02  0.2057E+02  0.5879E+03  0.5690E+03
     13.380  0.2838E+02  0.2422E+02  0.5948E+03  0.5748E+03
     13.621  0.2499E+02  0.3309E+02  0.6008E+03  0.5828E+03
     13.862  0.1805E+02  0.2624E+02  0.6051E+03  0.5891E+03
     14.103  0.3623E+01  0.2603E+02  0.6060E+03  0.5954E+03
     14.344  0.1655E-03  0.2306E+02  0.6060E+03  0.6009E+03
     14.585  0.0000E+00  0.1901E+02  0.6060E+03  0.6055E+03
     14.826  0.0000E+00  0.2029E+01  0.6060E+03  0.6060E+03
     15.067  0.0000E+00  0.2212E-05  0.6060E+03  0.6060E+03
     15.308  0.0000E+00  0.0000E+00  0.6060E+03  0.6060E+03
     15.549  0.0000E+00  0.0000E+00  0.6060E+03  0.6060E+03
     15.790  0.0000E+00  0.0000E+00  0.6060E+03  0.6060E+03
     16.031  0.0000E+00  0.0000E+00  0.6060E+03  0.6060E+03
     16.272  0.0000E+00  0.0000E+00  0.6060E+03  0.6060E+03
     16.513  0.0000E+00  0.0000E+00  0.6060E+03  0.6060E+03
     16.754  0.0000E+00  0.0000E+00  0.6060E+03  0.6060E+03
     16.995  0.0000E+00  0.0000E+00  0.6060E+03  0.6060E+03
     17.236  0.0000E+00  0.0000E+00  0.6060E+03  0.6060E+03
     17.477  0.0000E+00  0.0000E+00  0.6060E+03  0.6060E+03
     17.718  0.0000E+00  0.0000E+00  0.6060E+03  0.6060E+03
     17.959  0.0000E+00  0.0000E+00  0.6060E+03  0.6060E+03
