 vasp.5.4.4.18Apr17-6-g9f103f2a35 (build Oct 25 2017 14:42:18) complex          
  
 executed on             LinuxIFC date 2021.04.17  22:28:29
 running on   48 total cores
 distrk:  each k-point on   24 cores,    2 groups
 distr:  one band on NCORES_PER_BAND=   6 cores,    4 groups


--------------------------------------------------------------------------------------------------------


 INCAR:
 POTCAR:    PAW_PBE Li_sv 10Sep2004               
 POTCAR:    PAW_PBE Fe_pv 02Aug2007               
 POTCAR:    PAW_PBE S 06Sep2000                   
 POTCAR:    PAW_PBE O 08Apr2002                   

 ----------------------------------------------------------------------------- 
|                                                                             |
|           W    W    AA    RRRRR   N    N  II  N    N   GGGG   !!!           |
|           W    W   A  A   R    R  NN   N  II  NN   N  G    G  !!!           |
|           W    W  A    A  R    R  N N  N  II  N N  N  G       !!!           |
|           W WW W  AAAAAA  RRRRR   N  N N  II  N  N N  G  GGG   !            |
|           WW  WW  A    A  R   R   N   NN  II  N   NN  G    G                |
|           W    W  A    A  R    R  N    N  II  N    N   GGGG   !!!           |
|                                                                             |
|      You have enabled k-point parallelism (KPAR>1).                         |
|      This developmental code was originally  written by Paul Kent at ORNL,  |
|      and carefully double checked in Vienna.                                |
|      GW as well as linear response parallelism added by Martijn Marsman     |
|      and Georg Kresse.                                                      |
|      Carefully verify results versus KPAR=1.                                |
|      Report problems to Paul Kent and Vienna.                               |
|                                                                             |
 ----------------------------------------------------------------------------- 

 POTCAR:    PAW_PBE Li_sv 10Sep2004               
  local pseudopotential read in
  atomic valenz-charges read in
  non local Contribution for L=           0  read in
    real space projection operators read in
  non local Contribution for L=           0  read in
    real space projection operators read in
  non local Contribution for L=           1  read in
    real space projection operators read in
    PAW grid and wavefunctions read in
 
   number of l-projection  operators is LMAX  =           3
   number of lm-projection operators is LMMAX =           5
 
 POTCAR:    PAW_PBE Fe_pv 02Aug2007               
  local pseudopotential read in
  partial core-charges read in
  partial kinetic energy density read in
  atomic valenz-charges read in
  non local Contribution for L=           1  read in
    real space projection operators read in
  non local Contribution for L=           1  read in
    real space projection operators read in
  non local Contribution for L=           2  read in
    real space projection operators read in
  non local Contribution for L=           2  read in
    real space projection operators read in
  non local Contribution for L=           0  read in
    real space projection operators read in
  non local Contribution for L=           0  read in
    real space projection operators read in
    PAW grid and wavefunctions read in
 
   number of l-projection  operators is LMAX  =           6
   number of lm-projection operators is LMMAX =          18
 
 POTCAR:    PAW_PBE S 06Sep2000                   
  local pseudopotential read in
  partial core-charges read in
  partial kinetic energy density read in
  atomic valenz-charges read in
  non local Contribution for L=           0  read in
    real space projection operators read in
  non local Contribution for L=           0  read in
    real space projection operators read in
  non local Contribution for L=           1  read in
    real space projection operators read in
  non local Contribution for L=           1  read in
    real space projection operators read in
    PAW grid and wavefunctions read in
 
   number of l-projection  operators is LMAX  =           4
   number of lm-projection operators is LMMAX =           8
 
 POTCAR:    PAW_PBE O 08Apr2002                   
  local pseudopotential read in
  partial core-charges read in
  partial kinetic energy density read in
  kinetic energy density of atom read in
  atomic valenz-charges read in
  non local Contribution for L=           0  read in
    real space projection operators read in
  non local Contribution for L=           0  read in
    real space projection operators read in
  non local Contribution for L=           1  read in
    real space projection operators read in
  non local Contribution for L=           1  read in
    real space projection operators read in
    PAW grid and wavefunctions read in
 
   number of l-projection  operators is LMAX  =           4
   number of lm-projection operators is LMMAX =           8
 

 ----------------------------------------------------------------------------- 
|                                                                             |
|  ADVICE TO THIS USER RUNNING 'VASP/VAMP'   (HEAR YOUR MASTER'S VOICE ...):  |
|                                                                             |
|      You have a (more or less) 'large supercell' and for larger cells       |
|      it might be more efficient to use real space projection opertators     |
|      So try LREAL= Auto  in the INCAR   file.                               |
|      Mind:          For very  accurate calculation you might also keep the  |
|      reciprocal projection scheme          (i.e. LREAL=.FALSE.)             |
|                                                                             |
 ----------------------------------------------------------------------------- 

  PAW_PBE Li_sv 10Sep2004               :
 energy of atom  1       EATOM= -202.7858
 kinetic energy error for atom=    0.0072 (will be added to EATOM!!)
  PAW_PBE Fe_pv 02Aug2007               :
 energy of atom  2       EATOM=-2457.4239
 kinetic energy error for atom=    0.0041 (will be added to EATOM!!)
  PAW_PBE S 06Sep2000                   :
 energy of atom  3       EATOM= -276.8230
 kinetic energy error for atom=    0.0008 (will be added to EATOM!!)
  PAW_PBE O 08Apr2002                   :
 energy of atom  4       EATOM= -432.3788
 kinetic energy error for atom=    0.0129 (will be added to EATOM!!)
 
 
 POSCAR: # Compound: Li48Fe36S36O24. Old comment:
  positions in direct lattice
  No initial velocities read in
 exchange correlation table for  LEXCH =        8
   RHO(1)=    0.500       N(1)  =     2000
   RHO(2)=  100.500       N(2)  =     4000
 


--------------------------------------------------------------------------------------------------------


 ion  position               nearest neighbor table
   1  0.475  0.001  0.004- 134 1.97 131 2.03  91 2.54  95 2.54
   2  0.975  0.001  0.004- 133 1.97 132 2.03  92 2.54  96 2.54
   3  0.475  0.334  0.004- 136 1.97 127 2.03  93 2.54  91 2.54
   4  0.975  0.334  0.004- 135 1.97 128 2.03  94 2.54  92 2.54
   5  0.475  0.667  0.004- 138 1.97 129 2.03  95 2.54  93 2.54
   6  0.975  0.667  0.004- 137 1.97 130 2.03  96 2.54  94 2.54
   7  0.275  0.333  0.996- 121 1.97 141 2.03  91 2.54  93 2.54
   8  0.775  0.333  0.996- 122 1.97 142 2.03  92 2.54  94 2.54
   9  0.275  0.666  0.996- 123 1.97 143 2.03  93 2.54  95 2.54
  10  0.775  0.666  0.996- 124 1.97 144 2.03  94 2.54  96 2.54
  11  0.275  0.999  0.996- 125 1.97 139 2.03  95 2.54  91 2.54
  12  0.775  0.999  0.996- 126 1.97 140 2.03  96 2.54  92 2.54
  13  0.178  0.269  0.608- 121 2.04  97 2.47 111 2.62 109 2.63
  14  0.678  0.268  0.608- 122 2.04  98 2.47 112 2.63 110 2.63
  15  0.178  0.601  0.608- 123 2.04  99 2.47 113 2.63 111 2.63
  16  0.678  0.601  0.608- 124 2.04 100 2.47 114 2.63 112 2.63
  17  0.178  0.935  0.608- 125 2.04 101 2.47 109 2.63 113 2.63
  18  0.678  0.935  0.608- 126 2.04 102 2.47 110 2.63 114 2.63
  19  0.072  0.065  0.392- 133 2.04 109 2.47 101 2.63  97 2.63
  20  0.572  0.065  0.392- 134 2.04 110 2.47 102 2.63  98 2.63
  21  0.072  0.399  0.392- 135 2.04 111 2.47  97 2.63  99 2.63
  22  0.572  0.399  0.392- 136 2.04 112 2.47  98 2.63 100 2.63
  23  0.072  0.732  0.392- 137 2.04 113 2.47  99 2.63 101 2.63
  24  0.572  0.732  0.392- 138 2.04 114 2.47 100 2.63 102 2.63
  25  0.107  0.308  0.846- 121 1.95 128 1.99  85 2.56  87 2.56
  26  0.607  0.308  0.846- 122 1.95 127 1.99  86 2.56  88 2.56
  27  0.107  0.641  0.846- 123 1.95 130 1.99  87 2.56  89 2.56
  28  0.607  0.641  0.846- 124 1.95 129 1.99  88 2.56  90 2.56
  29  0.107  0.974  0.846- 125 1.95 132 1.99  89 2.56  85 2.56
  30  0.607  0.974  0.846- 126 1.95 131 1.99  90 2.56  86 2.56
  31  0.345  0.295  0.772- 121 1.94 127 2.00 117 2.48 115 2.48
  32  0.845  0.295  0.772- 122 1.94 128 2.00 118 2.48 116 2.48
  33  0.345  0.629  0.772- 123 1.94 129 2.00 119 2.48 117 2.48
  34  0.845  0.629  0.772- 124 1.94 130 2.00 120 2.48 118 2.48
  35  0.345  0.962  0.772- 125 1.94 131 2.00 115 2.48 119 2.48
  36  0.845  0.962  0.772- 126 1.94 132 2.00 116 2.48 120 2.48
  37  0.143  0.026  0.154- 133 1.95 139 1.99  85 2.56  89 2.56
  38  0.643  0.026  0.154- 134 1.95 140 1.99  86 2.56  90 2.56
  39  0.143  0.359  0.154- 135 1.95 141 1.99  87 2.56  85 2.56
  40  0.643  0.359  0.154- 136 1.95 142 1.99  88 2.56  86 2.56
  41  0.143  0.692  0.154- 137 1.95 143 1.99  89 2.56  87 2.56
  42  0.643  0.692  0.154- 138 1.95 144 1.99  90 2.56  88 2.56
  43  0.405  0.038  0.228- 134 1.94 139 2.00 107 2.48 103 2.48
  44  0.905  0.038  0.228- 133 1.94 140 2.00 108 2.48 104 2.48
  45  0.405  0.371  0.228- 136 1.94 141 2.00 103 2.48 105 2.48
  46  0.905  0.371  0.228- 135 1.94 142 2.00 104 2.48 106 2.48
  47  0.405  0.705  0.228- 138 1.94 143 2.00 105 2.48 107 2.48
  48  0.905  0.705  0.228- 137 1.94 144 2.00 106 2.48 108 2.48
  49  0.465  0.267  0.601- 127 2.12 103 2.40 110 2.61 112 2.61
  50  0.965  0.267  0.601- 128 2.12 104 2.40 109 2.61 111 2.61
  51  0.465  0.600  0.601- 129 2.12 105 2.40 112 2.61 114 2.61
  52  0.965  0.600  0.601- 130 2.12 106 2.40 111 2.61 113 2.61
  53  0.465  0.934  0.601- 131 2.12 107 2.40 114 2.61 110 2.61
  54  0.965  0.934  0.601- 132 2.12 108 2.40 113 2.61 109 2.61
  55  0.285  0.066  0.399- 139 2.12 115 2.40  97 2.61 101 2.61
  56  0.785  0.066  0.399- 140 2.12 116 2.40  98 2.61 102 2.61
  57  0.285  0.400  0.399- 141 2.12 117 2.40  99 2.61  97 2.61
  58  0.785  0.400  0.399- 142 2.12 118 2.40 100 2.61  98 2.61
  59  0.285  0.733  0.399- 143 2.12 119 2.40 101 2.61  99 2.61
  60  0.785  0.733  0.399- 144 2.12 120 2.40 102 2.61 100 2.61
  61  0.224  0.134  0.801- 125 2.02 121 2.02 109 2.64 115 2.66  85 2.79
  62  0.724  0.134  0.801- 126 2.02 122 2.02 110 2.64 116 2.66  86 2.79
  63  0.224  0.467  0.801- 121 2.02 123 2.02 111 2.64 117 2.66  87 2.79
  64  0.724  0.467  0.801- 122 2.02 124 2.02 112 2.64 118 2.66  88 2.79
  65  0.224  0.800  0.801- 123 2.02 125 2.02 113 2.64 119 2.66  89 2.79
  66  0.724  0.800  0.801- 124 2.02 126 2.02 114 2.64 120 2.66  90 2.79
  67  0.478  0.136  0.815- 127 2.03 131 2.03 110 2.62 115 2.63  86 2.68  91 2.71
  68  0.978  0.136  0.815- 128 2.03 132 2.03 109 2.62 116 2.63  85 2.68  92 2.71
  69  0.478  0.469  0.815- 127 2.03 129 2.03 112 2.62 117 2.63  88 2.68  93 2.71
  70  0.978  0.469  0.815- 128 2.03 130 2.03 111 2.62 118 2.63  87 2.68  94 2.71
  71  0.478  0.802  0.815- 131 2.03 129 2.03 114 2.62 119 2.63  90 2.68  95 2.71
  72  0.978  0.802  0.815- 132 2.03 130 2.03 113 2.62 120 2.63  89 2.68  96 2.71
  73  0.026  0.200  0.199- 135 2.02 133 2.02  97 2.64 104 2.66  85 2.79
  74  0.526  0.200  0.199- 136 2.02 134 2.02  98 2.64 103 2.66  86 2.79
  75  0.026  0.533  0.199- 137 2.02 135 2.02  99 2.64 106 2.66  87 2.79
  76  0.526  0.533  0.199- 138 2.02 136 2.02 100 2.64 105 2.66  88 2.79
  77  0.026  0.866  0.199- 133 2.02 137 2.02 101 2.64 108 2.66  89 2.79
  78  0.526  0.866  0.199- 134 2.02 138 2.02 102 2.64 107 2.66  90 2.79
  79  0.272  0.198  0.185- 139 2.03 141 2.03  97 2.62 103 2.63  85 2.68  91 2.71
  80  0.772  0.198  0.185- 140 2.03 142 2.03  98 2.62 104 2.63  86 2.68  92 2.71
  81  0.272  0.531  0.185- 143 2.03 141 2.03  99 2.62 105 2.63  87 2.68  93 2.71
  82  0.772  0.531  0.185- 144 2.03 142 2.03 100 2.62 106 2.63  88 2.68  94 2.71
  83  0.272  0.864  0.185- 143 2.03 139 2.03 101 2.62 107 2.63  89 2.68  95 2.71
  84  0.772  0.864  0.185- 144 2.03 140 2.03 102 2.62 108 2.63  90 2.68  96 2.71
  85  0.125  0.167  0.000-  25 2.56  37 2.56  39 2.56  29 2.56  68 2.68  79 2.68  73 2.79  61 2.79

  86  0.625  0.167  0.000-  26 2.56  38 2.56  40 2.56  30 2.56  67 2.68  80 2.68  74 2.79  62 2.79

  87  0.125  0.500  0.000-  27 2.56  39 2.56  25 2.56  41 2.56  70 2.68  81 2.68  75 2.79  63 2.79

  88  0.625  0.500  0.000-  28 2.56  40 2.56  26 2.56  42 2.56  69 2.68  82 2.68  76 2.79  64 2.79

  89  0.125  0.833  0.000-  41 2.56  29 2.56  27 2.56  37 2.56  83 2.68  72 2.68  77 2.79  65 2.79

  90  0.625  0.833  0.000-  42 2.56  30 2.56  28 2.56  38 2.56  84 2.68  71 2.68  78 2.79  66 2.79

  91  0.375  0.167  0.000-   7 2.54   1 2.54   3 2.54  11 2.54  67 2.71  79 2.71
  92  0.875  0.167  0.000-   8 2.54   2 2.54   4 2.54  12 2.54  68 2.71  80 2.71
  93  0.375  0.500  0.000-   3 2.54   9 2.54   7 2.54   5 2.54  69 2.71  81 2.71
  94  0.875  0.500  0.000-   4 2.54  10 2.54   8 2.54   6 2.54  70 2.71  82 2.71
  95  0.375  0.833  0.000-   5 2.54  11 2.54   9 2.54   1 2.54  71 2.71  83 2.71
  96  0.875  0.833  0.000-   6 2.54  12 2.54  10 2.54   2 2.54  72 2.71  84 2.71
  97  0.176  0.228  0.369-  13 2.47  55 2.61  57 2.61  79 2.62  21 2.63  19 2.63  73 2.64
  98  0.676  0.228  0.369-  14 2.47  56 2.61  58 2.61  80 2.62  22 2.63  20 2.63  74 2.64
  99  0.176  0.561  0.369-  15 2.47  57 2.61  59 2.61  81 2.62  23 2.63  21 2.63  75 2.64
 100  0.676  0.561  0.369-  16 2.47  58 2.61  60 2.61  82 2.62  24 2.63  22 2.63  76 2.64
 101  0.176  0.895  0.369-  17 2.47  59 2.61  55 2.61  83 2.62  19 2.63  23 2.63  77 2.64
 102  0.676  0.895  0.369-  18 2.47  60 2.61  56 2.61  84 2.62  20 2.63  24 2.63  78 2.64
 103  0.415  0.228  0.368-  49 2.40  45 2.48  43 2.48  79 2.63  74 2.66
 104  0.915  0.228  0.368-  50 2.40  46 2.48  44 2.48  80 2.63  73 2.66
 105  0.415  0.561  0.368-  51 2.40  47 2.48  45 2.48  81 2.63  76 2.66
 106  0.915  0.561  0.368-  52 2.40  48 2.48  46 2.48  82 2.63  75 2.66
 107  0.415  0.895  0.368-  53 2.40  43 2.48  47 2.48  83 2.63  78 2.66
 108  0.915  0.895  0.368-  54 2.40  44 2.48  48 2.48  84 2.63  77 2.66
 109  0.074  0.105  0.631-  19 2.47  50 2.61  54 2.61  68 2.62  17 2.63  13 2.63  61 2.64
 110  0.574  0.105  0.631-  20 2.47  49 2.61  53 2.61  67 2.62  18 2.63  14 2.63  62 2.64
 111  0.074  0.439  0.631-  21 2.47  52 2.61  50 2.61  13 2.62  70 2.62  15 2.63  63 2.64
 112  0.574  0.439  0.631-  22 2.47  51 2.61  49 2.61  69 2.62  14 2.63  16 2.63  64 2.64
 113  0.074  0.772  0.631-  23 2.47  54 2.61  52 2.61  72 2.62  15 2.63  17 2.63  65 2.64
 114  0.574  0.772  0.631-  24 2.47  53 2.61  51 2.61  71 2.62  16 2.63  18 2.63  66 2.64
 115  0.335  0.105  0.632-  55 2.40  35 2.48  31 2.48  67 2.63  61 2.66
 116  0.835  0.105  0.632-  56 2.40  36 2.48  32 2.48  68 2.63  62 2.66
 117  0.335  0.439  0.632-  57 2.40  31 2.48  33 2.48  69 2.63  63 2.66
 118  0.835  0.439  0.632-  58 2.40  32 2.48  34 2.48  70 2.63  64 2.66
 119  0.335  0.772  0.632-  59 2.40  33 2.48  35 2.48  71 2.63  65 2.66
 120  0.835  0.772  0.632-  60 2.40  34 2.48  36 2.48  72 2.63  66 2.66
 121  0.225  0.301  0.806-  31 1.94  25 1.95   7 1.97  63 2.02  61 2.02  13 2.04
 122  0.725  0.301  0.806-  32 1.94  26 1.95   8 1.97  64 2.02  62 2.02  14 2.04
 123  0.225  0.634  0.806-  33 1.94  27 1.95   9 1.97  65 2.02  63 2.02  15 2.04
 124  0.725  0.634  0.806-  34 1.94  28 1.95  10 1.97  66 2.02  64 2.02  16 2.04
 125  0.225  0.968  0.806-  35 1.94  29 1.95  11 1.97  61 2.02  65 2.02  17 2.04
 126  0.725  0.968  0.806-  36 1.94  30 1.95  12 1.97  62 2.02  66 2.02  18 2.04
 127  0.476  0.301  0.809-  26 1.99  31 2.00  69 2.03  67 2.03   3 2.03  49 2.12
 128  0.976  0.301  0.809-  25 1.99  32 2.00  70 2.03  68 2.03   4 2.03  50 2.12
 129  0.476  0.635  0.809-  28 1.99  33 2.00  69 2.03  71 2.03   5 2.03  51 2.12
 130  0.976  0.635  0.809-  27 1.99  34 2.00  70 2.03  72 2.03   6 2.03  52 2.12
 131  0.476  0.968  0.809-  30 1.99  35 2.00  71 2.03  67 2.03   1 2.03  53 2.12
 132  0.976  0.968  0.809-  29 1.99  36 2.00  72 2.03  68 2.03   2 2.03  54 2.12
 133  0.025  0.032  0.194-  44 1.94  37 1.95   2 1.97  77 2.02  73 2.02  19 2.04
 134  0.525  0.032  0.194-  43 1.94  38 1.95   1 1.97  78 2.02  74 2.02  20 2.04
 135  0.025  0.366  0.194-  46 1.94  39 1.95   4 1.97  73 2.02  75 2.02  21 2.04
 136  0.525  0.366  0.194-  45 1.94  40 1.95   3 1.97  74 2.02  76 2.02  22 2.04
 137  0.025  0.699  0.194-  48 1.94  41 1.95   6 1.97  75 2.02  77 2.02  23 2.04
 138  0.525  0.699  0.194-  47 1.94  42 1.95   5 1.97  76 2.02  78 2.02  24 2.04
 139  0.274  0.032  0.191-  37 1.99  43 2.00  79 2.03  83 2.03  11 2.03  55 2.12
 140  0.774  0.032  0.191-  38 1.99  44 2.00  80 2.03  84 2.03  12 2.03  56 2.12
 141  0.274  0.365  0.191-  39 1.99  45 2.00  81 2.03  79 2.03   7 2.03  57 2.12
 142  0.774  0.365  0.191-  40 1.99  46 2.00  82 2.03  80 2.03   8 2.03  58 2.12
 143  0.274  0.699  0.191-  41 1.99  47 2.00  81 2.03  83 2.03   9 2.03  59 2.12
 144  0.774  0.699  0.191-  42 1.99  48 2.00  82 2.03  84 2.03  10 2.03  60 2.12
 

IMPORTANT INFORMATION: All symmetrisations will be switched off!
NOSYMM: (Re-)initialisation of all symmetry stuff for point group C_1.

 
 
 KPOINTS: # No comment                            

Automatic generation of k-mesh.
Space group operators:
 irot       det(A)        alpha          n_x          n_y          n_z        tau_x        tau_y        tau_z
    1     1.000000     0.000000     1.000000     0.000000     0.000000     0.000000     0.000000     0.000000
 
 Subroutine IBZKPT returns following result:
 ===========================================
 
 Found     10 irreducible k-points:
 
 Following reciprocal coordinates:
            Coordinates               Weight
  0.000000  0.000000  0.000000      1.000000
  0.500000 -0.000000  0.000000      1.000000
 -0.000000  0.333333 -0.000000      2.000000
  0.500000  0.333333 -0.000000      2.000000
 -0.000000  0.000000  0.333333      2.000000
  0.500000  0.000000  0.333333      2.000000
 -0.000000  0.333333  0.333333      2.000000
  0.500000  0.333333  0.333333      2.000000
 -0.000000 -0.333333  0.333333      2.000000
  0.500000 -0.333333  0.333333      2.000000
 
 Following cartesian coordinates:
            Coordinates               Weight
  0.000000  0.000000  0.000000      1.000000
  0.032907  0.001163  0.000205      1.000000
  0.000045  0.027984  0.000297      2.000000
  0.032951  0.029147  0.000502      2.000000
  0.005801  0.006063  0.031710      2.000000
  0.038707  0.007225  0.031916      2.000000
  0.005845  0.034047  0.032007      2.000000
  0.038752  0.035209  0.032212      2.000000
  0.005756 -0.021921  0.031414      2.000000
  0.038663 -0.020758  0.031619      2.000000
 


--------------------------------------------------------------------------------------------------------




 Dimension of arrays:
   k-points           NKPTS =     10   k-points in BZ     NKDIM =     10   number of bands    NBANDS=    728
   number of dos      NEDOS =    301   number of ions     NIONS =    144
   non local maximal  LDIM  =      6   non local SUM 2l+1 LMDIM =     18
   total plane-waves  NPLWV = ******
   max r-space proj   IRMAX =      1   max aug-charges    IRDMAX= 179883
   dimension x,y,z NGX =   140 NGY =  108 NGZ =   90
   dimension x,y,z NGXF=   280 NGYF=  216 NGZF=  180
   support grid    NGXF=   560 NGYF=  432 NGZF=  360
   ions per type =              48  36  36  24
   NGX,Y,Z   is equivalent  to a cutoff of  15.05, 14.78, 14.19 a.u.
   NGXF,Y,Z  is equivalent  to a cutoff of  30.10, 29.57, 28.38 a.u.

 SYSTEM =  unknown system                          
 POSCAR =  # Compound: Li48Fe36S36O24. Old comment:

 Startparameter for this run:
   NWRITE =      1    write-flag & timer
   PREC   = accura    normal or accurate (medium, high low for compatibility)
   ISTART =      0    job   : 0-new  1-cont  2-samecut
   ICHARG =      1    charge: 1-file 2-atom 10-const
   ISPIN  =      2    spin polarized calculation?
   LNONCOLLINEAR =      F non collinear calculations
   LSORBIT =      F    spin-orbit coupling
   INIWAV =      1    electr: 0-lowe 1-rand  2-diag
   LASPH  =      T    aspherical Exc in radial PAW
   METAGGA=      F    non-selfconsistent MetaGGA calc.

 Electronic Relaxation 1
   ENCUT  =  650.0 eV  47.77 Ry    6.91 a.u.  32.15 25.25 21.92*2*pi/ulx,y,z
   ENINI  =  650.0     initial cutoff
   ENAUG  =  628.9 eV  augmentation charge cutoff
   NELM   =    200;   NELMIN=  8; NELMDL=  0     # of ELM steps 
   EDIFF  = 0.1E-05   stopping-criterion for ELM
   LREAL  =      F    real-space projection
   NLSPLINE    = F    spline interpolate recip. space projectors
   LCOMPAT=      F    compatible to vasp.4.4
   GGA_COMPAT  = T    GGA compatible to vasp.4.4-vasp.4.6
   LMAXPAW     = -100 max onsite density
   LMAXMIX     =    4 max onsite mixed and CHGCAR
   VOSKOWN=      0    Vosko Wilk Nusair interpolation
   ROPT   =    0.00000   0.00000   0.00000   0.00000
 Ionic relaxation
   EDIFFG = 0.1E-04   stopping-criterion for IOM
   NSW    =      0    number of steps for IOM
   NBLOCK =      1;   KBLOCK =      1    inner block; outer block 
   IBRION =     -1    ionic relax: 0-MD 1-quasi-New 2-CG
   NFREE  =      0    steps in history (QN), initial steepest desc. (CG)
   ISIF   =      2    stress and relaxation
   IWAVPR =     10    prediction:  0-non 1-charg 2-wave 3-comb
   ISYM   =      0    0-nonsym 1-usesym 2-fastsym
   LCORR  =      T    Harris-Foulkes like correction to forces

   POTIM  = 0.5000    time-step for ionic-motion
   TEIN   =    0.0    initial temperature
   TEBEG  =    0.0;   TEEND  =   0.0 temperature during run
   SMASS  =  -3.00    Nose mass-parameter (am)
   estimated Nose-frequenzy (Omega)   =  0.10E-29 period in steps =****** mass=  -0.547E-26a.u.
   SCALEE = 1.0000    scale energy and forces
   NPACO  =    256;   APACO  = 16.0  distance and # of slots for P.C.
   PSTRESS=    0.0 pullay stress

  Mass of Ions in am
   POMASS =   7.01 55.85 32.07 16.00
  Ionic Valenz
   ZVAL   =   3.00 14.00  6.00  6.00
  Atomic Wigner-Seitz radii
   RWIGS  =  -1.00 -1.00 -1.00 -1.00
  virtual crystal weights 
   VCA    =   1.00  1.00  1.00  1.00
   NELECT =    1008.0000    total number of electrons
   NUPDOWN=      -1.0000    fix difference up-down

 DOS related values:
   EMIN   =  10.00;   EMAX   =-10.00  energy-range for DOS
   EFERMI =   0.00
   ISMEAR =     0;   SIGMA  =   0.05  broadening in eV -4-tet -1-fermi 0-gaus

 Electronic relaxation 2 (details)
   IALGO  =     38    algorithm
   LDIAG  =      T    sub-space diagonalisation (order eigenvalues)
   LSUBROT=      F    optimize rotation matrix (better conditioning)
   TURBO    =      0    0=normal 1=particle mesh
   IRESTART =      0    0=no restart 2=restart with 2 vectors
   NREBOOT  =      0    no. of reboots
   NMIN     =      0    reboot dimension
   EREF     =   0.00    reference energy to select bands
   IMIX   =      4    mixing-type and parameters
     AMIX     =   0.40;   BMIX     =  1.00
     AMIX_MAG =   1.60;   BMIX_MAG =  1.00
     AMIN     =   0.10
     WC   =   100.;   INIMIX=   1;  MIXPRE=   1;  MAXMIX= -45

 Intra band minimization:
   WEIMIN = 0.0000     energy-eigenvalue tresh-hold
   EBREAK =  0.34E-09  absolut break condition
   DEPER  =   0.30     relativ break condition  

   TIME   =   0.40     timestep for ELM

  volume/ion in A,a.u.               =      13.25        89.44
  Fermi-wavevector in a.u.,A,eV,Ry     =   1.323307  2.500688 23.825724  1.751141
  Thomas-Fermi vector in A             =   2.452925
 
 Write flags
   LWAVE        =      F    write WAVECAR
   LDOWNSAMPLE  =      F    k-point downsampling of WAVECAR
   LCHARG       =      T    write CHGCAR
   LVTOT        =      F    write LOCPOT, total local potential
   LVHAR        =      F    write LOCPOT, Hartree potential only
   LELF         =      F    write electronic localiz. function (ELF)
   LORBIT       =      0    0 simple, 1 ext, 2 COOP (PROOUT), +10 PAW based schemes


 Dipole corrections
   LMONO  =      F    monopole corrections only (constant potential shift)
   LDIPOL =      F    correct potential (dipole corrections)
   IDIPOL =      0    1-x, 2-y, 3-z, 4-all directions 
   EPSILON=  1.0000000 bulk dielectric constant

 LDA+U is selected, type is set to LDAUTYPE =  2
   angular momentum for each species LDAUL =    -1    2   -1   -1
   U (eV)           for each species LDAUU =   0.0  4.0  0.0  0.0
   J (eV)           for each species LDAUJ =   0.0  0.0  0.0  0.0
 Exchange correlation treatment:
   GGA     =    PE    GGA type
   LEXCH   =     8    internal setting for exchange type
   VOSKOWN=      0    Vosko Wilk Nusair interpolation
   LHFCALC =     F    Hartree Fock is set to
   LHFONE  =     F    Hartree Fock one center treatment
   AEXX    =    0.0000 exact exchange contribution

 Linear response parameters
   LEPSILON=     F    determine dielectric tensor
   LRPA    =     F    only Hartree local field effects (RPA)
   LNABLA  =     F    use nabla operator in PAW spheres
   LVEL    =     F    velocity operator in full k-point grid
   LINTERFAST=   F  fast interpolation
   KINTER  =     0    interpolate to denser k-point grid
   CSHIFT  =0.1000    complex shift for real part using Kramers Kronig
   OMEGAMAX=  -1.0    maximum frequency
   DEG_THRESHOLD= 0.2000000E-02 threshold for treating states as degnerate
   RTIME   =   -0.100 relaxation time in fs
  (WPLASMAI=    0.000 imaginary part of plasma frequency in eV, 0.658/RTIME)
   DFIELD  = 0.0000000 0.0000000 0.0000000 field for delta impulse in time
 
 Orbital magnetization related:
   ORBITALMAG=     F  switch on orbital magnetization
   LCHIMAG   =     F  perturbation theory with respect to B field
   DQ        =  0.001000  dq finite difference perturbation B field
   LLRAUG    =     F  two centre corrections for induced B field



--------------------------------------------------------------------------------------------------------


 Static calculation
 charge density and potential will be updated during run
 spin polarized calculation
 Variant of blocked Davidson
 Davidson routine will perform the subspace rotation
 perform sub-space diagonalisation
    after iterative eigenvector-optimisation
 modified Broyden-mixing scheme, WC =      100.0
 initial mixing is a Kerker type mixing with AMIX =  0.4000 and BMIX =      1.0000
 Hartree-type preconditioning will be used
 using additional bands          224
 reciprocal scheme for non local part
 use partial core corrections
 calculate Harris-corrections to forces 
   (improved forces if not selfconsistent)
 use gradient corrections 
 use of overlap-Matrix (Vanderbilt PP)
 Gauss-broadening in eV      SIGMA  =   0.05


--------------------------------------------------------------------------------------------------------


  energy-cutoff  :      650.00
  volume of cell :     1908.55
      direct lattice vectors                 reciprocal lattice vectors
    15.211628300  0.005169560 -2.783615920     0.065813433  0.002325485  0.000410081
    -0.407986650 11.935657740 -2.207358840     0.000134327  0.083951744  0.000889967
    -0.061755670 -0.111681970 10.544426380     0.017402163  0.018188271  0.095131394

  length of vectors
    15.464222575 12.144908886 10.545198638     0.065855782  0.083956568  0.098405440


 
 k-points in units of 2pi/SCALE and weight: # No comment                            
   0.00000000  0.00000000  0.00000000       0.056
   0.03290672  0.00116274  0.00020504       0.056
   0.00004478  0.02798391  0.00029666       0.111
   0.03295149  0.02914666  0.00050170       0.111
   0.00580072  0.00606276  0.03171046       0.111
   0.03870744  0.00722550  0.03191551       0.111
   0.00584550  0.03404667  0.03200712       0.111
   0.03875221  0.03520941  0.03221216       0.111
   0.00575595 -0.02192116  0.03141381       0.111
   0.03866266 -0.02075841  0.03161885       0.111
 
 k-points in reciprocal lattice and weights: # No comment                            
   0.00000000  0.00000000  0.00000000       0.056
   0.50000000 -0.00000000  0.00000000       0.056
  -0.00000000  0.33333333 -0.00000000       0.111
   0.50000000  0.33333333 -0.00000000       0.111
  -0.00000000  0.00000000  0.33333333       0.111
   0.50000000  0.00000000  0.33333333       0.111
  -0.00000000  0.33333333  0.33333333       0.111
   0.50000000  0.33333333  0.33333333       0.111
  -0.00000000 -0.33333333  0.33333333       0.111
   0.50000000 -0.33333333  0.33333333       0.111
 
 position of ions in fractional coordinates (direct lattice) 
   0.47527516  0.00074367  0.00446200
   0.97527516  0.00074367  0.00446200
   0.47527516  0.33407700  0.00446200
   0.97527516  0.33407700  0.00446200
   0.47527516  0.66741034  0.00446200
   0.97527516  0.66741034  0.00446200
   0.27472484  0.33258966  0.99553800
   0.77472484  0.33258966  0.99553800
   0.27472484  0.66592300  0.99553800
   0.77472484  0.66592300  0.99553800
   0.27472484  0.99925633  0.99553800
   0.77472484  0.99925633  0.99553800
   0.17788805  0.26879518  0.60783074
   0.67788805  0.26797179  0.60783074
   0.17788805  0.60130513  0.60783074
   0.67788805  0.60130513  0.60783074
   0.17788805  0.93463846  0.60783074
   0.67788805  0.93463846  0.60783074
   0.07211195  0.06536154  0.39216926
   0.57211195  0.06536154  0.39216926
   0.07211195  0.39869487  0.39216926
   0.57211195  0.39869487  0.39216926
   0.07211195  0.73202821  0.39216926
   0.57211195  0.73202821  0.39216926
   0.10733875  0.30765571  0.84593428
   0.60733875  0.30765571  0.84593428
   0.10733875  0.64098905  0.84593428
   0.60733875  0.64098905  0.84593428
   0.10733875  0.97432238  0.84593428
   0.60733875  0.97432238  0.84593428
   0.34464416  0.29539312  0.77235872
   0.84464416  0.29539312  0.77235872
   0.34464416  0.62872645  0.77235872
   0.84464416  0.62872645  0.77235872
   0.34464416  0.96205979  0.77235872
   0.84464416  0.96205979  0.77235872
   0.14266125  0.02567762  0.15406572
   0.64266125  0.02567762  0.15406572
   0.14266125  0.35901095  0.15406572
   0.64266125  0.35901095  0.15406572
   0.14266125  0.69234429  0.15406572
   0.64266125  0.69234429  0.15406572
   0.40535584  0.03794021  0.22764128
   0.90535584  0.03794021  0.22764128
   0.40535584  0.37127355  0.22764128
   0.90535584  0.37127355  0.22764128
   0.40535584  0.70460688  0.22764128
   0.90535584  0.70460688  0.22764128
   0.46517249  0.26691416  0.60148498
   0.96517249  0.26691416  0.60148498
   0.46517249  0.60024750  0.60148498
   0.96517249  0.60024750  0.60148498
   0.46517249  0.93358083  0.60148498
   0.96517249  0.93358083  0.60148498
   0.28482751  0.06641917  0.39851502
   0.78482751  0.06641917  0.39851502
   0.28482751  0.39975250  0.39851502
   0.78482751  0.39975250  0.39851502
   0.28482751  0.73308584  0.39851502
   0.78482751  0.73308584  0.39851502
   0.22447416  0.13353711  0.80122268
   0.72447416  0.13353711  0.80122268
   0.22447416  0.46687045  0.80122268
   0.72447416  0.46687045  0.80122268
   0.22447416  0.80020378  0.80122268
   0.72447416  0.80020378  0.80122268
   0.47796479  0.13582521  0.81495126
   0.97796479  0.13582521  0.81495126
   0.47796479  0.46915854  0.81495126
   0.97796479  0.46915854  0.81495126
   0.47796479  0.80249188  0.81495126
   0.97796479  0.80249188  0.81495126
   0.02552584  0.19979622  0.19877732
   0.52552584  0.19979622  0.19877732
   0.02552584  0.53312955  0.19877732
   0.52552584  0.53312955  0.19877732
   0.02552584  0.86646289  0.19877732
   0.52552584  0.86646289  0.19877732
   0.27203521  0.19750812  0.18504874
   0.77203521  0.19750812  0.18504874
   0.27203521  0.53084146  0.18504874
   0.77203521  0.53084146  0.18504874
   0.27203521  0.86417479  0.18504874
   0.77203521  0.86417479  0.18504874
   0.12500000  0.16666667  0.00000000
   0.62500000  0.16666667  0.00000000
   0.12500000  0.50000000  0.00000000
   0.62500000  0.50000000  0.00000000
   0.12500000  0.83333333  0.00000000
   0.62500000  0.83333333  0.00000000
   0.37500000  0.16666667  0.00000000
   0.87500000  0.16666667  0.00000000
   0.37500000  0.50000000  0.00000000
   0.87500000  0.50000000  0.00000000
   0.37500000  0.83333333  0.00000000
   0.87500000  0.83333333  0.00000000
   0.17614737  0.22809805  0.36858830
   0.67614737  0.22809805  0.36858830
   0.17614737  0.56143138  0.36858830
   0.67614737  0.56143138  0.36858830
   0.17614737  0.89476472  0.36858830
   0.67614737  0.89476472  0.36858830
   0.41542106  0.22793643  0.36761855
   0.91542106  0.22793643  0.36761855
   0.41542106  0.56126976  0.36761855
   0.91542106  0.56126976  0.36761855
   0.41542106  0.89460309  0.36761855
   0.91542106  0.89460309  0.36761855
   0.07385263  0.10523528  0.63141170
   0.57385263  0.10523528  0.63141170
   0.07385263  0.43856862  0.63141170
   0.57385263  0.43856862  0.63141170
   0.07385263  0.77190195  0.63141170
   0.57385263  0.77190195  0.63141170
   0.33457894  0.10539691  0.63238145
   0.83457894  0.10539691  0.63238145
   0.33457894  0.43873024  0.63238145
   0.83457894  0.43873024  0.63238145
   0.33457894  0.77206357  0.63238145
   0.83457894  0.77206357  0.63238145
   0.22527003  0.30093342  0.80560053
   0.72527003  0.30093342  0.80560053
   0.22527003  0.63426676  0.80560053
   0.72527003  0.63426676  0.80560053
   0.22527003  0.96760009  0.80560053
   0.72527003  0.96760009  0.80560053
   0.47618324  0.30143353  0.80860116
   0.97618324  0.30143353  0.80860116
   0.47618324  0.63476686  0.80860116
   0.97618324  0.63476686  0.80860116
   0.47618324  0.96810019  0.80860116
   0.97618324  0.96810019  0.80860116
   0.02472997  0.03239991  0.19439947
   0.52472997  0.03239991  0.19439947
   0.02472997  0.36573324  0.19439947
   0.52472997  0.36573324  0.19439947
   0.02472997  0.69906658  0.19439947
   0.52472997  0.69906658  0.19439947
   0.27381676  0.03189981  0.19139884
   0.77381676  0.03189981  0.19139884
   0.27381676  0.36523314  0.19139884
   0.77381676  0.36523314  0.19139884
   0.27381676  0.69856647  0.19139884
   0.77381676  0.69856647  0.19139884
 
 position of ions in cartesian coordinates  (Angst):
   7.22913011  0.01083483 -1.27757582
  14.83494426  0.01341961 -2.66938378
   7.09313456  3.98938741 -2.01336210
  14.69894871  3.99197219 -3.40517006
   6.95713901  7.96793999 -2.74914838
  14.56295316  7.97052477 -4.14095634
   3.98183989  3.85991295  8.99850398
  11.58765404  3.86249773  7.60669602
   3.84584434  7.83846553  8.26271770
  11.45165849  7.84105031  6.87090974
   3.70984879 11.81701811  7.52693142
  11.31566294 11.81960289  6.13512346
   2.55876513  3.14128318  5.32072704
  10.16491521  3.13404026  3.93073660
   2.42310551  7.11000806  4.58675828
  10.02891966  7.11259284  3.19495032
   2.28710996 11.08856064  3.85097200
   9.89292411 11.09114542  2.45916404
   1.04605479  0.73670752  3.79019156
   8.65186894  0.73929230  2.39838360
   0.91005924  4.71526010  3.05440528
   8.51587339  4.71784488  1.66259732
   0.77406369  8.69381268  2.31861900
   8.37987784  8.69639746  0.92681104
   1.45503651  3.57815258  7.94199533
   9.06085066  3.58073736  6.55018737
   1.31904096  7.55670516  7.20620905
   8.92485511  7.55928994  5.81440109
   1.18304541 11.53525774  6.47042277
   8.78885956 11.53784252  5.07861481
   5.07438488  3.44123429  6.53268408
  12.68019903  3.44381907  5.14087612
   4.93838933  7.41978687  5.79689780
  12.54420348  7.42237165  4.40508984
   4.80239378 11.39833945  5.06111152
  12.40820793 11.40092423  3.66930356
   2.15011935  0.29001042  1.17074079
   9.75593350  0.29259520 -0.22106717
   2.01412380  4.26856300  0.43495451
   9.61993795  4.27114778 -0.95685345
   1.87812825  8.24711558 -0.30083177
   9.48394240  8.24970036 -1.69263973
   6.13658513  0.42951349  1.18824408
  13.74239928  0.43209827 -0.20356388
   6.00058958  4.40806607  0.45245780
  13.60640373  4.41065085 -0.93935016
   5.86459403  8.38661865 -0.28332848
  13.47040818  8.38920343 -1.67513644
   6.92998849  3.12102581  4.45827720
  14.53580264  3.12361059  3.06646924
   6.79399294  7.09957839  3.72249092
  14.39980709  7.10216317  2.33068296
   6.65799739 11.07813097  2.98670464
  14.26381154 11.08071575  1.59489668
   4.28098152  0.74972197  3.26265096
  11.88679567  0.75230675  1.87084300
   4.14498597  4.72827455  2.52686468
  11.75080012  4.73085933  1.13505672
   4.00899041  8.70682713  1.79107840
  11.61480456  8.70941191  0.39927044
   3.31065601  1.50553159  7.52881940
  10.91647016  1.50811637  6.13701144
   3.17466046  5.48408417  6.79303312
  10.78047461  5.48666895  5.40122516
   3.03866491  9.46263675  6.05724684
  10.64447906  9.46522153  4.66543888
   7.16488007  1.53261872  6.96290817
  14.77069422  1.53520350  5.57110021
   7.02888452  5.51117130  6.22712189
  14.63469867  5.51375608  4.83531393
   6.89288897  9.48972388  5.49133561
  14.49870312  9.49230866  4.09952765
   0.29449985  2.36263141  1.58391672
   7.90031400  2.36521619  0.19210876
   0.15850430  6.34118399  0.84813044
   7.76431845  6.34376877 -0.54367752
   0.02250875 10.31973657  0.11234416
   7.62832290 10.32232135 -1.27946380
   4.04608994  2.33812906  0.75801999
  11.65190409  2.34071384 -0.63378797
   3.91009439  6.31668164  0.02223371
  11.51590854  6.31926642 -1.36957425
   3.77409884 10.29523422 -0.71355257
  11.37991299 10.29781900 -2.10536053
   1.83345576  1.98992249 -0.71584513
   9.43926991  1.99250727 -2.10765309
   1.69746021  5.96847506 -1.45163141
   9.30327436  5.97105985 -2.84343937
   1.56146466  9.94702764 -2.18741769
   9.16727881  9.94961242 -3.57922565
   5.63636284  1.99121488 -1.41174911
  13.24217699  1.99379966 -2.80355707
   5.50036729  5.96976746 -2.14753539
  13.10618144  5.97235223 -3.53934335
   5.36437174  9.94832003 -2.88332167
  12.97018589  9.95090481 -4.27512963
   2.56366502  2.68224619  2.89273131
  10.16947917  2.68483097  1.50092335
   2.42766947  6.66079877  2.15694503
  10.03348362  6.66338355  0.76513707
   2.29167392 10.63935135  1.42115875
   9.89748807 10.64193613  0.02935079
   6.20353328  2.68166236  2.21681656
  13.80934743  2.68424714  0.82500860
   6.06753773  6.66021494  1.48103028
  13.67335188  6.66279972  0.08922232
   5.93154218 10.63876752  0.74524400
  13.53735633 10.64135230 -0.64656396
   1.04149084  1.18591681  6.22000481
   8.64730499  1.18850159  4.82819685
   0.90549529  5.16446939  5.48421853
   8.51130944  5.16705417  4.09241057
   0.76949974  9.14302197  4.74843225
   8.37531389  9.14560675  3.35662429
   5.00743673  1.18908542  5.50411160
  12.61325088  1.19167020  4.11230364
   4.87144118  5.16763800  4.76832532
  12.47725533  5.17022278  3.37651736
   4.73544563  9.14619058  4.03253904
  12.34125978  9.14877536  2.64073108
   3.25419674  3.50303184  7.20326219
  10.86001089  3.50561662  5.81145423
   3.11820119  7.48158442  6.46747591
  10.72401534  7.48416920  5.07566795
   2.98220564 11.46013700  5.73168963
  10.58801979 11.46272178  4.33988167
   7.07060589  3.50996289  6.53535219
  14.67642004  3.51254767  5.14354423
   6.93461034  7.48851547  5.79956591
  14.54042449  7.49110025  4.40775795
   6.79861479 11.46706805  5.06377964
  14.40442894 11.46965283  3.67197168
   0.35095911  0.36513116  1.90947393
   7.95677326  0.36771594  0.51766597
   0.21496356  4.34368374  1.17368765
   7.82077771  4.34626852 -0.21812031
   0.07896801  8.32223632  0.43790137
   7.68478216  8.32482110 -0.95390659
   4.14036412  0.36078489  1.18557596
  11.74617827  0.36336967 -0.20623200
   4.00436857  4.33933747  0.44978969
  11.61018272  4.34192225 -0.94201827
   3.86837302  8.31789005 -0.28599659
  11.47418717  8.32047483 -1.67780455
 


--------------------------------------------------------------------------------------------------------


 k-point  1 :   0.0000 0.0000 0.0000  plane waves:   71753
 k-point  2 :   0.5000-0.0000 0.0000  plane waves:   71808
 k-point  3 :  -0.0000 0.3333-0.0000  plane waves:   71807
 k-point  4 :   0.5000 0.3333-0.0000  plane waves:   71794
 k-point  5 :  -0.0000 0.0000 0.3333  plane waves:   71835
 k-point  6 :   0.5000 0.0000 0.3333  plane waves:   71814
 k-point  7 :  -0.0000 0.3333 0.3333  plane waves:   71857
 k-point  8 :   0.5000 0.3333 0.3333  plane waves:   71843
 k-point  9 :  -0.0000-0.3333 0.3333  plane waves:   71798
 k-point 10 :   0.5000-0.3333 0.3333  plane waves:   71816

 maximum and minimum number of plane-waves per node :     12032    11922

 maximum number of plane-waves:     71857
 maximum index in each direction: 
   IXMAX=   32   IYMAX=   25   IZMAX=   21
   IXMIN=  -32   IYMIN=  -25   IZMIN=  -22


 parallel 3D FFT for wavefunctions:
    minimum data exchange during FFTs selected (reduces bandwidth)
 parallel 3D FFT for charge:
    minimum data exchange during FFTs selected (reduces bandwidth)


 total amount of memory used by VASP MPI-rank0   980488. kBytes
=======================================================================

   base      :      30000. kBytes
   nonl-proj :      97026. kBytes
   fftplans  :      74745. kBytes
   grid      :      63949. kBytes
   one-center:        746. kBytes
   wavefun   :     714022. kBytes
 
     INWAV:  cpu time    0.0000: real time    0.0000
 Broyden mixing: mesh for mixing (old mesh)
   NGX = 65   NGY = 51   NGZ = 43
  (NGX  =280   NGY  =216   NGZ  =180)
  gives a total of 142545 points

 initial charge density was supplied:
 number of electron    1008.0000022 magnetization     143.9995912
 keeping initial charge density in first step


--------------------------------------------------------------------------------------------------------


 Maximum index for augmentation-charges         8931 (set IRDMAX)


--------------------------------------------------------------------------------------------------------


 First call to EWALD:  gamma=   0.143
 Maximum number of real-space cells 2x 3x 3
 Maximum number of reciprocal cells 3x 3x 2

    FEWALD:  cpu time    0.0310: real time    0.0310


--------------------------------------- Iteration      1(   1)  ---------------------------------------


    POTLOK:  cpu time    0.8147: real time    1.3716
    SETDIJ:  cpu time    1.6899: real time    1.7898
     EDDAV:  cpu time  339.9293: real time  343.2981
       DOS:  cpu time    0.0049: real time    0.0049
    --------------------------------------------
      LOOP:  cpu time  342.4388: real time  346.4643

 eigenvalue-minimisations  : 30512
 total energy-change (2. order) : 0.1337973E+05  (-0.5513866E+05)
 number of electron    1008.0000022 magnetization     143.9995912
 augmentation part     1008.0000022 magnetization     143.9995912

 Free energy of the ion-electron system (eV)
  ---------------------------------------------------
  alpha Z        PSCENC =      2668.72143546
  Ewald energy   TEWEN  =    -68025.90322662
  -Hartree energ DENC   =    -39875.37115619
  -exchange      EXHF   =         0.00000000
  -V(xc)+E(xc)   XCENC  =      4298.62085640
  PAW double counting   =    114383.84820647  -118048.71515856
  entropy T*S    EENTRO =        -0.02986646
  eigenvalues    EBANDS =      -564.31212622
  atomic energy  EATOM  =    118542.86816856
  Solvation  Ediel_sol  =         0.00000000
  ---------------------------------------------------
  free energy    TOTEN  =     13379.72713284 eV

  energy without entropy =    13379.75699930  energy(sigma->0) =    13379.74206607


--------------------------------------------------------------------------------------------------------




--------------------------------------- Iteration      1(   2)  ---------------------------------------


     EDDAV:  cpu time  326.8615: real time  329.9916
       DOS:  cpu time    0.0057: real time    0.0057
    --------------------------------------------
      LOOP:  cpu time  326.8672: real time  329.9973

 eigenvalue-minimisations  : 29120
 total energy-change (2. order) :-0.1195786E+05  (-0.1116174E+05)
 number of electron    1008.0000022 magnetization     143.9995912
 augmentation part     1008.0000022 magnetization     143.9995912

 Free energy of the ion-electron system (eV)
  ---------------------------------------------------
  alpha Z        PSCENC =      2668.72143546
  Ewald energy   TEWEN  =    -68025.90322662
  -Hartree energ DENC   =    -39875.37115619
  -exchange      EXHF   =         0.00000000
  -V(xc)+E(xc)   XCENC  =      4298.62085640
  PAW double counting   =    114383.84820647  -118048.71515856
  entropy T*S    EENTRO =        -0.08495879
  eigenvalues    EBANDS =    -12522.11464531
  atomic energy  EATOM  =    118542.86816856
  Solvation  Ediel_sol  =         0.00000000
  ---------------------------------------------------
  free energy    TOTEN  =      1421.86952142 eV

  energy without entropy =     1421.95448021  energy(sigma->0) =     1421.91200082


--------------------------------------------------------------------------------------------------------




--------------------------------------- Iteration      1(   3)  ---------------------------------------


     EDDAV:  cpu time  353.5132: real time  357.1103
       DOS:  cpu time    0.0020: real time    0.0021
    --------------------------------------------
      LOOP:  cpu time  353.5153: real time  357.1124

 eigenvalue-minimisations  : 32160
 total energy-change (2. order) :-0.1895108E+04  (-0.1678386E+04)
 number of electron    1008.0000022 magnetization     143.9995912
 augmentation part     1008.0000022 magnetization     143.9995912

 Free energy of the ion-electron system (eV)
  ---------------------------------------------------
  alpha Z        PSCENC =      2668.72143546
  Ewald energy   TEWEN  =    -68025.90322662
  -Hartree energ DENC   =    -39875.37115619
  -exchange      EXHF   =         0.00000000
  -V(xc)+E(xc)   XCENC  =      4298.62085640
  PAW double counting   =    114383.84820647  -118048.71515856
  entropy T*S    EENTRO =        -0.00000000
  eigenvalues    EBANDS =    -14417.30778576
  atomic energy  EATOM  =    118542.86816856
  Solvation  Ediel_sol  =         0.00000000
  ---------------------------------------------------
  free energy    TOTEN  =      -473.23866024 eV

  energy without entropy =     -473.23866024  energy(sigma->0) =     -473.23866024


--------------------------------------------------------------------------------------------------------




--------------------------------------- Iteration      1(   4)  ---------------------------------------


     EDDAV:  cpu time  396.0571: real time  399.9210
       DOS:  cpu time    0.0035: real time    0.0035
    --------------------------------------------
      LOOP:  cpu time  396.0606: real time  399.9245

 eigenvalue-minimisations  : 37008
 total energy-change (2. order) :-0.2427962E+03  (-0.2398803E+03)
 number of electron    1008.0000022 magnetization     143.9995912
 augmentation part     1008.0000022 magnetization     143.9995912

 Free energy of the ion-electron system (eV)
  ---------------------------------------------------
  alpha Z        PSCENC =      2668.72143546
  Ewald energy   TEWEN  =    -68025.90322662
  -Hartree energ DENC   =    -39875.37115619
  -exchange      EXHF   =         0.00000000
  -V(xc)+E(xc)   XCENC  =      4298.62085640
  PAW double counting   =    114383.84820647  -118048.71515856
  entropy T*S    EENTRO =        -0.00000000
  eigenvalues    EBANDS =    -14660.10395979
  atomic energy  EATOM  =    118542.86816856
  Solvation  Ediel_sol  =         0.00000000
  ---------------------------------------------------
  free energy    TOTEN  =      -716.03483427 eV

  energy without entropy =     -716.03483427  energy(sigma->0) =     -716.03483427


--------------------------------------------------------------------------------------------------------




--------------------------------------- Iteration      1(   5)  ---------------------------------------


     EDDAV:  cpu time  520.2420: real time  525.0934
       DOS:  cpu time    0.0022: real time    0.0022
    CHARGE:  cpu time   10.5955: real time   10.7077
    MIXING:  cpu time    0.0189: real time    0.0378
    --------------------------------------------
      LOOP:  cpu time  530.8586: real time  535.8411

 eigenvalue-minimisations  : 51664
 total energy-change (2. order) :-0.2933284E+02  (-0.2906585E+02)
 number of electron    1008.0000022 magnetization     143.9996870
 augmentation part      339.4166310 magnetization      94.9099411

 Broyden mixing:
  rms(total) = 0.35447E+00    rms(broyden)= 0.35429E+00
  rms(prec ) = 0.35743E+00
  weight for this iteration     100.00

 Free energy of the ion-electron system (eV)
  ---------------------------------------------------
  alpha Z        PSCENC =      2668.72143546
  Ewald energy   TEWEN  =    -68025.90322662
  -Hartree energ DENC   =    -39875.37115619
  -exchange      EXHF   =         0.00000000
  -V(xc)+E(xc)   XCENC  =      4298.62085640
  PAW double counting   =    114383.84820647  -118048.71515856
  entropy T*S    EENTRO =        -0.00000000
  eigenvalues    EBANDS =    -14689.43680292
  atomic energy  EATOM  =    118542.86816856
  Solvation  Ediel_sol  =         0.00000000
  ---------------------------------------------------
  free energy    TOTEN  =      -745.36767740 eV

  energy without entropy =     -745.36767740  energy(sigma->0) =     -745.36767740


--------------------------------------------------------------------------------------------------------




--------------------------------------- Iteration      1(   6)  ---------------------------------------


    POTLOK:  cpu time    0.8235: real time    0.8441
    SETDIJ:  cpu time    1.7788: real time    1.8094
     EDDAV:  cpu time  415.7924: real time  419.9405
       DOS:  cpu time    0.0021: real time    0.0021
    CHARGE:  cpu time   10.7589: real time   10.7674
    MIXING:  cpu time    0.0281: real time    0.0388
    --------------------------------------------
      LOOP:  cpu time  429.1838: real time  433.4022

 eigenvalue-minimisations  : 39456
 total energy-change (2. order) :-0.1214894E+01  (-0.1259397E+01)
 number of electron    1008.0000022 magnetization     143.9997390
 augmentation part      337.9555650 magnetization      94.7837521

 Broyden mixing:
  rms(total) = 0.14838E+00    rms(broyden)= 0.14819E+00
  rms(prec ) = 0.14919E+00
  weight for this iteration     100.00

 eigenvalues of (default mixing * dielectric matrix)
  average eigenvalue GAMMA=   0.6868
  0.6868

 Free energy of the ion-electron system (eV)
  ---------------------------------------------------
  alpha Z        PSCENC =      2668.72143546
  Ewald energy   TEWEN  =    -68025.90322662
  -Hartree energ DENC   =    -39867.94036244
  -exchange      EXHF   =         0.00000000
  -V(xc)+E(xc)   XCENC  =      4297.56116019
  PAW double counting   =    114122.02218860  -117781.77693840
  entropy T*S    EENTRO =        -0.00000000
  eigenvalues    EBANDS =    -14702.13499687
  atomic energy  EATOM  =    118542.86816856
  Solvation  Ediel_sol  =         0.00000000
  ---------------------------------------------------
  free energy    TOTEN  =      -746.58257152 eV

  energy without entropy =     -746.58257152  energy(sigma->0) =     -746.58257152


--------------------------------------------------------------------------------------------------------




--------------------------------------- Iteration      1(   7)  ---------------------------------------


    POTLOK:  cpu time    0.8061: real time    0.8085
    SETDIJ:  cpu time    1.7663: real time    1.7669
     EDDAV:  cpu time  472.3363: real time  476.6468
       DOS:  cpu time    0.0021: real time    0.0021
    CHARGE:  cpu time   10.7252: real time   10.7848
    MIXING:  cpu time    0.0314: real time    0.0425
    --------------------------------------------
      LOOP:  cpu time  485.6675: real time  490.0516

 eigenvalue-minimisations  : 46032
 total energy-change (2. order) :-0.5404922E-01  (-0.5514275E-01)
 number of electron    1008.0000022 magnetization     143.9997633
 augmentation part      337.7555975 magnetization      94.7529406

 Broyden mixing:
  rms(total) = 0.10379E+00    rms(broyden)= 0.10373E+00
  rms(prec ) = 0.10497E+00
  weight for this iteration     100.00

 eigenvalues of (default mixing * dielectric matrix)
  average eigenvalue GAMMA=   0.6077
  0.6077  0.6077

 Free energy of the ion-electron system (eV)
  ---------------------------------------------------
  alpha Z        PSCENC =      2668.72143546
  Ewald energy   TEWEN  =    -68025.90322662
  -Hartree energ DENC   =    -39870.72747558
  -exchange      EXHF   =         0.00000000
  -V(xc)+E(xc)   XCENC  =      4297.88278366
  PAW double counting   =    114191.60343960  -117852.83307164
  entropy T*S    EENTRO =        -0.00000000
  eigenvalues    EBANDS =    -14698.24867417
  atomic energy  EATOM  =    118542.86816856
  Solvation  Ediel_sol  =         0.00000000
  ---------------------------------------------------
  free energy    TOTEN  =      -746.63662074 eV

  energy without entropy =     -746.63662074  energy(sigma->0) =     -746.63662074


--------------------------------------------------------------------------------------------------------




--------------------------------------- Iteration      1(   8)  ---------------------------------------


    POTLOK:  cpu time    0.8275: real time    0.8391
    SETDIJ:  cpu time    1.7511: real time    1.7904
     EDDAV:  cpu time  444.9563: real time  449.4329
       DOS:  cpu time    0.0022: real time    0.0022
    CHARGE:  cpu time   10.7193: real time   10.7291
    MIXING:  cpu time    0.0330: real time    0.0436
    --------------------------------------------
      LOOP:  cpu time  458.2894: real time  462.8373

 eigenvalue-minimisations  : 42768
 total energy-change (2. order) : 0.7765507E-03  (-0.1798718E-02)
 number of electron    1008.0000022 magnetization     143.9997708
 augmentation part      337.7231489 magnetization      94.7320862

 Broyden mixing:
  rms(total) = 0.90922E-01    rms(broyden)= 0.90917E-01
  rms(prec ) = 0.91988E-01
  weight for this iteration     100.00

 eigenvalues of (default mixing * dielectric matrix)
  average eigenvalue GAMMA=   0.5230
  0.6113  0.6113  0.3463

 Free energy of the ion-electron system (eV)
  ---------------------------------------------------
  alpha Z        PSCENC =      2668.72143546
  Ewald energy   TEWEN  =    -68025.90322662
  -Hartree energ DENC   =    -39871.47305634
  -exchange      EXHF   =         0.00000000
  -V(xc)+E(xc)   XCENC  =      4298.00532238
  PAW double counting   =    114224.40778050  -117886.26222286
  entropy T*S    EENTRO =        -0.00000000
  eigenvalues    EBANDS =    -14697.00004526
  atomic energy  EATOM  =    118542.86816856
  Solvation  Ediel_sol  =         0.00000000
  ---------------------------------------------------
  free energy    TOTEN  =      -746.63584419 eV

  energy without entropy =     -746.63584419  energy(sigma->0) =     -746.63584419


--------------------------------------------------------------------------------------------------------




--------------------------------------- Iteration      1(   9)  ---------------------------------------


    POTLOK:  cpu time    0.8095: real time    0.8126
    SETDIJ:  cpu time    1.7715: real time    1.7724
     EDDAV:  cpu time  474.3906: real time  479.2753
       DOS:  cpu time    0.0024: real time    0.0026
    CHARGE:  cpu time   10.7869: real time   10.7953
    MIXING:  cpu time    0.0404: real time    0.0583
    --------------------------------------------
      LOOP:  cpu time  487.8014: real time  492.7165

 eigenvalue-minimisations  : 46168
 total energy-change (2. order) : 0.6067603E-03  (-0.1203753E-03)
 number of electron    1008.0000022 magnetization     143.9997863
 augmentation part      337.7319147 magnetization      94.7296993

 Broyden mixing:
  rms(total) = 0.85397E-01    rms(broyden)= 0.85397E-01
  rms(prec ) = 0.86381E-01
  weight for this iteration     100.00

 eigenvalues of (default mixing * dielectric matrix)
  average eigenvalue GAMMA=   0.5725
  0.6922  0.6922  0.4528  0.4528

 Free energy of the ion-electron system (eV)
  ---------------------------------------------------
  alpha Z        PSCENC =      2668.72143546
  Ewald energy   TEWEN  =    -68025.90322662
  -Hartree energ DENC   =    -39871.63110972
  -exchange      EXHF   =         0.00000000
  -V(xc)+E(xc)   XCENC  =      4298.04086547
  PAW double counting   =    114232.03478412  -117894.05910856
  entropy T*S    EENTRO =        -0.00000000
  eigenvalues    EBANDS =    -14696.70704612
  atomic energy  EATOM  =    118542.86816856
  Solvation  Ediel_sol  =         0.00000000
  ---------------------------------------------------
  free energy    TOTEN  =      -746.63523743 eV

  energy without entropy =     -746.63523743  energy(sigma->0) =     -746.63523743


--------------------------------------------------------------------------------------------------------




--------------------------------------- Iteration      1(  10)  ---------------------------------------


    POTLOK:  cpu time    0.8304: real time    0.8462
    SETDIJ:  cpu time    1.7691: real time    1.7890
     EDDAV:  cpu time  475.6808: real time  480.4927
       DOS:  cpu time    0.0022: real time    0.0025
    CHARGE:  cpu time   10.6978: real time   10.7654
    MIXING:  cpu time    0.0314: real time    0.0479
    --------------------------------------------
      LOOP:  cpu time  489.0116: real time  493.9437

 eigenvalue-minimisations  : 46240
 total energy-change (2. order) : 0.9873386E-03  (-0.1789561E-04)
 number of electron    1008.0000022 magnetization     143.9998374
 augmentation part      337.7386611 magnetization      94.7278239

 Broyden mixing:
  rms(total) = 0.76287E-01    rms(broyden)= 0.76287E-01
  rms(prec ) = 0.77132E-01
  weight for this iteration     100.00

 eigenvalues of (default mixing * dielectric matrix)
  average eigenvalue GAMMA=   0.7411
  1.0817  1.0817  0.5587  0.5587  0.4246

 Free energy of the ion-electron system (eV)
  ---------------------------------------------------
  alpha Z        PSCENC =      2668.72143546
  Ewald energy   TEWEN  =    -68025.90322662
  -Hartree energ DENC   =    -39872.07004739
  -exchange      EXHF   =         0.00000000
  -V(xc)+E(xc)   XCENC  =      4298.11204100
  PAW double counting   =    114246.97077011  -117909.33196279
  entropy T*S    EENTRO =        -0.00000000
  eigenvalues    EBANDS =    -14696.00142842
  atomic energy  EATOM  =    118542.86816856
  Solvation  Ediel_sol  =         0.00000000
  ---------------------------------------------------
  free energy    TOTEN  =      -746.63425009 eV

  energy without entropy =     -746.63425009  energy(sigma->0) =     -746.63425009


--------------------------------------------------------------------------------------------------------




--------------------------------------- Iteration      1(  11)  ---------------------------------------


    POTLOK:  cpu time    0.8144: real time    0.8389
    SETDIJ:  cpu time    1.7783: real time    1.7978
     EDDAV:  cpu time  490.5651: real time  495.6579
       DOS:  cpu time    0.0024: real time    0.0024
    CHARGE:  cpu time   10.7526: real time   10.7592
    MIXING:  cpu time    0.0405: real time    0.0512
    --------------------------------------------
      LOOP:  cpu time  503.9531: real time  509.1074

 eigenvalue-minimisations  : 47992
 total energy-change (2. order) : 0.2100100E-02  (-0.8441707E-04)
 number of electron    1008.0000022 magnetization     143.9998627
 augmentation part      337.7568177 magnetization      94.7275104

 Broyden mixing:
  rms(total) = 0.49087E-01    rms(broyden)= 0.49087E-01
  rms(prec ) = 0.49548E-01
  weight for this iteration     100.00

 eigenvalues of (default mixing * dielectric matrix)
  average eigenvalue GAMMA=   0.7924
  1.2839  1.2839  0.6214  0.6214  0.4718  0.4718

 Free energy of the ion-electron system (eV)
  ---------------------------------------------------
  alpha Z        PSCENC =      2668.72143546
  Ewald energy   TEWEN  =    -68025.90322662
  -Hartree energ DENC   =    -39873.37019006
  -exchange      EXHF   =         0.00000000
  -V(xc)+E(xc)   XCENC  =      4298.31745767
  PAW double counting   =    114293.41025836  -117956.76741683
  entropy T*S    EENTRO =        -0.00000000
  eigenvalues    EBANDS =    -14693.90863653
  atomic energy  EATOM  =    118542.86816856
  Solvation  Ediel_sol  =         0.00000000
  ---------------------------------------------------
  free energy    TOTEN  =      -746.63214999 eV

  energy without entropy =     -746.63214999  energy(sigma->0) =     -746.63214999


--------------------------------------------------------------------------------------------------------




--------------------------------------- Iteration      1(  12)  ---------------------------------------


    POTLOK:  cpu time    0.8114: real time    0.8276
    SETDIJ:  cpu time    1.7838: real time    1.8021
     EDDAV:  cpu time  373.4527: real time  376.7812
       DOS:  cpu time    0.0020: real time    0.0020
    CHARGE:  cpu time   10.6330: real time   10.7726
    MIXING:  cpu time    0.0303: real time    0.0439
    --------------------------------------------
      LOOP:  cpu time  386.7134: real time  390.2294

 eigenvalue-minimisations  : 34768
 total energy-change (2. order) : 0.4739622E-03  (-0.4904978E-04)
 number of electron    1008.0000022 magnetization     143.9998827
 augmentation part      337.7657353 magnetization      94.7261784

 Broyden mixing:
  rms(total) = 0.37726E-01    rms(broyden)= 0.37725E-01
  rms(prec ) = 0.38045E-01
  weight for this iteration     100.00

 eigenvalues of (default mixing * dielectric matrix)
  average eigenvalue GAMMA=   0.8336
  1.4616  1.4616  0.7237  0.7237  0.5101  0.5101  0.4448

 Free energy of the ion-electron system (eV)
  ---------------------------------------------------
  alpha Z        PSCENC =      2668.72143546
  Ewald energy   TEWEN  =    -68025.90322662
  -Hartree energ DENC   =    -39873.87073970
  -exchange      EXHF   =         0.00000000
  -V(xc)+E(xc)   XCENC  =      4298.39631873
  PAW double counting   =    114313.24133843  -117976.98048021
  entropy T*S    EENTRO =        -0.00000000
  eigenvalues    EBANDS =    -14693.10449068
  atomic energy  EATOM  =    118542.86816856
  Solvation  Ediel_sol  =         0.00000000
  ---------------------------------------------------
  free energy    TOTEN  =      -746.63167603 eV

  energy without entropy =     -746.63167603  energy(sigma->0) =     -746.63167603


--------------------------------------------------------------------------------------------------------




--------------------------------------- Iteration      1(  13)  ---------------------------------------


    POTLOK:  cpu time    0.8205: real time    0.8385
    SETDIJ:  cpu time    1.7586: real time    1.7667
     EDDAV:  cpu time  428.7534: real time  437.4991
       DOS:  cpu time    0.0021: real time    0.0022
    CHARGE:  cpu time   10.7455: real time   10.8053
    MIXING:  cpu time    0.0548: real time    0.0791
    --------------------------------------------
      LOOP:  cpu time  442.1347: real time  450.9909

 eigenvalue-minimisations  : 41536
 total energy-change (2. order) : 0.2353139E-03  (-0.1348065E-04)
 number of electron    1008.0000022 magnetization     143.9998991
 augmentation part      337.7708087 magnetization      94.7260210

 Broyden mixing:
  rms(total) = 0.29982E-01    rms(broyden)= 0.29981E-01
  rms(prec ) = 0.30216E-01
  weight for this iteration     100.00

 eigenvalues of (default mixing * dielectric matrix)
  average eigenvalue GAMMA=   0.8663
  1.6664  1.6664  0.8110  0.8110  0.5369  0.5369  0.4507  0.4507

 Free energy of the ion-electron system (eV)
  ---------------------------------------------------
  alpha Z        PSCENC =      2668.72143546
  Ewald energy   TEWEN  =    -68025.90322662
  -Hartree energ DENC   =    -39874.18092049
  -exchange      EXHF   =         0.00000000
  -V(xc)+E(xc)   XCENC  =      4298.44823955
  PAW double counting   =    114327.30339243  -117991.28866650
  entropy T*S    EENTRO =        -0.00000000
  eigenvalues    EBANDS =    -14692.59986310
  atomic energy  EATOM  =    118542.86816856
  Solvation  Ediel_sol  =         0.00000000
  ---------------------------------------------------
  free energy    TOTEN  =      -746.63144071 eV

  energy without entropy =     -746.63144071  energy(sigma->0) =     -746.63144071


--------------------------------------------------------------------------------------------------------




--------------------------------------- Iteration      1(  14)  ---------------------------------------


    POTLOK:  cpu time    0.8233: real time    0.8249
    SETDIJ:  cpu time    1.7271: real time    1.7885
     EDDAV:  cpu time  424.7666: real time  432.4956
       DOS:  cpu time    0.0018: real time    0.0018
    CHARGE:  cpu time   10.5740: real time   10.7865
    MIXING:  cpu time    0.0367: real time    0.0519
    --------------------------------------------
      LOOP:  cpu time  437.9294: real time  445.9492

 eigenvalue-minimisations  : 40928
 total energy-change (2. order) : 0.6691820E-04  (-0.1059871E-04)
 number of electron    1008.0000022 magnetization     143.9999209
 augmentation part      337.7774366 magnetization      94.7256344

 Broyden mixing:
  rms(total) = 0.25301E-01    rms(broyden)= 0.25301E-01
  rms(prec ) = 0.25496E-01
  weight for this iteration     100.00

 eigenvalues of (default mixing * dielectric matrix)
  average eigenvalue GAMMA=   0.9327
  1.9938  1.9938  0.9267  0.9267  0.5916  0.5916  0.4656  0.4656  0.4383

 Free energy of the ion-electron system (eV)
  ---------------------------------------------------
  alpha Z        PSCENC =      2668.72143546
  Ewald energy   TEWEN  =    -68025.90322662
  -Hartree energ DENC   =    -39874.34424000
  -exchange      EXHF   =         0.00000000
  -V(xc)+E(xc)   XCENC  =      4298.47175250
  PAW double counting   =    114335.87825747  -117999.96803913
  entropy T*S    EENTRO =        -0.00000000
  eigenvalues    EBANDS =    -14692.35548203
  atomic energy  EATOM  =    118542.86816856
  Solvation  Ediel_sol  =         0.00000000
  ---------------------------------------------------
  free energy    TOTEN  =      -746.63137380 eV

  energy without entropy =     -746.63137380  energy(sigma->0) =     -746.63137380


--------------------------------------------------------------------------------------------------------




--------------------------------------- Iteration      1(  15)  ---------------------------------------


    POTLOK:  cpu time    0.7981: real time    0.8187
    SETDIJ:  cpu time    1.7504: real time    1.7994
     EDDAV:  cpu time  333.4160: real time  339.9997
       DOS:  cpu time    0.0025: real time    0.0031
    CHARGE:  cpu time   10.6530: real time   10.8341
    MIXING:  cpu time    0.0344: real time    0.0464
    --------------------------------------------
      LOOP:  cpu time  346.6544: real time  353.5014

 eigenvalue-minimisations  : 29608
 total energy-change (2. order) : 0.1046558E-03  (-0.2675948E-05)
 number of electron    1008.0000022 magnetization     143.9999647
 augmentation part      337.7798063 magnetization      94.7251594

 Broyden mixing:
  rms(total) = 0.18774E-01    rms(broyden)= 0.18774E-01
  rms(prec ) = 0.18927E-01
  weight for this iteration     100.00

 eigenvalues of (default mixing * dielectric matrix)
  average eigenvalue GAMMA=   1.0436
  2.4332  2.4332  1.0641  1.0641  0.7081  0.7081  0.5431  0.5431  0.4693  0.4693

 Free energy of the ion-electron system (eV)
  ---------------------------------------------------
  alpha Z        PSCENC =      2668.72143546
  Ewald energy   TEWEN  =    -68025.90322662
  -Hartree energ DENC   =    -39874.60240796
  -exchange      EXHF   =         0.00000000
  -V(xc)+E(xc)   XCENC  =      4298.50910107
  PAW double counting   =    114348.32595837  -118012.59537197
  entropy T*S    EENTRO =        -0.00000000
  eigenvalues    EBANDS =    -14691.95492605
  atomic energy  EATOM  =    118542.86816856
  Solvation  Ediel_sol  =         0.00000000
  ---------------------------------------------------
  free energy    TOTEN  =      -746.63126914 eV

  energy without entropy =     -746.63126914  energy(sigma->0) =     -746.63126914


--------------------------------------------------------------------------------------------------------




--------------------------------------- Iteration      1(  16)  ---------------------------------------


    POTLOK:  cpu time    0.8201: real time    0.8429
    SETDIJ:  cpu time    1.7635: real time    1.7753
     EDDAV:  cpu time  446.4451: real time  454.8381
       DOS:  cpu time    0.0025: real time    0.0026
    CHARGE:  cpu time   10.6293: real time   10.7387
    MIXING:  cpu time    0.0428: real time    0.0579
    --------------------------------------------
      LOOP:  cpu time  459.7035: real time  468.2554

 eigenvalue-minimisations  : 43112
 total energy-change (2. order) : 0.1350733E-03  (-0.1512743E-04)
 number of electron    1008.0000022 magnetization     143.9999767
 augmentation part      337.7870809 magnetization      94.7244680

 Broyden mixing:
  rms(total) = 0.52893E-02    rms(broyden)= 0.52874E-02
  rms(prec ) = 0.53293E-02
  weight for this iteration     100.00

 eigenvalues of (default mixing * dielectric matrix)
  average eigenvalue GAMMA=   1.0570
  2.5529  2.5529  1.1646  1.1646  0.7919  0.7919  0.6001  0.6001  0.4758  0.4758
  0.4568

 Free energy of the ion-electron system (eV)
  ---------------------------------------------------
  alpha Z        PSCENC =      2668.72143546
  Ewald energy   TEWEN  =    -68025.90322662
  -Hartree energ DENC   =    -39875.18621404
  -exchange      EXHF   =         0.00000000
  -V(xc)+E(xc)   XCENC  =      4298.59283383
  PAW double counting   =    114373.49296866  -118038.16914114
  entropy T*S    EENTRO =        -0.00000000
  eigenvalues    EBANDS =    -14691.04795878
  atomic energy  EATOM  =    118542.86816856
  Solvation  Ediel_sol  =         0.00000000
  ---------------------------------------------------
  free energy    TOTEN  =      -746.63113407 eV

  energy without entropy =     -746.63113407  energy(sigma->0) =     -746.63113407


--------------------------------------------------------------------------------------------------------




--------------------------------------- Iteration      1(  17)  ---------------------------------------


    POTLOK:  cpu time    0.8039: real time    0.8051
    SETDIJ:  cpu time    1.7605: real time    1.7799
     EDDAV:  cpu time  387.5745: real time  394.5918
       DOS:  cpu time    0.0021: real time    0.0021
    CHARGE:  cpu time   10.6598: real time   10.8307
    MIXING:  cpu time    0.0259: real time    0.0774
    --------------------------------------------
      LOOP:  cpu time  400.8269: real time  408.0870

 eigenvalue-minimisations  : 36704
 total energy-change (2. order) : 0.4316898E-05  (-0.4426092E-05)
 number of electron    1008.0000022 magnetization     143.9999775
 augmentation part      337.7883942 magnetization      94.7242280

 Broyden mixing:
  rms(total) = 0.26393E-02    rms(broyden)= 0.26361E-02
  rms(prec ) = 0.26493E-02
  weight for this iteration     100.00

 eigenvalues of (default mixing * dielectric matrix)
  average eigenvalue GAMMA=   1.0130
  2.6101  2.6101  1.2034  1.2034  0.8051  0.8051  0.6034  0.6034  0.4537  0.4537
  0.4539  0.3509

 Free energy of the ion-electron system (eV)
  ---------------------------------------------------
  alpha Z        PSCENC =      2668.72143546
  Ewald energy   TEWEN  =    -68025.90322662
  -Hartree energ DENC   =    -39875.32028809
  -exchange      EXHF   =         0.00000000
  -V(xc)+E(xc)   XCENC  =      4298.61030945
  PAW double counting   =    114378.95733011  -118043.72339802
  entropy T*S    EENTRO =        -0.00000000
  eigenvalues    EBANDS =    -14690.84146060
  atomic energy  EATOM  =    118542.86816856
  Solvation  Ediel_sol  =         0.00000000
  ---------------------------------------------------
  free energy    TOTEN  =      -746.63112975 eV

  energy without entropy =     -746.63112975  energy(sigma->0) =     -746.63112975


--------------------------------------------------------------------------------------------------------




--------------------------------------- Iteration      1(  18)  ---------------------------------------


    POTLOK:  cpu time    0.7916: real time    0.8190
    SETDIJ:  cpu time    1.7484: real time    1.7815
     EDDAV:  cpu time  352.5138: real time  359.6053
       DOS:  cpu time    0.0036: real time    0.0054
    CHARGE:  cpu time   10.4385: real time   10.7519
    MIXING:  cpu time    0.0379: real time    0.0486
    --------------------------------------------
      LOOP:  cpu time  365.5338: real time  373.0117

 eigenvalue-minimisations  : 31648
 total energy-change (2. order) :-0.1445791E-05  (-0.7196994E-06)
 number of electron    1008.0000022 magnetization     143.9999776
 augmentation part      337.7897547 magnetization      94.7242076

 Broyden mixing:
  rms(total) = 0.26279E-02    rms(broyden)= 0.26249E-02
  rms(prec ) = 0.26364E-02
  weight for this iteration     100.00

 eigenvalues of (default mixing * dielectric matrix)
  average eigenvalue GAMMA=   0.9390
  2.6221  2.6221  1.2047  1.2047  0.8038  0.8038  0.6018  0.6018  0.4550  0.4550
  0.4482  0.3248  0.0585

 Free energy of the ion-electron system (eV)
  ---------------------------------------------------
  alpha Z        PSCENC =      2668.72143546
  Ewald energy   TEWEN  =    -68025.90322662
  -Hartree energ DENC   =    -39875.31658672
  -exchange      EXHF   =         0.00000000
  -V(xc)+E(xc)   XCENC  =      4298.60956456
  PAW double counting   =    114378.95786445  -118043.72297182
  entropy T*S    EENTRO =        -0.00000000
  eigenvalues    EBANDS =    -14690.84537905
  atomic energy  EATOM  =    118542.86816856
  Solvation  Ediel_sol  =         0.00000000
  ---------------------------------------------------
  free energy    TOTEN  =      -746.63113120 eV

  energy without entropy =     -746.63113120  energy(sigma->0) =     -746.63113120


--------------------------------------------------------------------------------------------------------




--------------------------------------- Iteration      1(  19)  ---------------------------------------


    POTLOK:  cpu time    0.8054: real time    0.8084
    SETDIJ:  cpu time    1.7515: real time    1.7644
     EDDAV:  cpu time  236.8046: real time  240.9184
       DOS:  cpu time    0.0019: real time    0.0019
    --------------------------------------------
      LOOP:  cpu time  239.3633: real time  243.4931

 eigenvalue-minimisations  : 18464
 total energy-change (2. order) :-0.1779990E-06  (-0.2280327E-07)
 number of electron    1008.0000022 magnetization     143.9999776
 augmentation part      337.7897547 magnetization      94.7242076

 Free energy of the ion-electron system (eV)
  ---------------------------------------------------
  alpha Z        PSCENC =      2668.72143546
  Ewald energy   TEWEN  =    -68025.90322662
  -Hartree energ DENC   =    -39875.31611300
  -exchange      EXHF   =         0.00000000
  -V(xc)+E(xc)   XCENC  =      4298.60940963
  PAW double counting   =    114378.95612714  -118043.72100836
  entropy T*S    EENTRO =        -0.00000000
  eigenvalues    EBANDS =    -14690.84592417
  atomic energy  EATOM  =    118542.86816856
  Solvation  Ediel_sol  =         0.00000000
  ---------------------------------------------------
  free energy    TOTEN  =      -746.63113137 eV

  energy without entropy =     -746.63113137  energy(sigma->0) =     -746.63113137


--------------------------------------------------------------------------------------------------------




 average (electrostatic) potential at core
  the test charge radii are     0.7079  0.9500  0.9698  0.7215
  (the norm of the test charge is              1.0000)
       1 -59.3416       2 -59.3406       3 -59.3417       4 -59.3422       5 -59.3420
       6 -59.3423       7 -59.3423       8 -59.3417       9 -59.3422      10 -59.3418
      11 -59.3416      12 -59.3418      13 -59.5852      14 -59.5852      15 -59.5865
      16 -59.5853      17 -59.5839      18 -59.5850      19 -59.5841      20 -59.5851
      21 -59.5865      22 -59.5855      23 -59.5851      24 -59.5853      25 -59.1666
      26 -59.1663      27 -59.1675      28 -59.1666      29 -59.1659      30 -59.1663
      31 -59.1058      32 -59.1056      33 -59.1063      34 -59.1060      35 -59.1049
      36 -59.1054      37 -59.1662      38 -59.1663      39 -59.1662      40 -59.1665
      41 -59.1665      42 -59.1666      43 -59.1056      44 -59.1057      45 -59.1058
      46 -59.1059      47 -59.1058      48 -59.1058      49 -79.1139      50 -79.1139
      51 -79.1145      52 -79.1152      53 -79.1134      54 -79.1127      55 -79.1132
      56 -79.1137      57 -79.1146      58 -79.1141      59 -79.1140      60 -79.1139
      61 -78.8401      62 -78.8419      63 -78.8442      64 -78.8424      65 -78.8421
      66 -78.8421      67 -78.9385      68 -78.9380      69 -78.9398      70 -78.9402
      71 -78.9391      72 -78.9391      73 -78.8419      74 -78.8420      75 -78.8424
      76 -78.8423      77 -78.8419      78 -78.8420      79 -78.9390      80 -78.9391
      81 -78.9395      82 -78.9394      83 -78.9390      84 -78.9390      85 -85.7919
      86 -85.7923      87 -85.7930      88 -85.7926      89 -85.7924      90 -85.7924
      91 -85.8156      92 -85.8157      93 -85.8163      94 -85.8162      95 -85.8159
      96 -85.8158      97 -85.8198      98 -85.8199      99 -85.8204     100 -85.8201
     101 -85.8195     102 -85.8198     103 -85.8436     104 -85.8436     105 -85.8440
     106 -85.8441     107 -85.8434     108 -85.8432     109 -85.8162     110 -85.8195
     111 -85.8236     112 -85.8203     113 -85.8199     114 -85.8199     115 -85.8413
     116 -85.8431     117 -85.8460     118 -85.8442     119 -85.8437     120 -85.8437
     121 -69.8786     122 -69.8787     123 -69.8795     124 -69.8788     125 -69.8778
     126 -69.8785     127 -70.3568     128 -70.3568     129 -70.3573     130 -70.3576
     131 -70.3563     132 -70.3559     133 -69.8783     134 -69.8786     135 -69.8788
     136 -69.8787     137 -69.8788     138 -69.8787     139 -70.3566     140 -70.3567
     141 -70.3568     142 -70.3569     143 -70.3569     144 -70.3569
 
 
 
 E-fermi :   5.0889     XC(G=0): -10.2425     alpha+bet :-12.3269


 spin component 1

 k-point     1 :       0.0000    0.0000    0.0000
  band No.  band energies     occupation 
      1     -51.6039      1.00000
      2     -51.6034      1.00000
      3     -51.6032      1.00000
      4     -51.6029      1.00000
      5     -51.6027      1.00000
      6     -51.6026      1.00000
      7     -51.6026      1.00000
      8     -51.6026      1.00000
      9     -51.6023      1.00000
     10     -51.6021      1.00000
     11     -51.6018      1.00000
     12     -51.6014      1.00000
     13     -51.4187      1.00000
     14     -51.4183      1.00000
     15     -51.4180      1.00000
     16     -51.4180      1.00000
     17     -51.4177      1.00000
     18     -51.4177      1.00000
     19     -51.4177      1.00000
     20     -51.4177      1.00000
     21     -51.4174      1.00000
     22     -51.4174      1.00000
     23     -51.4171      1.00000
     24     -51.4166      1.00000
     25     -51.2995      1.00000
     26     -51.2981      1.00000
     27     -51.2981      1.00000
     28     -51.2980      1.00000
     29     -51.2978      1.00000
     30     -51.2978      1.00000
[...]
   -.110E+03 -.118E+02 -.436E+02   0.110E+03 0.118E+02 0.436E+02   -.224E+00 0.372E-02 0.581E-01   -.212E-03 0.190E-04 0.798E-04
   -.110E+03 -.118E+02 -.436E+02   0.110E+03 0.118E+02 0.436E+02   -.224E+00 0.404E-02 0.580E-01   -.229E-03 0.127E-03 0.156E-03
   -.110E+03 -.118E+02 -.436E+02   0.110E+03 0.118E+02 0.436E+02   -.224E+00 0.239E-02 0.587E-01   -.214E-03 -.496E-05 0.841E-04
   -.110E+03 -.118E+02 -.436E+02   0.110E+03 0.118E+02 0.436E+02   -.223E+00 0.234E-02 0.591E-01   -.231E-03 0.351E-04 0.876E-04
   -.110E+03 -.118E+02 -.436E+02   0.110E+03 0.118E+02 0.436E+02   -.223E+00 0.214E-02 0.575E-01   -.177E-03 -.905E-05 0.544E-04
   -.110E+03 -.118E+02 -.436E+02   0.110E+03 0.118E+02 0.436E+02   -.224E+00 0.190E-02 0.573E-01   -.224E-03 -.753E-04 0.148E-03
   -.101E+03 0.331E+02 0.198E+03   0.101E+03 -.332E+02 -.199E+03   -.485E+00 0.167E+00 0.975E+00   -.118E-03 0.189E-03 0.226E-03
   -.101E+03 0.332E+02 0.198E+03   0.101E+03 -.334E+02 -.199E+03   -.479E+00 0.165E+00 0.974E+00   -.218E-03 0.466E-04 0.260E-03
   -.100E+03 0.331E+02 0.198E+03   0.101E+03 -.332E+02 -.199E+03   -.476E+00 0.167E+00 0.972E+00   -.355E-03 0.134E-03 0.215E-03
   -.101E+03 0.332E+02 0.198E+03   0.101E+03 -.334E+02 -.199E+03   -.481E+00 0.165E+00 0.975E+00   -.205E-03 0.105E-03 0.220E-03
   -.101E+03 0.332E+02 0.198E+03   0.101E+03 -.333E+02 -.199E+03   -.480E+00 0.162E+00 0.975E+00   -.202E-03 0.628E-05 0.182E-03
   -.101E+03 0.332E+02 0.198E+03   0.101E+03 -.334E+02 -.199E+03   -.480E+00 0.164E+00 0.974E+00   -.220E-03 -.905E-05 0.225E-03
   0.110E+03 0.118E+02 0.436E+02   -.110E+03 -.118E+02 -.436E+02   0.231E+00 -.563E-02 -.595E-01   0.134E-03 -.208E-05 -.547E-04
   0.110E+03 0.118E+02 0.436E+02   -.110E+03 -.118E+02 -.436E+02   0.222E+00 -.228E-02 -.582E-01   0.200E-03 0.541E-04 -.746E-04
   0.110E+03 0.118E+02 0.436E+02   -.110E+03 -.118E+02 -.436E+02   0.216E+00 -.531E-02 -.557E-01   0.262E-03 0.120E-03 -.997E-04
   0.110E+03 0.118E+02 0.436E+02   -.110E+03 -.118E+02 -.436E+02   0.225E+00 -.213E-02 -.581E-01   0.164E-03 0.115E-04 -.540E-04
   0.110E+03 0.118E+02 0.436E+02   -.110E+03 -.118E+02 -.436E+02   0.224E+00 -.416E-02 -.579E-01   0.206E-03 -.750E-04 -.406E-05
   0.110E+03 0.118E+02 0.436E+02   -.110E+03 -.118E+02 -.436E+02   0.224E+00 -.374E-02 -.580E-01   0.174E-03 -.930E-04 -.575E-04
   0.102E+02 0.995E+01 0.504E+02   -.105E+02 -.100E+02 -.507E+02   0.329E+00 0.105E+00 0.326E+00   -.953E-04 -.148E-03 -.154E-03
   0.102E+02 0.968E+01 0.504E+02   -.105E+02 -.976E+01 -.508E+02   0.330E+00 0.745E-01 0.332E+00   -.930E-04 0.580E-04 -.103E-03
   0.102E+02 0.962E+01 0.504E+02   -.105E+02 -.969E+01 -.508E+02   0.328E+00 0.687E-01 0.330E+00   0.172E-03 -.416E-04 -.244E-03
   0.102E+02 0.967E+01 0.504E+02   -.105E+02 -.975E+01 -.508E+02   0.330E+00 0.722E-01 0.332E+00   -.102E-04 -.575E-04 -.145E-03
   0.102E+02 0.964E+01 0.505E+02   -.105E+02 -.971E+01 -.508E+02   0.331E+00 0.698E-01 0.335E+00   0.128E-03 -.250E-04 -.123E-03
   0.102E+02 0.968E+01 0.504E+02   -.105E+02 -.975E+01 -.508E+02   0.330E+00 0.724E-01 0.332E+00   -.127E-03 -.101E-03 -.197E-03
   -.603E+01 -.203E+02 -.109E+03   0.623E+01 0.209E+02 0.112E+03   -.201E+00 -.589E+00 -.317E+01   0.181E-03 0.240E-04 0.115E-03
   -.603E+01 -.203E+02 -.109E+03   0.623E+01 0.208E+02 0.112E+03   -.201E+00 -.587E+00 -.317E+01   0.449E-04 -.236E-04 -.159E-04
   -.604E+01 -.203E+02 -.109E+03   0.624E+01 0.209E+02 0.112E+03   -.203E+00 -.595E+00 -.317E+01   0.350E-04 0.111E-05 0.452E-04
   -.602E+01 -.203E+02 -.109E+03   0.622E+01 0.209E+02 0.112E+03   -.199E+00 -.596E+00 -.317E+01   -.131E-03 -.422E-04 0.544E-05
   -.602E+01 -.203E+02 -.109E+03   0.622E+01 0.209E+02 0.112E+03   -.200E+00 -.594E+00 -.317E+01   0.548E-04 -.187E-04 0.431E-04
   -.604E+01 -.203E+02 -.109E+03   0.625E+01 0.209E+02 0.112E+03   -.203E+00 -.595E+00 -.316E+01   -.840E-04 0.783E-04 0.418E-03
   -.102E+02 -.968E+01 -.505E+02   0.105E+02 0.975E+01 0.508E+02   -.329E+00 -.727E-01 -.332E+00   -.261E-04 -.607E-04 -.442E-03
   -.102E+02 -.968E+01 -.504E+02   0.105E+02 0.975E+01 0.508E+02   -.329E+00 -.730E-01 -.332E+00   0.297E-04 0.565E-05 0.896E-04
   -.102E+02 -.966E+01 -.504E+02   0.105E+02 0.974E+01 0.508E+02   -.330E+00 -.714E-01 -.332E+00   0.178E-03 0.521E-04 0.550E-04
   -.102E+02 -.967E+01 -.504E+02   0.105E+02 0.974E+01 0.508E+02   -.330E+00 -.721E-01 -.332E+00   0.460E-04 0.594E-04 0.953E-05
   -.102E+02 -.969E+01 -.504E+02   0.105E+02 0.977E+01 0.508E+02   -.330E+00 -.745E-01 -.332E+00   0.129E-03 -.647E-04 0.173E-03
   -.102E+02 -.968E+01 -.504E+02   0.105E+02 0.976E+01 0.508E+02   -.330E+00 -.740E-01 -.332E+00   0.182E-04 -.581E-04 0.116E-03
   0.604E+01 0.203E+02 0.109E+03   -.624E+01 -.209E+02 -.112E+03   0.201E+00 0.593E+00 0.317E+01   -.111E-03 -.462E-04 -.729E-04
   0.603E+01 0.203E+02 0.109E+03   -.623E+01 -.209E+02 -.112E+03   0.201E+00 0.592E+00 0.317E+01   -.228E-03 -.140E-04 0.391E-04
   0.603E+01 0.203E+02 0.109E+03   -.623E+01 -.209E+02 -.112E+03   0.202E+00 0.594E+00 0.317E+01   -.140E-03 0.889E-04 0.476E-04
   0.604E+01 0.203E+02 0.109E+03   -.624E+01 -.209E+02 -.112E+03   0.201E+00 0.593E+00 0.317E+01   -.166E-03 0.892E-04 -.309E-04
   0.603E+01 0.203E+02 0.109E+03   -.623E+01 -.209E+02 -.112E+03   0.201E+00 0.591E+00 0.317E+01   -.982E-04 -.219E-04 -.790E-04
   0.603E+01 0.203E+02 0.109E+03   -.623E+01 -.209E+02 -.112E+03   0.201E+00 0.591E+00 0.317E+01   -.111E-03 -.655E-04 -.431E-05
 -----------------------------------------------------------------------------------------------
   0.420E-03 0.124E-01 -.192E-02   0.218E-12 -.426E-12 -.696E-12   0.645E-03 -.128E-01 0.281E-02   -.108E-02 0.567E-03 -.880E-03
 
 
 POSITION                                       TOTAL-FORCE (eV/Angst)
 -----------------------------------------------------------------------------------
      7.22913      0.01083     -1.27758         0.000110     -0.000048     -0.000242
     14.83494      0.01342     -2.66938         0.000155     -0.000065     -0.000330
      7.09313      3.98939     -2.01336         0.000139     -0.000282     -0.000111
     14.69895      3.99197     -3.40517         0.000138     -0.000300     -0.000112
      6.95714      7.96794     -2.74915         0.000159      0.000025     -0.000057
     14.56295      7.97052     -4.14096         0.000115      0.000051      0.000033
      3.98184      3.85991      8.99850        -0.000127     -0.000206      0.000178
     11.58765      3.86250      7.60670        -0.000137     -0.000036      0.000145
      3.84584      7.83847      8.26272        -0.000095      0.000215      0.000255
     11.45166      7.84105      6.87091        -0.000143      0.000205      0.000151
      3.70985     11.81702      7.52693        -0.000196      0.000132      0.000005
     11.31566     11.81960      6.13512        -0.000139      0.000146      0.000116
      2.55877      3.14128      5.32073         0.000210     -0.014310      0.002714
     10.16492      3.13404      3.93074        -0.000435      0.000107      0.000176
      2.42311      7.11001      4.58676        -0.000285      0.001561     -0.000247
     10.02892      7.11259      3.19495        -0.000460      0.000580      0.000114
      2.28711     11.08856      3.85097        -0.000682      0.001607      0.000101
      9.89292     11.09115      2.45916        -0.000439      0.000578      0.000102
      1.04605      0.73671      3.79019         0.001178      0.000419      0.001490
      8.65187      0.73929      2.39838         0.000441     -0.000453     -0.000039
      0.91006      4.71526      3.05441        -0.000335     -0.000325     -0.001945
      8.51587      4.71784      1.66260         0.000444     -0.000521     -0.000206
      0.77406      8.69381      2.31862         0.000433     -0.000155     -0.000158
      8.37988      8.69640      0.92681         0.000446     -0.000305     -0.000135
      1.45504      3.57815      7.94200        -0.000247     -0.001286      0.000031
      9.06085      3.58074      6.55019        -0.000289     -0.000051     -0.000185
      1.31904      7.55671      7.20621        -0.000198      0.000758      0.000154
      8.92486      7.55929      5.81440        -0.000216      0.000183     -0.000200
      1.18305     11.53526      6.47042        -0.000423      0.000540     -0.000777
      8.78886     11.53784      5.07861        -0.000389      0.000155     -0.000235
      5.07438      3.44123      6.53268        -0.001291     -0.001670      0.000215
     12.68020      3.44382      5.14088        -0.001320     -0.000506      0.000010
      4.93839      7.41979      5.79690        -0.001266      0.000291      0.000124
     12.54420      7.42237      4.40509        -0.001509     -0.000102      0.000001
      4.80239     11.39834      5.06111        -0.001410      0.000183     -0.000357
     12.40821     11.40092      3.66930        -0.001159     -0.000137     -0.000109
      2.15012      0.29001      1.17074         0.000281     -0.000196      0.000090
      9.75593      0.29260     -0.22107         0.000293     -0.000087      0.000202
      2.01412      4.26856      0.43495         0.000345     -0.000501      0.000361
      9.61994      4.27115     -0.95685         0.000297     -0.000191      0.000217
      1.87813      8.24712     -0.30083         0.000292      0.000172      0.000212
      9.48394      8.24970     -1.69264         0.000311     -0.000019      0.000205
      6.13659      0.42951      1.18824         0.001313      0.000226      0.000038
     13.74240      0.43210     -0.20356         0.001354      0.000186      0.000100
      6.00059      4.40807      0.45246         0.001330      0.000060      0.000030
     13.60640      4.41065     -0.93935         0.001296      0.000067     -0.000004
      5.86459      8.38662     -0.28333         0.001328      0.000447      0.000023
     13.47041      8.38920     -1.67514         0.001309      0.000487      0.000002
      6.92999      3.12103      4.45828         0.000023     -0.000847     -0.000000
     14.53580      3.12361      3.06647         0.000083     -0.002357      0.000291
      6.79399      7.09958      3.72249         0.000656      0.001368     -0.000600
     14.39981      7.10216      2.33068        -0.001234      0.002237     -0.000681
      6.65800     11.07813      2.98670        -0.000725      0.001400     -0.000084
     14.26381     11.08072      1.59490         0.001106      0.002355     -0.000364
      4.28098      0.74972      3.26265        -0.000101     -0.000001      0.001975
     11.88680      0.75231      1.87084         0.000134     -0.000509      0.000472
      4.14499      4.72827      2.52686         0.000110     -0.000807     -0.001663
     11.75080      4.73086      1.13506        -0.000106     -0.000703     -0.000058
      4.00899      8.70683      1.79108         0.000013      0.000026      0.000152
     11.61480      8.70941      0.39927         0.000002     -0.000129      0.000156
      3.31066      1.50553      7.52882        -0.002573      0.001453     -0.006878
     10.91647      1.50812      6.13701         0.000082     -0.000332     -0.000017
      3.17466      5.48408      6.79303         0.002522      0.004098      0.006213
     10.78047      5.48667      5.40123         0.000033     -0.000234      0.000420
      3.03866      9.46264      6.05725         0.000024      0.000902      0.000029
     10.64448      9.46522      4.66544         0.000074     -0.000049      0.000195
      7.16488      1.53262      6.96291        -0.000937     -0.000517     -0.000748
     14.77069      1.53520      5.57110         0.000698     -0.000873     -0.001510
      7.02888      5.51117      6.22712         0.000488     -0.000214      0.000564
     14.63470      5.51376      4.83531        -0.001138     -0.000388      0.001412
      6.89289      9.48972      5.49134        -0.000255      0.000618     -0.000234
     14.49870      9.49231      4.09953        -0.000268      0.001047     -0.000302
      0.29450      2.36263      1.58392         0.000037      0.000122     -0.000389
      7.90031      2.36522      0.19211        -0.000172      0.000116     -0.000300
      0.15850      6.34118      0.84813        -0.000208      0.000186     -0.000207
      7.76432      6.34377     -0.54368         0.000103      0.000175     -0.000197
      0.02251     10.31974      0.11234        -0.000017      0.000378     -0.000023
      7.62832     10.32232     -1.27946        -0.000121      0.000316     -0.000098
      4.04609      2.33813      0.75802         0.000125      0.000027     -0.000056
     11.65190      2.34071     -0.63379         0.000242     -0.000110      0.000056
      3.91009      6.31668      0.02223         0.000381     -0.000034      0.000152
     11.51591      6.31927     -1.36957         0.000070     -0.000002      0.000133
      3.77410     10.29523     -0.71355         0.000194      0.000155      0.000325
     11.37991     10.29782     -2.10536         0.000392      0.000078      0.000266
      1.83346      1.98992     -0.71585         0.000093      0.000273      0.000587
      9.43927      1.99251     -2.10765         0.000085      0.000099      0.000087
      1.69746      5.96848     -1.45163        -0.000092      0.000057     -0.000575
      9.30327      5.97106     -2.84344        -0.000076      0.000029     -0.000083
      1.56146      9.94703     -2.18742        -0.000004     -0.000341     -0.000028
      9.16728      9.94961     -3.57923        -0.000008     -0.000148     -0.000002
      5.63636      1.99121     -1.41175         0.000153      0.000231      0.000289
     13.24218      1.99380     -2.80356        -0.000134      0.000153      0.000171
      5.50037      5.96977     -2.14754        -0.000158      0.000078     -0.000296
     13.10618      5.97235     -3.53934         0.000133      0.000056     -0.000128
      5.36437      9.94832     -2.88332         0.000003     -0.000259     -0.000002
     12.97019      9.95090     -4.27513        -0.000013     -0.000227     -0.000035
      2.56367      2.68225      2.89273        -0.000011      0.001127      0.000010
     10.16948      2.68483      1.50092         0.000031     -0.000202      0.000151
      2.42767      6.66080      2.15695        -0.000036     -0.000702      0.000549
     10.03348      6.66338      0.76514         0.000050     -0.000462      0.000172
      2.29167     10.63935      1.42116         0.000092     -0.000903     -0.000201
      9.89749     10.64194      0.02935        -0.000008     -0.000508      0.000125
      6.20353      2.68166      2.21682         0.000115      0.000082      0.000005
     13.80935      2.68425      0.82501         0.000087      0.000216     -0.000055
      6.06754      6.66021      1.48103        -0.000006     -0.000453      0.000307
     13.67335      6.66280      0.08922         0.000525     -0.000506      0.000481
      5.93154     10.63877      0.74524         0.000203     -0.000613     -0.000319
     13.53736     10.64135     -0.64656        -0.000297     -0.000735     -0.000442
      1.04149      1.18592      6.22000        -0.000263      0.002030      0.000135
      8.64730      1.18850      4.82820         0.000342      0.000557     -0.000250
      0.90550      5.16447      5.48422        -0.000026      0.002016     -0.000974
      8.51131      5.16705      4.09241        -0.000401      0.000574     -0.000103
      0.76950      9.14302      4.74843         0.000015     -0.000839      0.000056
      8.37531      9.14561      3.35662        -0.000022      0.000102     -0.000109
      5.00744      1.18909      5.50411         0.002414     -0.000683     -0.000005
     12.61325      1.19167      4.11230        -0.000782      0.000527     -0.000002
      4.87144      5.16764      4.76833        -0.002551     -0.000735      0.000422
     12.47726      5.17022      3.37652         0.000564      0.000576     -0.000053
      4.73545      9.14619      4.03254        -0.000089     -0.000306      0.000086
     12.34126      9.14878      2.64073        -0.000095     -0.000085      0.000056
      3.25420      3.50303      7.20326        -0.000255      0.006801     -0.001209
     10.86001      3.50562      5.81145        -0.000031      0.000622     -0.000070
      3.11820      7.48158      6.46748        -0.000310     -0.001498     -0.000333
     10.72402      7.48417      5.07567         0.000001     -0.000194      0.000030
      2.98221     11.46014      5.73169         0.000328     -0.001195      0.000908
     10.58802     11.46272      4.33988        -0.000023     -0.000126      0.000113
      7.07061      3.50996      6.53535        -0.000481      0.000996     -0.000432
     14.67642      3.51255      5.14354        -0.000490      0.001740     -0.000554
      6.93461      7.48852      5.79957        -0.000838     -0.000994     -0.000478
     14.54042      7.49110      4.40776         0.000182     -0.001555     -0.000887
      6.79861     11.46707      5.06378         0.000025     -0.000794      0.000271
     14.40443     11.46965      3.67197        -0.000940     -0.001214      0.000841
      0.35096      0.36513      1.90947         0.000099      0.000026     -0.000009
      7.95677      0.36772      0.51767         0.000052     -0.000092      0.000005
      0.21496      4.34368      1.17369        -0.000099      0.000481     -0.000025
      7.82078      4.34627     -0.21812         0.000009      0.000238     -0.000057
      0.07897      8.32224      0.43790         0.000044     -0.000623     -0.000007
      7.68478      8.32482     -0.95391         0.000009     -0.000433     -0.000002
      4.14036      0.36078      1.18558         0.000295      0.000342      0.000267
     11.74618      0.36337     -0.20623         0.000421      0.000200      0.000193
      4.00437      4.33934      0.44979         0.000581      0.000841      0.000118
     11.61018      4.34192     -0.94202         0.000453      0.000470      0.000218
      3.86837      8.31789     -0.28600         0.000427     -0.000400      0.000240
     11.47419      8.32047     -1.67780         0.000450     -0.000295      0.000283
 -----------------------------------------------------------------------------------
    total drift:                               -0.000018      0.000136      0.000009


--------------------------------------------------------------------------------------------------------



  FREE ENERGIE OF THE ION-ELECTRON SYSTEM (eV)
  ---------------------------------------------------
  free  energy   TOTEN  =      -746.63113137 eV

  energy  without entropy=     -746.63113137  energy(sigma->0) =     -746.63113137
 


--------------------------------------------------------------------------------------------------------


    POTLOK:  cpu time    2.5748: real time    2.6123


--------------------------------------------------------------------------------------------------------


     LOOP+:  cpu time 8460.0840: real time 8571.2596
    4ORBIT:  cpu time    0.0000: real time    0.0000

 total amount of memory used by VASP MPI-rank0   980488. kBytes
=======================================================================

   base      :      30000. kBytes
   nonl-proj :      97026. kBytes
   fftplans  :      74745. kBytes
   grid      :      63949. kBytes
   one-center:        746. kBytes
   wavefun   :     714022. kBytes
 
  
  
 General timing and accounting informations for this job:
 ========================================================
  
                  Total CPU time used (sec):     8596.778
                            User time (sec):     8516.385
                          System time (sec):       80.393
                         Elapsed time (sec):     8710.637
  
                   Maximum memory used (kb):     1175284.
                   Average memory used (kb):           0.
  
                          Minor page faults:      1021080
                          Major page faults:           11
                 Voluntary context switches:        89863
