 160 160   0   0
  0.1215613E+02  0.1537564E-08  0.1124787E-08  0.1124760E-08  0.5000000E-15
  1.000000000000000E-004
  CAR 
 unknown system                          
     17.04999404    -54.79185747  301      4.89674749      1.00000000
    -54.792  0.0000E+00  0.0000E+00  0.0000E+00  0.0000E+00
    -54.552  0.0000E+00  0.0000E+00  0.0000E+00  0.0000E+00
    -54.313  0.0000E+00  0.0000E+00  0.0000E+00  0.0000E+00
    -54.073  0.0000E+00  0.0000E+00  0.0000E+00  0.0000E+00
    -53.834  0.0000E+00  0.0000E+00  0.0000E+00  0.0000E+00
    -53.594  0.0000E+00  0.0000E+00  0.0000E+00  0.0000E+00
    -53.355  0.0000E+00  0.0000E+00  0.0000E+00  0.0000E+00
    -53.116  0.0000E+00  0.0000E+00  0.0000E+00  0.0000E+00
    -52.876  0.0000E+00  0.0000E+00  0.0000E+00  0.0000E+00
    -52.637  0.0000E+00  0.0000E+00  0.0000E+00  0.0000E+00
    -52.397  0.0000E+00  0.0000E+00  0.0000E+00  0.0000E+00
    -52.158  0.0000E+00  0.0000E+00  0.0000E+00  0.0000E+00
    -51.918  0.0000E+00  0.0000E+00  0.0000E+00  0.0000E+00
    -51.679  0.3128E-03  0.0000E+00  0.7491E-04  0.0000E+00
    -51.439  0.8078E+02  0.0000E+00  0.1934E+02  0.0000E+00
    -51.200  0.5285E+02  0.0000E+00  0.3200E+02  0.0000E+00
    -50.960  0.0000E+00  0.0000E+00  0.3200E+02  0.0000E+00
    -50.721  0.0000E+00  0.0000E+00  0.3200E+02  0.0000E+00
    -50.481  0.3941E-13  0.0000E+00  0.3200E+02  0.0000E+00
    -50.242  0.7149E+01  0.0000E+00  0.3371E+02  0.0000E+00
    -50.002  0.1659E+03  0.0000E+00  0.7343E+02  0.0000E+00
    -49.763  0.9425E+02  0.0000E+00  0.9600E+02  0.0000E+00
    -49.523  0.0000E+00  0.0000E+00  0.9600E+02  0.0000E+00
    -49.284  0.0000E+00  0.0000E+00  0.9600E+02  0.0000E+00
    -49.045  0.0000E+00  0.0000E+00  0.9600E+02  0.0000E+00
    -48.805  0.0000E+00  0.0000E+00  0.9600E+02  0.0000E+00
    -48.566  0.0000E+00  0.0000E+00  0.9600E+02  0.0000E+00
    -48.326  0.0000E+00  0.0000E+00  0.9600E+02  0.0000E+00
    -48.087  0.0000E+00  0.0000E+00  0.9600E+02  0.0000E+00
    -47.847  0.0000E+00  0.0000E+00  0.9600E+02  0.0000E+00
    -47.608  0.0000E+00  0.0000E+00  0.9600E+02  0.0000E+00
    -47.368  0.0000E+00  0.0000E+00  0.9600E+02  0.0000E+00
    -47.129  0.0000E+00  0.0000E+00  0.9600E+02  0.0000E+00
    -46.889  0.0000E+00  0.1703E+00  0.9600E+02  0.4079E-01
    -46.650  0.0000E+00  0.1048E+03  0.9600E+02  0.2514E+02
    -46.410  0.0000E+00  0.1041E+03  0.9600E+02  0.5007E+02
    -46.171  0.0000E+00  0.1915E+03  0.9600E+02  0.9591E+02
    -45.931  0.0000E+00  0.3592E+00  0.9600E+02  0.9600E+02
    -45.692  0.0000E+00  0.0000E+00  0.9600E+02  0.9600E+02
    -45.452  0.0000E+00  0.0000E+00  0.9600E+02  0.9600E+02
    -45.213  0.0000E+00  0.0000E+00  0.9600E+02  0.9600E+02
    -44.973  0.0000E+00  0.0000E+00  0.9600E+02  0.9600E+02
    -44.734  0.0000E+00  0.0000E+00  0.9600E+02  0.9600E+02
    -44.495  0.0000E+00  0.0000E+00  0.9600E+02  0.9600E+02
    -44.255  0.0000E+00  0.0000E+00  0.9600E+02  0.9600E+02
    -44.016  0.0000E+00  0.0000E+00  0.9600E+02  0.9600E+02
    -43.776  0.0000E+00  0.0000E+00  0.9600E+02  0.9600E+02
    -43.537  0.0000E+00  0.0000E+00  0.9600E+02  0.9600E+02
    -43.297  0.0000E+00  0.0000E+00  0.9600E+02  0.9600E+02
    -43.058  0.0000E+00  0.0000E+00  0.9600E+02  0.9600E+02
    -42.818  0.0000E+00  0.0000E+00  0.9600E+02  0.9600E+02
    -42.579  0.0000E+00  0.0000E+00  0.9600E+02  0.9600E+02
    -42.339  0.0000E+00  0.0000E+00  0.9600E+02  0.9600E+02
    -42.100  0.0000E+00  0.0000E+00  0.9600E+02  0.9600E+02
    -41.860  0.0000E+00  0.0000E+00  0.9600E+02  0.9600E+02
    -41.621  0.0000E+00  0.0000E+00  0.9600E+02  0.9600E+02
    -41.381  0.0000E+00  0.0000E+00  0.9600E+02  0.9600E+02
    -41.142  0.0000E+00  0.0000E+00  0.9600E+02  0.9600E+02
    -40.902  0.0000E+00  0.0000E+00  0.9600E+02  0.9600E+02
    -40.663  0.4636E-15  0.2318E-15  0.9600E+02  0.9600E+02
    -40.423  0.3403E+01  0.2989E+01  0.9681E+02  0.9672E+02
    -40.184  0.1777E+03  0.1802E+03  0.1394E+03  0.1399E+03
    -39.945  0.8616E+02  0.8411E+02  0.1600E+03  0.1600E+03
    -39.705  0.0000E+00  0.0000E+00  0.1600E+03  0.1600E+03
    -39.466  0.0000E+00  0.0000E+00  0.1600E+03  0.1600E+03
    -39.226  0.0000E+00  0.0000E+00  0.1600E+03  0.1600E+03
    -38.987  0.0000E+00  0.0000E+00  0.1600E+03  0.1600E+03
    -38.747  0.0000E+00  0.0000E+00  0.1600E+03  0.1600E+03
    -38.508  0.0000E+00  0.0000E+00  0.1600E+03  0.1600E+03
    -38.268  0.0000E+00  0.0000E+00  0.1600E+03  0.1600E+03
    -38.029  0.0000E+00  0.0000E+00  0.1600E+03  0.1600E+03
    -37.789  0.0000E+00  0.0000E+00  0.1600E+03  0.1600E+03
    -37.550  0.0000E+00  0.0000E+00  0.1600E+03  0.1600E+03
    -37.310  0.0000E+00  0.0000E+00  0.1600E+03  0.1600E+03
    -37.071  0.0000E+00  0.0000E+00  0.1600E+03  0.1600E+03
    -36.831  0.0000E+00  0.0000E+00  0.1600E+03  0.1600E+03
    -36.592  0.0000E+00  0.0000E+00  0.1600E+03  0.1600E+03
    -36.352  0.0000E+00  0.0000E+00  0.1600E+03  0.1600E+03
    -36.113  0.0000E+00  0.0000E+00  0.1600E+03  0.1600E+03
    -35.874  0.0000E+00  0.0000E+00  0.1600E+03  0.1600E+03
    -35.634  0.0000E+00  0.0000E+00  0.1600E+03  0.1600E+03
    -35.395  0.0000E+00  0.0000E+00  0.1600E+03  0.1600E+03
    -35.155  0.0000E+00  0.0000E+00  0.1600E+03  0.1600E+03
    -34.916  0.0000E+00  0.0000E+00  0.1600E+03  0.1600E+03
    -34.676  0.0000E+00  0.0000E+00  0.1600E+03  0.1600E+03
    -34.437  0.0000E+00  0.0000E+00  0.1600E+03  0.1600E+03
    -34.197  0.0000E+00  0.0000E+00  0.1600E+03  0.1600E+03
    -33.958  0.0000E+00  0.0000E+00  0.1600E+03  0.1600E+03
    -33.718  0.0000E+00  0.0000E+00  0.1600E+03  0.1600E+03
    -33.479  0.0000E+00  0.0000E+00  0.1600E+03  0.1600E+03
    -33.239  0.0000E+00  0.0000E+00  0.1600E+03  0.1600E+03
    -33.000  0.0000E+00  0.0000E+00  0.1600E+03  0.1600E+03
    -32.760  0.0000E+00  0.0000E+00  0.1600E+03  0.1600E+03
    -32.521  0.0000E+00  0.0000E+00  0.1600E+03  0.1600E+03
    -32.281  0.0000E+00  0.0000E+00  0.1600E+03  0.1600E+03
    -32.042  0.0000E+00  0.0000E+00  0.1600E+03  0.1600E+03
    -31.802  0.0000E+00  0.0000E+00  0.1600E+03  0.1600E+03
    -31.563  0.0000E+00  0.0000E+00  0.1600E+03  0.1600E+03
    -31.324  0.0000E+00  0.0000E+00  0.1600E+03  0.1600E+03
    -31.084  0.0000E+00  0.0000E+00  0.1600E+03  0.1600E+03
    -30.845  0.0000E+00  0.0000E+00  0.1600E+03  0.1600E+03
    -30.605  0.0000E+00  0.0000E+00  0.1600E+03  0.1600E+03
    -30.366  0.0000E+00  0.0000E+00  0.1600E+03  0.1600E+03
    -30.126  0.0000E+00  0.0000E+00  0.1600E+03  0.1600E+03
    -29.887  0.0000E+00  0.0000E+00  0.1600E+03  0.1600E+03
    -29.647  0.0000E+00  0.0000E+00  0.1600E+03  0.1600E+03
    -29.408  0.0000E+00  0.0000E+00  0.1600E+03  0.1600E+03
    -29.168  0.0000E+00  0.0000E+00  0.1600E+03  0.1600E+03
    -28.929  0.0000E+00  0.0000E+00  0.1600E+03  0.1600E+03
    -28.689  0.0000E+00  0.0000E+00  0.1600E+03  0.1600E+03
    -28.450  0.0000E+00  0.0000E+00  0.1600E+03  0.1600E+03
    -28.210  0.0000E+00  0.0000E+00  0.1600E+03  0.1600E+03
    -27.971  0.0000E+00  0.0000E+00  0.1600E+03  0.1600E+03
    -27.731  0.0000E+00  0.0000E+00  0.1600E+03  0.1600E+03
    -27.492  0.0000E+00  0.0000E+00  0.1600E+03  0.1600E+03
    -27.252  0.0000E+00  0.0000E+00  0.1600E+03  0.1600E+03
    -27.013  0.0000E+00  0.0000E+00  0.1600E+03  0.1600E+03
    -26.774  0.0000E+00  0.0000E+00  0.1600E+03  0.1600E+03
    -26.534  0.0000E+00  0.0000E+00  0.1600E+03  0.1600E+03
    -26.295  0.0000E+00  0.0000E+00  0.1600E+03  0.1600E+03
    -26.055  0.0000E+00  0.0000E+00  0.1600E+03  0.1600E+03
    -25.816  0.0000E+00  0.0000E+00  0.1600E+03  0.1600E+03
    -25.576  0.0000E+00  0.0000E+00  0.1600E+03  0.1600E+03
    -25.337  0.0000E+00  0.0000E+00  0.1600E+03  0.1600E+03
    -25.097  0.0000E+00  0.0000E+00  0.1600E+03  0.1600E+03
    -24.858  0.0000E+00  0.0000E+00  0.1600E+03  0.1600E+03
    -24.618  0.0000E+00  0.0000E+00  0.1600E+03  0.1600E+03
    -24.379  0.0000E+00  0.0000E+00  0.1600E+03  0.1600E+03
    -24.139  0.0000E+00  0.0000E+00  0.1600E+03  0.1600E+03
    -23.900  0.0000E+00  0.0000E+00  0.1600E+03  0.1600E+03
    -23.660  0.0000E+00  0.0000E+00  0.1600E+03  0.1600E+03
    -23.421  0.0000E+00  0.0000E+00  0.1600E+03  0.1600E+03
    -23.181  0.0000E+00  0.0000E+00  0.1600E+03  0.1600E+03
    -22.942  0.0000E+00  0.0000E+00  0.1600E+03  0.1600E+03
    -22.702  0.0000E+00  0.0000E+00  0.1600E+03  0.1600E+03
    -22.463  0.0000E+00  0.0000E+00  0.1600E+03  0.1600E+03
    -22.224  0.0000E+00  0.0000E+00  0.1600E+03  0.1600E+03
    -21.984  0.0000E+00  0.0000E+00  0.1600E+03  0.1600E+03
    -21.745  0.0000E+00  0.0000E+00  0.1600E+03  0.1600E+03
    -21.505  0.0000E+00  0.0000E+00  0.1600E+03  0.1600E+03
    -21.266  0.0000E+00  0.0000E+00  0.1600E+03  0.1600E+03
    -21.026  0.0000E+00  0.0000E+00  0.1600E+03  0.1600E+03
    -20.787  0.0000E+00  0.0000E+00  0.1600E+03  0.1600E+03
    -20.547  0.0000E+00  0.0000E+00  0.1600E+03  0.1600E+03
    -20.308  0.0000E+00  0.0000E+00  0.1600E+03  0.1600E+03
    -20.068  0.0000E+00  0.0000E+00  0.1600E+03  0.1600E+03
    -19.829  0.0000E+00  0.0000E+00  0.1600E+03  0.1600E+03
    -19.589  0.0000E+00  0.0000E+00  0.1600E+03  0.1600E+03
    -19.350  0.0000E+00  0.0000E+00  0.1600E+03  0.1600E+03
    -19.110  0.0000E+00  0.0000E+00  0.1600E+03  0.1600E+03
    -18.871  0.0000E+00  0.0000E+00  0.1600E+03  0.1600E+03
    -18.631  0.0000E+00  0.0000E+00  0.1600E+03  0.1600E+03
    -18.392  0.0000E+00  0.0000E+00  0.1600E+03  0.1600E+03
    -18.153  0.0000E+00  0.0000E+00  0.1600E+03  0.1600E+03
    -17.913  0.0000E+00  0.0000E+00  0.1600E+03  0.1600E+03
    -17.674  0.0000E+00  0.0000E+00  0.1600E+03  0.1600E+03
    -17.434  0.0000E+00  0.0000E+00  0.1600E+03  0.1600E+03
    -17.195  0.0000E+00  0.0000E+00  0.1600E+03  0.1600E+03
    -16.955  0.0000E+00  0.0000E+00  0.1600E+03  0.1600E+03
    -16.716  0.0000E+00  0.0000E+00  0.1600E+03  0.1600E+03
    -16.476  0.0000E+00  0.0000E+00  0.1600E+03  0.1600E+03
    -16.237  0.0000E+00  0.0000E+00  0.1600E+03  0.1600E+03
    -15.997  0.0000E+00  0.0000E+00  0.1600E+03  0.1600E+03
    -15.758  0.0000E+00  0.0000E+00  0.1600E+03  0.1600E+03
    -15.518  0.0000E+00  0.0000E+00  0.1600E+03  0.1600E+03
    -15.279  0.0000E+00  0.0000E+00  0.1600E+03  0.1600E+03
    -15.039  0.0000E+00  0.0000E+00  0.1600E+03  0.1600E+03
    -14.800  0.0000E+00  0.0000E+00  0.1600E+03  0.1600E+03
    -14.560  0.0000E+00  0.0000E+00  0.1600E+03  0.1600E+03
    -14.321  0.0000E+00  0.0000E+00  0.1600E+03  0.1600E+03
    -14.081  0.0000E+00  0.0000E+00  0.1600E+03  0.1600E+03
    -13.842  0.0000E+00  0.0000E+00  0.1600E+03  0.1600E+03
    -13.603  0.1812E-01  0.0000E+00  0.1600E+03  0.1600E+03
    -13.363  0.5290E+02  0.1970E-05  0.1727E+03  0.1600E+03
    -13.124  0.7219E+02  0.2879E+02  0.1900E+03  0.1669E+03
    -12.884  0.8524E+01  0.1000E+03  0.1920E+03  0.1908E+03
    -12.645  0.0000E+00  0.4816E+01  0.1920E+03  0.1920E+03
    -12.405  0.0000E+00  0.0000E+00  0.1920E+03  0.1920E+03
    -12.166  0.0000E+00  0.0000E+00  0.1920E+03  0.1920E+03
    -11.926  0.0000E+00  0.0000E+00  0.1920E+03  0.1920E+03
    -11.687  0.0000E+00  0.0000E+00  0.1920E+03  0.1920E+03
    -11.447  0.0000E+00  0.0000E+00  0.1920E+03  0.1920E+03
    -11.208  0.0000E+00  0.0000E+00  0.1920E+03  0.1920E+03
    -10.968  0.0000E+00  0.0000E+00  0.1920E+03  0.1920E+03
    -10.729  0.0000E+00  0.0000E+00  0.1920E+03  0.1920E+03
    -10.489  0.0000E+00  0.0000E+00  0.1920E+03  0.1920E+03
    -10.250  0.0000E+00  0.0000E+00  0.1920E+03  0.1920E+03
    -10.010  0.0000E+00  0.0000E+00  0.1920E+03  0.1920E+03
     -9.771  0.0000E+00  0.0000E+00  0.1920E+03  0.1920E+03
     -9.531  0.0000E+00  0.0000E+00  0.1920E+03  0.1920E+03
     -9.292  0.0000E+00  0.0000E+00  0.1920E+03  0.1920E+03
     -9.053  0.0000E+00  0.0000E+00  0.1920E+03  0.1920E+03
     -8.813  0.0000E+00  0.0000E+00  0.1920E+03  0.1920E+03
     -8.574  0.0000E+00  0.0000E+00  0.1920E+03  0.1920E+03
     -8.334  0.0000E+00  0.0000E+00  0.1920E+03  0.1920E+03
     -8.095  0.0000E+00  0.0000E+00  0.1920E+03  0.1920E+03
     -7.855  0.4150E-10  0.0000E+00  0.1920E+03  0.1920E+03
     -7.616  0.1536E+01  0.4016E-07  0.1924E+03  0.1920E+03
     -7.376  0.4673E+02  0.7622E+01  0.2036E+03  0.1938E+03
     -7.137  0.6533E+02  0.6074E+02  0.2192E+03  0.2084E+03
     -6.897  0.2002E+02  0.5438E+02  0.2240E+03  0.2214E+03
     -6.658  0.1010E-01  0.1088E+02  0.2240E+03  0.2240E+03
     -6.418  0.0000E+00  0.3754E-02  0.2240E+03  0.2240E+03
     -6.179  0.0000E+00  0.0000E+00  0.2240E+03  0.2240E+03
     -5.939  0.0000E+00  0.0000E+00  0.2240E+03  0.2240E+03
     -5.700  0.0000E+00  0.0000E+00  0.2240E+03  0.2240E+03
     -5.460  0.0000E+00  0.0000E+00  0.2240E+03  0.2240E+03
     -5.221  0.0000E+00  0.0000E+00  0.2240E+03  0.2240E+03
     -4.982  0.0000E+00  0.0000E+00  0.2240E+03  0.2240E+03
     -4.742  0.0000E+00  0.0000E+00  0.2240E+03  0.2240E+03
     -4.503  0.0000E+00  0.0000E+00  0.2240E+03  0.2240E+03
     -4.263  0.0000E+00  0.0000E+00  0.2240E+03  0.2240E+03
     -4.024  0.0000E+00  0.0000E+00  0.2240E+03  0.2240E+03
     -3.784  0.0000E+00  0.0000E+00  0.2240E+03  0.2240E+03
     -3.545  0.0000E+00  0.0000E+00  0.2240E+03  0.2240E+03
     -3.305  0.0000E+00  0.0000E+00  0.2240E+03  0.2240E+03
     -3.066  0.0000E+00  0.0000E+00  0.2240E+03  0.2240E+03
     -2.826  0.4121E-15  0.0000E+00  0.2240E+03  0.2240E+03
     -2.587  0.4023E+00  0.0000E+00  0.2241E+03  0.2240E+03
     -2.347  0.3092E+02  0.0000E+00  0.2315E+03  0.2240E+03
     -2.108  0.1159E+02  0.0000E+00  0.2343E+03  0.2240E+03
     -1.868  0.1277E+02  0.0000E+00  0.2373E+03  0.2240E+03
     -1.629  0.1138E+02  0.0000E+00  0.2401E+03  0.2240E+03
     -1.389  0.1568E+02  0.0000E+00  0.2438E+03  0.2240E+03
     -1.150  0.6284E+02  0.2282E-05  0.2589E+03  0.2240E+03
     -0.910  0.7657E+02  0.3408E+01  0.2772E+03  0.2248E+03
     -0.671  0.6746E+02  0.3290E+02  0.2934E+03  0.2327E+03
     -0.432  0.7786E+02  0.1885E+02  0.3120E+03  0.2372E+03
     -0.192  0.1061E+03  0.1909E+02  0.3374E+03  0.2418E+03
      0.047  0.7855E+02  0.1225E+02  0.3562E+03  0.2447E+03
      0.287  0.5341E+02  0.3172E+02  0.3690E+03  0.2523E+03
      0.526  0.4758E+02  0.8140E+02  0.3804E+03  0.2718E+03
      0.766  0.4617E+02  0.6838E+02  0.3915E+03  0.2882E+03
      1.005  0.4673E+02  0.6982E+02  0.4026E+03  0.3049E+03
      1.245  0.7673E+02  0.6335E+02  0.4210E+03  0.3201E+03
      1.484  0.8772E+02  0.2170E+02  0.4420E+03  0.3253E+03
      1.724  0.5818E+02  0.5072E+02  0.4560E+03  0.3374E+03
      1.963  0.3999E+02  0.5159E+02  0.4655E+03  0.3498E+03
      2.203  0.4721E+02  0.3055E+02  0.4768E+03  0.3571E+03
      2.442  0.4161E+02  0.3907E+02  0.4868E+03  0.3664E+03
      2.682  0.5337E+02  0.6469E+02  0.4996E+03  0.3819E+03
      2.921  0.5388E+02  0.7219E+02  0.5125E+03  0.3992E+03
      3.161  0.5654E+02  0.5992E+02  0.5260E+03  0.4136E+03
      3.400  0.5302E+02  0.1611E+02  0.5387E+03  0.4174E+03
      3.640  0.5336E+02  0.3620E+02  0.5515E+03  0.4261E+03
      3.879  0.3988E+02  0.5946E+02  0.5611E+03  0.4403E+03
      4.118  0.3545E+02  0.3196E+02  0.5695E+03  0.4480E+03
      4.358  0.1925E+02  0.4240E-01  0.5742E+03  0.4480E+03
      4.597  0.7377E+01  0.0000E+00  0.5759E+03  0.4480E+03
      4.837  0.3177E+00  0.0000E+00  0.5760E+03  0.4480E+03
      5.076  0.0000E+00  0.0000E+00  0.5760E+03  0.4480E+03
      5.316  0.0000E+00  0.0000E+00  0.5760E+03  0.4480E+03
      5.555  0.0000E+00  0.0000E+00  0.5760E+03  0.4480E+03
      5.795  0.0000E+00  0.0000E+00  0.5760E+03  0.4480E+03
      6.034  0.0000E+00  0.0000E+00  0.5760E+03  0.4480E+03
      6.274  0.0000E+00  0.1803E-15  0.5760E+03  0.4480E+03
      6.513  0.0000E+00  0.6955E-01  0.5760E+03  0.4480E+03
      6.753  0.0000E+00  0.2445E+02  0.5760E+03  0.4539E+03
      6.992  0.7474E-06  0.7771E+02  0.5760E+03  0.4725E+03
      7.232  0.2292E+00  0.6316E+02  0.5761E+03  0.4876E+03
      7.471  0.1925E+00  0.6389E+02  0.5761E+03  0.5029E+03
      7.711  0.1384E+01  0.6306E+02  0.5764E+03  0.5180E+03
      7.950  0.3042E+01  0.9510E+02  0.5772E+03  0.5408E+03
      8.189  0.6568E+01  0.7263E+02  0.5787E+03  0.5582E+03
      8.429  0.9451E+01  0.4915E+02  0.5810E+03  0.5699E+03
      8.668  0.1880E+02  0.2493E+02  0.5855E+03  0.5759E+03
      8.908  0.2338E+02  0.7248E+01  0.5911E+03  0.5777E+03
      9.147  0.3137E+02  0.8607E+01  0.5986E+03  0.5797E+03
      9.387  0.2857E+02  0.1783E+02  0.6055E+03  0.5840E+03
      9.626  0.2975E+02  0.2689E+02  0.6126E+03  0.5904E+03
      9.866  0.2618E+02  0.3193E+02  0.6188E+03  0.5981E+03
     10.105  0.1752E+02  0.3780E+02  0.6230E+03  0.6071E+03
     10.345  0.2601E+02  0.3347E+02  0.6293E+03  0.6151E+03
     10.584  0.3639E+02  0.2858E+02  0.6380E+03  0.6220E+03
     10.824  0.4022E+02  0.3312E+02  0.6476E+03  0.6299E+03
     11.063  0.3300E+02  0.2818E+02  0.6555E+03  0.6367E+03
     11.303  0.4917E+02  0.2601E+02  0.6673E+03  0.6429E+03
     11.542  0.4116E+02  0.2923E+02  0.6771E+03  0.6499E+03
     11.782  0.4153E+02  0.5100E+02  0.6871E+03  0.6621E+03
     12.021  0.3406E+02  0.5026E+02  0.6952E+03  0.6741E+03
     12.261  0.3275E+02  0.5596E+02  0.7031E+03  0.6875E+03
     12.500  0.3250E+02  0.3157E+02  0.7109E+03  0.6951E+03
     12.739  0.3676E+02  0.3266E+02  0.7197E+03  0.7029E+03
     12.979  0.3412E+02  0.3220E+02  0.7278E+03  0.7106E+03
     13.218  0.1561E+02  0.3804E+02  0.7316E+03  0.7197E+03
     13.458  0.1345E+01  0.3266E+02  0.7319E+03  0.7276E+03
     13.697  0.3778E+00  0.1763E+02  0.7320E+03  0.7318E+03
     13.937  0.0000E+00  0.9002E+00  0.7320E+03  0.7320E+03
     14.176  0.0000E+00  0.3566E-05  0.7320E+03  0.7320E+03
     14.416  0.0000E+00  0.0000E+00  0.7320E+03  0.7320E+03
     14.655  0.0000E+00  0.0000E+00  0.7320E+03  0.7320E+03
     14.895  0.0000E+00  0.0000E+00  0.7320E+03  0.7320E+03
     15.134  0.0000E+00  0.0000E+00  0.7320E+03  0.7320E+03
     15.374  0.0000E+00  0.0000E+00  0.7320E+03  0.7320E+03
     15.613  0.0000E+00  0.0000E+00  0.7320E+03  0.7320E+03
     15.853  0.0000E+00  0.0000E+00  0.7320E+03  0.7320E+03
     16.092  0.0000E+00  0.0000E+00  0.7320E+03  0.7320E+03
     16.332  0.0000E+00  0.0000E+00  0.7320E+03  0.7320E+03
     16.571  0.0000E+00  0.0000E+00  0.7320E+03  0.7320E+03
     16.811  0.0000E+00  0.0000E+00  0.7320E+03  0.7320E+03
     17.050  0.0000E+00  0.0000E+00  0.7320E+03  0.7320E+03
