<?xml version="1.0" encoding="ISO-8859-1"?>
<modeling>
 <generator>
  <i name="program" type="string">vasp </i>
  <i name="version" type="string">5.4.4.18Apr17-6-g9f103f2a35  </i>
  <i name="subversion" type="string">(build Oct 25 2017 14:42:18) complex            parallel </i>
  <i name="platform" type="string">LinuxIFC </i>
  <i name="date" type="string">2021 06 17 </i>
  <i name="time" type="string">02:18:15 </i>
 </generator>
 <incar>
  <i type="string" name="PREC">accurate</i>
  <i type="string" name="ALGO"> normal</i>
  <i type="logical" name="ADDGRID"> T  </i>
  <i type="int" name="ISPIN">     2</i>
  <i type="int" name="ICHARG">     1</i>
  <i type="int" name="NELM">   200</i>
  <i type="int" name="NELMIN">     8</i>
  <i name="EDIFF">      0.00000001</i>
  <i type="int" name="ISYM">     2</i>
  <i name="ENCUT">    650.00000000</i>
  <v name="MAGMOM">      0.60000000      0.60000000      0.60000000      0.60000000      0.60000000      0.60000000      0.60000000      0.60000000      0.60000000      0.60000000      0.60000000      0.60000000      0.60000000      0.60000000      0.60000000      0.60000000      0.60000000      0.60000000      0.60000000      0.60000000
      0.60000000      0.60000000      0.60000000      0.60000000      0.60000000      0.60000000      0.60000000      0.60000000      0.60000000      0.60000000      0.60000000      0.60000000      0.60000000      0.60000000      0.60000000      0.60000000      0.60000000      0.60000000      0.60000000      0.60000000
      0.60000000      0.60000000      0.60000000      0.60000000      0.60000000      0.60000000      0.60000000      0.60000000      0.60000000      0.60000000      0.60000000      0.60000000      0.60000000      0.60000000      0.60000000      0.60000000      0.60000000      0.60000000      0.60000000      0.60000000
      0.60000000      0.60000000      0.60000000      0.60000000      5.00000000      5.00000000      5.00000000      5.00000000      5.00000000      5.00000000      5.00000000      5.00000000      5.00000000      5.00000000      5.00000000      5.00000000      5.00000000      5.00000000      5.00000000      5.00000000
      5.00000000      5.00000000      5.00000000      5.00000000      5.00000000      5.00000000      5.00000000      5.00000000      5.00000000      5.00000000      5.00000000      5.00000000      5.00000000      5.00000000      5.00000000      5.00000000      0.60000000      0.60000000      0.60000000      0.60000000
      0.60000000      0.60000000      0.60000000      0.60000000      0.60000000      0.60000000      0.60000000      0.60000000      0.60000000      0.60000000      0.60000000      0.60000000      0.60000000      0.60000000      0.60000000      0.60000000      0.60000000      0.60000000      0.60000000      0.60000000
      0.60000000      0.60000000      0.60000000      0.60000000      0.60000000      0.60000000      0.60000000      0.60000000      0.60000000      0.60000000      0.60000000      0.60000000      0.60000000      0.60000000      0.60000000      0.60000000      0.60000000      0.60000000      0.60000000      0.60000000
      0.60000000      0.60000000      0.60000000      0.60000000      0.60000000      0.60000000      0.60000000      0.60000000      0.60000000      0.60000000      0.60000000      0.60000000      0.60000000      0.60000000      0.60000000      0.60000000      0.60000000      0.60000000      0.60000000      0.60000000
</v>
  <i type="logical" name="LREAL"> F  </i>
  <i type="int" name="ISMEAR">     0</i>
  <i name="SIGMA">      0.05000000</i>
  <i type="int" name="NWRITE">     1</i>
  <i type="int" name="LMAXMIX">     4</i>
  <i type="logical" name="LWAVE"> F  </i>
  <i type="logical" name="LASPH"> T  </i>
  <v type="int" name="KPOINT_BSE">    -1     0     0     0</v>
  <i type="int" name="NELM">   200</i>
  <i type="string" name="GGA"> pe</i>
  <i type="logical" name="LDAU"> T  </i>
  <v type="int" name="LDAUTYPE">     2</v>
  <v type="int" name="LDAUL">    -1     2    -1    -1</v>
  <v name="LDAUU">      0.00000000      4.00000000      0.00000000      0.00000000</v>
  <v name="LDAUJ">      0.00000000      0.00000000      0.00000000      0.00000000</v>
  <i type="logical" name="LASPH"> T  </i>
 </incar>
 <structure name="primitive_cell" >
  <crystal>
   <varray name="basis" >
    <v>      15.37563712       0.00000000       0.00000000 </v>
    <v>       0.00000000      11.24757084       0.08259006 </v>
    <v>       0.00000000       0.08472870      11.24727794 </v>
   </varray>
   <i name="volume">   1944.98054282 </i>
   <varray name="rec_basis" >
    <v>       0.06503796       0.00000000       0.00000000 </v>
    <v>       0.00000000       0.08891300      -0.00066981 </v>
    <v>       0.00000000      -0.00065290       0.08891532 </v>
   </varray>
  </crystal>
  <varray name="positions" >
   <v>       0.12525680       0.27553588       0.47453981 </v>
   <v>       0.25000000       0.25000000      -0.50000000 </v>
   <v>       0.00000000       0.25000000      -0.50000000 </v>
   <v>       0.12546906       0.49870975       0.49958956 </v>
   <v>       0.12546906       0.25040119       0.25041044 </v>
   <v>      -0.02087095       0.37500000       0.37500000 </v>
   <v>       0.27600236       0.37500000       0.37500000 </v>
   <v>       0.25003486       0.37500000      -0.37500000 </v>
   <v>       0.24996514       0.12500000       0.37500000 </v>
   <v>       0.00005928       0.12500000       0.37500000 </v>
   <v>      -0.00005928       0.37500000      -0.37500000 </v>
   <v>       0.22399764       0.12500000      -0.37500000 </v>
   <v>       0.02087095       0.12500000      -0.37500000 </v>
   <v>       0.12546906       0.25040119      -0.24958956 </v>
   <v>       0.12546906      -0.00040119       0.49958956 </v>
   <v>       0.12525680       0.47446412       0.27546019 </v>
   <v>       0.37474320       0.22446412      -0.47453981 </v>
   <v>      -0.12525680       0.22446412      -0.47453981 </v>
   <v>       0.25000000      -0.50000000       0.25000000 </v>
   <v>       0.00000000      -0.50000000       0.25000000 </v>
   <v>       0.12525680       0.47446412      -0.22453981 </v>
   <v>       0.12525680      -0.02553588       0.27546019 </v>
   <v>       0.25000000      -0.50000000      -0.25000000 </v>
   <v>       0.25000000       0.00000000       0.25000000 </v>
   <v>       0.00000000      -0.50000000      -0.25000000 </v>
   <v>       0.00000000       0.00000000       0.25000000 </v>
   <v>       0.24996514      -0.37500000       0.37500000 </v>
   <v>       0.25003486       0.37500000       0.12500000 </v>
   <v>       0.00005928      -0.37500000       0.37500000 </v>
   <v>      -0.00005928       0.37500000       0.12500000 </v>
   <v>       0.22399764      -0.37500000      -0.37500000 </v>
   <v>       0.22399764       0.12500000       0.12500000 </v>
   <v>       0.02087095      -0.37500000      -0.37500000 </v>
   <v>       0.02087095       0.12500000       0.12500000 </v>
   <v>       0.37453094      -0.49959881      -0.49958956 </v>
   <v>       0.37453094       0.24959881       0.24958956 </v>
   <v>      -0.12546906      -0.49959881      -0.49958956 </v>
   <v>      -0.12546906       0.24959881       0.24958956 </v>
   <v>       0.12525680      -0.02553588      -0.22453981 </v>
   <v>       0.25000000       0.00000000      -0.25000000 </v>
   <v>       0.00000000       0.00000000      -0.25000000 </v>
   <v>       0.37453094       0.24959881      -0.25041044 </v>
   <v>       0.37453094       0.00040119      -0.49958956 </v>
   <v>      -0.12546906       0.24959881      -0.25041044 </v>
   <v>      -0.12546906       0.00040119      -0.49958956 </v>
   <v>       0.24996514       0.12500000      -0.12500000 </v>
   <v>       0.25003486      -0.12500000      -0.37500000 </v>
   <v>       0.00005928       0.12500000      -0.12500000 </v>
   <v>      -0.00005928      -0.12500000      -0.37500000 </v>
   <v>      -0.02087095       0.37500000      -0.12500000 </v>
   <v>      -0.02087095      -0.12500000       0.37500000 </v>
   <v>       0.27600236       0.37500000      -0.12500000 </v>
   <v>       0.27600236      -0.12500000       0.37500000 </v>
   <v>       0.37474320      -0.47446412       0.22453981 </v>
   <v>       0.37474320       0.02553588      -0.27546019 </v>
   <v>      -0.12525680      -0.47446412       0.22453981 </v>
   <v>      -0.12525680       0.02553588      -0.27546019 </v>
   <v>       0.37474320       0.02553588       0.22453981 </v>
   <v>       0.37474320      -0.47446412      -0.27546019 </v>
   <v>      -0.12525680       0.02553588       0.22453981 </v>
   <v>      -0.12525680      -0.47446412      -0.27546019 </v>
   <v>      -0.22399764       0.37500000       0.37500000 </v>
   <v>       0.12525680       0.27553588      -0.02546019 </v>
   <v>       0.12525680      -0.22446412       0.47453981 </v>
   <v>       0.47912905       0.37500000       0.37500000 </v>
   <v>       0.25000000      -0.25000000      -0.50000000 </v>
   <v>       0.25000000       0.25000000       0.00000000 </v>
   <v>       0.00000000      -0.25000000      -0.50000000 </v>
   <v>       0.00000000       0.25000000       0.00000000 </v>
   <v>       0.22399764      -0.37500000       0.12500000 </v>
   <v>       0.02087095      -0.37500000       0.12500000 </v>
   <v>      -0.50000000       0.25000000      -0.50000000 </v>
   <v>      -0.25000000       0.25000000      -0.50000000 </v>
   <v>       0.12546906      -0.24959881       0.25041044 </v>
   <v>       0.12546906       0.49959881      -0.00041044 </v>
   <v>       0.49994072       0.37500000      -0.37500000 </v>
   <v>      -0.49994072       0.12500000       0.37500000 </v>
   <v>      -0.24996514       0.37500000      -0.37500000 </v>
   <v>      -0.25003486       0.12500000       0.37500000 </v>
   <v>       0.12546906      -0.24959881      -0.24958956 </v>
   <v>       0.12546906      -0.00040119      -0.00041044 </v>
   <v>       0.24996514      -0.37500000      -0.12500000 </v>
   <v>       0.25003486      -0.12500000       0.12500000 </v>
   <v>       0.00005928      -0.37500000      -0.12500000 </v>
   <v>      -0.00005928      -0.12500000       0.12500000 </v>
   <v>       0.37474320      -0.27553588      -0.47453981 </v>
   <v>       0.37474320       0.22446412       0.02546019 </v>
   <v>      -0.12525680      -0.27553588      -0.47453981 </v>
   <v>      -0.12525680       0.22446412       0.02546019 </v>
   <v>      -0.47912905       0.12500000      -0.37500000 </v>
   <v>      -0.27600236       0.12500000      -0.37500000 </v>
   <v>      -0.02087095      -0.12500000      -0.12500000 </v>
   <v>       0.27600236      -0.12500000      -0.12500000 </v>
   <v>      -0.50000000      -0.50000000       0.25000000 </v>
   <v>      -0.25000000      -0.50000000       0.25000000 </v>
   <v>       0.37453094      -0.25040119       0.24958956 </v>
   <v>       0.37453094      -0.49959881       0.00041044 </v>
   <v>      -0.12546906      -0.25040119       0.24958956 </v>
   <v>      -0.12546906      -0.49959881       0.00041044 </v>
   <v>      -0.50000000      -0.50000000      -0.25000000 </v>
   <v>      -0.50000000       0.00000000       0.25000000 </v>
   <v>      -0.25000000      -0.50000000      -0.25000000 </v>
   <v>      -0.25000000       0.00000000       0.25000000 </v>
   <v>       0.49994072       0.37500000       0.12500000 </v>
   <v>      -0.49994072      -0.37500000       0.37500000 </v>
   <v>      -0.24996514       0.37500000       0.12500000 </v>
   <v>      -0.25003486      -0.37500000       0.37500000 </v>
   <v>      -0.22399764       0.37500000      -0.12500000 </v>
   <v>      -0.22399764      -0.12500000       0.37500000 </v>
   <v>       0.47912905       0.37500000      -0.12500000 </v>
   <v>       0.47912905      -0.12500000       0.37500000 </v>
   <v>      -0.50000000       0.00000000      -0.25000000 </v>
   <v>      -0.25000000       0.00000000      -0.25000000 </v>
   <v>       0.37453094      -0.25040119      -0.25041044 </v>
   <v>       0.37453094       0.00040119       0.00041044 </v>
   <v>      -0.12546906      -0.25040119      -0.25041044 </v>
   <v>      -0.12546906       0.00040119       0.00041044 </v>
   <v>      -0.47912905      -0.37500000      -0.37500000 </v>
   <v>      -0.47912905       0.12500000       0.12500000 </v>
   <v>       0.49994072      -0.12500000      -0.37500000 </v>
   <v>      -0.49994072       0.12500000      -0.12500000 </v>
   <v>      -0.24996514      -0.12500000      -0.37500000 </v>
   <v>      -0.25003486       0.12500000      -0.12500000 </v>
   <v>      -0.27600236      -0.37500000      -0.37500000 </v>
   <v>      -0.27600236       0.12500000       0.12500000 </v>
   <v>      -0.37474320       0.27553588       0.47453981 </v>
   <v>       0.25000000      -0.25000000       0.00000000 </v>
   <v>       0.00000000      -0.25000000       0.00000000 </v>
   <v>      -0.50000000      -0.25000000      -0.50000000 </v>
   <v>      -0.50000000       0.25000000       0.00000000 </v>
   <v>      -0.25000000      -0.25000000      -0.50000000 </v>
   <v>      -0.25000000       0.25000000       0.00000000 </v>
   <v>       0.12525680      -0.22446412      -0.02546019 </v>
   <v>       0.37474320      -0.27553588       0.02546019 </v>
   <v>      -0.12525680      -0.27553588       0.02546019 </v>
   <v>      -0.37453094       0.49959881       0.49958956 </v>
   <v>      -0.37453094       0.25040119       0.25041044 </v>
   <v>      -0.47912905      -0.37500000       0.12500000 </v>
   <v>      -0.27600236      -0.37500000       0.12500000 </v>
   <v>      -0.37453094       0.25040119      -0.24958956 </v>
   <v>      -0.37453094      -0.00040119       0.49958956 </v>
   <v>      -0.22399764      -0.12500000      -0.12500000 </v>
   <v>      -0.37474320       0.47446412       0.27546019 </v>
   <v>       0.49994072      -0.12500000       0.12500000 </v>
   <v>      -0.49994072      -0.37500000      -0.12500000 </v>
   <v>      -0.25003486      -0.37500000      -0.12500000 </v>
   <v>      -0.24996514      -0.12500000       0.12500000 </v>
   <v>       0.47912905      -0.12500000      -0.12500000 </v>
   <v>      -0.37474320       0.47446412      -0.22453981 </v>
   <v>      -0.37474320      -0.02553588       0.27546019 </v>
   <v>      -0.37474320      -0.02553588      -0.22453981 </v>
   <v>      -0.50000000      -0.25000000       0.00000000 </v>
   <v>      -0.25000000      -0.25000000       0.00000000 </v>
   <v>      -0.37474320       0.27553588      -0.02546019 </v>
   <v>      -0.37474320      -0.22446412       0.47453981 </v>
   <v>      -0.37453094      -0.24959881       0.25041044 </v>
   <v>      -0.37453094       0.49959881      -0.00041044 </v>
   <v>      -0.37453094      -0.24959881      -0.24958956 </v>
   <v>      -0.37453094      -0.00040119      -0.00041044 </v>
   <v>      -0.37474320      -0.22446412      -0.02546019 </v>
  </varray>
 </structure>
 <varray name="primitive_index" >
  <v type="int" >        1 </v>
  <v type="int" >      149 </v>
  <v type="int" >      133 </v>
  <v type="int" >       97 </v>
  <v type="int" >      105 </v>
  <v type="int" >       66 </v>
  <v type="int" >       33 </v>
  <v type="int" >       85 </v>
  <v type="int" >       89 </v>
  <v type="int" >       57 </v>
  <v type="int" >       54 </v>
  <v type="int" >       45 </v>
  <v type="int" >       77 </v>
  <v type="int" >      109 </v>
  <v type="int" >       99 </v>
  <v type="int" >        9 </v>
  <v type="int" >       21 </v>
  <v type="int" >       22 </v>
  <v type="int" >      155 </v>
  <v type="int" >      139 </v>
  <v type="int" >       13 </v>
  <v type="int" >       11 </v>
  <v type="int" >      159 </v>
  <v type="int" >      153 </v>
  <v type="int" >      143 </v>
  <v type="int" >      137 </v>
  <v type="int" >       91 </v>
  <v type="int" >       81 </v>
  <v type="int" >       59 </v>
  <v type="int" >       50 </v>
  <v type="int" >       47 </v>
  <v type="int" >       41 </v>
  <v type="int" >       79 </v>
  <v type="int" >       73 </v>
  <v type="int" >      119 </v>
  <v type="int" >      121 </v>
  <v type="int" >      120 </v>
  <v type="int" >      122 </v>
  <v type="int" >       15 </v>
  <v type="int" >      157 </v>
  <v type="int" >      141 </v>
  <v type="int" >      125 </v>
  <v type="int" >      117 </v>
  <v type="int" >      126 </v>
  <v type="int" >      118 </v>
  <v type="int" >       93 </v>
  <v type="int" >       87 </v>
  <v type="int" >       61 </v>
  <v type="int" >       56 </v>
  <v type="int" >       70 </v>
  <v type="int" >       68 </v>
  <v type="int" >       37 </v>
  <v type="int" >       35 </v>
  <v type="int" >       27 </v>
  <v type="int" >       29 </v>
  <v type="int" >       28 </v>
  <v type="int" >       30 </v>
  <v type="int" >       25 </v>
  <v type="int" >       31 </v>
  <v type="int" >       26 </v>
  <v type="int" >       32 </v>
  <v type="int" >       34 </v>
  <v type="int" >        5 </v>
  <v type="int" >        3 </v>
  <v type="int" >       65 </v>
  <v type="int" >      151 </v>
  <v type="int" >      145 </v>
  <v type="int" >      135 </v>
  <v type="int" >      129 </v>
  <v type="int" >       43 </v>
  <v type="int" >       75 </v>
  <v type="int" >      134 </v>
  <v type="int" >      150 </v>
  <v type="int" >      107 </v>
  <v type="int" >      101 </v>
  <v type="int" >       53 </v>
  <v type="int" >       58 </v>
  <v type="int" >       86 </v>
  <v type="int" >       90 </v>
  <v type="int" >      111 </v>
  <v type="int" >      103 </v>
  <v type="int" >       95 </v>
  <v type="int" >       83 </v>
  <v type="int" >       63 </v>
  <v type="int" >       52 </v>
  <v type="int" >       23 </v>
  <v type="int" >       17 </v>
  <v type="int" >       24 </v>
  <v type="int" >       18 </v>
  <v type="int" >       78 </v>
  <v type="int" >       46 </v>
  <v type="int" >       72 </v>
  <v type="int" >       39 </v>
  <v type="int" >      140 </v>
  <v type="int" >      156 </v>
  <v type="int" >      123 </v>
  <v type="int" >      115 </v>
  <v type="int" >      124 </v>
  <v type="int" >      116 </v>
  <v type="int" >      144 </v>
  <v type="int" >      138 </v>
  <v type="int" >      160 </v>
  <v type="int" >      154 </v>
  <v type="int" >       49 </v>
  <v type="int" >       60 </v>
  <v type="int" >       82 </v>
  <v type="int" >       92 </v>
  <v type="int" >       38 </v>
  <v type="int" >       36 </v>
  <v type="int" >       69 </v>
  <v type="int" >       67 </v>
  <v type="int" >      142 </v>
  <v type="int" >      158 </v>
  <v type="int" >      127 </v>
  <v type="int" >      113 </v>
  <v type="int" >      128 </v>
  <v type="int" >      114 </v>
  <v type="int" >       80 </v>
  <v type="int" >       74 </v>
  <v type="int" >       55 </v>
  <v type="int" >       62 </v>
  <v type="int" >       88 </v>
  <v type="int" >       94 </v>
  <v type="int" >       48 </v>
  <v type="int" >       42 </v>
  <v type="int" >        2 </v>
  <v type="int" >      147 </v>
  <v type="int" >      131 </v>
  <v type="int" >      136 </v>
  <v type="int" >      130 </v>
  <v type="int" >      152 </v>
  <v type="int" >      146 </v>
  <v type="int" >        7 </v>
  <v type="int" >       19 </v>
  <v type="int" >       20 </v>
  <v type="int" >       98 </v>
  <v type="int" >      106 </v>
  <v type="int" >       76 </v>
  <v type="int" >       44 </v>
  <v type="int" >      110 </v>
  <v type="int" >      100 </v>
  <v type="int" >       40 </v>
  <v type="int" >       10 </v>
  <v type="int" >       51 </v>
  <v type="int" >       64 </v>
  <v type="int" >       96 </v>
  <v type="int" >       84 </v>
  <v type="int" >       71 </v>
  <v type="int" >       14 </v>
  <v type="int" >       12 </v>
  <v type="int" >       16 </v>
  <v type="int" >      132 </v>
  <v type="int" >      148 </v>
  <v type="int" >        6 </v>
  <v type="int" >        4 </v>
  <v type="int" >      108 </v>
  <v type="int" >      102 </v>
  <v type="int" >      112 </v>
  <v type="int" >      104 </v>
  <v type="int" >        8 </v>
 </varray>
 <kpoints>
  <generation param="Gamma">
   <v type="int" name="divisions">       2        3        3 </v>
   <v name="usershift">      0.00000000       0.00000000       0.00000000 </v>
   <v name="genvec1">      0.50000000       0.00000000       0.00000000 </v>
   <v name="genvec2">      0.00000000       0.33333333      -0.00000000 </v>
   <v name="genvec3">      0.00000000      -0.00000000       0.33333333 </v>
   <v name="shift">      0.00000000       0.00000000       0.00000000 </v>
  </generation>
  <varray name="kpointlist" >
   <v>       0.00000000       0.00000000       0.00000000 </v>
   <v>       0.50000000       0.00000000       0.00000000 </v>
   <v>       0.00000000       0.33333333      -0.00000000 </v>
   <v>       0.50000000       0.33333333      -0.00000000 </v>
   <v>       0.00000000      -0.00000000       0.33333333 </v>
   <v>       0.50000000      -0.00000000       0.33333333 </v>
   <v>       0.00000000       0.33333333       0.33333333 </v>
   <v>       0.50000000       0.33333333       0.33333333 </v>
   <v>       0.00000000      -0.33333333       0.33333333 </v>
   <v>       0.50000000      -0.33333333       0.33333333 </v>
  </varray>
  <varray name="weights" >
   <v>       0.05555556 </v>
   <v>       0.05555556 </v>
   <v>       0.11111111 </v>
   <v>       0.11111111 </v>
   <v>       0.11111111 </v>
   <v>       0.11111111 </v>
   <v>       0.11111111 </v>
   <v>       0.11111111 </v>
   <v>       0.11111111 </v>
   <v>       0.11111111 </v>
  </varray>
 </kpoints>
 <parameters>
  <separator name="general" >
   <i type="string" name="SYSTEM">unknown system</i>
   <i type="logical" name="LCOMPAT"> F  </i>
  </separator>
  <separator name="electronic" >
   <i type="string" name="PREC">accura</i>
   <i name="ENMAX">    650.00000000</i>
   <i name="ENAUG">    628.94500000</i>
   <i name="EDIFF">      0.00000001</i>
   <i type="int" name="IALGO">    38</i>
   <i type="int" name="IWAVPR">    10</i>
   <i type="int" name="NBANDS">   732</i>
   <i name="NELECT">   1024.00000000</i>
   <i type="int" name="TURBO">     0</i>
   <i type="int" name="IRESTART">     0</i>
   <i type="int" name="NREBOOT">     0</i>
   <i type="int" name="NMIN">     0</i>
   <i name="EREF">      0.00000000</i>
   <separator name="electronic smearing" >
    <i type="int" name="ISMEAR">     0</i>
    <i name="SIGMA">      0.05000000</i>
    <i name="KSPACING">      0.50000000</i>
    <i type="logical" name="KGAMMA"> T  </i>
   </separator>
   <separator name="electronic projectors" >
    <i type="logical" name="LREAL"> F  </i>
    <v name="ROPT">      0.00000000      0.00000000      0.00000000      0.00000000</v>
    <i type="int" name="LMAXPAW">  -100</i>
    <i type="int" name="LMAXMIX">     4</i>
    <i type="logical" name="NLSPLINE"> F  </i>
   </separator>
   <separator name="electronic startup" >
    <i type="int" name="ISTART">     0</i>
    <i type="int" name="ICHARG">     1</i>
    <i type="int" name="INIWAV">     1</i>
   </separator>
   <separator name="electronic spin" >
    <i type="int" name="ISPIN">     2</i>
    <i type="logical" name="LNONCOLLINEAR"> F  </i>
    <v name="MAGMOM">      0.60000000      0.60000000      0.60000000      0.60000000      0.60000000      0.60000000      0.60000000      0.60000000      0.60000000      0.60000000      0.60000000      0.60000000      0.60000000      0.60000000      0.60000000      0.60000000      0.60000000      0.60000000      0.60000000      0.60000000
      0.60000000      0.60000000      0.60000000      0.60000000      0.60000000      0.60000000      0.60000000      0.60000000      0.60000000      0.60000000      0.60000000      0.60000000      0.60000000      0.60000000      0.60000000      0.60000000      0.60000000      0.60000000      0.60000000      0.60000000
      0.60000000      0.60000000      0.60000000      0.60000000      0.60000000      0.60000000      0.60000000      0.60000000      0.60000000      0.60000000      0.60000000      0.60000000      0.60000000      0.60000000      0.60000000      0.60000000      0.60000000      0.60000000      0.60000000      0.60000000
      0.60000000      0.60000000      0.60000000      0.60000000      5.00000000      5.00000000      5.00000000      5.00000000      5.00000000      5.00000000      5.00000000      5.00000000      5.00000000      5.00000000      5.00000000      5.00000000      5.00000000      5.00000000      5.00000000      5.00000000
      5.00000000      5.00000000      5.00000000      5.00000000      5.00000000      5.00000000      5.00000000      5.00000000      5.00000000      5.00000000      5.00000000      5.00000000      5.00000000      5.00000000      5.00000000      5.00000000      0.60000000      0.60000000      0.60000000      0.60000000
      0.60000000      0.60000000      0.60000000      0.60000000      0.60000000      0.60000000      0.60000000      0.60000000      0.60000000      0.60000000      0.60000000      0.60000000      0.60000000      0.60000000      0.60000000      0.60000000      0.60000000      0.60000000      0.60000000      0.60000000
      0.60000000      0.60000000      0.60000000      0.60000000      0.60000000      0.60000000      0.60000000      0.60000000      0.60000000      0.60000000      0.60000000      0.60000000      0.60000000      0.60000000      0.60000000      0.60000000      0.60000000      0.60000000      0.60000000      0.60000000
      0.60000000      0.60000000      0.60000000      0.60000000      0.60000000      0.60000000      0.60000000      0.60000000      0.60000000      0.60000000      0.60000000      0.60000000      0.60000000      0.60000000      0.60000000      0.60000000      0.60000000      0.60000000      0.60000000      0.60000000
</v>
    <i name="NUPDOWN">     -1.00000000</i>
    <i type="logical" name="LSORBIT"> F  </i>
    <v name="SAXIS">      0.00000000      0.00000000      1.00000000</v>
    <i type="logical" name="LSPIRAL"> F  </i>
    <v name="QSPIRAL">      0.00000000      0.00000000      0.00000000</v>
    <i type="logical" name="LZEROZ"> F  </i>
   </separator>
   <separator name="electronic exchange-correlation" >
    <i type="logical" name="LASPH"> T  </i>
    <i type="logical" name="LMETAGGA"> F  </i>
   </separator>
   <separator name="electronic convergence" >
    <i type="int" name="NELM">   200</i>
    <i type="int" name="NELMDL">     0</i>
    <i type="int" name="NELMIN">     8</i>
    <i name="ENINI">    650.00000000</i>
    <separator name="electronic convergence detail" >
     <i type="logical" name="LDIAG"> T  </i>
     <i type="logical" name="LSUBROT"> F  </i>
     <i name="WEIMIN">      0.00000000</i>
     <i name="EBREAK">      0.00000000</i>
     <i name="DEPER">      0.30000000</i>
     <i type="int" name="NRMM">     4</i>
     <i name="TIME">      0.40000000</i>
    </separator>
   </separator>
   <separator name="electronic mixer" >
    <i name="AMIX">      0.40000000</i>
    <i name="BMIX">      1.00000000</i>
    <i name="AMIN">      0.10000000</i>
    <i name="AMIX_MAG">      1.60000000</i>
    <i name="BMIX_MAG">      1.00000000</i>
    <separator name="electronic mixer details" >
     <i type="int" name="IMIX">     4</i>
     <i type="logical" name="MIXFIRST"> F  </i>
     <i type="int" name="MAXMIX">   -45</i>
     <i name="WC">    100.00000000</i>
     <i type="int" name="INIMIX">     1</i>
     <i type="int" name="MIXPRE">     1</i>
     <i type="int" name="MREMOVE">     5</i>
    </separator>
   </separator>
   <separator name="electronic dipolcorrection" >
    <i type="logical" name="LDIPOL"> F  </i>
    <i type="logical" name="LMONO"> F  </i>
    <i type="int" name="IDIPOL">     0</i>
    <i name="EPSILON">      1.00000000</i>
    <v name="DIPOL">   -100.00000000   -100.00000000   -100.00000000</v>
    <i name="EFIELD">      0.00000000</i>
   </separator>
  </separator>
  <separator name="grids" >
   <i type="int" name="NGX">   128</i>
   <i type="int" name="NGY">    96</i>
   <i type="int" name="NGZ">    96</i>
   <i type="int" name="NGXF">   256</i>
   <i type="int" name="NGYF">   192</i>
   <i type="int" name="NGZF">   192</i>
   <i type="logical" name="ADDGRID"> T  </i>
  </separator>
  <separator name="ionic" >
   <i type="int" name="NSW">     0</i>
   <i type="int" name="IBRION">    -1</i>
   <i type="int" name="MDALGO">     0</i>
   <i type="int" name="ISIF">     2</i>
   <i name="PSTRESS">      0.00000000</i>
   <i name="EDIFFG">      0.00000010</i>
   <i type="int" name="NFREE">     0</i>
   <i name="POTIM">      0.50000000</i>
   <i name="SMASS">     -3.00000000</i>
   <i name="SCALEE">      1.00000000</i>
  </separator>
  <separator name="ionic md" >
   <i name="TEBEG">      0.00010000</i>
   <i name="TEEND">      0.00010000</i>
   <i type="int" name="NBLOCK">     1</i>
   <i type="int" name="KBLOCK">     1</i>
   <i type="int" name="NPACO">   256</i>
   <i name="APACO">     16.00000000</i>
  </separator>
  <separator name="symmetry" >
   <i type="int" name="ISYM">     2</i>
   <i name="SYMPREC">      0.00001000</i>
  </separator>
  <separator name="dos" >
   <i type="int" name="LORBIT">     0</i>
   <v name="RWIGS">     -1.00000000     -1.00000000     -1.00000000     -1.00000000</v>
   <i type="int" name="NEDOS">   301</i>
   <i name="EMIN">     10.00000000</i>
   <i name="EMAX">    -10.00000000</i>
   <i name="EFERMI">      0.00000000</i>
  </separator>
  <separator name="writing" >
   <i type="int" name="NWRITE">     1</i>
   <i type="logical" name="LWAVE"> F  </i>
   <i type="logical" name="LDOWNSAMPLE"> F  </i>
   <i type="logical" name="LCHARG"> T  </i>
   <i type="logical" name="LPARD"> F  </i>
   <i type="logical" name="LVTOT"> F  </i>
   <i type="logical" name="LVHAR"> F  </i>
   <i type="logical" name="LELF"> F  </i>
   <i type="logical" name="LOPTICS"> F  </i>
   <v name="STM">      0.00000000      0.00000000      0.00000000      0.00000000      0.00000000      0.00000000      0.00000000</v>
  </separator>
  <separator name="performance" >
   <i type="int" name="NPAR">     4</i>
   <i type="int" name="NSIM">     4</i>
   <i type="int" name="NBLK">    -1</i>
   <i type="logical" name="LPLANE"> T  </i>
   <i type="logical" name="LSCALAPACK"> T  </i>
   <i type="logical" name="LSCAAWARE"> F  </i>
   <i type="logical" name="LSCALU"> F  </i>
   <i type="logical" name="LASYNC"> F  </i>
   <i type="logical" name="LORBITALREAL"> F  </i>
  </separator>
  <separator name="miscellaneous" >
   <i type="int" name="IDIOT">     3</i>
   <i type="int" name="ISPECIAL">     0</i>
   <i type="logical" name="LMUSIC"> F  </i>
   <v name="POMASS">      7.01000000     55.84700000     32.06600000     16.00000000</v>
   <v name="DARWINR">      0.00000000      0.00000000      0.00000000      0.00000000</v>
   <v name="DARWINV">      1.00000000      1.00000000      1.00000000      1.00000000</v>
   <i type="logical" name="LCORR"> T  </i>
  </separator>
  <i type="logical" name="GGA_COMPAT"> T  </i>
  <i type="logical" name="LBERRY"> F  </i>
  <i type="int" name="ICORELEVEL">     0</i>
  <i type="logical" name="LDAU"> T  </i>
  <v type="int" name="LDAUTYPE">     2</v>
  <v type="int" name="LDAUL">    -1</v>
  <v name="LDAUU">      0.00000000</v>
  <v name="LDAUJ">      0.00000000</v>
  <i type="int" name="LDAUPRINT">     0</i>
  <i type="int" name="I_CONSTRAINED_M">     0</i>
  <separator name="electronic exchange-correlation" >
   <i type="string" name="GGA">PE</i>
   <i type="int" name="VOSKOWN">     0</i>
   <i type="logical" name="LHFCALC"> F  </i>
   <i type="string" name="PRECFOCK"></i>
   <i type="logical" name="LSYMGRAD"> F  </i>
   <i type="logical" name="LHFONE"> F  </i>
   <i type="logical" name="LRHFCALC"> F  </i>
   <i type="logical" name="LTHOMAS"> F  </i>
   <i type="logical" name="LMODELHF"> F  </i>
   <i name="ENCUT4O">     -1.00000000</i>
   <i type="int" name="EXXOEP">     0</i>
   <i type="int" name="FOURORBIT">     0</i>
   <i name="AEXX">      0.00000000</i>
   <i name="HFALPHA">      0.00000000</i>
   <i name="MCALPHA">      0.00000000</i>
   <i name="ALDAX">      1.00000000</i>
   <i name="AGGAX">      1.00000000</i>
   <i name="ALDAC">      1.00000000</i>
   <i name="AGGAC">      1.00000000</i>
   <i type="int" name="NKREDX">     1</i>
   <i type="int" name="NKREDY">     1</i>
   <i type="int" name="NKREDZ">     1</i>
   <i type="logical" name="SHIFTRED"> F  </i>
   <i type="logical" name="ODDONLY"> F  </i>
   <i type="logical" name="EVENONLY"> F  </i>
   <i type="int" name="LMAXFOCK">     0</i>
   <i type="int" name="NMAXFOCKAE">     0</i>
   <i type="logical" name="LFOCKAEDFT"> F  </i>
   <i name="HFSCREEN">      0.00000000</i>
   <i name="HFSCREENC">      0.00000000</i>
   <i type="int" name="NBANDSGWLOW">     0</i>
  </separator>
  <separator name="vdW DFT" >
   <i type="logical" name="LUSE_VDW"> F  </i>
   <i name="Zab_VDW">     -0.84910000</i>
   <i name="PARAM1">      0.12340000</i>
   <i name="PARAM2">      1.00000000</i>
   <i name="PARAM3">      0.00000000</i>
  </separator>
  <separator name="model GW" >
   <i type="int" name="MODEL_GW">     0</i>
   <i name="MODEL_EPS0">      7.29367704</i>
   <i name="MODEL_ALPHA">      1.00000000</i>
  </separator>
  <separator name="linear response parameters" >
   <i type="logical" name="LEPSILON"> F  </i>
   <i type="logical" name="LRPA"> F  </i>
   <i type="logical" name="LNABLA"> F  </i>
   <i type="logical" name="LVEL"> F  </i>
   <i type="int" name="KINTER">     0</i>
   <i name="CSHIFT">      0.10000000</i>
   <i name="OMEGAMAX">     -1.00000000</i>
   <i name="DEG_THRESHOLD">      0.00200000</i>
   <i name="RTIME">     -0.10000000</i>
   <i name="WPLASMAI">      0.00000000</i>
   <v name="DFIELD">      0.00000000      0.00000000      0.00000000</v>
   <v name="WPLASMA">      0.00000000      0.00000000      0.00000000      0.00000000      0.00000000      0.00000000      0.00000000      0.00000000      0.00000000</v>
  </separator>
  <separator name="orbital magnetization" >
   <i type="logical" name="NUCIND"> F  </i>
   <v name="MAGPOS">      0.00000000      0.00000000      0.00000000</v>
   <i type="logical" name="LNICSALL"> T  </i>
   <i type="logical" name="ORBITALMAG"> F  </i>
   <i type="logical" name="LMAGBLOCH"> F  </i>
   <i type="logical" name="LCHIMAG"> F  </i>
   <i type="logical" name="LGAUGE"> T  </i>
   <i type="int" name="MAGATOM">     0</i>
   <v name="MAGDIPOL">      0.00000000      0.00000000      0.00000000</v>
   <v name="AVECCONST">      0.00000000      0.00000000      0.00000000</v>
  </separator>
  <separator name="response functions" >
   <i type="logical" name="LADDER"> F  </i>
   <i type="logical" name="LRPAFORCE"> F  </i>
   <i type="logical" name="LFXC"> F  </i>
   <i type="logical" name="LHARTREE"> T  </i>
   <i type="int" name="IBSE">     0</i>
   <v type="int" name="KPOINT">    -1     0     0     0</v>
   <i type="logical" name="LTCTE"> F  </i>
   <i type="logical" name="LTETE"> F  </i>
   <i type="logical" name="LTRIPLET"> F  </i>
   <i type="logical" name="LFXCEPS"> F  </i>
   <i type="logical" name="LFXHEG"> F  </i>
   <i type="int" name="NATURALO">     2</i>
   <i type="logical" name="L2ORDER"> F  </i>
   <i type="logical" name="LMP2LT"> F  </i>
   <i type="logical" name="LUSEW"> F  </i>
   <i name="ENCUTGW">     -2.00000000</i>
   <i name="ENCUTGWSOFT">     -2.00000000</i>
   <i name="ENCUTLF">     -1.00000000</i>
   <i type="int" name="LMAXMP2">    -1</i>
   <i name="SCISSOR">      0.00000000</i>
   <i type="int" name="NOMEGA">     0</i>
   <i type="int" name="NOMEGAR">     0</i>
   <i type="int" name="NBANDSGW">    -1</i>
   <i type="int" name="NBANDSO">    -1</i>
   <i type="int" name="NBANDSV">    -1</i>
   <i type="int" name="NELM">   200</i>
   <i type="int" name="NELMHF">     1</i>
   <i type="int" name="DIM">     3</i>
   <i type="int" name="ANTIRES">     0</i>
   <i name="OMEGAMAX">    -30.00000000</i>
   <i name="OMEGAMIN">    -30.00000000</i>
   <i name="OMEGATL">   -200.00000000</i>
   <i type="int" name="OMEGAGRID">   140</i>
   <i name="CSHIFT">     -0.10000000</i>
   <i type="logical" name="SELFENERGY"> F  </i>
   <i type="logical" name="LSPECTRAL"> F  </i>
   <i type="logical" name="LSPECTRALGW"> F  </i>
   <i type="logical" name="LSINGLES"> F  </i>
   <i type="logical" name="LFERMIGW"> F  </i>
   <i type="logical" name="ODDONLYGW"> F  </i>
   <i type="logical" name="EVENONLYGW"> F  </i>
   <i type="int" name="NKREDLFX">     1</i>
   <i type="int" name="NKREDLFY">     1</i>
   <i type="int" name="NKREDLFZ">     1</i>
   <i type="int" name="MAXMEM">  2800</i>
   <i type="int" name="TELESCOPE">     0</i>
   <i type="int" name="TAUPAR">     1</i>
   <i type="int" name="OMEGAPAR">    -1</i>
   <i name="LAMBDA">      1.00000000</i>
  </separator>
  <separator name="External order field" >
   <i name="OFIELD_KAPPA">      0.00000000</i>
   <v name="OFIELD_K">      0.00000000      0.00000000      0.00000000</v>
   <i name="OFIELD_Q6_NEAR">      0.00000000</i>
   <i name="OFIELD_Q6_FAR">      0.00000000</i>
   <i name="OFIELD_A">      0.00000000</i>
  </separator>
 </parameters>
 <atominfo>
  <atoms>     160 </atoms>
  <types>       4 </types>
  <array name="atoms" >
   <dimension dim="1">ion</dimension>
   <field type="string">element</field>
   <field type="int">atomtype</field>
   <set>
    <rc><c>Li</c><c>   1</c></rc>
    <rc><c>Li</c><c>   1</c></rc>
    <rc><c>Li</c><c>   1</c></rc>
    <rc><c>Li</c><c>   1</c></rc>
    <rc><c>Li</c><c>   1</c></rc>
    <rc><c>Li</c><c>   1</c></rc>
    <rc><c>Li</c><c>   1</c></rc>
    <rc><c>Li</c><c>   1</c></rc>
    <rc><c>Li</c><c>   1</c></rc>
    <rc><c>Li</c><c>   1</c></rc>
    <rc><c>Li</c><c>   1</c></rc>
    <rc><c>Li</c><c>   1</c></rc>
    <rc><c>Li</c><c>   1</c></rc>
    <rc><c>Li</c><c>   1</c></rc>
    <rc><c>Li</c><c>   1</c></rc>
    <rc><c>Li</c><c>   1</c></rc>
    <rc><c>Li</c><c>   1</c></rc>
    <rc><c>Li</c><c>   1</c></rc>
    <rc><c>Li</c><c>   1</c></rc>
    <rc><c>Li</c><c>   1</c></rc>
    <rc><c>Li</c><c>   1</c></rc>
    <rc><c>Li</c><c>   1</c></rc>
    <rc><c>Li</c><c>   1</c></rc>
    <rc><c>Li</c><c>   1</c></rc>
    <rc><c>Li</c><c>   1</c></rc>
    <rc><c>Li</c><c>   1</c></rc>
    <rc><c>Li</c><c>   1</c></rc>
    <rc><c>Li</c><c>   1</c></rc>
    <rc><c>Li</c><c>   1</c></rc>
    <rc><c>Li</c><c>   1</c></rc>
    <rc><c>Li</c><c>   1</c></rc>
    <rc><c>Li</c><c>   1</c></rc>
    <rc><c>Li</c><c>   1</c></rc>
    <rc><c>Li</c><c>   1</c></rc>
    <rc><c>Li</c><c>   1</c></rc>
    <rc><c>Li</c><c>   1</c></rc>
    <rc><c>Li</c><c>   1</c></rc>
    <rc><c>Li</c><c>   1</c></rc>
    <rc><c>Li</c><c>   1</c></rc>
    <rc><c>Li</c><c>   1</c></rc>
    <rc><c>Li</c><c>   1</c></rc>
    <rc><c>Li</c><c>   1</c></rc>
    <rc><c>Li</c><c>   1</c></rc>
    <rc><c>Li</c><c>   1</c></rc>
    <rc><c>Li</c><c>   1</c></rc>
    <rc><c>Li</c><c>   1</c></rc>
    <rc><c>Li</c><c>   1</c></rc>
    <rc><c>Li</c><c>   1</c></rc>
    <rc><c>Li</c><c>   1</c></rc>
    <rc><c>Li</c><c>   1</c></rc>
    <rc><c>Li</c><c>   1</c></rc>
    <rc><c>Li</c><c>   1</c></rc>
    <rc><c>Li</c><c>   1</c></rc>
    <rc><c>Li</c><c>   1</c></rc>
    <rc><c>Li</c><c>   1</c></rc>
    <rc><c>Li</c><c>   1</c></rc>
    <rc><c>Li</c><c>   1</c></rc>
    <rc><c>Li</c><c>   1</c></rc>
    <rc><c>Li</c><c>   1</c></rc>
    <rc><c>Li</c><c>   1</c></rc>
    <rc><c>Li</c><c>   1</c></rc>
    <rc><c>Li</c><c>   1</c></rc>
    <rc><c>Li</c><c>   1</c></rc>
    <rc><c>Li</c><c>   1</c></rc>
    <rc><c>Fe</c><c>   2</c></rc>
    <rc><c>Fe</c><c>   2</c></rc>
    <rc><c>Fe</c><c>   2</c></rc>
    <rc><c>Fe</c><c>   2</c></rc>
    <rc><c>Fe</c><c>   2</c></rc>
    <rc><c>Fe</c><c>   2</c></rc>
    <rc><c>Fe</c><c>   2</c></rc>
    <rc><c>Fe</c><c>   2</c></rc>
    <rc><c>Fe</c><c>   2</c></rc>
    <rc><c>Fe</c><c>   2</c></rc>
    <rc><c>Fe</c><c>   2</c></rc>
    <rc><c>Fe</c><c>   2</c></rc>
    <rc><c>Fe</c><c>   2</c></rc>
    <rc><c>Fe</c><c>   2</c></rc>
    <rc><c>Fe</c><c>   2</c></rc>
    <rc><c>Fe</c><c>   2</c></rc>
    <rc><c>Fe</c><c>   2</c></rc>
    <rc><c>Fe</c><c>   2</c></rc>
    <rc><c>Fe</c><c>   2</c></rc>
    <rc><c>Fe</c><c>   2</c></rc>
    <rc><c>Fe</c><c>   2</c></rc>
    <rc><c>Fe</c><c>   2</c></rc>
    <rc><c>Fe</c><c>   2</c></rc>
    <rc><c>Fe</c><c>   2</c></rc>
    <rc><c>Fe</c><c>   2</c></rc>
    <rc><c>Fe</c><c>   2</c></rc>
    <rc><c>Fe</c><c>   2</c></rc>
    <rc><c>Fe</c><c>   2</c></rc>
    <rc><c>Fe</c><c>   2</c></rc>
    <rc><c>Fe</c><c>   2</c></rc>
    <rc><c>Fe</c><c>   2</c></rc>
    <rc><c>Fe</c><c>   2</c></rc>
    <rc><c>S </c><c>   3</c></rc>
    <rc><c>S </c><c>   3</c></rc>
    <rc><c>S </c><c>   3</c></rc>
    <rc><c>S </c><c>   3</c></rc>
    <rc><c>S </c><c>   3</c></rc>
    <rc><c>S </c><c>   3</c></rc>
    <rc><c>S </c><c>   3</c></rc>
    <rc><c>S </c><c>   3</c></rc>
    <rc><c>S </c><c>   3</c></rc>
    <rc><c>S </c><c>   3</c></rc>
    <rc><c>S </c><c>   3</c></rc>
    <rc><c>S </c><c>   3</c></rc>
    <rc><c>S </c><c>   3</c></rc>
    <rc><c>S </c><c>   3</c></rc>
    <rc><c>S </c><c>   3</c></rc>
    <rc><c>S </c><c>   3</c></rc>
    <rc><c>S </c><c>   3</c></rc>
    <rc><c>S </c><c>   3</c></rc>
    <rc><c>S </c><c>   3</c></rc>
    <rc><c>S </c><c>   3</c></rc>
    <rc><c>S </c><c>   3</c></rc>
    <rc><c>S </c><c>   3</c></rc>
    <rc><c>S </c><c>   3</c></rc>
    <rc><c>S </c><c>   3</c></rc>
    <rc><c>S </c><c>   3</c></rc>
    <rc><c>S </c><c>   3</c></rc>
    <rc><c>S </c><c>   3</c></rc>
    <rc><c>S </c><c>   3</c></rc>
    <rc><c>S </c><c>   3</c></rc>
    <rc><c>S </c><c>   3</c></rc>
    <rc><c>S </c><c>   3</c></rc>
    <rc><c>S </c><c>   3</c></rc>
    <rc><c>O </c><c>   4</c></rc>
    <rc><c>O </c><c>   4</c></rc>
    <rc><c>O </c><c>   4</c></rc>
    <rc><c>O </c><c>   4</c></rc>
    <rc><c>O </c><c>   4</c></rc>
    <rc><c>O </c><c>   4</c></rc>
    <rc><c>O </c><c>   4</c></rc>
    <rc><c>O </c><c>   4</c></rc>
    <rc><c>O </c><c>   4</c></rc>
    <rc><c>O </c><c>   4</c></rc>
    <rc><c>O </c><c>   4</c></rc>
    <rc><c>O </c><c>   4</c></rc>
    <rc><c>O </c><c>   4</c></rc>
    <rc><c>O </c><c>   4</c></rc>
    <rc><c>O </c><c>   4</c></rc>
    <rc><c>O </c><c>   4</c></rc>
    <rc><c>O </c><c>   4</c></rc>
    <rc><c>O </c><c>   4</c></rc>
    <rc><c>O </c><c>   4</c></rc>
    <rc><c>O </c><c>   4</c></rc>
    <rc><c>O </c><c>   4</c></rc>
    <rc><c>O </c><c>   4</c></rc>
    <rc><c>O </c><c>   4</c></rc>
    <rc><c>O </c><c>   4</c></rc>
    <rc><c>O </c><c>   4</c></rc>
    <rc><c>O </c><c>   4</c></rc>
    <rc><c>O </c><c>   4</c></rc>
    <rc><c>O </c><c>   4</c></rc>
    <rc><c>O </c><c>   4</c></rc>
    <rc><c>O </c><c>   4</c></rc>
    <rc><c>O </c><c>   4</c></rc>
    <rc><c>O </c><c>   4</c></rc>
   </set>
  </array>
  <array name="atomtypes" >
   <dimension dim="1">type</dimension>
   <field type="int">atomspertype</field>
   <field type="string">element</field>
   <field>mass</field>
   <field>valence</field>
   <field type="string">pseudopotential</field>
   <set>
    <rc><c>  64</c><c>Li</c><c>      7.01000000</c><c>      3.00000000</c><c>  PAW_PBE Li_sv 10Sep2004               </c></rc>
    <rc><c>  32</c><c>Fe</c><c>     55.84700000</c><c>     14.00000000</c><c>  PAW_PBE Fe_pv 02Aug2007               </c></rc>
    <rc><c>  32</c><c>S </c><c>     32.06600000</c><c>      6.00000000</c><c>  PAW_PBE S 06Sep2000                   </c></rc>
    <rc><c>  32</c><c>O </c><c>     16.00000000</c><c>      6.00000000</c><c>  PAW_PBE O 08Apr2002                   </c></rc>
   </set>
  </array>
 </atominfo>
 <structure name="initialpos" >
  <crystal>
   <varray name="basis" >
    <v>      15.37563712       0.00000000       0.00000000 </v>
    <v>       0.00000000      11.24757084       0.08259006 </v>
    <v>       0.00000000       0.08472870      11.24727794 </v>
   </varray>
   <i name="volume">   1944.98054282 </i>
   <varray name="rec_basis" >
    <v>       0.06503796       0.00000000       0.00000000 </v>
    <v>       0.00000000       0.08891300      -0.00066981 </v>
    <v>       0.00000000      -0.00065290       0.08891532 </v>
   </varray>
  </crystal>
  <varray name="positions" >
   <v>       0.12525680       0.27553588       0.47453981 </v>
   <v>       0.62525680       0.27553588       0.47453981 </v>
   <v>       0.12525680       0.77553588       0.47453981 </v>
   <v>       0.62525680       0.77553588       0.47453981 </v>
   <v>       0.12525680       0.27553588       0.97453981 </v>
   <v>       0.62525680       0.27553588       0.97453981 </v>
   <v>       0.12525680       0.77553588       0.97453981 </v>
   <v>       0.62525680       0.77553588       0.97453981 </v>
   <v>       0.12525680       0.47446412       0.27546019 </v>
   <v>       0.62525680       0.47446412       0.27546019 </v>
   <v>       0.12525680       0.97446412       0.27546019 </v>
   <v>       0.62525680       0.97446412       0.27546019 </v>
   <v>       0.12525680       0.47446412       0.77546019 </v>
   <v>       0.62525680       0.47446412       0.77546019 </v>
   <v>       0.12525680       0.97446412       0.77546019 </v>
   <v>       0.62525680       0.97446412       0.77546019 </v>
   <v>       0.37474320       0.22446412       0.02546019 </v>
   <v>       0.87474320       0.22446412       0.02546019 </v>
   <v>       0.37474320       0.72446412       0.02546019 </v>
   <v>       0.87474320       0.72446412       0.02546019 </v>
   <v>       0.37474320       0.22446412       0.52546019 </v>
   <v>       0.87474320       0.22446412       0.52546019 </v>
   <v>       0.37474320       0.72446412       0.52546019 </v>
   <v>       0.87474320       0.72446412       0.52546019 </v>
   <v>       0.37474320       0.02553588       0.22453981 </v>
   <v>       0.87474320       0.02553588       0.22453981 </v>
   <v>       0.37474320       0.52553588       0.22453981 </v>
   <v>       0.87474320       0.52553588       0.22453981 </v>
   <v>       0.37474320       0.02553588       0.72453981 </v>
   <v>       0.87474320       0.02553588       0.72453981 </v>
   <v>       0.37474320       0.52553588       0.72453981 </v>
   <v>       0.87474320       0.52553588       0.72453981 </v>
   <v>       0.27600236       0.37500000       0.37500000 </v>
   <v>       0.77600236       0.37500000       0.37500000 </v>
   <v>       0.27600236       0.87500000       0.37500000 </v>
   <v>       0.77600236       0.87500000       0.37500000 </v>
   <v>       0.27600236       0.37500000       0.87500000 </v>
   <v>       0.77600236       0.37500000       0.87500000 </v>
   <v>       0.27600236       0.87500000       0.87500000 </v>
   <v>       0.77600236       0.87500000       0.87500000 </v>
   <v>       0.22399764       0.12500000       0.12500000 </v>
   <v>       0.72399764       0.12500000       0.12500000 </v>
   <v>       0.22399764       0.62500000       0.12500000 </v>
   <v>       0.72399764       0.62500000       0.12500000 </v>
   <v>       0.22399764       0.12500000       0.62500000 </v>
   <v>       0.72399764       0.12500000       0.62500000 </v>
   <v>       0.22399764       0.62500000       0.62500000 </v>
   <v>       0.72399764       0.62500000       0.62500000 </v>
   <v>       0.49994073       0.37500000       0.12500000 </v>
   <v>       0.99994073       0.37500000       0.12500000 </v>
   <v>       0.49994073       0.87500000       0.12500000 </v>
   <v>       0.99994073       0.87500000       0.12500000 </v>
   <v>       0.49994073       0.37500000       0.62500000 </v>
   <v>       0.99994073       0.37500000       0.62500000 </v>
   <v>       0.49994073       0.87500000       0.62500000 </v>
   <v>       0.99994073       0.87500000       0.62500000 </v>
   <v>       0.00005927       0.12500000       0.37500000 </v>
   <v>       0.50005927       0.12500000       0.37500000 </v>
   <v>       0.00005927       0.62500000       0.37500000 </v>
   <v>       0.50005927       0.62500000       0.37500000 </v>
   <v>       0.00005927       0.12500000       0.87500000 </v>
   <v>       0.50005927       0.12500000       0.87500000 </v>
   <v>       0.00005927       0.62500000       0.87500000 </v>
   <v>       0.50005927       0.62500000       0.87500000 </v>
   <v>       0.47912905       0.37500000       0.37500000 </v>
   <v>       0.97912905       0.37500000       0.37500000 </v>
   <v>       0.47912905       0.87500000       0.37500000 </v>
   <v>       0.97912905       0.87500000       0.37500000 </v>
   <v>       0.47912905       0.37500000       0.87500000 </v>
   <v>       0.97912905       0.37500000       0.87500000 </v>
   <v>       0.47912905       0.87500000       0.87500000 </v>
   <v>       0.97912905       0.87500000       0.87500000 </v>
   <v>       0.02087095       0.12500000       0.12500000 </v>
   <v>       0.52087095       0.12500000       0.12500000 </v>
   <v>       0.02087095       0.62500000       0.12500000 </v>
   <v>       0.52087095       0.62500000       0.12500000 </v>
   <v>       0.02087095       0.12500000       0.62500000 </v>
   <v>       0.52087095       0.12500000       0.62500000 </v>
   <v>       0.02087095       0.62500000       0.62500000 </v>
   <v>       0.52087095       0.62500000       0.62500000 </v>
   <v>       0.25003487       0.37500000       0.12500000 </v>
   <v>       0.75003487       0.37500000       0.12500000 </v>
   <v>       0.25003487       0.87500000       0.12500000 </v>
   <v>       0.75003487       0.87500000       0.12500000 </v>
   <v>       0.25003487       0.37500000       0.62500000 </v>
   <v>       0.75003487       0.37500000       0.62500000 </v>
   <v>       0.25003487       0.87500000       0.62500000 </v>
   <v>       0.75003487       0.87500000       0.62500000 </v>
   <v>       0.24996513       0.12500000       0.37500000 </v>
   <v>       0.74996513       0.12500000       0.37500000 </v>
   <v>       0.24996513       0.62500000       0.37500000 </v>
   <v>       0.74996513       0.62500000       0.37500000 </v>
   <v>       0.24996513       0.12500000       0.87500000 </v>
   <v>       0.74996513       0.12500000       0.87500000 </v>
   <v>       0.24996513       0.62500000       0.87500000 </v>
   <v>       0.74996513       0.62500000       0.87500000 </v>
   <v>       0.12546906       0.49870975       0.49958956 </v>
   <v>       0.62546906       0.49959881       0.49958956 </v>
   <v>       0.12546906       0.99959881       0.49958956 </v>
   <v>       0.62546906       0.99959881       0.49958956 </v>
   <v>       0.12546906       0.49959881       0.99958956 </v>
   <v>       0.62546906       0.49959881       0.99958956 </v>
   <v>       0.12546906       0.99959881       0.99958956 </v>
   <v>       0.62546906       0.99959881       0.99958956 </v>
   <v>       0.12546906       0.25040119       0.25041044 </v>
   <v>       0.62546906       0.25040119       0.25041044 </v>
   <v>       0.12546906       0.75040119       0.25041044 </v>
   <v>       0.62546906       0.75040119       0.25041044 </v>
   <v>       0.12546906       0.25040119       0.75041044 </v>
   <v>       0.62546906       0.25040119       0.75041044 </v>
   <v>       0.12546906       0.75040119       0.75041044 </v>
   <v>       0.62546906       0.75040119       0.75041044 </v>
   <v>       0.37453094       0.00040119       0.00041044 </v>
   <v>       0.87453094       0.00040119       0.00041044 </v>
   <v>       0.37453094       0.50040119       0.00041044 </v>
   <v>       0.87453094       0.50040119       0.00041044 </v>
   <v>       0.37453094       0.00040119       0.50041044 </v>
   <v>       0.87453094       0.00040119       0.50041044 </v>
   <v>       0.37453094       0.50040119       0.50041044 </v>
   <v>       0.87453094       0.50040119       0.50041044 </v>
   <v>       0.37453094       0.24959881       0.24958956 </v>
   <v>       0.87453094       0.24959881       0.24958956 </v>
   <v>       0.37453094       0.74959881       0.24958956 </v>
   <v>       0.87453094       0.74959881       0.24958956 </v>
   <v>       0.37453094       0.24959881       0.74958956 </v>
   <v>       0.87453094       0.24959881       0.74958956 </v>
   <v>       0.37453094       0.74959881       0.74958956 </v>
   <v>       0.87453094       0.74959881       0.74958956 </v>
   <v>       0.00000000       0.25000000       0.00000000 </v>
   <v>       0.50000000       0.25000000       0.00000000 </v>
   <v>       0.00000000       0.75000000       0.00000000 </v>
   <v>       0.50000000       0.75000000       0.00000000 </v>
   <v>       0.00000000       0.25000000       0.50000000 </v>
   <v>       0.50000000       0.25000000       0.50000000 </v>
   <v>       0.00000000       0.75000000       0.50000000 </v>
   <v>       0.50000000       0.75000000       0.50000000 </v>
   <v>       0.00000000       0.00000000       0.25000000 </v>
   <v>       0.50000000       0.00000000       0.25000000 </v>
   <v>       0.00000000       0.50000000       0.25000000 </v>
   <v>       0.50000000       0.50000000       0.25000000 </v>
   <v>       0.00000000       0.00000000       0.75000000 </v>
   <v>       0.50000000       0.00000000       0.75000000 </v>
   <v>       0.00000000       0.50000000       0.75000000 </v>
   <v>       0.50000000       0.50000000       0.75000000 </v>
   <v>       0.25000000       0.25000000       0.00000000 </v>
   <v>       0.75000000       0.25000000       0.00000000 </v>
   <v>       0.25000000       0.75000000       0.00000000 </v>
   <v>       0.75000000       0.75000000       0.00000000 </v>
   <v>       0.25000000       0.25000000       0.50000000 </v>
   <v>       0.75000000       0.25000000       0.50000000 </v>
   <v>       0.25000000       0.75000000       0.50000000 </v>
   <v>       0.75000000       0.75000000       0.50000000 </v>
   <v>       0.25000000       0.00000000       0.25000000 </v>
   <v>       0.75000000       0.00000000       0.25000000 </v>
   <v>       0.25000000       0.50000000       0.25000000 </v>
   <v>       0.75000000       0.50000000       0.25000000 </v>
   <v>       0.25000000       0.00000000       0.75000000 </v>
   <v>       0.75000000       0.00000000       0.75000000 </v>
   <v>       0.25000000       0.50000000       0.75000000 </v>
   <v>       0.75000000       0.50000000       0.75000000 </v>
  </varray>
 </structure>
 <calculation>
  <scstep>
   <time name="dav">  350.24  356.65</time>
   <time name="total">  352.59  359.06</time>
   <energy>
    <i name="alphaZ">   2580.95227926 </i>
    <i name="ewald"> -67508.91032697 </i>
    <i name="hartreedc"> -35943.73975517 </i>
    <i name="XCdc">   4397.38071228 </i>
    <i name="pawpsdc"> 108731.45464712 </i>
    <i name="pawaedc">-112348.03830957 </i>
    <i name="eentropy">     -0.03754531 </i>
    <i name="bandstr">   -746.52684759 </i>
    <i name="atom"> 114309.28505226 </i>
    <i name="e_fr_energy">  13471.81990631 </i>
    <i name="e_wo_entrp">  13471.85745162 </i>
    <i name="e_0_energy">  13471.83867896 </i>
   </energy>
  </scstep>
  <scstep>
   <time name="dav">  337.23  343.33</time>
   <time name="total">  337.24  343.34</time>
   <energy>
    <i name="e_fr_energy">   1411.92913103 </i>
    <i name="e_wo_entrp">   1411.99442339 </i>
    <i name="e_0_energy">   1411.96177721 </i>
   </energy>
  </scstep>
  <scstep>
   <time name="dav">  369.33  376.36</time>
   <time name="total">  369.33  376.37</time>
   <energy>
    <i name="e_fr_energy">   -525.39140326 </i>
    <i name="e_wo_entrp">   -525.39140326 </i>
    <i name="e_0_energy">   -525.39140326 </i>
   </energy>
  </scstep>
  <scstep>
   <time name="dav">  427.50  435.61</time>
   <time name="total">  427.50  435.62</time>
   <energy>
    <i name="e_fr_energy">   -788.82673693 </i>
    <i name="e_wo_entrp">   -788.82673693 </i>
    <i name="e_0_energy">   -788.82673693 </i>
   </energy>
  </scstep>
  <scstep>
   <time name="dav">  529.57  539.17</time>
   <time name="total">  537.87  547.69</time>
   <energy>
    <i name="e_fr_energy">   -820.56593931 </i>
    <i name="e_wo_entrp">   -820.56593931 </i>
    <i name="e_0_energy">   -820.56593931 </i>
   </energy>
  </scstep>
  <scstep>
   <time name="dav">  436.51  444.79</time>
   <time name="total">  447.23  455.69</time>
   <energy>
    <i name="e_fr_energy">   -821.99468491 </i>
    <i name="e_wo_entrp">   -821.99468491 </i>
    <i name="e_0_energy">   -821.99468491 </i>
   </energy>
  </scstep>
  <scstep>
   <time name="dav">  495.77  504.84</time>
   <time name="total">  506.48  515.77</time>
   <energy>
    <i name="e_fr_energy">   -822.06697743 </i>
    <i name="e_wo_entrp">   -822.06697743 </i>
    <i name="e_0_energy">   -822.06697743 </i>
   </energy>
  </scstep>
  <scstep>
   <time name="dav">  472.19  480.12</time>
   <time name="total">  482.98  491.08</time>
   <energy>
    <i name="e_fr_energy">   -822.06699103 </i>
    <i name="e_wo_entrp">   -822.06699103 </i>
    <i name="e_0_energy">   -822.06699103 </i>
   </energy>
  </scstep>
  <scstep>
   <time name="dav">  497.35  506.56</time>
   <time name="total">  508.04  517.48</time>
   <energy>
    <i name="e_fr_energy">   -822.06605831 </i>
    <i name="e_wo_entrp">   -822.06605831 </i>
    <i name="e_0_energy">   -822.06605831 </i>
   </energy>
  </scstep>
  <scstep>
   <time name="dav">  510.15  519.30</time>
   <time name="total">  520.73  530.21</time>
   <energy>
    <i name="e_fr_energy">   -822.06560286 </i>
    <i name="e_wo_entrp">   -822.06560286 </i>
    <i name="e_0_energy">   -822.06560286 </i>
   </energy>
  </scstep>
  <scstep>
   <time name="dav">  536.84  547.08</time>
   <time name="total">  547.55  558.02</time>
   <energy>
    <i name="e_fr_energy">   -822.06262074 </i>
    <i name="e_wo_entrp">   -822.06262074 </i>
    <i name="e_0_energy">   -822.06262074 </i>
   </energy>
  </scstep>
  <scstep>
   <time name="dav">  408.94  416.45</time>
   <time name="total">  419.55  427.35</time>
   <energy>
    <i name="e_fr_energy">   -822.06247038 </i>
    <i name="e_wo_entrp">   -822.06247038 </i>
    <i name="e_0_energy">   -822.06247038 </i>
   </energy>
  </scstep>
  <scstep>
   <time name="dav">  523.90  533.70</time>
   <time name="total">  534.55  544.60</time>
   <energy>
    <i name="e_fr_energy">   -822.06198924 </i>
    <i name="e_wo_entrp">   -822.06198924 </i>
    <i name="e_0_energy">   -822.06198924 </i>
   </energy>
  </scstep>
  <scstep>
   <time name="dav">  456.55  464.88</time>
   <time name="total">  467.45  475.87</time>
   <energy>
    <i name="e_fr_energy">   -822.06192304 </i>
    <i name="e_wo_entrp">   -822.06192304 </i>
    <i name="e_0_energy">   -822.06192304 </i>
   </energy>
  </scstep>
  <scstep>
   <time name="dav">  520.76  530.66</time>
   <time name="total">  531.45  541.67</time>
   <energy>
    <i name="e_fr_energy">   -822.06174954 </i>
    <i name="e_wo_entrp">   -822.06174954 </i>
    <i name="e_0_energy">   -822.06174954 </i>
   </energy>
  </scstep>
  <scstep>
   <time name="dav">  408.00  415.14</time>
   <time name="total">  418.82  426.18</time>
   <energy>
    <i name="e_fr_energy">   -822.06173594 </i>
    <i name="e_wo_entrp">   -822.06173594 </i>
    <i name="e_0_energy">   -822.06173594 </i>
   </energy>
  </scstep>
  <scstep>
   <time name="dav">  473.68  483.45</time>
   <time name="total">  484.21  494.30</time>
   <energy>
    <i name="e_fr_energy">   -822.06173311 </i>
    <i name="e_wo_entrp">   -822.06173311 </i>
    <i name="e_0_energy">   -822.06173311 </i>
   </energy>
  </scstep>
  <scstep>
   <time name="dav">  442.72  450.90</time>
   <time name="total">  453.59  461.88</time>
   <energy>
    <i name="e_fr_energy">   -822.06173496 </i>
    <i name="e_wo_entrp">   -822.06173496 </i>
    <i name="e_0_energy">   -822.06173496 </i>
   </energy>
  </scstep>
  <scstep>
   <time name="dav">  382.63  389.97</time>
   <time name="total">  393.31  400.92</time>
   <energy>
    <i name="e_fr_energy">   -822.06174068 </i>
    <i name="e_wo_entrp">   -822.06174068 </i>
    <i name="e_0_energy">   -822.06174068 </i>
   </energy>
  </scstep>
  <scstep>
   <time name="dav">  490.22  499.36</time>
   <time name="total">  501.02  510.27</time>
   <energy>
    <i name="e_fr_energy">   -822.06173624 </i>
    <i name="e_wo_entrp">   -822.06173624 </i>
    <i name="e_0_energy">   -822.06173624 </i>
   </energy>
  </scstep>
  <scstep>
   <time name="dav">  418.57  426.03</time>
   <time name="total">  429.37  437.05</time>
   <energy>
    <i name="e_fr_energy">   -822.06173630 </i>
    <i name="e_wo_entrp">   -822.06173630 </i>
    <i name="e_0_energy">   -822.06173630 </i>
   </energy>
  </scstep>
  <scstep>
   <time name="dav">  363.02  370.52</time>
   <time name="total">  365.37  372.89</time>
   <energy>
    <i name="alphaZ">   2580.95227926 </i>
    <i name="ewald"> -67508.91032697 </i>
    <i name="hartreedc"> -35943.73071170 </i>
    <i name="XCdc">   4397.38192748 </i>
    <i name="pawpsdc"> 108730.85717823 </i>
    <i name="pawaedc">-112347.43961141 </i>
    <i name="eentropy">     -0.00000000 </i>
    <i name="bandstr"> -15040.45752345 </i>
    <i name="atom"> 114309.28505226 </i>
    <i name="e_fr_energy">   -822.06173631 </i>
    <i name="e_wo_entrp">   -822.06173631 </i>
    <i name="e_0_energy">   -822.06173631 </i>
   </energy>
  </scstep>
  <structure>
   <crystal>
    <varray name="basis" >
     <v>      15.37563712       0.00000000       0.00000000 </v>
     <v>       0.00000000      11.24757084       0.08259006 </v>
     <v>       0.00000000       0.08472870      11.24727794 </v>
    </varray>
    <i name="volume">   1944.98054282 </i>
    <varray name="rec_basis" >
     <v>       0.06503796       0.00000000       0.00000000 </v>
     <v>       0.00000000       0.08891300      -0.00066981 </v>
     <v>       0.00000000      -0.00065290       0.08891532 </v>
    </varray>
   </crystal>
   <varray name="positions" >
    <v>       0.12525680       0.27553588       0.47453981 </v>
    <v>       0.62525680       0.27553588       0.47453981 </v>
    <v>       0.12525680       0.77553588       0.47453981 </v>
    <v>       0.62525680       0.77553588       0.47453981 </v>
    <v>       0.12525680       0.27553588       0.97453981 </v>
    <v>       0.62525680       0.27553588       0.97453981 </v>
    <v>       0.12525680       0.77553588       0.97453981 </v>
    <v>       0.62525680       0.77553588       0.97453981 </v>
    <v>       0.12525680       0.47446412       0.27546019 </v>
    <v>       0.62525680       0.47446412       0.27546019 </v>
    <v>       0.12525680       0.97446412       0.27546019 </v>
    <v>       0.62525680       0.97446412       0.27546019 </v>
    <v>       0.12525680       0.47446412       0.77546019 </v>
    <v>       0.62525680       0.47446412       0.77546019 </v>
    <v>       0.12525680       0.97446412       0.77546019 </v>
    <v>       0.62525680       0.97446412       0.77546019 </v>
    <v>       0.37474320       0.22446412       0.02546019 </v>
    <v>       0.87474320       0.22446412       0.02546019 </v>
    <v>       0.37474320       0.72446412       0.02546019 </v>
    <v>       0.87474320       0.72446412       0.02546019 </v>
    <v>       0.37474320       0.22446412       0.52546019 </v>
    <v>       0.87474320       0.22446412       0.52546019 </v>
    <v>       0.37474320       0.72446412       0.52546019 </v>
    <v>       0.87474320       0.72446412       0.52546019 </v>
    <v>       0.37474320       0.02553588       0.22453981 </v>
    <v>       0.87474320       0.02553588       0.22453981 </v>
    <v>       0.37474320       0.52553588       0.22453981 </v>
    <v>       0.87474320       0.52553588       0.22453981 </v>
    <v>       0.37474320       0.02553588       0.72453981 </v>
    <v>       0.87474320       0.02553588       0.72453981 </v>
    <v>       0.37474320       0.52553588       0.72453981 </v>
    <v>       0.87474320       0.52553588       0.72453981 </v>
    <v>       0.27600236       0.37500000       0.37500000 </v>
    <v>       0.77600236       0.37500000       0.37500000 </v>
    <v>       0.27600236       0.87500000       0.37500000 </v>
    <v>       0.77600236       0.87500000       0.37500000 </v>
    <v>       0.27600236       0.37500000       0.87500000 </v>
    <v>       0.77600236       0.37500000       0.87500000 </v>
    <v>       0.27600236       0.87500000       0.87500000 </v>
    <v>       0.77600236       0.87500000       0.87500000 </v>
    <v>       0.22399764       0.12500000       0.12500000 </v>
    <v>       0.72399764       0.12500000       0.12500000 </v>
    <v>       0.22399764       0.62500000       0.12500000 </v>
    <v>       0.72399764       0.62500000       0.12500000 </v>
    <v>       0.22399764       0.12500000       0.62500000 </v>
    <v>       0.72399764       0.12500000       0.62500000 </v>
    <v>       0.22399764       0.62500000       0.62500000 </v>
    <v>       0.72399764       0.62500000       0.62500000 </v>
    <v>       0.49994073       0.37500000       0.12500000 </v>
    <v>       0.99994073       0.37500000       0.12500000 </v>
    <v>       0.49994073       0.87500000       0.12500000 </v>
    <v>       0.99994073       0.87500000       0.12500000 </v>
    <v>       0.49994073       0.37500000       0.62500000 </v>
    <v>       0.99994073       0.37500000       0.62500000 </v>
    <v>       0.49994073       0.87500000       0.62500000 </v>
    <v>       0.99994073       0.87500000       0.62500000 </v>
    <v>       0.00005927       0.12500000       0.37500000 </v>
    <v>       0.50005927       0.12500000       0.37500000 </v>
    <v>       0.00005927       0.62500000       0.37500000 </v>
    <v>       0.50005927       0.62500000       0.37500000 </v>
    <v>       0.00005927       0.12500000       0.87500000 </v>
    <v>       0.50005927       0.12500000       0.87500000 </v>
    <v>       0.00005927       0.62500000       0.87500000 </v>
    <v>       0.50005927       0.62500000       0.87500000 </v>
    <v>       0.47912905       0.37500000       0.37500000 </v>
    <v>       0.97912905       0.37500000       0.37500000 </v>
    <v>       0.47912905       0.87500000       0.37500000 </v>
    <v>       0.97912905       0.87500000       0.37500000 </v>
    <v>       0.47912905       0.37500000       0.87500000 </v>
    <v>       0.97912905       0.37500000       0.87500000 </v>
    <v>       0.47912905       0.87500000       0.87500000 </v>
    <v>       0.97912905       0.87500000       0.87500000 </v>
    <v>       0.02087095       0.12500000       0.12500000 </v>
    <v>       0.52087095       0.12500000       0.12500000 </v>
    <v>       0.02087095       0.62500000       0.12500000 </v>
    <v>       0.52087095       0.62500000       0.12500000 </v>
    <v>       0.02087095       0.12500000       0.62500000 </v>
    <v>       0.52087095       0.12500000       0.62500000 </v>
    <v>       0.02087095       0.62500000       0.62500000 </v>
    <v>       0.52087095       0.62500000       0.62500000 </v>
    <v>       0.25003487       0.37500000       0.12500000 </v>
    <v>       0.75003487       0.37500000       0.12500000 </v>
    <v>       0.25003487       0.87500000       0.12500000 </v>
    <v>       0.75003487       0.87500000       0.12500000 </v>
    <v>       0.25003487       0.37500000       0.62500000 </v>
    <v>       0.75003487       0.37500000       0.62500000 </v>
    <v>       0.25003487       0.87500000       0.62500000 </v>
    <v>       0.75003487       0.87500000       0.62500000 </v>
    <v>       0.24996513       0.12500000       0.37500000 </v>
    <v>       0.74996513       0.12500000       0.37500000 </v>
    <v>       0.24996513       0.62500000       0.37500000 </v>
    <v>       0.74996513       0.62500000       0.37500000 </v>
    <v>       0.24996513       0.12500000       0.87500000 </v>
    <v>       0.74996513       0.12500000       0.87500000 </v>
    <v>       0.24996513       0.62500000       0.87500000 </v>
    <v>       0.74996513       0.62500000       0.87500000 </v>
    <v>       0.12546906       0.49870975       0.49958956 </v>
    <v>       0.62546906       0.49959881       0.49958956 </v>
    <v>       0.12546906       0.99959881       0.49958956 </v>
    <v>       0.62546906       0.99959881       0.49958956 </v>
    <v>       0.12546906       0.49959881       0.99958956 </v>
    <v>       0.62546906       0.49959881       0.99958956 </v>
    <v>       0.12546906       0.99959881       0.99958956 </v>
    <v>       0.62546906       0.99959881       0.99958956 </v>
    <v>       0.12546906       0.25040119       0.25041044 </v>
    <v>       0.62546906       0.25040119       0.25041044 </v>
    <v>       0.12546906       0.75040119       0.25041044 </v>
    <v>       0.62546906       0.75040119       0.25041044 </v>
    <v>       0.12546906       0.25040119       0.75041044 </v>
    <v>       0.62546906       0.25040119       0.75041044 </v>
    <v>       0.12546906       0.75040119       0.75041044 </v>
    <v>       0.62546906       0.75040119       0.75041044 </v>
    <v>       0.37453094       0.00040119       0.00041044 </v>
    <v>       0.87453094       0.00040119       0.00041044 </v>
    <v>       0.37453094       0.50040119       0.00041044 </v>
    <v>       0.87453094       0.50040119       0.00041044 </v>
    <v>       0.37453094       0.00040119       0.50041044 </v>
    <v>       0.87453094       0.00040119       0.50041044 </v>
    <v>       0.37453094       0.50040119       0.50041044 </v>
    <v>       0.87453094       0.50040119       0.50041044 </v>
    <v>       0.37453094       0.24959881       0.24958956 </v>
    <v>       0.87453094       0.24959881       0.24958956 </v>
    <v>       0.37453094       0.74959881       0.24958956 </v>
    <v>       0.87453094       0.74959881       0.24958956 </v>
    <v>       0.37453094       0.24959881       0.74958956 </v>
    <v>       0.87453094       0.24959881       0.74958956 </v>
    <v>       0.37453094       0.74959881       0.74958956 </v>
    <v>       0.87453094       0.74959881       0.74958956 </v>
    <v>       0.00000000       0.25000000       0.00000000 </v>
    <v>       0.50000000       0.25000000       0.00000000 </v>
    <v>       0.00000000       0.75000000       0.00000000 </v>
    <v>       0.50000000       0.75000000       0.00000000 </v>
    <v>       0.00000000       0.25000000       0.50000000 </v>
    <v>       0.50000000       0.25000000       0.50000000 </v>
    <v>       0.00000000       0.75000000       0.50000000 </v>
    <v>       0.50000000       0.75000000       0.50000000 </v>
    <v>       0.00000000       0.00000000       0.25000000 </v>
    <v>       0.50000000       0.00000000       0.25000000 </v>
    <v>       0.00000000       0.50000000       0.25000000 </v>
    <v>       0.50000000       0.50000000       0.25000000 </v>
    <v>       0.00000000       0.00000000       0.75000000 </v>
    <v>       0.50000000       0.00000000       0.75000000 </v>
    <v>       0.00000000       0.50000000       0.75000000 </v>
    <v>       0.50000000       0.50000000       0.75000000 </v>
    <v>       0.25000000       0.25000000       0.00000000 </v>
    <v>       0.75000000       0.25000000       0.00000000 </v>
    <v>       0.25000000       0.75000000       0.00000000 </v>
    <v>       0.75000000       0.75000000       0.00000000 </v>
    <v>       0.25000000       0.25000000       0.50000000 </v>
    <v>       0.75000000       0.25000000       0.50000000 </v>
    <v>       0.25000000       0.75000000       0.50000000 </v>
    <v>       0.75000000       0.75000000       0.50000000 </v>
    <v>       0.25000000       0.00000000       0.25000000 </v>
    <v>       0.75000000       0.00000000       0.25000000 </v>
    <v>       0.25000000       0.50000000       0.25000000 </v>
    <v>       0.75000000       0.50000000       0.25000000 </v>
    <v>       0.25000000       0.00000000       0.75000000 </v>
    <v>       0.75000000       0.00000000       0.75000000 </v>
    <v>       0.25000000       0.50000000       0.75000000 </v>
    <v>       0.75000000       0.50000000       0.75000000 </v>
   </varray>
  </structure>
  <varray name="forces" >
   <v>       0.00006969      -0.00534790      -0.00053392 </v>
   <v>      -0.00000048      -0.00006627      -0.00007119 </v>
   <v>       0.00007026       0.00435966      -0.00064189 </v>
   <v>       0.00000474      -0.00005164      -0.00005409 </v>
   <v>       0.00000636      -0.00034388      -0.00026759 </v>
   <v>      -0.00000566      -0.00007573      -0.00006871 </v>
   <v>      -0.00002530      -0.00001936       0.00021268 </v>
   <v>      -0.00000348      -0.00004260      -0.00005878 </v>
   <v>       0.00041603      -0.00237925       0.00003902 </v>
   <v>       0.00001055       0.00001276       0.00006630 </v>
   <v>       0.00011394       0.00093460       0.00015405 </v>
   <v>       0.00001319       0.00010639       0.00006596 </v>
   <v>       0.00010840      -0.00142431      -0.00021948 </v>
   <v>      -0.00001229       0.00000556       0.00006269 </v>
   <v>      -0.00010036       0.00111918       0.00002886 </v>
   <v>      -0.00000806       0.00011082       0.00006370 </v>
   <v>      -0.00009174       0.00011918       0.00005520 </v>
   <v>       0.00008223       0.00010840       0.00014375 </v>
   <v>       0.00008452      -0.00000988       0.00000918 </v>
   <v>      -0.00008706       0.00000904       0.00005386 </v>
   <v>      -0.00097066       0.00018160       0.00005021 </v>
   <v>       0.00091024       0.00019946      -0.00006235 </v>
   <v>       0.00098860      -0.00013150       0.00016410 </v>
   <v>      -0.00103896      -0.00016855       0.00010027 </v>
   <v>      -0.00005036       0.00014397      -0.00004717 </v>
   <v>      -0.00003324       0.00017323      -0.00007707 </v>
   <v>       0.00002208      -0.00027313      -0.00012894 </v>
   <v>       0.00005322      -0.00028502      -0.00001595 </v>
   <v>       0.00003976       0.00018659      -0.00004450 </v>
   <v>       0.00007487       0.00014295      -0.00005935 </v>
   <v>      -0.00003360      -0.00030620      -0.00005527 </v>
   <v>      -0.00020820      -0.00030470      -0.00008628 </v>
   <v>      -0.00240232      -0.00026497       0.00151326 </v>
   <v>       0.00020538      -0.00013139      -0.00010278 </v>
   <v>       0.00027845       0.00094448      -0.00049374 </v>
   <v>      -0.00003254       0.00011690       0.00006607 </v>
   <v>      -0.00012270      -0.00030084      -0.00020738 </v>
   <v>       0.00010555      -0.00013173      -0.00004630 </v>
   <v>       0.00039975       0.00035651       0.00017314 </v>
   <v>      -0.00002844       0.00016936       0.00009124 </v>
   <v>      -0.00042797       0.00045291       0.00025697 </v>
   <v>       0.00001813       0.00012239       0.00005697 </v>
   <v>       0.00015916      -0.00044293      -0.00021518 </v>
   <v>      -0.00012850      -0.00010941      -0.00002270 </v>
   <v>      -0.00014627       0.00109038      -0.00040178 </v>
   <v>      -0.00007160       0.00010209       0.00004971 </v>
   <v>      -0.00145128      -0.00380251      -0.00105396 </v>
   <v>      -0.00006857      -0.00012666      -0.00009535 </v>
   <v>       0.00000242      -0.00012047       0.00004050 </v>
   <v>       0.00029894      -0.00032491       0.00026054 </v>
   <v>       0.00016803       0.00014887      -0.00007769 </v>
   <v>      -0.00029278       0.00041742      -0.00022109 </v>
   <v>       0.00002759      -0.00012784       0.00010777 </v>
   <v>       0.00162157      -0.00107260      -0.00157917 </v>
   <v>       0.00010345       0.00011008      -0.00007150 </v>
   <v>      -0.00006893       0.00114872       0.00042386 </v>
   <v>       0.00011614       0.00095721       0.00044103 </v>
   <v>      -0.00010051       0.00011247      -0.00007157 </v>
   <v>      -0.00150710      -0.00115701      -0.00139659 </v>
   <v>      -0.00004645      -0.00014701       0.00012649 </v>
   <v>       0.00033464       0.00041117      -0.00022354 </v>
   <v>      -0.00017811       0.00015782      -0.00008836 </v>
   <v>      -0.00029655      -0.00033650       0.00033142 </v>
   <v>      -0.00001579      -0.00013295       0.00004504 </v>
   <v>      -0.00000249      -0.00022018      -0.00015149 </v>
   <v>       0.00348742      -0.00193825       0.00295801 </v>
   <v>       0.00017937       0.00022325       0.00019455 </v>
   <v>      -0.00041591       0.00233226      -0.00167854 </v>
   <v>      -0.00008797      -0.00032026      -0.00009695 </v>
   <v>       0.00043651      -0.00090453       0.00005607 </v>
   <v>       0.00017818       0.00028273       0.00004401 </v>
   <v>      -0.00036385       0.00084776       0.00005945 </v>
   <v>       0.00060455       0.00090973       0.00013713 </v>
   <v>      -0.00017339       0.00024702       0.00000803 </v>
   <v>      -0.00057617      -0.00104118      -0.00015999 </v>
   <v>       0.00006222      -0.00027673      -0.00005538 </v>
   <v>       0.00013048       0.00245618      -0.00134705 </v>
   <v>      -0.00016658       0.00022090       0.00014177 </v>
   <v>       0.00201087      -0.00820907      -0.00245510 </v>
   <v>      -0.00006670      -0.00022384      -0.00011910 </v>
   <v>      -0.00048010      -0.00071804       0.00024952 </v>
   <v>       0.00007063      -0.00029842       0.00009956 </v>
   <v>       0.00048800       0.00089605      -0.00008909 </v>
   <v>      -0.00018645       0.00027013      -0.00003517 </v>
   <v>      -0.00179419      -0.00383773      -0.00181846 </v>
   <v>      -0.00002224      -0.00017977       0.00010838 </v>
   <v>       0.00027665       0.00241601       0.00141064 </v>
   <v>      -0.00019112       0.00021356      -0.00017423 </v>
   <v>      -0.00031970       0.00235148       0.00152448 </v>
   <v>       0.00012386       0.00025309      -0.00019008 </v>
   <v>       0.00126679      -0.00416247      -0.00193328 </v>
   <v>       0.00003301      -0.00028448       0.00018580 </v>
   <v>      -0.00054066       0.00090633      -0.00011453 </v>
   <v>       0.00014138       0.00027163      -0.00002916 </v>
   <v>       0.00058913      -0.00098303       0.00019009 </v>
   <v>      -0.00010042      -0.00031574       0.00008310 </v>
   <v>      -0.00309211       0.05260348       0.00729595 </v>
   <v>      -0.00002037       0.00005290      -0.00001611 </v>
   <v>      -0.00002186      -0.00201056      -0.00004607 </v>
   <v>      -0.00000200      -0.00005772      -0.00001320 </v>
   <v>      -0.00007234       0.00074229      -0.00006850 </v>
   <v>       0.00000305       0.00015150      -0.00001333 </v>
   <v>       0.00001975      -0.00124577      -0.00000514 </v>
   <v>      -0.00000380      -0.00011274      -0.00001557 </v>
   <v>      -0.00001798      -0.00229868      -0.00301140 </v>
   <v>      -0.00004072      -0.00002112       0.00003967 </v>
   <v>       0.00014342      -0.00233440       0.00340325 </v>
   <v>      -0.00004748       0.00000514      -0.00001763 </v>
   <v>      -0.00020781      -0.00241866       0.00343009 </v>
   <v>       0.00004929      -0.00002780      -0.00001844 </v>
   <v>      -0.00032731      -0.00246913      -0.00342845 </v>
   <v>       0.00003284       0.00000133       0.00005031 </v>
   <v>       0.00002173      -0.00036960       0.00004700 </v>
   <v>       0.00002428      -0.00035665      -0.00001984 </v>
   <v>       0.00003216       0.00030291       0.00004321 </v>
   <v>       0.00004314       0.00028808      -0.00008834 </v>
   <v>       0.00002746      -0.00135061       0.00005524 </v>
   <v>       0.00005571      -0.00134500      -0.00007598 </v>
   <v>       0.00015761       0.00170008      -0.00012242 </v>
   <v>      -0.00010544       0.00170104       0.00026502 </v>
   <v>       0.00050892       0.00004285      -0.00032704 </v>
   <v>      -0.00075607      -0.00008672      -0.00032359 </v>
   <v>      -0.00074611      -0.00008745       0.00029979 </v>
   <v>       0.00054692       0.00006536       0.00034202 </v>
[...]
       <r>   -27.7314     0.0000   160.0000 </r>
       <r>   -27.4920     0.0000   160.0000 </r>
       <r>   -27.2525     0.0000   160.0000 </r>
       <r>   -27.0130     0.0000   160.0000 </r>
       <r>   -26.7735     0.0000   160.0000 </r>
       <r>   -26.5341     0.0000   160.0000 </r>
       <r>   -26.2946     0.0000   160.0000 </r>
       <r>   -26.0551     0.0000   160.0000 </r>
       <r>   -25.8156     0.0000   160.0000 </r>
       <r>   -25.5762     0.0000   160.0000 </r>
       <r>   -25.3367     0.0000   160.0000 </r>
       <r>   -25.0972     0.0000   160.0000 </r>
       <r>   -24.8578     0.0000   160.0000 </r>
       <r>   -24.6183     0.0000   160.0000 </r>
       <r>   -24.3788     0.0000   160.0000 </r>
       <r>   -24.1393     0.0000   160.0000 </r>
       <r>   -23.8999     0.0000   160.0000 </r>
       <r>   -23.6604     0.0000   160.0000 </r>
       <r>   -23.4209     0.0000   160.0000 </r>
       <r>   -23.1814     0.0000   160.0000 </r>
       <r>   -22.9420     0.0000   160.0000 </r>
       <r>   -22.7025     0.0000   160.0000 </r>
       <r>   -22.4630     0.0000   160.0000 </r>
       <r>   -22.2236     0.0000   160.0000 </r>
       <r>   -21.9841     0.0000   160.0000 </r>
       <r>   -21.7446     0.0000   160.0000 </r>
       <r>   -21.5051     0.0000   160.0000 </r>
       <r>   -21.2657     0.0000   160.0000 </r>
       <r>   -21.0262     0.0000   160.0000 </r>
       <r>   -20.7867     0.0000   160.0000 </r>
       <r>   -20.5472     0.0000   160.0000 </r>
       <r>   -20.3078     0.0000   160.0000 </r>
       <r>   -20.0683     0.0000   160.0000 </r>
       <r>   -19.8288     0.0000   160.0000 </r>
       <r>   -19.5894     0.0000   160.0000 </r>
       <r>   -19.3499     0.0000   160.0000 </r>
       <r>   -19.1104     0.0000   160.0000 </r>
       <r>   -18.8709     0.0000   160.0000 </r>
       <r>   -18.6315     0.0000   160.0000 </r>
       <r>   -18.3920     0.0000   160.0000 </r>
       <r>   -18.1525     0.0000   160.0000 </r>
       <r>   -17.9130     0.0000   160.0000 </r>
       <r>   -17.6736     0.0000   160.0000 </r>
       <r>   -17.4341     0.0000   160.0000 </r>
       <r>   -17.1946     0.0000   160.0000 </r>
       <r>   -16.9551     0.0000   160.0000 </r>
       <r>   -16.7157     0.0000   160.0000 </r>
       <r>   -16.4762     0.0000   160.0000 </r>
       <r>   -16.2367     0.0000   160.0000 </r>
       <r>   -15.9973     0.0000   160.0000 </r>
       <r>   -15.7578     0.0000   160.0000 </r>
       <r>   -15.5183     0.0000   160.0000 </r>
       <r>   -15.2788     0.0000   160.0000 </r>
       <r>   -15.0394     0.0000   160.0000 </r>
       <r>   -14.7999     0.0000   160.0000 </r>
       <r>   -14.5604     0.0000   160.0000 </r>
       <r>   -14.3209     0.0000   160.0000 </r>
       <r>   -14.0815     0.0000   160.0000 </r>
       <r>   -13.8420     0.0000   160.0000 </r>
       <r>   -13.6025     0.0000   160.0000 </r>
       <r>   -13.3631     0.0000   160.0000 </r>
       <r>   -13.1236    28.7927   166.8951 </r>
       <r>   -12.8841   100.0181   190.8467 </r>
       <r>   -12.6446     4.8160   192.0000 </r>
       <r>   -12.4052     0.0000   192.0000 </r>
       <r>   -12.1657     0.0000   192.0000 </r>
       <r>   -11.9262     0.0000   192.0000 </r>
       <r>   -11.6867     0.0000   192.0000 </r>
       <r>   -11.4473     0.0000   192.0000 </r>
       <r>   -11.2078     0.0000   192.0000 </r>
       <r>   -10.9683     0.0000   192.0000 </r>
       <r>   -10.7289     0.0000   192.0000 </r>
       <r>   -10.4894     0.0000   192.0000 </r>
       <r>   -10.2499     0.0000   192.0000 </r>
       <r>   -10.0104     0.0000   192.0000 </r>
       <r>    -9.7710     0.0000   192.0000 </r>
       <r>    -9.5315     0.0000   192.0000 </r>
       <r>    -9.2920     0.0000   192.0000 </r>
       <r>    -9.0525     0.0000   192.0000 </r>
       <r>    -8.8131     0.0000   192.0000 </r>
       <r>    -8.5736     0.0000   192.0000 </r>
       <r>    -8.3341     0.0000   192.0000 </r>
       <r>    -8.0947     0.0000   192.0000 </r>
       <r>    -7.8552     0.0000   192.0000 </r>
       <r>    -7.6157     0.0000   192.0000 </r>
       <r>    -7.3762     7.6222   193.8253 </r>
       <r>    -7.1368    60.7407   208.3710 </r>
       <r>    -6.8973    54.3850   221.3948 </r>
       <r>    -6.6578    10.8753   223.9991 </r>
       <r>    -6.4183     0.0038   224.0000 </r>
       <r>    -6.1789     0.0000   224.0000 </r>
       <r>    -5.9394     0.0000   224.0000 </r>
       <r>    -5.6999     0.0000   224.0000 </r>
       <r>    -5.4605     0.0000   224.0000 </r>
       <r>    -5.2210     0.0000   224.0000 </r>
       <r>    -4.9815     0.0000   224.0000 </r>
       <r>    -4.7420     0.0000   224.0000 </r>
       <r>    -4.5026     0.0000   224.0000 </r>
       <r>    -4.2631     0.0000   224.0000 </r>
       <r>    -4.0236     0.0000   224.0000 </r>
       <r>    -3.7841     0.0000   224.0000 </r>
       <r>    -3.5447     0.0000   224.0000 </r>
       <r>    -3.3052     0.0000   224.0000 </r>
       <r>    -3.0657     0.0000   224.0000 </r>
       <r>    -2.8263     0.0000   224.0000 </r>
       <r>    -2.5868     0.0000   224.0000 </r>
       <r>    -2.3473     0.0000   224.0000 </r>
       <r>    -2.1078     0.0000   224.0000 </r>
       <r>    -1.8684     0.0000   224.0000 </r>
       <r>    -1.6289     0.0000   224.0000 </r>
       <r>    -1.3894     0.0000   224.0000 </r>
       <r>    -1.1499     0.0000   224.0000 </r>
       <r>    -0.9105     3.4083   224.8162 </r>
       <r>    -0.6710    32.8979   232.6944 </r>
       <r>    -0.4315    18.8501   237.2085 </r>
       <r>    -0.1921    19.0891   241.7798 </r>
       <r>     0.0474    12.2462   244.7124 </r>
       <r>     0.2869    31.7247   252.3096 </r>
       <r>     0.5264    81.4035   271.8036 </r>
       <r>     0.7658    68.3827   288.1794 </r>
       <r>     1.0053    69.8236   304.9002 </r>
       <r>     1.2448    63.3490   320.0706 </r>
       <r>     1.4843    21.7030   325.2678 </r>
       <r>     1.7237    50.7173   337.4133 </r>
       <r>     1.9632    51.5947   349.7688 </r>
       <r>     2.2027    30.5491   357.0845 </r>
       <r>     2.4422    39.0731   366.4414 </r>
       <r>     2.6816    64.6931   381.9337 </r>
       <r>     2.9211    72.1866   399.2204 </r>
       <r>     3.1606    59.9154   413.5685 </r>
       <r>     3.4000    16.1136   417.4273 </r>
       <r>     3.6395    36.1989   426.0959 </r>
       <r>     3.8790    59.4636   440.3358 </r>
       <r>     4.1185    31.9620   447.9898 </r>
       <r>     4.3579     0.0424   448.0000 </r>
       <r>     4.5974     0.0000   448.0000 </r>
       <r>     4.8369     0.0000   448.0000 </r>
       <r>     5.0764     0.0000   448.0000 </r>
       <r>     5.3158     0.0000   448.0000 </r>
       <r>     5.5553     0.0000   448.0000 </r>
       <r>     5.7948     0.0000   448.0000 </r>
       <r>     6.0342     0.0000   448.0000 </r>
       <r>     6.2737     0.0000   448.0000 </r>
       <r>     6.5132     0.0696   448.0167 </r>
       <r>     6.7527    24.4537   453.8727 </r>
       <r>     6.9921    77.7117   472.4825 </r>
       <r>     7.2316    63.1610   487.6078 </r>
       <r>     7.4711    63.8943   502.9088 </r>
       <r>     7.7106    63.0578   518.0094 </r>
       <r>     7.9500    95.0973   540.7827 </r>
       <r>     8.1895    72.6283   558.1752 </r>
       <r>     8.4290    49.1458   569.9443 </r>
       <r>     8.6684    24.9324   575.9149 </r>
       <r>     8.9079     7.2478   577.6506 </r>
       <r>     9.1474     8.6068   579.7117 </r>
       <r>     9.3869    17.8296   583.9813 </r>
       <r>     9.6263    26.8916   590.4212 </r>
       <r>     9.8658    31.9263   598.0666 </r>
       <r>    10.1053    37.7986   607.1184 </r>
       <r>    10.3448    33.4701   615.1335 </r>
       <r>    10.5842    28.5755   621.9766 </r>
       <r>    10.8237    33.1248   629.9091 </r>
       <r>    11.0632    28.1831   636.6582 </r>
       <r>    11.3026    26.0115   642.8872 </r>
       <r>    11.5421    29.2345   649.8881 </r>
       <r>    11.7816    51.0031   662.1020 </r>
       <r>    12.0211    50.2646   674.1390 </r>
       <r>    12.2605    55.9567   687.5391 </r>
       <r>    12.5000    31.5737   695.1001 </r>
       <r>    12.7395    32.6568   702.9206 </r>
       <r>    12.9790    32.1955   710.6305 </r>
       <r>    13.2184    38.0408   719.7402 </r>
       <r>    13.4579    32.6640   727.5624 </r>
       <r>    13.6974    17.6306   731.7844 </r>
       <r>    13.9368     0.9002   732.0000 </r>
       <r>    14.1763     0.0000   732.0000 </r>
       <r>    14.4158     0.0000   732.0000 </r>
       <r>    14.6553     0.0000   732.0000 </r>
       <r>    14.8947     0.0000   732.0000 </r>
       <r>    15.1342     0.0000   732.0000 </r>
       <r>    15.3737     0.0000   732.0000 </r>
       <r>    15.6132     0.0000   732.0000 </r>
       <r>    15.8526     0.0000   732.0000 </r>
       <r>    16.0921     0.0000   732.0000 </r>
       <r>    16.3316     0.0000   732.0000 </r>
       <r>    16.5710     0.0000   732.0000 </r>
       <r>    16.8105     0.0000   732.0000 </r>
       <r>    17.0500     0.0000   732.0000 </r>
      </set>
     </set>
    </array>
   </total>
  </dos>
 </calculation>
 <structure name="finalpos" >
  <crystal>
   <varray name="basis" >
    <v>      15.37563712       0.00000000       0.00000000 </v>
    <v>       0.00000000      11.24757084       0.08259006 </v>
    <v>       0.00000000       0.08472870      11.24727794 </v>
   </varray>
   <i name="volume">   1944.98054282 </i>
   <varray name="rec_basis" >
    <v>       0.06503796       0.00000000       0.00000000 </v>
    <v>       0.00000000       0.08891300      -0.00066981 </v>
    <v>       0.00000000      -0.00065290       0.08891532 </v>
   </varray>
  </crystal>
  <varray name="positions" >
   <v>       0.12525680       0.27553588       0.47453981 </v>
   <v>       0.62525680       0.27553588       0.47453981 </v>
   <v>       0.12525680       0.77553588       0.47453981 </v>
   <v>       0.62525680       0.77553588       0.47453981 </v>
   <v>       0.12525680       0.27553588       0.97453981 </v>
   <v>       0.62525680       0.27553588       0.97453981 </v>
   <v>       0.12525680       0.77553588       0.97453981 </v>
   <v>       0.62525680       0.77553588       0.97453981 </v>
   <v>       0.12525680       0.47446412       0.27546019 </v>
   <v>       0.62525680       0.47446412       0.27546019 </v>
   <v>       0.12525680       0.97446412       0.27546019 </v>
   <v>       0.62525680       0.97446412       0.27546019 </v>
   <v>       0.12525680       0.47446412       0.77546019 </v>
   <v>       0.62525680       0.47446412       0.77546019 </v>
   <v>       0.12525680       0.97446412       0.77546019 </v>
   <v>       0.62525680       0.97446412       0.77546019 </v>
   <v>       0.37474320       0.22446412       0.02546019 </v>
   <v>       0.87474320       0.22446412       0.02546019 </v>
   <v>       0.37474320       0.72446412       0.02546019 </v>
   <v>       0.87474320       0.72446412       0.02546019 </v>
   <v>       0.37474320       0.22446412       0.52546019 </v>
   <v>       0.87474320       0.22446412       0.52546019 </v>
   <v>       0.37474320       0.72446412       0.52546019 </v>
   <v>       0.87474320       0.72446412       0.52546019 </v>
   <v>       0.37474320       0.02553588       0.22453981 </v>
   <v>       0.87474320       0.02553588       0.22453981 </v>
   <v>       0.37474320       0.52553588       0.22453981 </v>
   <v>       0.87474320       0.52553588       0.22453981 </v>
   <v>       0.37474320       0.02553588       0.72453981 </v>
   <v>       0.87474320       0.02553588       0.72453981 </v>
   <v>       0.37474320       0.52553588       0.72453981 </v>
   <v>       0.87474320       0.52553588       0.72453981 </v>
   <v>       0.27600236       0.37500000       0.37500000 </v>
   <v>       0.77600236       0.37500000       0.37500000 </v>
   <v>       0.27600236       0.87500000       0.37500000 </v>
   <v>       0.77600236       0.87500000       0.37500000 </v>
   <v>       0.27600236       0.37500000       0.87500000 </v>
   <v>       0.77600236       0.37500000       0.87500000 </v>
   <v>       0.27600236       0.87500000       0.87500000 </v>
   <v>       0.77600236       0.87500000       0.87500000 </v>
   <v>       0.22399764       0.12500000       0.12500000 </v>
   <v>       0.72399764       0.12500000       0.12500000 </v>
   <v>       0.22399764       0.62500000       0.12500000 </v>
   <v>       0.72399764       0.62500000       0.12500000 </v>
   <v>       0.22399764       0.12500000       0.62500000 </v>
   <v>       0.72399764       0.12500000       0.62500000 </v>
   <v>       0.22399764       0.62500000       0.62500000 </v>
   <v>       0.72399764       0.62500000       0.62500000 </v>
   <v>       0.49994073       0.37500000       0.12500000 </v>
   <v>       0.99994073       0.37500000       0.12500000 </v>
   <v>       0.49994073       0.87500000       0.12500000 </v>
   <v>       0.99994073       0.87500000       0.12500000 </v>
   <v>       0.49994073       0.37500000       0.62500000 </v>
   <v>       0.99994073       0.37500000       0.62500000 </v>
   <v>       0.49994073       0.87500000       0.62500000 </v>
   <v>       0.99994073       0.87500000       0.62500000 </v>
   <v>       0.00005927       0.12500000       0.37500000 </v>
   <v>       0.50005927       0.12500000       0.37500000 </v>
   <v>       0.00005927       0.62500000       0.37500000 </v>
   <v>       0.50005927       0.62500000       0.37500000 </v>
   <v>       0.00005927       0.12500000       0.87500000 </v>
   <v>       0.50005927       0.12500000       0.87500000 </v>
   <v>       0.00005927       0.62500000       0.87500000 </v>
   <v>       0.50005927       0.62500000       0.87500000 </v>
   <v>       0.47912905       0.37500000       0.37500000 </v>
   <v>       0.97912905       0.37500000       0.37500000 </v>
   <v>       0.47912905       0.87500000       0.37500000 </v>
   <v>       0.97912905       0.87500000       0.37500000 </v>
   <v>       0.47912905       0.37500000       0.87500000 </v>
   <v>       0.97912905       0.37500000       0.87500000 </v>
   <v>       0.47912905       0.87500000       0.87500000 </v>
   <v>       0.97912905       0.87500000       0.87500000 </v>
   <v>       0.02087095       0.12500000       0.12500000 </v>
   <v>       0.52087095       0.12500000       0.12500000 </v>
   <v>       0.02087095       0.62500000       0.12500000 </v>
   <v>       0.52087095       0.62500000       0.12500000 </v>
   <v>       0.02087095       0.12500000       0.62500000 </v>
   <v>       0.52087095       0.12500000       0.62500000 </v>
   <v>       0.02087095       0.62500000       0.62500000 </v>
   <v>       0.52087095       0.62500000       0.62500000 </v>
   <v>       0.25003487       0.37500000       0.12500000 </v>
   <v>       0.75003487       0.37500000       0.12500000 </v>
   <v>       0.25003487       0.87500000       0.12500000 </v>
   <v>       0.75003487       0.87500000       0.12500000 </v>
   <v>       0.25003487       0.37500000       0.62500000 </v>
   <v>       0.75003487       0.37500000       0.62500000 </v>
   <v>       0.25003487       0.87500000       0.62500000 </v>
   <v>       0.75003487       0.87500000       0.62500000 </v>
   <v>       0.24996513       0.12500000       0.37500000 </v>
   <v>       0.74996513       0.12500000       0.37500000 </v>
   <v>       0.24996513       0.62500000       0.37500000 </v>
   <v>       0.74996513       0.62500000       0.37500000 </v>
   <v>       0.24996513       0.12500000       0.87500000 </v>
   <v>       0.74996513       0.12500000       0.87500000 </v>
   <v>       0.24996513       0.62500000       0.87500000 </v>
   <v>       0.74996513       0.62500000       0.87500000 </v>
   <v>       0.12546906       0.49870975       0.49958956 </v>
   <v>       0.62546906       0.49959881       0.49958956 </v>
   <v>       0.12546906       0.99959881       0.49958956 </v>
   <v>       0.62546906       0.99959881       0.49958956 </v>
   <v>       0.12546906       0.49959881       0.99958956 </v>
   <v>       0.62546906       0.49959881       0.99958956 </v>
   <v>       0.12546906       0.99959881       0.99958956 </v>
   <v>       0.62546906       0.99959881       0.99958956 </v>
   <v>       0.12546906       0.25040119       0.25041044 </v>
   <v>       0.62546906       0.25040119       0.25041044 </v>
   <v>       0.12546906       0.75040119       0.25041044 </v>
   <v>       0.62546906       0.75040119       0.25041044 </v>
   <v>       0.12546906       0.25040119       0.75041044 </v>
   <v>       0.62546906       0.25040119       0.75041044 </v>
   <v>       0.12546906       0.75040119       0.75041044 </v>
   <v>       0.62546906       0.75040119       0.75041044 </v>
   <v>       0.37453094       0.00040119       0.00041044 </v>
   <v>       0.87453094       0.00040119       0.00041044 </v>
   <v>       0.37453094       0.50040119       0.00041044 </v>
   <v>       0.87453094       0.50040119       0.00041044 </v>
   <v>       0.37453094       0.00040119       0.50041044 </v>
   <v>       0.87453094       0.00040119       0.50041044 </v>
   <v>       0.37453094       0.50040119       0.50041044 </v>
   <v>       0.87453094       0.50040119       0.50041044 </v>
   <v>       0.37453094       0.24959881       0.24958956 </v>
   <v>       0.87453094       0.24959881       0.24958956 </v>
   <v>       0.37453094       0.74959881       0.24958956 </v>
   <v>       0.87453094       0.74959881       0.24958956 </v>
   <v>       0.37453094       0.24959881       0.74958956 </v>
   <v>       0.87453094       0.24959881       0.74958956 </v>
   <v>       0.37453094       0.74959881       0.74958956 </v>
   <v>       0.87453094       0.74959881       0.74958956 </v>
   <v>       0.00000000       0.25000000       0.00000000 </v>
   <v>       0.50000000       0.25000000       0.00000000 </v>
   <v>       0.00000000       0.75000000       0.00000000 </v>
   <v>       0.50000000       0.75000000       0.00000000 </v>
   <v>       0.00000000       0.25000000       0.50000000 </v>
   <v>       0.50000000       0.25000000       0.50000000 </v>
   <v>       0.00000000       0.75000000       0.50000000 </v>
   <v>       0.50000000       0.75000000       0.50000000 </v>
   <v>       0.00000000       0.00000000       0.25000000 </v>
   <v>       0.50000000       0.00000000       0.25000000 </v>
   <v>       0.00000000       0.50000000       0.25000000 </v>
   <v>       0.50000000       0.50000000       0.25000000 </v>
   <v>       0.00000000       0.00000000       0.75000000 </v>
   <v>       0.50000000       0.00000000       0.75000000 </v>
   <v>       0.00000000       0.50000000       0.75000000 </v>
   <v>       0.50000000       0.50000000       0.75000000 </v>
   <v>       0.25000000       0.25000000       0.00000000 </v>
   <v>       0.75000000       0.25000000       0.00000000 </v>
   <v>       0.25000000       0.75000000       0.00000000 </v>
   <v>       0.75000000       0.75000000       0.00000000 </v>
   <v>       0.25000000       0.25000000       0.50000000 </v>
   <v>       0.75000000       0.25000000       0.50000000 </v>
   <v>       0.25000000       0.75000000       0.50000000 </v>
   <v>       0.75000000       0.75000000       0.50000000 </v>
   <v>       0.25000000       0.00000000       0.25000000 </v>
   <v>       0.75000000       0.00000000       0.25000000 </v>
   <v>       0.25000000       0.50000000       0.25000000 </v>
   <v>       0.75000000       0.50000000       0.25000000 </v>
   <v>       0.25000000       0.00000000       0.75000000 </v>
   <v>       0.75000000       0.00000000       0.75000000 </v>
   <v>       0.25000000       0.50000000       0.75000000 </v>
   <v>       0.75000000       0.50000000       0.75000000 </v>
  </varray>
 </structure>
</modeling>
