 120 120   0   0
  0.1228332E+02  0.1173587E-08  0.1121847E-08  0.1119562E-08  0.5000000E-15
  1.000000000000000E-004
  CAR 
 unknown system                          
     16.73088435    -54.73233605  301      4.40347883      1.00000000
    -54.732  0.0000E+00  0.0000E+00  0.0000E+00  0.0000E+00
    -54.494  0.0000E+00  0.0000E+00  0.0000E+00  0.0000E+00
    -54.256  0.0000E+00  0.0000E+00  0.0000E+00  0.0000E+00
    -54.018  0.0000E+00  0.0000E+00  0.0000E+00  0.0000E+00
    -53.779  0.0000E+00  0.0000E+00  0.0000E+00  0.0000E+00
    -53.541  0.0000E+00  0.0000E+00  0.0000E+00  0.0000E+00
    -53.303  0.0000E+00  0.0000E+00  0.0000E+00  0.0000E+00
    -53.065  0.0000E+00  0.0000E+00  0.0000E+00  0.0000E+00
    -52.827  0.0000E+00  0.0000E+00  0.0000E+00  0.0000E+00
    -52.588  0.0000E+00  0.0000E+00  0.0000E+00  0.0000E+00
    -52.350  0.0000E+00  0.0000E+00  0.0000E+00  0.0000E+00
    -52.112  0.0000E+00  0.0000E+00  0.0000E+00  0.0000E+00
    -51.874  0.0000E+00  0.0000E+00  0.0000E+00  0.0000E+00
    -51.636  0.2163E-03  0.0000E+00  0.5152E-04  0.0000E+00
    -51.397  0.9761E+02  0.0000E+00  0.2325E+02  0.0000E+00
    -51.159  0.3143E+01  0.0000E+00  0.2400E+02  0.0000E+00
    -50.921  0.0000E+00  0.0000E+00  0.2400E+02  0.0000E+00
    -50.683  0.0000E+00  0.0000E+00  0.2400E+02  0.0000E+00
    -50.445  0.2002E-09  0.0000E+00  0.2400E+02  0.0000E+00
    -50.206  0.4176E+02  0.0000E+00  0.3395E+02  0.0000E+00
    -49.968  0.1322E+03  0.0000E+00  0.6543E+02  0.0000E+00
    -49.730  0.2759E+02  0.0000E+00  0.7200E+02  0.0000E+00
    -49.492  0.0000E+00  0.0000E+00  0.7200E+02  0.0000E+00
    -49.253  0.0000E+00  0.0000E+00  0.7200E+02  0.0000E+00
    -49.015  0.0000E+00  0.0000E+00  0.7200E+02  0.0000E+00
    -48.777  0.0000E+00  0.0000E+00  0.7200E+02  0.0000E+00
    -48.539  0.0000E+00  0.0000E+00  0.7200E+02  0.0000E+00
    -48.301  0.0000E+00  0.0000E+00  0.7200E+02  0.0000E+00
    -48.062  0.0000E+00  0.0000E+00  0.7200E+02  0.0000E+00
    -47.824  0.0000E+00  0.0000E+00  0.7200E+02  0.0000E+00
    -47.586  0.0000E+00  0.0000E+00  0.7200E+02  0.0000E+00
    -47.348  0.0000E+00  0.0000E+00  0.7200E+02  0.0000E+00
    -47.110  0.0000E+00  0.0000E+00  0.7200E+02  0.0000E+00
    -46.871  0.0000E+00  0.5568E-01  0.7200E+02  0.1326E-01
    -46.633  0.0000E+00  0.1006E+03  0.7200E+02  0.2397E+02
    -46.395  0.0000E+00  0.9406E+02  0.7200E+02  0.4638E+02
    -46.157  0.0000E+00  0.1076E+03  0.7200E+02  0.7200E+02
    -45.919  0.0000E+00  0.0000E+00  0.7200E+02  0.7200E+02
    -45.680  0.0000E+00  0.0000E+00  0.7200E+02  0.7200E+02
    -45.442  0.0000E+00  0.0000E+00  0.7200E+02  0.7200E+02
    -45.204  0.0000E+00  0.0000E+00  0.7200E+02  0.7200E+02
    -44.966  0.0000E+00  0.0000E+00  0.7200E+02  0.7200E+02
    -44.727  0.0000E+00  0.0000E+00  0.7200E+02  0.7200E+02
    -44.489  0.0000E+00  0.0000E+00  0.7200E+02  0.7200E+02
    -44.251  0.0000E+00  0.0000E+00  0.7200E+02  0.7200E+02
    -44.013  0.0000E+00  0.0000E+00  0.7200E+02  0.7200E+02
    -43.775  0.0000E+00  0.0000E+00  0.7200E+02  0.7200E+02
    -43.536  0.0000E+00  0.0000E+00  0.7200E+02  0.7200E+02
    -43.298  0.0000E+00  0.0000E+00  0.7200E+02  0.7200E+02
    -43.060  0.0000E+00  0.0000E+00  0.7200E+02  0.7200E+02
    -42.822  0.0000E+00  0.0000E+00  0.7200E+02  0.7200E+02
    -42.584  0.0000E+00  0.0000E+00  0.7200E+02  0.7200E+02
    -42.345  0.0000E+00  0.0000E+00  0.7200E+02  0.7200E+02
    -42.107  0.0000E+00  0.0000E+00  0.7200E+02  0.7200E+02
    -41.869  0.0000E+00  0.0000E+00  0.7200E+02  0.7200E+02
    -41.631  0.0000E+00  0.0000E+00  0.7200E+02  0.7200E+02
    -41.393  0.0000E+00  0.0000E+00  0.7200E+02  0.7200E+02
    -41.154  0.0000E+00  0.0000E+00  0.7200E+02  0.7200E+02
    -40.916  0.0000E+00  0.0000E+00  0.7200E+02  0.7200E+02
    -40.678  0.1974E-03  0.5925E-04  0.7200E+02  0.7200E+02
    -40.440  0.9860E+02  0.9700E+02  0.9549E+02  0.9511E+02
    -40.201  0.1027E+03  0.1043E+03  0.1200E+03  0.1200E+03
    -39.963  0.1888E+00  0.1889E+00  0.1200E+03  0.1200E+03
    -39.725  0.0000E+00  0.0000E+00  0.1200E+03  0.1200E+03
    -39.487  0.0000E+00  0.0000E+00  0.1200E+03  0.1200E+03
    -39.249  0.0000E+00  0.0000E+00  0.1200E+03  0.1200E+03
    -39.010  0.0000E+00  0.0000E+00  0.1200E+03  0.1200E+03
    -38.772  0.0000E+00  0.0000E+00  0.1200E+03  0.1200E+03
    -38.534  0.0000E+00  0.0000E+00  0.1200E+03  0.1200E+03
    -38.296  0.0000E+00  0.0000E+00  0.1200E+03  0.1200E+03
    -38.058  0.0000E+00  0.0000E+00  0.1200E+03  0.1200E+03
    -37.819  0.0000E+00  0.0000E+00  0.1200E+03  0.1200E+03
    -37.581  0.0000E+00  0.0000E+00  0.1200E+03  0.1200E+03
    -37.343  0.0000E+00  0.0000E+00  0.1200E+03  0.1200E+03
    -37.105  0.0000E+00  0.0000E+00  0.1200E+03  0.1200E+03
    -36.867  0.0000E+00  0.0000E+00  0.1200E+03  0.1200E+03
    -36.628  0.0000E+00  0.0000E+00  0.1200E+03  0.1200E+03
    -36.390  0.0000E+00  0.0000E+00  0.1200E+03  0.1200E+03
    -36.152  0.0000E+00  0.0000E+00  0.1200E+03  0.1200E+03
    -35.914  0.0000E+00  0.0000E+00  0.1200E+03  0.1200E+03
    -35.675  0.0000E+00  0.0000E+00  0.1200E+03  0.1200E+03
    -35.437  0.0000E+00  0.0000E+00  0.1200E+03  0.1200E+03
    -35.199  0.0000E+00  0.0000E+00  0.1200E+03  0.1200E+03
    -34.961  0.0000E+00  0.0000E+00  0.1200E+03  0.1200E+03
    -34.723  0.0000E+00  0.0000E+00  0.1200E+03  0.1200E+03
    -34.484  0.0000E+00  0.0000E+00  0.1200E+03  0.1200E+03
    -34.246  0.0000E+00  0.0000E+00  0.1200E+03  0.1200E+03
    -34.008  0.0000E+00  0.0000E+00  0.1200E+03  0.1200E+03
    -33.770  0.0000E+00  0.0000E+00  0.1200E+03  0.1200E+03
    -33.532  0.0000E+00  0.0000E+00  0.1200E+03  0.1200E+03
    -33.293  0.0000E+00  0.0000E+00  0.1200E+03  0.1200E+03
    -33.055  0.0000E+00  0.0000E+00  0.1200E+03  0.1200E+03
    -32.817  0.0000E+00  0.0000E+00  0.1200E+03  0.1200E+03
    -32.579  0.0000E+00  0.0000E+00  0.1200E+03  0.1200E+03
    -32.341  0.0000E+00  0.0000E+00  0.1200E+03  0.1200E+03
    -32.102  0.0000E+00  0.0000E+00  0.1200E+03  0.1200E+03
    -31.864  0.0000E+00  0.0000E+00  0.1200E+03  0.1200E+03
    -31.626  0.0000E+00  0.0000E+00  0.1200E+03  0.1200E+03
    -31.388  0.0000E+00  0.0000E+00  0.1200E+03  0.1200E+03
    -31.149  0.0000E+00  0.0000E+00  0.1200E+03  0.1200E+03
    -30.911  0.0000E+00  0.0000E+00  0.1200E+03  0.1200E+03
    -30.673  0.0000E+00  0.0000E+00  0.1200E+03  0.1200E+03
    -30.435  0.0000E+00  0.0000E+00  0.1200E+03  0.1200E+03
    -30.197  0.0000E+00  0.0000E+00  0.1200E+03  0.1200E+03
    -29.958  0.0000E+00  0.0000E+00  0.1200E+03  0.1200E+03
    -29.720  0.0000E+00  0.0000E+00  0.1200E+03  0.1200E+03
    -29.482  0.0000E+00  0.0000E+00  0.1200E+03  0.1200E+03
    -29.244  0.0000E+00  0.0000E+00  0.1200E+03  0.1200E+03
    -29.006  0.0000E+00  0.0000E+00  0.1200E+03  0.1200E+03
    -28.767  0.0000E+00  0.0000E+00  0.1200E+03  0.1200E+03
    -28.529  0.0000E+00  0.0000E+00  0.1200E+03  0.1200E+03
    -28.291  0.0000E+00  0.0000E+00  0.1200E+03  0.1200E+03
    -28.053  0.0000E+00  0.0000E+00  0.1200E+03  0.1200E+03
    -27.815  0.0000E+00  0.0000E+00  0.1200E+03  0.1200E+03
    -27.576  0.0000E+00  0.0000E+00  0.1200E+03  0.1200E+03
    -27.338  0.0000E+00  0.0000E+00  0.1200E+03  0.1200E+03
    -27.100  0.0000E+00  0.0000E+00  0.1200E+03  0.1200E+03
    -26.862  0.0000E+00  0.0000E+00  0.1200E+03  0.1200E+03
    -26.623  0.0000E+00  0.0000E+00  0.1200E+03  0.1200E+03
    -26.385  0.0000E+00  0.0000E+00  0.1200E+03  0.1200E+03
    -26.147  0.0000E+00  0.0000E+00  0.1200E+03  0.1200E+03
    -25.909  0.0000E+00  0.0000E+00  0.1200E+03  0.1200E+03
    -25.671  0.0000E+00  0.0000E+00  0.1200E+03  0.1200E+03
    -25.432  0.0000E+00  0.0000E+00  0.1200E+03  0.1200E+03
    -25.194  0.0000E+00  0.0000E+00  0.1200E+03  0.1200E+03
    -24.956  0.0000E+00  0.0000E+00  0.1200E+03  0.1200E+03
    -24.718  0.0000E+00  0.0000E+00  0.1200E+03  0.1200E+03
    -24.480  0.0000E+00  0.0000E+00  0.1200E+03  0.1200E+03
    -24.241  0.0000E+00  0.0000E+00  0.1200E+03  0.1200E+03
    -24.003  0.0000E+00  0.0000E+00  0.1200E+03  0.1200E+03
    -23.765  0.0000E+00  0.0000E+00  0.1200E+03  0.1200E+03
    -23.527  0.0000E+00  0.0000E+00  0.1200E+03  0.1200E+03
    -23.289  0.0000E+00  0.0000E+00  0.1200E+03  0.1200E+03
    -23.050  0.0000E+00  0.0000E+00  0.1200E+03  0.1200E+03
    -22.812  0.0000E+00  0.0000E+00  0.1200E+03  0.1200E+03
    -22.574  0.0000E+00  0.0000E+00  0.1200E+03  0.1200E+03
    -22.336  0.0000E+00  0.0000E+00  0.1200E+03  0.1200E+03
    -22.097  0.0000E+00  0.0000E+00  0.1200E+03  0.1200E+03
    -21.859  0.0000E+00  0.0000E+00  0.1200E+03  0.1200E+03
    -21.621  0.0000E+00  0.0000E+00  0.1200E+03  0.1200E+03
    -21.383  0.0000E+00  0.0000E+00  0.1200E+03  0.1200E+03
    -21.145  0.0000E+00  0.0000E+00  0.1200E+03  0.1200E+03
    -20.906  0.0000E+00  0.0000E+00  0.1200E+03  0.1200E+03
    -20.668  0.0000E+00  0.0000E+00  0.1200E+03  0.1200E+03
    -20.430  0.0000E+00  0.0000E+00  0.1200E+03  0.1200E+03
    -20.192  0.0000E+00  0.0000E+00  0.1200E+03  0.1200E+03
    -19.954  0.0000E+00  0.0000E+00  0.1200E+03  0.1200E+03
    -19.715  0.0000E+00  0.0000E+00  0.1200E+03  0.1200E+03
    -19.477  0.0000E+00  0.0000E+00  0.1200E+03  0.1200E+03
    -19.239  0.0000E+00  0.0000E+00  0.1200E+03  0.1200E+03
    -19.001  0.0000E+00  0.0000E+00  0.1200E+03  0.1200E+03
    -18.763  0.0000E+00  0.0000E+00  0.1200E+03  0.1200E+03
    -18.524  0.0000E+00  0.0000E+00  0.1200E+03  0.1200E+03
    -18.286  0.0000E+00  0.0000E+00  0.1200E+03  0.1200E+03
    -18.048  0.0000E+00  0.0000E+00  0.1200E+03  0.1200E+03
    -17.810  0.0000E+00  0.0000E+00  0.1200E+03  0.1200E+03
    -17.571  0.0000E+00  0.0000E+00  0.1200E+03  0.1200E+03
    -17.333  0.0000E+00  0.0000E+00  0.1200E+03  0.1200E+03
    -17.095  0.0000E+00  0.0000E+00  0.1200E+03  0.1200E+03
    -16.857  0.0000E+00  0.0000E+00  0.1200E+03  0.1200E+03
    -16.619  0.0000E+00  0.0000E+00  0.1200E+03  0.1200E+03
    -16.380  0.0000E+00  0.0000E+00  0.1200E+03  0.1200E+03
    -16.142  0.0000E+00  0.0000E+00  0.1200E+03  0.1200E+03
    -15.904  0.0000E+00  0.0000E+00  0.1200E+03  0.1200E+03
    -15.666  0.0000E+00  0.0000E+00  0.1200E+03  0.1200E+03
    -15.428  0.0000E+00  0.0000E+00  0.1200E+03  0.1200E+03
    -15.189  0.0000E+00  0.0000E+00  0.1200E+03  0.1200E+03
    -14.951  0.0000E+00  0.0000E+00  0.1200E+03  0.1200E+03
    -14.713  0.0000E+00  0.0000E+00  0.1200E+03  0.1200E+03
    -14.475  0.0000E+00  0.0000E+00  0.1200E+03  0.1200E+03
    -14.237  0.0000E+00  0.0000E+00  0.1200E+03  0.1200E+03
    -13.998  0.0000E+00  0.0000E+00  0.1200E+03  0.1200E+03
    -13.760  0.1154E-08  0.0000E+00  0.1200E+03  0.1200E+03
    -13.522  0.8665E+01  0.1726E-15  0.1221E+03  0.1200E+03
    -13.284  0.5995E+02  0.3089E+00  0.1363E+03  0.1201E+03
    -13.045  0.3213E+02  0.6685E+02  0.1440E+03  0.1360E+03
    -12.807  0.2951E-03  0.3359E+02  0.1440E+03  0.1440E+03
    -12.569  0.0000E+00  0.3755E-04  0.1440E+03  0.1440E+03
    -12.331  0.0000E+00  0.0000E+00  0.1440E+03  0.1440E+03
    -12.093  0.0000E+00  0.0000E+00  0.1440E+03  0.1440E+03
    -11.854  0.0000E+00  0.0000E+00  0.1440E+03  0.1440E+03
    -11.616  0.0000E+00  0.0000E+00  0.1440E+03  0.1440E+03
    -11.378  0.0000E+00  0.0000E+00  0.1440E+03  0.1440E+03
    -11.140  0.0000E+00  0.0000E+00  0.1440E+03  0.1440E+03
    -10.902  0.0000E+00  0.0000E+00  0.1440E+03  0.1440E+03
    -10.663  0.0000E+00  0.0000E+00  0.1440E+03  0.1440E+03
    -10.425  0.0000E+00  0.0000E+00  0.1440E+03  0.1440E+03
    -10.187  0.0000E+00  0.0000E+00  0.1440E+03  0.1440E+03
     -9.949  0.0000E+00  0.0000E+00  0.1440E+03  0.1440E+03
     -9.711  0.0000E+00  0.0000E+00  0.1440E+03  0.1440E+03
     -9.472  0.0000E+00  0.0000E+00  0.1440E+03  0.1440E+03
     -9.234  0.0000E+00  0.0000E+00  0.1440E+03  0.1440E+03
     -8.996  0.0000E+00  0.0000E+00  0.1440E+03  0.1440E+03
     -8.758  0.0000E+00  0.0000E+00  0.1440E+03  0.1440E+03
     -8.519  0.0000E+00  0.0000E+00  0.1440E+03  0.1440E+03
     -8.281  0.0000E+00  0.0000E+00  0.1440E+03  0.1440E+03
     -8.043  0.0000E+00  0.0000E+00  0.1440E+03  0.1440E+03
     -7.805  0.1129E-01  0.2330E-15  0.1440E+03  0.1440E+03
     -7.567  0.1834E+02  0.1276E+00  0.1484E+03  0.1440E+03
     -7.328  0.4807E+02  0.2885E+02  0.1598E+03  0.1509E+03
     -7.090  0.3345E+02  0.4936E+02  0.1678E+03  0.1627E+03
     -6.852  0.8795E+00  0.2174E+02  0.1680E+03  0.1678E+03
     -6.614  0.0000E+00  0.6712E+00  0.1680E+03  0.1680E+03
     -6.376  0.0000E+00  0.0000E+00  0.1680E+03  0.1680E+03
     -6.137  0.0000E+00  0.0000E+00  0.1680E+03  0.1680E+03
     -5.899  0.0000E+00  0.0000E+00  0.1680E+03  0.1680E+03
     -5.661  0.0000E+00  0.0000E+00  0.1680E+03  0.1680E+03
     -5.423  0.0000E+00  0.0000E+00  0.1680E+03  0.1680E+03
     -5.185  0.0000E+00  0.0000E+00  0.1680E+03  0.1680E+03
     -4.946  0.0000E+00  0.0000E+00  0.1680E+03  0.1680E+03
     -4.708  0.0000E+00  0.0000E+00  0.1680E+03  0.1680E+03
     -4.470  0.0000E+00  0.0000E+00  0.1680E+03  0.1680E+03
     -4.232  0.0000E+00  0.0000E+00  0.1680E+03  0.1680E+03
     -3.993  0.0000E+00  0.0000E+00  0.1680E+03  0.1680E+03
     -3.755  0.0000E+00  0.0000E+00  0.1680E+03  0.1680E+03
     -3.517  0.0000E+00  0.0000E+00  0.1680E+03  0.1680E+03
     -3.279  0.0000E+00  0.0000E+00  0.1680E+03  0.1680E+03
     -3.041  0.0000E+00  0.0000E+00  0.1680E+03  0.1680E+03
     -2.802  0.0000E+00  0.0000E+00  0.1680E+03  0.1680E+03
     -2.564  0.0000E+00  0.0000E+00  0.1680E+03  0.1680E+03
     -2.326  0.0000E+00  0.0000E+00  0.1680E+03  0.1680E+03
     -2.088  0.2133E-05  0.0000E+00  0.1680E+03  0.1680E+03
     -1.850  0.7894E+01  0.0000E+00  0.1699E+03  0.1680E+03
     -1.611  0.5815E+02  0.0000E+00  0.1837E+03  0.1680E+03
     -1.373  0.4166E+02  0.0000E+00  0.1937E+03  0.1680E+03
     -1.135  0.3249E+02  0.0000E+00  0.2014E+03  0.1680E+03
     -0.897  0.5384E+02  0.2165E-08  0.2142E+03  0.1680E+03
     -0.658  0.5339E+02  0.1765E+01  0.2269E+03  0.1684E+03
     -0.420  0.6691E+02  0.1718E+02  0.2429E+03  0.1725E+03
     -0.182  0.5445E+02  0.3875E+02  0.2558E+03  0.1817E+03
      0.056  0.3441E+02  0.3520E+02  0.2640E+03  0.1901E+03
      0.294  0.5507E+02  0.2269E+02  0.2772E+03  0.1955E+03
      0.533  0.4775E+02  0.4864E+02  0.2885E+03  0.2071E+03
      0.771  0.3248E+02  0.4851E+02  0.2963E+03  0.2187E+03
      1.009  0.4986E+02  0.6842E+02  0.3081E+03  0.2350E+03
      1.247  0.4889E+02  0.2635E+02  0.3198E+03  0.2413E+03
      1.485  0.5438E+02  0.2289E+02  0.3327E+03  0.2467E+03
      1.724  0.6191E+02  0.3805E+02  0.3475E+03  0.2558E+03
      1.962  0.3418E+02  0.4600E+02  0.3556E+03  0.2667E+03
      2.200  0.2441E+02  0.2956E+02  0.3615E+03  0.2738E+03
      2.438  0.1357E+02  0.3580E+02  0.3647E+03  0.2823E+03
      2.676  0.3760E+02  0.2535E+02  0.3736E+03  0.2883E+03
      2.915  0.3864E+02  0.4570E+02  0.3828E+03  0.2992E+03
      3.153  0.3030E+02  0.4176E+02  0.3901E+03  0.3092E+03
      3.391  0.4376E+02  0.1462E+02  0.4005E+03  0.3126E+03
      3.629  0.5341E+02  0.3039E+02  0.4132E+03  0.3199E+03
      3.868  0.4738E+02  0.5710E+02  0.4245E+03  0.3335E+03
      4.106  0.2938E+02  0.1054E+02  0.4315E+03  0.3360E+03
      4.344  0.2113E+01  0.9585E-05  0.4320E+03  0.3360E+03
      4.582  0.0000E+00  0.0000E+00  0.4320E+03  0.3360E+03
      4.820  0.0000E+00  0.0000E+00  0.4320E+03  0.3360E+03
      5.059  0.0000E+00  0.0000E+00  0.4320E+03  0.3360E+03
      5.297  0.0000E+00  0.0000E+00  0.4320E+03  0.3360E+03
      5.535  0.0000E+00  0.0000E+00  0.4320E+03  0.3360E+03
      5.773  0.0000E+00  0.0000E+00  0.4320E+03  0.3360E+03
      6.011  0.0000E+00  0.3575E-02  0.4320E+03  0.3360E+03
      6.250  0.0000E+00  0.1884E+01  0.4320E+03  0.3364E+03
      6.488  0.0000E+00  0.1345E+02  0.4320E+03  0.3397E+03
      6.726  0.0000E+00  0.2692E+02  0.4320E+03  0.3461E+03
      6.964  0.0000E+00  0.2508E+02  0.4320E+03  0.3520E+03
      7.202  0.7592E-05  0.5733E+02  0.4320E+03  0.3657E+03
      7.441  0.1551E+00  0.7592E+02  0.4320E+03  0.3838E+03
      7.679  0.7254E+00  0.2947E+02  0.4322E+03  0.3908E+03
      7.917  0.1482E+01  0.4117E+02  0.4326E+03  0.4006E+03
      8.155  0.4814E+01  0.7774E+02  0.4337E+03  0.4191E+03
      8.394  0.7029E+01  0.5059E+02  0.4354E+03  0.4312E+03
      8.632  0.1573E+02  0.3866E+01  0.4391E+03  0.4321E+03
      8.870  0.2387E+02  0.1126E+01  0.4448E+03  0.4324E+03
      9.108  0.1970E+02  0.4475E+01  0.4495E+03  0.4334E+03
      9.346  0.1941E+02  0.1062E+02  0.4541E+03  0.4360E+03
      9.585  0.1990E+02  0.2086E+02  0.4589E+03  0.4409E+03
      9.823  0.2440E+02  0.2877E+02  0.4647E+03  0.4478E+03
     10.061  0.2207E+02  0.3011E+02  0.4699E+03  0.4550E+03
     10.299  0.1784E+02  0.3012E+02  0.4742E+03  0.4621E+03
     10.537  0.2465E+02  0.2581E+02  0.4801E+03  0.4683E+03
     10.776  0.1514E+02  0.2594E+02  0.4837E+03  0.4745E+03
     11.014  0.2718E+02  0.2443E+02  0.4902E+03  0.4803E+03
     11.252  0.4544E+02  0.1023E+02  0.5010E+03  0.4827E+03
     11.490  0.4870E+02  0.2574E+02  0.5126E+03  0.4888E+03
     11.728  0.3540E+02  0.3017E+02  0.5210E+03  0.4960E+03
     11.967  0.2027E+02  0.5671E+02  0.5258E+03  0.5095E+03
     12.205  0.2083E+02  0.4449E+02  0.5308E+03  0.5201E+03
     12.443  0.2988E+02  0.2687E+02  0.5379E+03  0.5265E+03
     12.681  0.3267E+02  0.2369E+02  0.5457E+03  0.5322E+03
     12.920  0.1878E+02  0.2764E+02  0.5502E+03  0.5388E+03
     13.158  0.7601E+01  0.3305E+02  0.5520E+03  0.5466E+03
     13.396  0.8702E-01  0.1845E+02  0.5520E+03  0.5510E+03
     13.634  0.0000E+00  0.4045E+01  0.5520E+03  0.5520E+03
     13.872  0.0000E+00  0.4334E-05  0.5520E+03  0.5520E+03
     14.111  0.0000E+00  0.0000E+00  0.5520E+03  0.5520E+03
     14.349  0.0000E+00  0.0000E+00  0.5520E+03  0.5520E+03
     14.587  0.0000E+00  0.0000E+00  0.5520E+03  0.5520E+03
     14.825  0.0000E+00  0.0000E+00  0.5520E+03  0.5520E+03
     15.063  0.0000E+00  0.0000E+00  0.5520E+03  0.5520E+03
     15.302  0.0000E+00  0.0000E+00  0.5520E+03  0.5520E+03
     15.540  0.0000E+00  0.0000E+00  0.5520E+03  0.5520E+03
     15.778  0.0000E+00  0.0000E+00  0.5520E+03  0.5520E+03
     16.016  0.0000E+00  0.0000E+00  0.5520E+03  0.5520E+03
     16.254  0.0000E+00  0.0000E+00  0.5520E+03  0.5520E+03
     16.493  0.0000E+00  0.0000E+00  0.5520E+03  0.5520E+03
     16.731  0.0000E+00  0.0000E+00  0.5520E+03  0.5520E+03
