 vasp.5.4.4.18Apr17-6-g9f103f2a35 (build Oct 25 2017 14:42:18) complex          
  
 executed on             LinuxIFC date 2021.04.16  12:17:47
 running on   48 total cores
 distrk:  each k-point on   24 cores,    2 groups
 distr:  one band on NCORES_PER_BAND=   6 cores,    4 groups


--------------------------------------------------------------------------------------------------------


 INCAR:
 POTCAR:    PAW_PBE Li_sv 10Sep2004               
 POTCAR:    PAW_PBE O 08Apr2002                   
 POTCAR:    PAW_PBE S 06Sep2000                   
 POTCAR:    PAW_PBE Fe_pv 02Aug2007               

 ----------------------------------------------------------------------------- 
|                                                                             |
|           W    W    AA    RRRRR   N    N  II  N    N   GGGG   !!!           |
|           W    W   A  A   R    R  NN   N  II  NN   N  G    G  !!!           |
|           W    W  A    A  R    R  N N  N  II  N N  N  G       !!!           |
|           W WW W  AAAAAA  RRRRR   N  N N  II  N  N N  G  GGG   !            |
|           WW  WW  A    A  R   R   N   NN  II  N   NN  G    G                |
|           W    W  A    A  R    R  N    N  II  N    N   GGGG   !!!           |
|                                                                             |
|      You have enabled k-point parallelism (KPAR>1).                         |
|      This developmental code was originally  written by Paul Kent at ORNL,  |
|      and carefully double checked in Vienna.                                |
|      GW as well as linear response parallelism added by Martijn Marsman     |
|      and Georg Kresse.                                                      |
|      Carefully verify results versus KPAR=1.                                |
|      Report problems to Paul Kent and Vienna.                               |
|                                                                             |
 ----------------------------------------------------------------------------- 

 POTCAR:    PAW_PBE Li_sv 10Sep2004               
  local pseudopotential read in
  atomic valenz-charges read in
  non local Contribution for L=           0  read in
    real space projection operators read in
  non local Contribution for L=           0  read in
    real space projection operators read in
  non local Contribution for L=           1  read in
    real space projection operators read in
    PAW grid and wavefunctions read in
 
   number of l-projection  operators is LMAX  =           3
   number of lm-projection operators is LMMAX =           5
 
 POTCAR:    PAW_PBE O 08Apr2002                   
  local pseudopotential read in
  partial core-charges read in
  partial kinetic energy density read in
  kinetic energy density of atom read in
  atomic valenz-charges read in
  non local Contribution for L=           0  read in
    real space projection operators read in
  non local Contribution for L=           0  read in
    real space projection operators read in
  non local Contribution for L=           1  read in
    real space projection operators read in
  non local Contribution for L=           1  read in
    real space projection operators read in
    PAW grid and wavefunctions read in
 
   number of l-projection  operators is LMAX  =           4
   number of lm-projection operators is LMMAX =           8
 
 POTCAR:    PAW_PBE S 06Sep2000                   
  local pseudopotential read in
  partial core-charges read in
  partial kinetic energy density read in
  atomic valenz-charges read in
  non local Contribution for L=           0  read in
    real space projection operators read in
  non local Contribution for L=           0  read in
    real space projection operators read in
  non local Contribution for L=           1  read in
    real space projection operators read in
  non local Contribution for L=           1  read in
    real space projection operators read in
    PAW grid and wavefunctions read in
 
   number of l-projection  operators is LMAX  =           4
   number of lm-projection operators is LMMAX =           8
 
 POTCAR:    PAW_PBE Fe_pv 02Aug2007               
  local pseudopotential read in
  partial core-charges read in
  partial kinetic energy density read in
  atomic valenz-charges read in
  non local Contribution for L=           1  read in
    real space projection operators read in
  non local Contribution for L=           1  read in
    real space projection operators read in
  non local Contribution for L=           2  read in
    real space projection operators read in
  non local Contribution for L=           2  read in
    real space projection operators read in
  non local Contribution for L=           0  read in
    real space projection operators read in
  non local Contribution for L=           0  read in
    real space projection operators read in
    PAW grid and wavefunctions read in
 
   number of l-projection  operators is LMAX  =           6
   number of lm-projection operators is LMMAX =          18
 

 ----------------------------------------------------------------------------- 
|                                                                             |
|  ADVICE TO THIS USER RUNNING 'VASP/VAMP'   (HEAR YOUR MASTER'S VOICE ...):  |
|                                                                             |
|      You have a (more or less) 'large supercell' and for larger cells       |
|      it might be more efficient to use real space projection opertators     |
|      So try LREAL= Auto  in the INCAR   file.                               |
|      Mind:          For very  accurate calculation you might also keep the  |
|      reciprocal projection scheme          (i.e. LREAL=.FALSE.)             |
|                                                                             |
 ----------------------------------------------------------------------------- 

  PAW_PBE Li_sv 10Sep2004               :
 energy of atom  1       EATOM= -202.7858
 kinetic energy error for atom=    0.0072 (will be added to EATOM!!)
  PAW_PBE O 08Apr2002                   :
 energy of atom  2       EATOM= -432.3788
 kinetic energy error for atom=    0.0129 (will be added to EATOM!!)
  PAW_PBE S 06Sep2000                   :
 energy of atom  3       EATOM= -276.8230
 kinetic energy error for atom=    0.0008 (will be added to EATOM!!)
  PAW_PBE Fe_pv 02Aug2007               :
 energy of atom  4       EATOM=-2457.4239
 kinetic energy error for atom=    0.0041 (will be added to EATOM!!)
 
 
 POSCAR: # Compound: Li48O24S24Fe24. Old comment:
  positions in direct lattice
  No initial velocities read in
 exchange correlation table for  LEXCH =        8
   RHO(1)=    0.500       N(1)  =     2000
   RHO(2)=  100.500       N(2)  =     4000
 


--------------------------------------------------------------------------------------------------------


 ion  position               nearest neighbor table
   1  0.035  0.363  0.356-  51 1.97  49 1.97  73 2.65
   2  0.369  0.363  0.356-  49 1.97  50 1.97  74 2.65
   3  0.702  0.363  0.356-  50 1.97  51 1.97  75 2.65
   4  0.035  0.863  0.356-  54 1.97  52 1.97  76 2.65
   5  0.369  0.863  0.356-  52 1.97  53 1.97  77 2.65
   6  0.702  0.863  0.356-  53 1.97  54 1.97  78 2.65
   7  0.035  0.363  0.856-  57 1.97  55 1.97  79 2.65
   8  0.369  0.363  0.856-  55 1.97  56 1.97  80 2.65
   9  0.702  0.363  0.856-  56 1.97  57 1.97  81 2.65
  10  0.035  0.863  0.856-  60 1.97  58 1.97  82 2.65
  11  0.369  0.863  0.856-  58 1.97  59 1.97  83 2.65
  12  0.702  0.863  0.856-  59 1.97  60 1.97  84 2.65
  13  0.035  0.113  0.144-  63 1.97  61 1.97  85 2.65
  14  0.369  0.113  0.144-  61 1.97  62 1.97  86 2.65
  15  0.702  0.113  0.144-  62 1.97  63 1.97  87 2.65
  16  0.035  0.613  0.144-  66 1.97  64 1.97  88 2.65
  17  0.369  0.613  0.144-  64 1.97  65 1.97  89 2.65
  18  0.702  0.613  0.144-  65 1.97  66 1.97  90 2.65
  19  0.035  0.113  0.644-  69 1.97  67 1.97  91 2.65
  20  0.369  0.113  0.644-  67 1.97  68 1.97  92 2.65
  21  0.702  0.113  0.644-  68 1.97  69 1.97  93 2.65
  22  0.035  0.613  0.644-  72 1.97  70 1.97  94 2.65
  23  0.369  0.613  0.644-  70 1.97  71 1.97  95 2.65
  24  0.702  0.613  0.644-  71 1.97  72 1.97  96 2.65
  25  0.202  0.219  0.273-  61 2.00  49 2.01  85 2.54  86 2.54
  26  0.535  0.219  0.272-  62 1.99  50 2.02  86 2.55  87 2.55
  27  0.869  0.219  0.272-  63 1.99  51 2.02  87 2.55  85 2.55
  28  0.202  0.719  0.272-  64 1.99  52 2.02  88 2.55  89 2.55
  29  0.535  0.719  0.272-  65 1.99  53 2.02  89 2.55  90 2.55
  30  0.869  0.719  0.272-  66 1.99  54 2.02  90 2.55  88 2.55
  31  0.202  0.219  0.772-  67 1.99  55 2.02  91 2.55  92 2.55
  32  0.535  0.219  0.772-  68 1.99  56 2.02  92 2.55  93 2.55
  33  0.869  0.219  0.772-  69 1.99  57 2.02  93 2.55  91 2.55
  34  0.202  0.719  0.772-  70 1.99  58 2.02  94 2.55  95 2.55
  35  0.535  0.719  0.772-  71 1.99  59 2.02  95 2.55  96 2.55
  36  0.869  0.719  0.772-  72 1.99  60 2.02  96 2.55  94 2.55
  37  0.202  0.469  0.228-  49 1.99  64 2.02  73 2.55  74 2.55
  38  0.535  0.469  0.228-  50 1.99  65 2.02  74 2.55  75 2.55
  39  0.869  0.469  0.228-  51 1.99  66 2.02  75 2.55  73 2.55
  40  0.202  0.969  0.228-  52 1.99  61 2.02  76 2.55  77 2.55
  41  0.535  0.969  0.228-  53 1.99  62 2.02  77 2.55  78 2.55
  42  0.869  0.969  0.228-  54 1.99  63 2.02  78 2.55  76 2.55
  43  0.202  0.469  0.728-  55 1.99  70 2.02  79 2.55  80 2.55
  44  0.535  0.469  0.728-  56 1.99  71 2.02  80 2.55  81 2.55
  45  0.869  0.469  0.728-  57 1.99  72 2.02  81 2.55  79 2.55
  46  0.202  0.969  0.728-  58 1.99  67 2.02  82 2.55  83 2.55
  47  0.535  0.969  0.728-  59 1.99  68 2.02  83 2.55  84 2.55
  48  0.869  0.969  0.728-  60 1.99  69 2.02  84 2.55  82 2.55
  49  0.202  0.368  0.374-   2 1.97   1 1.97  37 1.99 100 2.01  25 2.01 115 2.02
  50  0.535  0.368  0.374-   3 1.97   2 1.97  38 1.99 101 2.01  26 2.02 116 2.02
  51  0.869  0.368  0.374-   1 1.97   3 1.97  39 1.99 102 2.01  27 2.02 117 2.02
  52  0.202  0.868  0.374-   5 1.97   4 1.97  40 1.99  97 2.01  28 2.02 118 2.02
  53  0.535  0.868  0.374-   6 1.97   5 1.97  41 1.99  98 2.01  29 2.02 119 2.02
  54  0.869  0.868  0.374-   4 1.97   6 1.97  42 1.99  99 2.01  30 2.02 120 2.02
  55  0.202  0.368  0.874-   8 1.97   7 1.97  43 1.99 106 2.01  31 2.02 109 2.02
  56  0.535  0.368  0.874-   9 1.97   8 1.97  44 1.99 107 2.01  32 2.02 110 2.02
  57  0.869  0.368  0.874-   7 1.97   9 1.97  45 1.99 108 2.01  33 2.02 111 2.02
  58  0.202  0.868  0.874-  11 1.97  10 1.97  46 1.99 103 2.01  34 2.02 112 2.02
  59  0.535  0.868  0.874-  12 1.97  11 1.97  47 1.99 104 2.01  35 2.02 113 2.02
  60  0.869  0.868  0.874-  10 1.97  12 1.97  48 1.99 105 2.01  36 2.02 114 2.02
  61  0.202  0.118  0.126-  14 1.97  13 1.97  25 2.00 109 2.01  40 2.02 103 2.02
  62  0.535  0.118  0.126-  15 1.97  14 1.97  26 1.99 110 2.01  41 2.02 104 2.02
  63  0.869  0.118  0.126-  13 1.97  15 1.97  27 1.99 111 2.01  42 2.02 105 2.02
  64  0.202  0.618  0.126-  17 1.97  16 1.97  28 1.99 112 2.01  37 2.02 106 2.02
  65  0.535  0.618  0.126-  18 1.97  17 1.97  29 1.99 113 2.01  38 2.02 107 2.02
  66  0.869  0.618  0.126-  16 1.97  18 1.97  30 1.99 114 2.01  39 2.02 108 2.02
  67  0.202  0.118  0.626-  20 1.97  19 1.97  31 1.99 115 2.01  46 2.02  97 2.02
  68  0.535  0.118  0.626-  21 1.97  20 1.97  32 1.99 116 2.01  47 2.02  98 2.02
  69  0.869  0.118  0.626-  19 1.97  21 1.97  33 1.99 117 2.01  48 2.02  99 2.02
  70  0.202  0.618  0.626-  23 1.97  22 1.97  34 1.99 118 2.01  43 2.02 100 2.02
  71  0.535  0.618  0.626-  24 1.97  23 1.97  35 1.99 119 2.01  44 2.02 101 2.02
  72  0.869  0.618  0.626-  22 1.97  24 1.97  36 1.99 120 2.01  45 2.02 102 2.02
  73  0.035  0.370  0.120-  37 2.55  39 2.55 111 2.56 109 2.56   1 2.65
  74  0.369  0.370  0.120-  38 2.55  37 2.55 109 2.56 110 2.56   2 2.65
  75  0.702  0.370  0.120-  39 2.55  38 2.55 110 2.56 111 2.56   3 2.65
  76  0.035  0.870  0.120-  40 2.55  42 2.55 114 2.56 112 2.56   4 2.65
  77  0.369  0.870  0.120-  41 2.55  40 2.55 112 2.56 113 2.56   5 2.65
  78  0.702  0.870  0.120-  42 2.55  41 2.55 113 2.56 114 2.56   6 2.65
  79  0.035  0.370  0.620-  43 2.55  45 2.55 117 2.56 115 2.56   7 2.65
  80  0.369  0.370  0.620-  44 2.55  43 2.55 115 2.56 116 2.56   8 2.65
  81  0.702  0.370  0.620-  45 2.55  44 2.55 116 2.56 117 2.56   9 2.65
  82  0.035  0.870  0.620-  46 2.55  48 2.55 120 2.56 118 2.56  10 2.65
  83  0.369  0.870  0.620-  47 2.55  46 2.55 118 2.56 119 2.56  11 2.65
  84  0.702  0.870  0.620-  48 2.55  47 2.55 119 2.56 120 2.56  12 2.65
  85  0.035  0.120  0.380-  25 2.54  27 2.55  99 2.56  97 2.56  13 2.65
  86  0.369  0.120  0.380-  25 2.54  26 2.55  97 2.56  98 2.56  14 2.65
  87  0.702  0.120  0.380-  27 2.55  26 2.55  98 2.56  99 2.56  15 2.65
  88  0.035  0.620  0.380-  28 2.55  30 2.55 102 2.56 100 2.56  16 2.65
  89  0.369  0.620  0.380-  29 2.55  28 2.55 100 2.56 101 2.56  17 2.65
  90  0.702  0.620  0.380-  30 2.55  29 2.55 101 2.56 102 2.56  18 2.65
  91  0.035  0.120  0.880-  31 2.55  33 2.55 105 2.56 103 2.56  19 2.65
  92  0.369  0.120  0.880-  32 2.55  31 2.55 103 2.56 104 2.56  20 2.65
  93  0.702  0.120  0.880-  33 2.55  32 2.55 104 2.56 105 2.56  21 2.65
  94  0.035  0.620  0.880-  34 2.55  36 2.55 108 2.56 106 2.56  22 2.65
  95  0.369  0.620  0.880-  35 2.55  34 2.55 106 2.56 107 2.56  23 2.65
  96  0.702  0.620  0.880-  36 2.55  35 2.55 107 2.56 108 2.56  24 2.65
  97  0.202  0.012  0.480-  52 2.01  67 2.02  86 2.56  85 2.56
  98  0.535  0.012  0.480-  53 2.01  68 2.02  87 2.56  86 2.56
  99  0.869  0.012  0.480-  54 2.01  69 2.02  85 2.56  87 2.56
 100  0.202  0.512  0.480-  49 2.01  70 2.02  89 2.56  88 2.56
 101  0.535  0.512  0.480-  50 2.01  71 2.02  90 2.56  89 2.56
 102  0.869  0.512  0.480-  51 2.01  72 2.02  88 2.56  90 2.56
 103  0.202  0.012  0.980-  58 2.01  61 2.02  92 2.56  91 2.56
 104  0.535  0.012  0.980-  59 2.01  62 2.02  93 2.56  92 2.56
 105  0.869  0.012  0.980-  60 2.01  63 2.02  91 2.56  93 2.56
 106  0.202  0.512  0.980-  55 2.01  64 2.02  95 2.56  94 2.56
 107  0.535  0.512  0.980-  56 2.01  65 2.02  96 2.56  95 2.56
 108  0.869  0.512  0.980-  57 2.01  66 2.02  94 2.56  96 2.56
 109  0.202  0.262  0.020-  61 2.01  55 2.02  74 2.56  73 2.56
 110  0.535  0.262  0.020-  62 2.01  56 2.02  75 2.56  74 2.56
 111  0.869  0.262  0.020-  63 2.01  57 2.02  73 2.56  75 2.56
 112  0.202  0.762  0.020-  64 2.01  58 2.02  77 2.56  76 2.56
 113  0.535  0.762  0.020-  65 2.01  59 2.02  78 2.56  77 2.56
 114  0.869  0.762  0.020-  66 2.01  60 2.02  76 2.56  78 2.56
 115  0.202  0.262  0.520-  67 2.01  49 2.02  80 2.56  79 2.56
 116  0.535  0.262  0.520-  68 2.01  50 2.02  81 2.56  80 2.56
 117  0.869  0.262  0.520-  69 2.01  51 2.02  79 2.56  81 2.56
 118  0.202  0.762  0.520-  70 2.01  52 2.02  83 2.56  82 2.56
 119  0.535  0.762  0.520-  71 2.01  53 2.02  84 2.56  83 2.56
 120  0.869  0.762  0.520-  72 2.01  54 2.02  82 2.56  84 2.56
 

IMPORTANT INFORMATION: All symmetrisations will be switched off!
NOSYMM: (Re-)initialisation of all symmetry stuff for point group C_1.

 
 
 KPOINTS: # No comment                            

Automatic generation of k-mesh.
Space group operators:
 irot       det(A)        alpha          n_x          n_y          n_z        tau_x        tau_y        tau_z
    1     1.000000     0.000000     1.000000     0.000000     0.000000     0.000000     0.000000     0.000000
 
 Subroutine IBZKPT returns following result:
 ===========================================
 
 Found     14 irreducible k-points:
 
 Following reciprocal coordinates:
            Coordinates               Weight
  0.000000  0.000000  0.000000      1.000000
  0.333333  0.000000  0.000000      2.000000
  0.000000  0.333333  0.000000      2.000000
  0.333333  0.333333  0.000000      2.000000
 -0.333333  0.333333  0.000000      2.000000
  0.000000  0.000000  0.333333      2.000000
  0.333333  0.000000  0.333333      2.000000
 -0.333333  0.000000  0.333333      2.000000
  0.000000  0.333333  0.333333      2.000000
  0.333333  0.333333  0.333333      2.000000
 -0.333333  0.333333  0.333333      2.000000
 -0.000000 -0.333333  0.333333      2.000000
  0.333333 -0.333333  0.333333      2.000000
 -0.333333 -0.333333  0.333333      2.000000
 
 Following cartesian coordinates:
            Coordinates               Weight
  0.000000  0.000000  0.000000      1.000000
  0.028403 -0.000139  0.000000      2.000000
  0.000145  0.029713  0.000000      2.000000
  0.028548  0.029574  0.000000      2.000000
 -0.028257  0.029851  0.000000      2.000000
  0.000000  0.000000  0.029774      2.000000
  0.028403 -0.000139  0.029774      2.000000
 -0.028403  0.000139  0.029774      2.000000
  0.000145  0.029713  0.029774      2.000000
  0.028548  0.029574  0.029774      2.000000
 -0.028257  0.029851  0.029774      2.000000
 -0.000145 -0.029713  0.029774      2.000000
  0.028257 -0.029851  0.029774      2.000000
 -0.028548 -0.029574  0.029774      2.000000
 


--------------------------------------------------------------------------------------------------------




 Dimension of arrays:
   k-points           NKPTS =     14   k-points in BZ     NKDIM =     14   number of bands    NBANDS=    552
   number of dos      NEDOS =    301   number of ions     NIONS =    120
   non local maximal  LDIM  =      6   non local SUM 2l+1 LMDIM =     18
   total plane-waves  NPLWV = 903168
   max r-space proj   IRMAX =      1   max aug-charges    IRDMAX= 154614
   dimension x,y,z NGX =    98 NGY =   96 NGZ =   96
   dimension x,y,z NGXF=   196 NGYF=  192 NGZF=  192
   support grid    NGXF=   392 NGYF=  384 NGZF=  384
   ions per type =              48  24  24  24
   NGX,Y,Z   is equivalent  to a cutoff of  13.88, 14.23, 14.26 a.u.
   NGXF,Y,Z  is equivalent  to a cutoff of  27.76, 28.45, 28.51 a.u.

 SYSTEM =  unknown system                          
 POSCAR =  # Compound: Li48O24S24Fe24. Old comment:

 Startparameter for this run:
   NWRITE =      1    write-flag & timer
   PREC   = accura    normal or accurate (medium, high low for compatibility)
   ISTART =      0    job   : 0-new  1-cont  2-samecut
   ICHARG =      1    charge: 1-file 2-atom 10-const
   ISPIN  =      2    spin polarized calculation?
   LNONCOLLINEAR =      F non collinear calculations
   LSORBIT =      F    spin-orbit coupling
   INIWAV =      1    electr: 0-lowe 1-rand  2-diag
   LASPH  =      T    aspherical Exc in radial PAW
   METAGGA=      F    non-selfconsistent MetaGGA calc.

 Electronic Relaxation 1
   ENCUT  =  650.0 eV  47.77 Ry    6.91 a.u.  24.40 23.32 23.27*2*pi/ulx,y,z
   ENINI  =  650.0     initial cutoff
   ENAUG  =  628.9 eV  augmentation charge cutoff
   NELM   =    200;   NELMIN=  8; NELMDL=  0     # of ELM steps 
   EDIFF  = 0.1E-05   stopping-criterion for ELM
   LREAL  =      F    real-space projection
   NLSPLINE    = F    spline interpolate recip. space projectors
   LCOMPAT=      F    compatible to vasp.4.4
   GGA_COMPAT  = T    GGA compatible to vasp.4.4-vasp.4.6
   LMAXPAW     = -100 max onsite density
   LMAXMIX     =    4 max onsite mixed and CHGCAR
   VOSKOWN=      0    Vosko Wilk Nusair interpolation
   ROPT   =    0.00000   0.00000   0.00000   0.00000
 Ionic relaxation
   EDIFFG = 0.1E-04   stopping-criterion for IOM
   NSW    =      0    number of steps for IOM
   NBLOCK =      1;   KBLOCK =      1    inner block; outer block 
   IBRION =     -1    ionic relax: 0-MD 1-quasi-New 2-CG
   NFREE  =      0    steps in history (QN), initial steepest desc. (CG)
   ISIF   =      3    stress and relaxation
   IWAVPR =     10    prediction:  0-non 1-charg 2-wave 3-comb
   ISYM   =      0    0-nonsym 1-usesym 2-fastsym
   LCORR  =      T    Harris-Foulkes like correction to forces

   POTIM  = 0.5000    time-step for ionic-motion
   TEIN   =    0.0    initial temperature
   TEBEG  =    0.0;   TEEND  =   0.0 temperature during run
   SMASS  =  -3.00    Nose mass-parameter (am)
   estimated Nose-frequenzy (Omega)   =  0.10E-29 period in steps =****** mass=  -0.315E-26a.u.
   SCALEE = 1.0000    scale energy and forces
   NPACO  =    256;   APACO  = 16.0  distance and # of slots for P.C.
   PSTRESS=    0.0 pullay stress

  Mass of Ions in am
   POMASS =   7.01 16.00 32.07 55.85
  Ionic Valenz
   ZVAL   =   3.00  6.00  6.00 14.00
  Atomic Wigner-Seitz radii
   RWIGS  =  -1.00 -1.00 -1.00 -1.00
  virtual crystal weights 
   VCA    =   1.00  1.00  1.00  1.00
   NELECT =     768.0000    total number of electrons
   NUPDOWN=      -1.0000    fix difference up-down

 DOS related values:
   EMIN   =  10.00;   EMAX   =-10.00  energy-range for DOS
   EFERMI =   0.00
   ISMEAR =     0;   SIGMA  =   0.05  broadening in eV -4-tet -1-fermi 0-gaus

 Electronic relaxation 2 (details)
   IALGO  =     38    algorithm
   LDIAG  =      T    sub-space diagonalisation (order eigenvalues)
   LSUBROT=      F    optimize rotation matrix (better conditioning)
   TURBO    =      0    0=normal 1=particle mesh
   IRESTART =      0    0=no restart 2=restart with 2 vectors
   NREBOOT  =      0    no. of reboots
   NMIN     =      0    reboot dimension
   EREF     =   0.00    reference energy to select bands
   IMIX   =      4    mixing-type and parameters
     AMIX     =   0.40;   BMIX     =  1.00
     AMIX_MAG =   1.60;   BMIX_MAG =  1.00
     AMIN     =   0.10
     WC   =   100.;   INIMIX=   1;  MIXPRE=   1;  MAXMIX= -45

 Intra band minimization:
   WEIMIN = 0.0000     energy-eigenvalue tresh-hold
   EBREAK =  0.45E-09  absolut break condition
   DEPER  =   0.30     relativ break condition  

   TIME   =   0.40     timestep for ELM

  volume/ion in A,a.u.               =      12.28        82.89
  Fermi-wavevector in a.u.,A,eV,Ry     =   1.317335  2.489402 23.611165  1.735372
  Thomas-Fermi vector in A             =   2.447383
 
 Write flags
   LWAVE        =      F    write WAVECAR
   LDOWNSAMPLE  =      F    k-point downsampling of WAVECAR
   LCHARG       =      T    write CHGCAR
   LVTOT        =      F    write LOCPOT, total local potential
   LVHAR        =      F    write LOCPOT, Hartree potential only
   LELF         =      F    write electronic localiz. function (ELF)
   LORBIT       =      0    0 simple, 1 ext, 2 COOP (PROOUT), +10 PAW based schemes


 Dipole corrections
   LMONO  =      F    monopole corrections only (constant potential shift)
   LDIPOL =      F    correct potential (dipole corrections)
   IDIPOL =      0    1-x, 2-y, 3-z, 4-all directions 
   EPSILON=  1.0000000 bulk dielectric constant

 LDA+U is selected, type is set to LDAUTYPE =  2
   angular momentum for each species LDAUL =    -1   -1   -1    2
   U (eV)           for each species LDAUU =   0.0  0.0  0.0  4.0
   J (eV)           for each species LDAUJ =   0.0  0.0  0.0  0.0
 Exchange correlation treatment:
   GGA     =    PE    GGA type
   LEXCH   =     8    internal setting for exchange type
   VOSKOWN=      0    Vosko Wilk Nusair interpolation
   LHFCALC =     F    Hartree Fock is set to
   LHFONE  =     F    Hartree Fock one center treatment
   AEXX    =    0.0000 exact exchange contribution

 Linear response parameters
   LEPSILON=     F    determine dielectric tensor
   LRPA    =     F    only Hartree local field effects (RPA)
   LNABLA  =     F    use nabla operator in PAW spheres
   LVEL    =     F    velocity operator in full k-point grid
   LINTERFAST=   F  fast interpolation
   KINTER  =     0    interpolate to denser k-point grid
   CSHIFT  =0.1000    complex shift for real part using Kramers Kronig
   OMEGAMAX=  -1.0    maximum frequency
   DEG_THRESHOLD= 0.2000000E-02 threshold for treating states as degnerate
   RTIME   =   -0.100 relaxation time in fs
  (WPLASMAI=    0.000 imaginary part of plasma frequency in eV, 0.658/RTIME)
   DFIELD  = 0.0000000 0.0000000 0.0000000 field for delta impulse in time
 
 Orbital magnetization related:
   ORBITALMAG=     F  switch on orbital magnetization
   LCHIMAG   =     F  perturbation theory with respect to B field
   DQ        =  0.001000  dq finite difference perturbation B field
   LLRAUG    =     F  two centre corrections for induced B field



--------------------------------------------------------------------------------------------------------


 Static calculation
 charge density and potential will be updated during run
 spin polarized calculation
 Variant of blocked Davidson
 Davidson routine will perform the subspace rotation
 perform sub-space diagonalisation
    after iterative eigenvector-optimisation
 modified Broyden-mixing scheme, WC =      100.0
 initial mixing is a Kerker type mixing with AMIX =  0.4000 and BMIX =      1.0000
 Hartree-type preconditioning will be used
 using additional bands          168
 reciprocal scheme for non local part
 use partial core corrections
 calculate Harris-corrections to forces 
   (improved forces if not selfconsistent)
 use gradient corrections 
 use of overlap-Matrix (Vanderbilt PP)
 Gauss-broadening in eV      SIGMA  =   0.05


--------------------------------------------------------------------------------------------------------


  energy-cutoff  :      650.00
  volume of cell :     1474.00
      direct lattice vectors                 reciprocal lattice vectors
    11.735727240 -0.057442860  0.000000000     0.085207850 -0.000416288  0.000000000
     0.054807880 11.218334900  0.000000000     0.000436302  0.089137657  0.000000000
     0.000000000  0.000000000 11.195620100     0.000000000  0.000000000  0.089320644

  length of vectors
    11.735867822 11.218468783 11.195620100     0.085208867  0.089138725  0.089320644


 
 k-points in units of 2pi/SCALE and weight: # No comment                            
   0.00000000  0.00000000  0.00000000       0.037
   0.02840262 -0.00013876  0.00000000       0.074
   0.00014543  0.02971255  0.00000000       0.074
   0.02854805  0.02957379  0.00000000       0.074
  -0.02825718  0.02985132  0.00000000       0.074
   0.00000000  0.00000000  0.02977355       0.074
   0.02840262 -0.00013876  0.02977355       0.074
  -0.02840262  0.00013876  0.02977355       0.074
   0.00014543  0.02971255  0.02977355       0.074
   0.02854805  0.02957379  0.02977355       0.074
  -0.02825718  0.02985132  0.02977355       0.074
  -0.00014543 -0.02971255  0.02977355       0.074
   0.02825718 -0.02985132  0.02977355       0.074
  -0.02854805 -0.02957379  0.02977355       0.074
 
 k-points in reciprocal lattice and weights: # No comment                            
   0.00000000  0.00000000  0.00000000       0.037
   0.33333333  0.00000000  0.00000000       0.074
   0.00000000  0.33333333  0.00000000       0.074
   0.33333333  0.33333333  0.00000000       0.074
  -0.33333333  0.33333333  0.00000000       0.074
   0.00000000  0.00000000  0.33333333       0.074
   0.33333333  0.00000000  0.33333333       0.074
  -0.33333333  0.00000000  0.33333333       0.074
   0.00000000  0.33333333  0.33333333       0.074
   0.33333333  0.33333333  0.33333333       0.074
  -0.33333333  0.33333333  0.33333333       0.074
  -0.00000000 -0.33333333  0.33333333       0.074
   0.33333333 -0.33333333  0.33333333       0.074
  -0.33333333 -0.33333333  0.33333333       0.074
 
 position of ions in fractional coordinates (direct lattice) 
   0.03541706  0.36277547  0.35648149
   0.36875039  0.36277547  0.35648149
   0.70208372  0.36277547  0.35648149
   0.03541706  0.86277547  0.35648149
   0.36875039  0.86277547  0.35648149
   0.70208372  0.86277547  0.35648149
   0.03541706  0.36277547  0.85648149
   0.36875039  0.36277547  0.85648149
   0.70208372  0.36277547  0.85648149
   0.03541706  0.86277547  0.85648149
   0.36875039  0.86277547  0.85648149
   0.70208372  0.86277547  0.85648149
   0.03541706  0.11277547  0.14351851
   0.36875039  0.11277547  0.14351851
   0.70208372  0.11277547  0.14351851
   0.03541706  0.61277547  0.14351851
   0.36875039  0.61277547  0.14351851
   0.70208372  0.61277547  0.14351851
   0.03541706  0.11277547  0.64351851
   0.36875039  0.11277547  0.64351851
   0.70208372  0.11277547  0.64351851
   0.03541706  0.61277547  0.64351851
   0.36875039  0.61277547  0.64351851
   0.70208372  0.61277547  0.64351851
   0.20209458  0.21898060  0.27335536
   0.53542792  0.21898060  0.27246215
   0.86876125  0.21898060  0.27246215
   0.20209458  0.71898060  0.27246215
   0.53542792  0.71898060  0.27246215
   0.86876125  0.71898060  0.27246215
   0.20209458  0.21898060  0.77246215
   0.53542792  0.21898060  0.77246215
   0.86876125  0.21898060  0.77246215
   0.20209458  0.71898060  0.77246215
   0.53542792  0.71898060  0.77246215
   0.86876125  0.71898060  0.77246215
   0.20209458  0.46898060  0.22753785
   0.53542792  0.46898060  0.22753785
   0.86876125  0.46898060  0.22753785
   0.20209458  0.96898060  0.22753785
   0.53542792  0.96898060  0.22753785
   0.86876125  0.96898060  0.22753785
   0.20209458  0.46898060  0.72753785
   0.53542792  0.46898060  0.72753785
   0.86876125  0.46898060  0.72753785
   0.20209458  0.96898060  0.72753785
   0.53542792  0.96898060  0.72753785
   0.86876125  0.96898060  0.72753785
   0.20209064  0.36769237  0.37376509
   0.53542398  0.36769237  0.37376509
   0.86875731  0.36769237  0.37376509
   0.20209064  0.86769237  0.37376509
   0.53542398  0.86769237  0.37376509
   0.86875731  0.86769237  0.37376509
   0.20209064  0.36769237  0.87376509
   0.53542398  0.36769237  0.87376509
   0.86875731  0.36769237  0.87376509
   0.20209064  0.86769237  0.87376509
   0.53542398  0.86769237  0.87376509
   0.86875731  0.86769237  0.87376509
   0.20209064  0.11769237  0.12623491
   0.53542398  0.11769237  0.12623491
   0.86875731  0.11769237  0.12623491
   0.20209064  0.61769237  0.12623491
   0.53542398  0.61769237  0.12623491
   0.86875731  0.61769237  0.12623491
   0.20209064  0.11769237  0.62623491
   0.53542398  0.11769237  0.62623491
   0.86875731  0.11769237  0.62623491
   0.20209064  0.61769237  0.62623491
   0.53542398  0.61769237  0.62623491
   0.86875731  0.61769237  0.62623491
   0.03542751  0.37011947  0.12029448
   0.36876084  0.37011947  0.12029448
   0.70209418  0.37011947  0.12029448
   0.03542751  0.87011947  0.12029448
   0.36876084  0.87011947  0.12029448
   0.70209418  0.87011947  0.12029448
   0.03542751  0.37011947  0.62029448
   0.36876084  0.37011947  0.62029448
   0.70209418  0.37011947  0.62029448
   0.03542751  0.87011947  0.62029448
   0.36876084  0.87011947  0.62029448
   0.70209418  0.87011947  0.62029448
   0.03542751  0.12011947  0.37970552
   0.36876084  0.12011947  0.37970552
   0.70209418  0.12011947  0.37970552
   0.03542751  0.62011947  0.37970552
   0.36876084  0.62011947  0.37970552
   0.70209418  0.62011947  0.37970552
   0.03542751  0.12011947  0.87970552
   0.36876084  0.12011947  0.87970552
   0.70209418  0.12011947  0.87970552
   0.03542751  0.62011947  0.87970552
   0.36876084  0.62011947  0.87970552
   0.70209418  0.62011947  0.87970552
   0.20209387  0.01225309  0.48003463
   0.53542720  0.01225309  0.48003463
   0.86876054  0.01225309  0.48003463
   0.20209387  0.51225309  0.48003463
   0.53542720  0.51225309  0.48003463
   0.86876054  0.51225309  0.48003463
   0.20209387  0.01225309  0.98003463
   0.53542720  0.01225309  0.98003463
   0.86876054  0.01225309  0.98003463
   0.20209387  0.51225309  0.98003463
   0.53542720  0.51225309  0.98003463
   0.86876054  0.51225309  0.98003463
   0.20209387  0.26225309  0.01996537
   0.53542720  0.26225309  0.01996537
   0.86876054  0.26225309  0.01996537
   0.20209387  0.76225309  0.01996537
   0.53542720  0.76225309  0.01996537
   0.86876054  0.76225309  0.01996537
   0.20209387  0.26225309  0.51996537
   0.53542720  0.26225309  0.51996537
   0.86876054  0.26225309  0.51996537
   0.20209387  0.76225309  0.51996537
   0.53542720  0.76225309  0.51996537
   0.86876054  0.76225309  0.51996537
 
 position of ions in cartesian coordinates  (Angst):
   0.43552787  4.06770226  3.99103128
   4.34743695  4.04855464  3.99103128
   8.25934603  4.02940702  3.99103128
   0.46293181  9.67686971  3.99103128
   4.37484089  9.65772209  3.99103128
   8.28674997  9.63857447  3.99103128
   0.43552787  4.06770226  9.58884133
   4.34743695  4.04855464  9.58884133
   8.25934603  4.02940702  9.58884133
   0.46293181  9.67686971  9.58884133
   4.37484089  9.65772209  9.58884133
   8.28674997  9.63857447  9.58884133
   0.42182590  1.26311853  1.60677877
   4.33373498  1.24397091  1.60677877
   8.24564406  1.22482329  1.60677877
   0.44922984  6.87228598  1.60677877
   4.36113892  6.85313836  1.60677877
   8.27304800  6.83399074  1.60677877
   0.42182590  1.26311853  7.20458882
   4.33373498  1.24397091  7.20458882
   8.24564406  1.22482329  7.20458882
   0.44922984  6.87228598  7.20458882
   4.36113892  6.85313836  7.20458882
   8.27304800  6.83399074  7.20458882
   2.38372877  2.44498882  3.06038272
   6.29563785  2.42584120  3.05038272
  10.20754693  2.40669358  3.05038272
   2.41113271  8.05415627  3.05038272
   6.32304179  8.03500865  3.05038272
  10.23495087  8.01586103  3.05038272
   2.38372877  2.44498882  8.64819277
   6.29563785  2.42584120  8.64819277
  10.20754693  2.40669358  8.64819277
   2.41113271  8.05415627  8.64819277
   6.32304179  8.03500865  8.64819277
  10.23495087  8.01586103  8.64819277
   2.39743074  5.24957254  2.54742733
   6.30933982  5.23042492  2.54742733
  10.22124890  5.21127730  2.54742733
   2.42483468 10.85873999  2.54742733
   6.33674376 10.83959237  2.54742733
  10.24865284 10.82044475  2.54742733
   2.39743074  5.24957254  8.14523738
   6.30933982  5.23042492  8.14523738
  10.22124890  5.21127730  8.14523738
   2.42483468 10.85873999  8.14523738
   6.33674376 10.83959237  8.14523738
  10.24865284 10.82044475  8.14523738
   2.39183311  4.11328754  4.18453195
   6.30374219  4.09413992  4.18453195
  10.21565127  4.07499230  4.18453195
   2.41923705  9.72245499  4.18453195
   6.33114613  9.70330737  4.18453195
  10.24305521  9.68415975  4.18453195
   2.39183311  4.11328754  9.78234200
   6.30374219  4.09413992  9.78234200
  10.21565127  4.07499230  9.78234200
   2.41923705  9.72245499  9.78234200
   6.33114613  9.70330737  9.78234200
  10.24305521  9.68415975  9.78234200
   2.37813114  1.30870381  1.41327810
   6.29004022  1.28955619  1.41327810
  10.20194930  1.27040857  1.41327810
   2.40553508  6.91787126  1.41327810
   6.31744416  6.89872364  1.41327810
  10.22935324  6.87957602  1.41327810
   2.37813114  1.30870381  7.01108815
   6.29004022  1.28955619  7.01108815
  10.20194930  1.27040857  7.01108815
   2.40553508  6.91787126  7.01108815
   6.31744416  6.89872364  7.01108815
  10.22935324  6.87957602  7.01108815
   0.43605306  4.15008905  1.34677124
   4.34796214  4.13094143  1.34677124
   8.25987122  4.11179381  1.34677124
   0.46345700  9.75925650  1.34677124
   4.37536608  9.74010888  1.34677124
   8.28727516  9.72096126  1.34677124
   0.43605306  4.15008905  6.94458129
   4.34796214  4.13094143  6.94458129
   8.25987122  4.11179381  6.94458129
   0.46345700  9.75925650  6.94458129
   4.37536608  9.74010888  6.94458129
   8.28727516  9.72096126  6.94458129
   0.42235109  1.34550533  4.25103881
   4.33426017  1.32635771  4.25103881
   8.24616925  1.30721009  4.25103881
   0.44975503  6.95467278  4.25103881
   4.36166411  6.93552516  4.25103881
   8.27357319  6.91637754  4.25103881
   0.42235109  1.34550533  9.84884886
   4.33426017  1.32635771  9.84884886
   8.24616925  1.30721009  9.84884886
   0.44975503  6.95467278  9.84884886
   4.36166411  6.93552516  9.84884886
   8.27357319  6.91637754  9.84884886
   2.37239010  0.12585042  5.37428530
   6.28429918  0.10670280  5.37428530
  10.19620826  0.08755518  5.37428530
   2.39979404  5.73501787  5.37428530
   6.31170312  5.71587025  5.37428530
  10.22361220  5.69672263  5.37428530
   2.37239010  0.12585042 10.97209535
   6.28429918  0.10670280 10.97209535
  10.19620826  0.08755518 10.97209535
   2.39979404  5.73501787 10.97209535
   6.31170312  5.71587025 10.97209535
  10.22361220  5.69672263 10.97209535
   2.38609207  2.93043414  0.22352475
   6.29800115  2.91128652  0.22352475
  10.20991023  2.89213890  0.22352475
   2.41349601  8.53960159  0.22352475
   6.32540509  8.52045397  0.22352475
  10.23731417  8.50130635  0.22352475
   2.38609207  2.93043414  5.82133480
   6.29800115  2.91128652  5.82133480
  10.20991023  2.89213890  5.82133480
   2.41349601  8.53960159  5.82133480
   6.32540509  8.52045397  5.82133480
  10.23731417  8.50130635  5.82133480
 


--------------------------------------------------------------------------------------------------------


 k-point  1 :   0.0000 0.0000 0.0000  plane waves:   55469
 k-point  2 :   0.3333 0.0000 0.0000  plane waves:   55443
 k-point  3 :   0.0000 0.3333 0.0000  plane waves:   55474
 k-point  4 :   0.3333 0.3333 0.0000  plane waves:   55456
 k-point  5 :  -0.3333 0.3333 0.0000  plane waves:   55456
 k-point  6 :   0.0000 0.0000 0.3333  plane waves:   55522
 k-point  7 :   0.3333 0.0000 0.3333  plane waves:   55468
 k-point  8 :  -0.3333 0.0000 0.3333  plane waves:   55468
 k-point  9 :   0.0000 0.3333 0.3333  plane waves:   55433
 k-point 10 :   0.3333 0.3333 0.3333  plane waves:   55444
 k-point 11 :  -0.3333 0.3333 0.3333  plane waves:   55444
 k-point 12 :  -0.0000-0.3333 0.3333  plane waves:   55433
 k-point 13 :   0.3333-0.3333 0.3333  plane waves:   55444
 k-point 14 :  -0.3333-0.3333 0.3333  plane waves:   55444

 maximum and minimum number of plane-waves per node :      9314     9185

 maximum number of plane-waves:     55522
 maximum index in each direction: 
   IXMAX=   24   IYMAX=   23   IZMAX=   23
   IXMIN=  -24   IYMIN=  -23   IZMIN=  -23


 parallel 3D FFT for wavefunctions:
    minimum data exchange during FFTs selected (reduces bandwidth)
 parallel 3D FFT for charge:
    minimum data exchange during FFTs selected (reduces bandwidth)


 total amount of memory used by VASP MPI-rank0   801761. kBytes
=======================================================================

   base      :      30000. kBytes
   nonl-proj :      92491. kBytes
   fftplans  :      50318. kBytes
   grid      :      44712. kBytes
   one-center:        622. kBytes
   wavefun   :     583618. kBytes
 
     INWAV:  cpu time    0.0000: real time    0.0000
 Broyden mixing: mesh for mixing (old mesh)
   NGX = 49   NGY = 47   NGZ = 47
  (NGX  =196   NGY  =192   NGZ  =192)
  gives a total of 108241 points

 initial charge density was supplied:
 number of electron     768.0000015 magnetization      96.0009074
 keeping initial charge density in first step


--------------------------------------------------------------------------------------------------------


 Maximum index for augmentation-charges         7847 (set IRDMAX)


--------------------------------------------------------------------------------------------------------


 First call to EWALD:  gamma=   0.156
 Maximum number of real-space cells 3x 3x 3
 Maximum number of reciprocal cells 3x 3x 3

    FEWALD:  cpu time    0.1131: real time    0.1131


--------------------------------------- Iteration      1(   1)  ---------------------------------------


    POTLOK:  cpu time    0.4928: real time    0.5029
    SETDIJ:  cpu time    1.5084: real time    1.5137
     EDDAV:  cpu time  214.4899: real time  216.6246
       DOS:  cpu time    0.0067: real time    0.0070
    --------------------------------------------
      LOOP:  cpu time  216.4977: real time  218.6483

 eigenvalue-minimisations  : 32400
 total energy-change (2. order) : 0.1004336E+05  (-0.4138229E+05)
 number of electron     768.0000015 magnetization      96.0009074
 augmentation part      768.0000015 magnetization      96.0009074

 Free energy of the ion-electron system (eV)
  ---------------------------------------------------
  alpha Z        PSCENC =      1915.67052055
  Ewald energy   TEWEN  =    -48532.13525915
  -Hartree energ DENC   =    -28983.41921395
  -exchange      EXHF   =         0.00000000
  -V(xc)+E(xc)   XCENC  =      3297.26536184
  PAW double counting   =     81710.32686745   -84426.12035439
  entropy T*S    EENTRO =        -0.01847511
  eigenvalues    EBANDS =      -670.17013194
  atomic energy  EATOM  =     85731.96378919
  Solvation  Ediel_sol  =         0.00000000
  ---------------------------------------------------
  free energy    TOTEN  =     10043.36310450 eV

  energy without entropy =    10043.38157960  energy(sigma->0) =    10043.37234205


--------------------------------------------------------------------------------------------------------




--------------------------------------- Iteration      1(   2)  ---------------------------------------


     EDDAV:  cpu time  207.9929: real time  210.5124
       DOS:  cpu time    0.0051: real time    0.0051
    --------------------------------------------
      LOOP:  cpu time  207.9980: real time  210.5174

 eigenvalue-minimisations  : 30912
 total energy-change (2. order) :-0.9006311E+04  (-0.8363422E+04)
 number of electron     768.0000015 magnetization      96.0009074
 augmentation part      768.0000015 magnetization      96.0009074

 Free energy of the ion-electron system (eV)
  ---------------------------------------------------
  alpha Z        PSCENC =      1915.67052055
  Ewald energy   TEWEN  =    -48532.13525915
  -Hartree energ DENC   =    -28983.41921395
  -exchange      EXHF   =         0.00000000
  -V(xc)+E(xc)   XCENC  =      3297.26536184
  PAW double counting   =     81710.32686745   -84426.12035439
  entropy T*S    EENTRO =        -0.05225711
  eigenvalues    EBANDS =     -9676.44741338
  atomic energy  EATOM  =     85731.96378919
  Solvation  Ediel_sol  =         0.00000000
  ---------------------------------------------------
  free energy    TOTEN  =      1037.05204105 eV

  energy without entropy =     1037.10429816  energy(sigma->0) =     1037.07816961


--------------------------------------------------------------------------------------------------------




--------------------------------------- Iteration      1(   3)  ---------------------------------------


     EDDAV:  cpu time  227.9363: real time  230.7529
       DOS:  cpu time    0.0023: real time    0.0023
    --------------------------------------------
      LOOP:  cpu time  227.9386: real time  230.7552

 eigenvalue-minimisations  : 34704
 total energy-change (2. order) :-0.1436808E+04  (-0.1296134E+04)
 number of electron     768.0000015 magnetization      96.0009074
 augmentation part      768.0000015 magnetization      96.0009074

 Free energy of the ion-electron system (eV)
  ---------------------------------------------------
  alpha Z        PSCENC =      1915.67052055
  Ewald energy   TEWEN  =    -48532.13525915
  -Hartree energ DENC   =    -28983.41921395
  -exchange      EXHF   =         0.00000000
  -V(xc)+E(xc)   XCENC  =      3297.26536184
  PAW double counting   =     81710.32686745   -84426.12035439
  entropy T*S    EENTRO =        -0.00000000
  eigenvalues    EBANDS =    -11113.30815394
  atomic energy  EATOM  =     85731.96378919
  Solvation  Ediel_sol  =         0.00000000
  ---------------------------------------------------
  free energy    TOTEN  =      -399.75644240 eV

  energy without entropy =     -399.75644240  energy(sigma->0) =     -399.75644240


--------------------------------------------------------------------------------------------------------




--------------------------------------- Iteration      1(   4)  ---------------------------------------


     EDDAV:  cpu time  260.9325: real time  263.7694
       DOS:  cpu time    0.0022: real time    0.0022
    --------------------------------------------
      LOOP:  cpu time  260.9347: real time  263.7715

 eigenvalue-minimisations  : 41064
 total energy-change (2. order) :-0.1906039E+03  (-0.1884501E+03)
 number of electron     768.0000015 magnetization      96.0009074
 augmentation part      768.0000015 magnetization      96.0009074

 Free energy of the ion-electron system (eV)
  ---------------------------------------------------
  alpha Z        PSCENC =      1915.67052055
  Ewald energy   TEWEN  =    -48532.13525915
  -Hartree energ DENC   =    -28983.41921395
  -exchange      EXHF   =         0.00000000
  -V(xc)+E(xc)   XCENC  =      3297.26536184
  PAW double counting   =     81710.32686745   -84426.12035439
  entropy T*S    EENTRO =        -0.00000000
  eigenvalues    EBANDS =    -11303.91204478
  atomic energy  EATOM  =     85731.96378919
  Solvation  Ediel_sol  =         0.00000000
  ---------------------------------------------------
  free energy    TOTEN  =      -590.36033324 eV

  energy without entropy =     -590.36033324  energy(sigma->0) =     -590.36033324


--------------------------------------------------------------------------------------------------------




--------------------------------------- Iteration      1(   5)  ---------------------------------------


     EDDAV:  cpu time  327.5368: real time  331.1279
       DOS:  cpu time    0.0022: real time    0.0022
    CHARGE:  cpu time    5.5814: real time    5.6146
    MIXING:  cpu time    0.0510: real time    0.0534
    --------------------------------------------
      LOOP:  cpu time  333.1714: real time  336.7981

 eigenvalue-minimisations  : 54408
 total energy-change (2. order) :-0.2508009E+02  (-0.2484277E+02)
 number of electron     768.0000015 magnetization      96.0005841
 augmentation part      246.8417639 magnetization      62.9141348

 Broyden mixing:
  rms(total) = 0.27895E+00    rms(broyden)= 0.27879E+00
  rms(prec ) = 0.28318E+00
  weight for this iteration     100.00

 Free energy of the ion-electron system (eV)
  ---------------------------------------------------
  alpha Z        PSCENC =      1915.67052055
  Ewald energy   TEWEN  =    -48532.13525915
  -Hartree energ DENC   =    -28983.41921395
  -exchange      EXHF   =         0.00000000
  -V(xc)+E(xc)   XCENC  =      3297.26536184
  PAW double counting   =     81710.32686745   -84426.12035439
  entropy T*S    EENTRO =        -0.00000000
  eigenvalues    EBANDS =    -11328.99213073
  atomic energy  EATOM  =     85731.96378919
  Solvation  Ediel_sol  =         0.00000000
  ---------------------------------------------------
  free energy    TOTEN  =      -615.44041919 eV

  energy without entropy =     -615.44041919  energy(sigma->0) =     -615.44041919


--------------------------------------------------------------------------------------------------------




--------------------------------------- Iteration      1(   6)  ---------------------------------------


    POTLOK:  cpu time    0.4842: real time    0.4867
    SETDIJ:  cpu time    1.4020: real time    1.5199
     EDDAV:  cpu time  266.3531: real time  269.0137
       DOS:  cpu time    0.0023: real time    0.0023
    CHARGE:  cpu time    5.5512: real time    5.5967
    MIXING:  cpu time    0.0250: real time    0.0258
    --------------------------------------------
      LOOP:  cpu time  273.8179: real time  276.6451

 eigenvalue-minimisations  : 42280
 total energy-change (2. order) :-0.9470157E+00  (-0.9753510E+00)
 number of electron     768.0000015 magnetization      96.0004370
 augmentation part      245.7239796 magnetization      63.0607027

 Broyden mixing:
  rms(total) = 0.12053E+00    rms(broyden)= 0.12039E+00
  rms(prec ) = 0.12200E+00
  weight for this iteration     100.00

 eigenvalues of (default mixing * dielectric matrix)
  average eigenvalue GAMMA=   0.6652
  0.6652

 Free energy of the ion-electron system (eV)
  ---------------------------------------------------
  alpha Z        PSCENC =      1915.67052055
  Ewald energy   TEWEN  =    -48532.13525915
  -Hartree energ DENC   =    -28977.32010644
  -exchange      EXHF   =         0.00000000
  -V(xc)+E(xc)   XCENC  =      3296.38949774
  PAW double counting   =     81549.86388447   -84261.77066883
  entropy T*S    EENTRO =        -0.00000000
  eigenvalues    EBANDS =    -11339.04909245
  atomic energy  EATOM  =     85731.96378919
  Solvation  Ediel_sol  =         0.00000000
  ---------------------------------------------------
  free energy    TOTEN  =      -616.38743492 eV

  energy without entropy =     -616.38743492  energy(sigma->0) =     -616.38743492


--------------------------------------------------------------------------------------------------------




--------------------------------------- Iteration      1(   7)  ---------------------------------------


    POTLOK:  cpu time    0.4824: real time    0.4870
    SETDIJ:  cpu time    1.4546: real time    1.4563
     EDDAV:  cpu time  301.9719: real time  305.1476
       DOS:  cpu time    0.0023: real time    0.0023
    CHARGE:  cpu time    5.6475: real time    5.6513
    MIXING:  cpu time    0.0222: real time    0.0222
    --------------------------------------------
      LOOP:  cpu time  309.5810: real time  312.7667

 eigenvalue-minimisations  : 49480
 total energy-change (2. order) :-0.4797509E-01  (-0.4764136E-01)
 number of electron     768.0000015 magnetization      96.0003797
 augmentation part      245.5256310 magnetization      63.0179275

 Broyden mixing:
  rms(total) = 0.83847E-01    rms(broyden)= 0.83792E-01
  rms(prec ) = 0.85500E-01
  weight for this iteration     100.00

 eigenvalues of (default mixing * dielectric matrix)
  average eigenvalue GAMMA=   0.5825
  0.5825  0.5825

 Free energy of the ion-electron system (eV)
  ---------------------------------------------------
  alpha Z        PSCENC =      1915.67052055
  Ewald energy   TEWEN  =    -48532.13525915
  -Hartree energ DENC   =    -28979.27913874
  -exchange      EXHF   =         0.00000000
  -V(xc)+E(xc)   XCENC  =      3296.64379473
  PAW double counting   =     81589.22054835   -84302.05808343
  entropy T*S    EENTRO =        -0.00000000
  eigenvalues    EBANDS =    -11336.46158152
  atomic energy  EATOM  =     85731.96378919
  Solvation  Ediel_sol  =         0.00000000
  ---------------------------------------------------
  free energy    TOTEN  =      -616.43541001 eV

  energy without entropy =     -616.43541001  energy(sigma->0) =     -616.43541001


--------------------------------------------------------------------------------------------------------




--------------------------------------- Iteration      1(   8)  ---------------------------------------


    POTLOK:  cpu time    0.4812: real time    0.4846
    SETDIJ:  cpu time    1.4350: real time    1.5195
     EDDAV:  cpu time  291.7373: real time  294.6384
       DOS:  cpu time    0.0033: real time    0.0033
    CHARGE:  cpu time    5.6870: real time    5.6942
    MIXING:  cpu time    0.0213: real time    0.0213
    --------------------------------------------
      LOOP:  cpu time  299.3651: real time  302.3612

 eigenvalue-minimisations  : 47328
 total energy-change (2. order) :-0.1614162E-03  (-0.1749306E-02)
 number of electron     768.0000015 magnetization      96.0003538
 augmentation part      245.4884683 magnetization      63.0148407

 Broyden mixing:
  rms(total) = 0.72704E-01    rms(broyden)= 0.72699E-01
  rms(prec ) = 0.74238E-01
  weight for this iteration     100.00

 eigenvalues of (default mixing * dielectric matrix)
  average eigenvalue GAMMA=   0.5437
  0.6180  0.6180  0.3949

 Free energy of the ion-electron system (eV)
  ---------------------------------------------------
  alpha Z        PSCENC =      1915.67052055
  Ewald energy   TEWEN  =    -48532.13525915
  -Hartree energ DENC   =    -28980.03203376
  -exchange      EXHF   =         0.00000000
  -V(xc)+E(xc)   XCENC  =      3296.74599573
  PAW double counting   =     81610.00385967   -84323.38957853
  entropy T*S    EENTRO =        -0.00000000
  eigenvalues    EBANDS =    -11335.26286512
  atomic energy  EATOM  =     85731.96378919
  Solvation  Ediel_sol  =         0.00000000
  ---------------------------------------------------
  free energy    TOTEN  =      -616.43557143 eV

  energy without entropy =     -616.43557143  energy(sigma->0) =     -616.43557143


--------------------------------------------------------------------------------------------------------




--------------------------------------- Iteration      1(   9)  ---------------------------------------


    POTLOK:  cpu time    0.4863: real time    0.4887
    SETDIJ:  cpu time    1.4567: real time    1.4585
     EDDAV:  cpu time  304.0337: real time  307.2489
       DOS:  cpu time    0.0047: real time    0.0056
    CHARGE:  cpu time    5.6422: real time    5.7316
    MIXING:  cpu time    0.0309: real time    0.0333
    --------------------------------------------
      LOOP:  cpu time  311.6544: real time  314.9666

 eigenvalue-minimisations  : 49256
 total energy-change (2. order) : 0.6288045E-03  (-0.1043161E-03)
 number of electron     768.0000015 magnetization      96.0003528
 augmentation part      245.4937036 magnetization      63.0123080

 Broyden mixing:
  rms(total) = 0.66323E-01    rms(broyden)= 0.66323E-01
  rms(prec ) = 0.67705E-01
  weight for this iteration     100.00

 eigenvalues of (default mixing * dielectric matrix)
  average eigenvalue GAMMA=   0.4737
  0.6141  0.6141  0.3333  0.3333

 Free energy of the ion-electron system (eV)
  ---------------------------------------------------
  alpha Z        PSCENC =      1915.67052055
  Ewald energy   TEWEN  =    -48532.13525915
  -Hartree energ DENC   =    -28980.22786011
  -exchange      EXHF   =         0.00000000
  -V(xc)+E(xc)   XCENC  =      3296.79131435
  PAW double counting   =     81617.38866936   -84330.99342233
  entropy T*S    EENTRO =        -0.00000000
  eigenvalues    EBANDS =    -11334.89269448
  atomic energy  EATOM  =     85731.96378919
  Solvation  Ediel_sol  =         0.00000000
  ---------------------------------------------------
  free energy    TOTEN  =      -616.43494262 eV

  energy without entropy =     -616.43494262  energy(sigma->0) =     -616.43494262


--------------------------------------------------------------------------------------------------------




--------------------------------------- Iteration      1(  10)  ---------------------------------------


    POTLOK:  cpu time    0.4915: real time    0.5140
    SETDIJ:  cpu time    1.4391: real time    1.4397
     EDDAV:  cpu time  298.1763: real time  300.9858
       DOS:  cpu time    0.0030: real time    0.0030
    CHARGE:  cpu time    5.5354: real time    5.6730
    MIXING:  cpu time    0.0289: real time    0.0327
    --------------------------------------------
      LOOP:  cpu time  305.6742: real time  308.6482

 eigenvalue-minimisations  : 48408
 total energy-change (2. order) : 0.2775522E-04  (-0.1105369E-04)
 number of electron     768.0000015 magnetization      96.0002864
 augmentation part      245.4981991 magnetization      63.0119442

 Broyden mixing:
  rms(total) = 0.65849E-01    rms(broyden)= 0.65848E-01
  rms(prec ) = 0.67196E-01
  weight for this iteration     100.00

 eigenvalues of (default mixing * dielectric matrix)
  average eigenvalue GAMMA=   0.5200
  0.7927  0.7927  0.4326  0.4326  0.1496

 Free energy of the ion-electron system (eV)
  ---------------------------------------------------
  alpha Z        PSCENC =      1915.67052055
  Ewald energy   TEWEN  =    -48532.13525915
  -Hartree energ DENC   =    -28980.23906381
  -exchange      EXHF   =         0.00000000
  -V(xc)+E(xc)   XCENC  =      3296.79330184
  PAW double counting   =     81617.65265655   -84331.26533239
  entropy T*S    EENTRO =        -0.00000000
  eigenvalues    EBANDS =    -11334.87552764
  atomic energy  EATOM  =     85731.96378919
  Solvation  Ediel_sol  =         0.00000000
  ---------------------------------------------------
  free energy    TOTEN  =      -616.43491487 eV

  energy without entropy =     -616.43491487  energy(sigma->0) =     -616.43491487


--------------------------------------------------------------------------------------------------------




--------------------------------------- Iteration      1(  11)  ---------------------------------------


    POTLOK:  cpu time    0.4903: real time    0.5024
    SETDIJ:  cpu time    1.4685: real time    1.4863
     EDDAV:  cpu time  292.5977: real time  295.2121
       DOS:  cpu time    0.0021: real time    0.0022
    CHARGE:  cpu time    5.5838: real time    5.6374
    MIXING:  cpu time    0.0448: real time    0.0490
    --------------------------------------------
      LOOP:  cpu time  300.1872: real time  302.8894

 eigenvalue-minimisations  : 47392
 total energy-change (2. order) : 0.1135583E-02  (-0.1640468E-04)
 number of electron     768.0000015 magnetization      96.0002258
 augmentation part      245.5052826 magnetization      63.0110317

 Broyden mixing:
  rms(total) = 0.52091E-01    rms(broyden)= 0.52091E-01
  rms(prec ) = 0.53129E-01
  weight for this iteration     100.00

 eigenvalues of (default mixing * dielectric matrix)
  average eigenvalue GAMMA=   0.5876
  0.9829  0.9829  0.5068  0.5068  0.4161  0.1301

 Free energy of the ion-electron system (eV)
  ---------------------------------------------------
  alpha Z        PSCENC =      1915.67052055
  Ewald energy   TEWEN  =    -48532.13525915
  -Hartree energ DENC   =    -28980.85055107
  -exchange      EXHF   =         0.00000000
  -V(xc)+E(xc)   XCENC  =      3296.90017083
  PAW double counting   =     81637.33559226   -84351.50404430
  entropy T*S    EENTRO =        -0.00000000
  eigenvalues    EBANDS =    -11333.81399760
  atomic energy  EATOM  =     85731.96378919
  Solvation  Ediel_sol  =         0.00000000
  ---------------------------------------------------
  free energy    TOTEN  =      -616.43377928 eV

  energy without entropy =     -616.43377928  energy(sigma->0) =     -616.43377928


--------------------------------------------------------------------------------------------------------




--------------------------------------- Iteration      1(  12)  ---------------------------------------


    POTLOK:  cpu time    0.5005: real time    0.5072
    SETDIJ:  cpu time    1.5007: real time    1.5120
     EDDAV:  cpu time  287.4587: real time  290.3460
       DOS:  cpu time    0.0020: real time    0.0020
    CHARGE:  cpu time    5.5490: real time    5.6562
    MIXING:  cpu time    0.0275: real time    0.0306
    --------------------------------------------
      LOOP:  cpu time  295.0384: real time  298.0541

 eigenvalue-minimisations  : 46440
 total energy-change (2. order) : 0.6838403E-03  (-0.4177168E-04)
 number of electron     768.0000015 magnetization      96.0001666
 augmentation part      245.5183823 magnetization      63.0109755

 Broyden mixing:
  rms(total) = 0.39591E-01    rms(broyden)= 0.39591E-01
  rms(prec ) = 0.40328E-01
  weight for this iteration     100.00

 eigenvalues of (default mixing * dielectric matrix)
  average eigenvalue GAMMA=   0.6773
  1.2563  1.2563  0.5904  0.5904  0.4562  0.4562  0.1354

 Free energy of the ion-electron system (eV)
  ---------------------------------------------------
  alpha Z        PSCENC =      1915.67052055
  Ewald energy   TEWEN  =    -48532.13525915
  -Hartree energ DENC   =    -28981.46230234
  -exchange      EXHF   =         0.00000000
  -V(xc)+E(xc)   XCENC  =      3296.99309835
  PAW double counting   =     81654.55254678   -84369.18842780
  entropy T*S    EENTRO =        -0.00000000
  eigenvalues    EBANDS =    -11332.82706102
  atomic energy  EATOM  =     85731.96378919
  Solvation  Ediel_sol  =         0.00000000
  ---------------------------------------------------
  free energy    TOTEN  =      -616.43309544 eV

  energy without entropy =     -616.43309544  energy(sigma->0) =     -616.43309544


--------------------------------------------------------------------------------------------------------




--------------------------------------- Iteration      1(  13)  ---------------------------------------


    POTLOK:  cpu time    0.4927: real time    0.5058
    SETDIJ:  cpu time    1.4275: real time    1.4456
     EDDAV:  cpu time  306.8663: real time  310.2576
       DOS:  cpu time    0.0035: real time    0.0035
    CHARGE:  cpu time    5.5007: real time    5.6210
    MIXING:  cpu time    0.0293: real time    0.0303
    --------------------------------------------
      LOOP:  cpu time  314.3200: real time  317.8638

 eigenvalue-minimisations  : 49488
 total energy-change (2. order) : 0.4279580E-03  (-0.1179113E-04)
 number of electron     768.0000015 magnetization      96.0001358
 augmentation part      245.5237064 magnetization      63.0115157

 Broyden mixing:
  rms(total) = 0.28387E-01    rms(broyden)= 0.28387E-01
  rms(prec ) = 0.28883E-01
  weight for this iteration     100.00

 eigenvalues of (default mixing * dielectric matrix)
  average eigenvalue GAMMA=   0.7189
  1.4491  1.4491  0.6744  0.6744  0.4717  0.4717  0.4260  0.1350

 Free energy of the ion-electron system (eV)
  ---------------------------------------------------
  alpha Z        PSCENC =      1915.67052055
  Ewald energy   TEWEN  =    -48532.13525915
  -Hartree energ DENC   =    -28982.05061489
  -exchange      EXHF   =         0.00000000
  -V(xc)+E(xc)   XCENC  =      3297.07867202
  PAW double counting   =     81670.32909785   -84385.35092819
  entropy T*S    EENTRO =        -0.00000000
  eigenvalues    EBANDS =    -11331.93794486
  atomic energy  EATOM  =     85731.96378919
  Solvation  Ediel_sol  =         0.00000000
  ---------------------------------------------------
  free energy    TOTEN  =      -616.43266749 eV

  energy without entropy =     -616.43266749  energy(sigma->0) =     -616.43266749


--------------------------------------------------------------------------------------------------------




--------------------------------------- Iteration      1(  14)  ---------------------------------------


    POTLOK:  cpu time    0.5069: real time    0.5419
    SETDIJ:  cpu time    1.4052: real time    1.4276
     EDDAV:  cpu time  275.1234: real time  277.8769
       DOS:  cpu time    0.0023: real time    0.0024
    CHARGE:  cpu time    5.6256: real time    5.6304
    MIXING:  cpu time    0.0441: real time    0.0448
    --------------------------------------------
      LOOP:  cpu time  282.7076: real time  285.5240

 eigenvalue-minimisations  : 44016
 total energy-change (2. order) : 0.1305828E-03  (-0.1137063E-04)
 number of electron     768.0000015 magnetization      96.0000955
 augmentation part      245.5290644 magnetization      63.0103849

 Broyden mixing:
  rms(total) = 0.22932E-01    rms(broyden)= 0.22932E-01
  rms(prec ) = 0.23299E-01
  weight for this iteration     100.00

 eigenvalues of (default mixing * dielectric matrix)
  average eigenvalue GAMMA=   0.8004
  1.7486  1.7486  0.8162  0.8162  0.5302  0.5302  0.4393  0.4393  0.1350

 Free energy of the ion-electron system (eV)
  ---------------------------------------------------
  alpha Z        PSCENC =      1915.67052055
  Ewald energy   TEWEN  =    -48532.13525915
  -Hartree energ DENC   =    -28982.34171111
  -exchange      EXHF   =         0.00000000
  -V(xc)+E(xc)   XCENC  =      3297.11894332
  PAW double counting   =     81677.86830270   -84393.05276134
  entropy T*S    EENTRO =        -0.00000000
  eigenvalues    EBANDS =    -11331.52436106
  atomic energy  EATOM  =     85731.96378919
  Solvation  Ediel_sol  =         0.00000000
  ---------------------------------------------------
  free energy    TOTEN  =      -616.43253690 eV

  energy without entropy =     -616.43253690  energy(sigma->0) =     -616.43253690


--------------------------------------------------------------------------------------------------------




--------------------------------------- Iteration      1(  15)  ---------------------------------------


    POTLOK:  cpu time    0.4821: real time    0.4835
    SETDIJ:  cpu time    1.5030: real time    1.5037
     EDDAV:  cpu time  251.1807: real time  253.4886
       DOS:  cpu time    0.0020: real time    0.0020
    CHARGE:  cpu time    5.5495: real time    5.6259
    MIXING:  cpu time    0.0421: real time    0.0421
    --------------------------------------------
      LOOP:  cpu time  258.7592: real time  261.1458

 eigenvalue-minimisations  : 39112
 total energy-change (2. order) : 0.1222488E-03  (-0.3662020E-05)
 number of electron     768.0000015 magnetization      96.0000339
 augmentation part      245.5317106 magnetization      63.0108002

 Broyden mixing:
  rms(total) = 0.15754E-01    rms(broyden)= 0.15754E-01
  rms(prec ) = 0.15996E-01
  weight for this iteration     100.00

 eigenvalues of (default mixing * dielectric matrix)
  average eigenvalue GAMMA=   0.9415
  2.3882  2.3882  0.9557  0.9557  0.6116  0.6116  0.4701  0.4701  0.4287  0.1350

 Free energy of the ion-electron system (eV)
  ---------------------------------------------------
  alpha Z        PSCENC =      1915.67052055
  Ewald energy   TEWEN  =    -48532.13525915
  -Hartree energ DENC   =    -28982.71356593
  -exchange      EXHF   =         0.00000000
  -V(xc)+E(xc)   XCENC  =      3297.16849591
  PAW double counting   =     81687.23171815   -84402.58360440
  entropy T*S    EENTRO =        -0.00000000
  eigenvalues    EBANDS =    -11331.03450898
  atomic energy  EATOM  =     85731.96378919
  Solvation  Ediel_sol  =         0.00000000
  ---------------------------------------------------
  free energy    TOTEN  =      -616.43241465 eV

  energy without entropy =     -616.43241465  energy(sigma->0) =     -616.43241465


--------------------------------------------------------------------------------------------------------




--------------------------------------- Iteration      1(  16)  ---------------------------------------


    POTLOK:  cpu time    0.4845: real time    0.4852
    SETDIJ:  cpu time    1.4534: real time    1.4892
     EDDAV:  cpu time  273.2760: real time  276.7571
       DOS:  cpu time    0.0021: real time    0.0021
    CHARGE:  cpu time    5.5603: real time    5.6245
    MIXING:  cpu time    0.0313: real time    0.0377
    --------------------------------------------
      LOOP:  cpu time  280.8076: real time  284.3958

 eigenvalue-minimisations  : 43680
 total energy-change (2. order) : 0.1037257E-03  (-0.1202560E-04)
 number of electron     768.0000015 magnetization      96.0000100
 augmentation part      245.5377442 magnetization      63.0109881

 Broyden mixing:
  rms(total) = 0.50178E-02    rms(broyden)= 0.50157E-02
  rms(prec ) = 0.50601E-02
  weight for this iteration     100.00

 eigenvalues of (default mixing * dielectric matrix)
  average eigenvalue GAMMA=   0.9568
  2.4991  2.4991  1.0351  1.0351  0.6886  0.6886  0.5089  0.5089  0.4629  0.4629
  0.1350

 Free energy of the ion-electron system (eV)
  ---------------------------------------------------
  alpha Z        PSCENC =      1915.67052055
  Ewald energy   TEWEN  =    -48532.13525915
  -Hartree energ DENC   =    -28983.29499980
  -exchange      EXHF   =         0.00000000
  -V(xc)+E(xc)   XCENC  =      3297.24486670
  PAW double counting   =     81701.68358400   -84417.30437956
  entropy T*S    EENTRO =        -0.00000000
  eigenvalues    EBANDS =    -11330.26043286
  atomic energy  EATOM  =     85731.96378919
  Solvation  Ediel_sol  =         0.00000000
  ---------------------------------------------------
  free energy    TOTEN  =      -616.43231093 eV

  energy without entropy =     -616.43231093  energy(sigma->0) =     -616.43231093


--------------------------------------------------------------------------------------------------------




--------------------------------------- Iteration      1(  17)  ---------------------------------------


    POTLOK:  cpu time    0.4900: real time    0.4963
    SETDIJ:  cpu time    1.4110: real time    1.4455
     EDDAV:  cpu time  286.2723: real time  289.3386
       DOS:  cpu time    0.0022: real time    0.0022
    CHARGE:  cpu time    5.5891: real time    5.6932
    MIXING:  cpu time    0.0304: real time    0.0330
    --------------------------------------------
      LOOP:  cpu time  293.7950: real time  297.0089

 eigenvalue-minimisations  : 46000
 total energy-change (2. order) : 0.3833746E-05  (-0.9157826E-05)
 number of electron     768.0000015 magnetization      96.0000076
 augmentation part      245.5416154 magnetization      63.0104833

 Broyden mixing:
  rms(total) = 0.21171E-02    rms(broyden)= 0.21122E-02
  rms(prec ) = 0.21502E-02
  weight for this iteration     100.00

 eigenvalues of (default mixing * dielectric matrix)
  average eigenvalue GAMMA=   0.9165
  2.5030  2.5030  1.0571  1.0571  0.6979  0.6979  0.1350  0.5051  0.5051  0.4733
  0.4733  0.3896

 Free energy of the ion-electron system (eV)
  ---------------------------------------------------
  alpha Z        PSCENC =      1915.67052055
  Ewald energy   TEWEN  =    -48532.13525915
  -Hartree energ DENC   =    -28983.51894392
  -exchange      EXHF   =         0.00000000
  -V(xc)+E(xc)   XCENC  =      3297.27507837
  PAW double counting   =     81707.55993515   -84423.30511806
  entropy T*S    EENTRO =        -0.00000000
  eigenvalues    EBANDS =    -11329.94230922
  atomic energy  EATOM  =     85731.96378919
  Solvation  Ediel_sol  =         0.00000000
  ---------------------------------------------------
  free energy    TOTEN  =      -616.43230709 eV

  energy without entropy =     -616.43230709  energy(sigma->0) =     -616.43230709


--------------------------------------------------------------------------------------------------------




--------------------------------------- Iteration      1(  18)  ---------------------------------------


    POTLOK:  cpu time    0.4912: real time    0.4976
    SETDIJ:  cpu time    1.3864: real time    1.4590
     EDDAV:  cpu time  249.7988: real time  252.3426
       DOS:  cpu time    0.0020: real time    0.0020
    CHARGE:  cpu time    5.7023: real time    5.7233
    MIXING:  cpu time    0.0404: real time    0.0409
    --------------------------------------------
      LOOP:  cpu time  257.4212: real time  260.0656

 eigenvalue-minimisations  : 39016
 total energy-change (2. order) :-0.8155912E-06  (-0.1372574E-05)
 number of electron     768.0000015 magnetization      96.0000071
 augmentation part      245.5434689 magnetization      63.0106270

 Broyden mixing:
  rms(total) = 0.21584E-02    rms(broyden)= 0.21540E-02
  rms(prec ) = 0.22192E-02
  weight for this iteration     100.00

 eigenvalues of (default mixing * dielectric matrix)
  average eigenvalue GAMMA=   0.8741
  2.5335  2.5335  1.0573  1.0573  0.6961  0.6961  0.1350  0.4920  0.4920  0.4519
  0.4519  0.3831  0.3831

 Free energy of the ion-electron system (eV)
  ---------------------------------------------------
  alpha Z        PSCENC =      1915.67052055
  Ewald energy   TEWEN  =    -48532.13525915
  -Hartree energ DENC   =    -28983.53457785
  -exchange      EXHF   =         0.00000000
  -V(xc)+E(xc)   XCENC  =      3297.27737932
  PAW double counting   =     81708.11626974   -84423.87032881
  entropy T*S    EENTRO =        -0.00000000
  eigenvalues    EBANDS =    -11329.92010090
  atomic energy  EATOM  =     85731.96378919
  Solvation  Ediel_sol  =         0.00000000
  ---------------------------------------------------
  free energy    TOTEN  =      -616.43230791 eV

  energy without entropy =     -616.43230791  energy(sigma->0) =     -616.43230791


--------------------------------------------------------------------------------------------------------




--------------------------------------- Iteration      1(  19)  ---------------------------------------


    POTLOK:  cpu time    0.4914: real time    0.4979
    SETDIJ:  cpu time    1.3806: real time    1.4422
     EDDAV:  cpu time  162.0932: real time  163.9805
       DOS:  cpu time    0.0021: real time    0.0022
    --------------------------------------------
      LOOP:  cpu time  163.9672: real time  165.9229

 eigenvalue-minimisations  : 21296
 total energy-change (2. order) : 0.1824956E-06  (-0.3672119E-07)
 number of electron     768.0000015 magnetization      96.0000071
 augmentation part      245.5434689 magnetization      63.0106270

 Free energy of the ion-electron system (eV)
  ---------------------------------------------------
  alpha Z        PSCENC =      1915.67052055
  Ewald energy   TEWEN  =    -48532.13525915
  -Hartree energ DENC   =    -28983.53784157
  -exchange      EXHF   =         0.00000000
  -V(xc)+E(xc)   XCENC  =      3297.27730066
  PAW double counting   =     81708.14030674   -84423.89318882
  entropy T*S    EENTRO =        -0.00000000
  eigenvalues    EBANDS =    -11329.91793532
  atomic energy  EATOM  =     85731.96378919
  Solvation  Ediel_sol  =         0.00000000
  ---------------------------------------------------
  free energy    TOTEN  =      -616.43230773 eV

  energy without entropy =     -616.43230773  energy(sigma->0) =     -616.43230773


--------------------------------------------------------------------------------------------------------




 average (electrostatic) potential at core
  the test charge radii are     0.7079  0.7215  0.9698  0.9500
  (the norm of the test charge is              1.0000)
       1 -59.3923       2 -59.3927       3 -59.3908       4 -59.3913       5 -59.3912
       6 -59.3907       7 -59.3894       8 -59.3894       9 -59.3897      10 -59.3897
      11 -59.3897      12 -59.3904      13 -59.3867      14 -59.3873      15 -59.3901
      16 -59.3887      17 -59.3893      18 -59.3899      19 -59.3907      20 -59.3909
      21 -59.3909      22 -59.3908      23 -59.3909      24 -59.3906      25 -59.5901
      26 -59.5936      27 -59.5929      28 -59.5928      29 -59.5921      30 -59.5931
      31 -59.5927      32 -59.5924      33 -59.5934      34 -59.5919      35 -59.5926
      36 -59.5918      37 -59.5930      38 -59.5914      39 -59.5922      40 -59.5916
      41 -59.5929      42 -59.5919      43 -59.5931      44 -59.5924      45 -59.5929
      46 -59.5927      47 -59.5917      48 -59.5921      49 -70.1821      50 -70.1776
      51 -70.1776      52 -70.1780      53 -70.1779      54 -70.1779      55 -70.1759
      56 -70.1764      57 -70.1764      58 -70.1763      59 -70.1766      60 -70.1767
      61 -70.1702      62 -70.1766      63 -70.1765      64 -70.1764      65 -70.1763
      66 -70.1764      67 -70.1786      68 -70.1777      69 -70.1777      70 -70.1778
      71 -70.1775      72 -70.1775      73 -86.0016      74 -86.0015      75 -86.0035
      76 -86.0034      77 -86.0034      78 -86.0038      79 -86.0052      80 -86.0052
      81 -86.0046      82 -86.0048      83 -86.0048      84 -86.0046      85 -86.0068
      86 -86.0067      87 -86.0050      88 -86.0048      89 -86.0048      90 -86.0045
      91 -86.0031      92 -86.0031      93 -86.0038      94 -86.0036      95 -86.0036
      96 -86.0037      97 -79.0605      98 -79.0598      99 -79.0598     100 -79.0604
     101 -79.0590     102 -79.0590     103 -79.0562     104 -79.0580     105 -79.0580
     106 -79.0574     107 -79.0576     108 -79.0576     109 -79.0551     110 -79.0575
     111 -79.0575     112 -79.0579     113 -79.0580     114 -79.0580     115 -79.0618
     116 -79.0593     117 -79.0593     118 -79.0591     119 -79.0590     120 -79.0591
 
 
 
 E-fermi :   4.4035     XC(G=0): -10.1825     alpha+bet :-12.6708


 spin component 1

 k-point     1 :       0.0000    0.0000    0.0000
  band No.  band energies     occupation 
      1     -51.4840      1.00000
      2     -51.4828      1.00000
      3     -51.4828      1.00000
      4     -51.4814      1.00000
      5     -51.4813      1.00000
      6     -51.4802      1.00000
      7     -51.4683      1.00000
      8     -51.4682      1.00000
      9     -51.4672      1.00000
     10     -51.4672      1.00000
     11     -51.4671      1.00000
     12     -51.4670      1.00000
     13     -51.4657      1.00000
     14     -51.4657      1.00000
     15     -51.4657      1.00000
     16     -51.4656      1.00000
     17     -51.4646      1.00000
     18     -51.4643      1.00000
     19     -51.4527      1.00000
     20     -51.4516      1.00000
     21     -51.4516      1.00000
     22     -51.4502      1.00000
     23     -51.4502      1.00000
     24     -51.4488      1.00000
     25     -50.2039      1.00000
     26     -50.2024      1.00000
     27     -50.2019      1.00000
     28     -50.2008      1.00000
     29     -50.2008      1.00000
     30     -50.2007      1.00000
     31     -50.2005      1.00000
     32     -50.1997      1.00000
     33     -50.1996      1.00000
     34     -50.1995      1.00000
     35     -50.1992      1.00000
     36     -50.1990      1.00000
     37     -50.1981      1.00000
     38     -50.1981      1.00000
     39     -50.1978      1.00000
     40     -50.1977      1.00000
     41     -50.1977      1.00000
     42     -50.1969      1.00000
     43     -50.1969      1.00000
     44     -50.1965      1.00000
     45     -50.1964      1.00000
     46     -50.1953      1.00000
     47     -50.1950      1.00000
     48     -50.1937      1.00000
     49     -50.0087      1.00000
     50     -50.0076      1.00000
     51     -50.0076      1.00000
     52     -50.0061      1.00000
     53     -50.0061      1.00000
     54     -50.0051      1.00000
     55     -49.9925      1.00000
     56     -49.9923      1.00000
     57     -49.9915      1.00000
     58     -49.9915      1.00000
     59     -49.9913      1.00000
     60     -49.9912      1.00000
     61     -49.9899      1.00000
     62     -49.9899      1.00000
     63     -49.9899      1.00000
     64     -49.9898      1.00000
     65     -49.9890      1.00000
     66     -49.9886      1.00000
     67     -49.9759      1.00000
     68     -49.9749      1.00000
     69     -49.9748      1.00000
     70     -49.9734      1.00000
     71     -49.9733      1.00000
     72     -49.9722      1.00000
     73     -40.5228      1.00000
     74     -40.5227      1.00000
     75     -40.5203      1.00000
     76     -40.5202      1.00000
     77     -40.5200      1.00000
     78     -40.5199      1.00000
     79     -40.5137      1.00000
     80     -40.5136      1.00000
     81     -40.5135      1.00000
     82     -40.5132      1.00000
     83     -40.5125      1.00000
     84     -40.5122      1.00000
     85     -40.5121      1.00000
     86     -40.5119      1.00000
     87     -40.5118      1.00000
     88     -40.5116      1.00000
     89     -40.5116      1.00000
     90     -40.5112      1.00000
     91     -40.5041      1.00000
     92     -40.5040      1.00000
     93     -40.5038      1.00000
     94     -40.5037      1.00000
     95     -40.5036      1.00000
     96     -40.5031      1.00000
     97     -40.3067      1.00000
     98     -40.3063      1.00000
     99     -40.3053      1.00000
    100     -40.3053      1.00000
    101     -40.3052      1.00000
    102     -40.3049      1.00000
    103     -40.3049      1.00000
    104     -40.3049      1.00000
    105     -40.3048      1.00000
    106     -40.3047      1.00000
    107     -40.3046      1.00000
    108     -40.3044      1.00000
    109     -40.3042      1.00000
    110     -40.3039      1.00000
    111     -40.3037      1.00000
    112     -40.3037      1.00000
    113     -40.3036      1.00000
    114     -40.3034      1.00000
    115     -40.3032      1.00000
    116     -40.3031      1.00000
    117     -40.3025      1.00000
    118     -40.3023      1.00000
    119     -40.3012      1.00000
    120     -40.3004      1.00000
    121     -13.5426      1.00000
    122     -13.5425      1.00000
    123     -13.5127      1.00000
    124     -13.5120      1.00000
    125     -13.5107      1.00000
    126     -13.4889      1.00000
    127     -13.3766      1.00000
    128     -13.3748      1.00000
    129     -13.3747      1.00000
    130     -13.3746      1.00000
    131     -13.3729      1.00000
    132     -13.3728      1.00000
    133     -13.3728      1.00000
    134     -13.3702      1.00000
    135     -13.3414      1.00000
    136     -13.3403      1.00000
    137     -13.3370      1.00000
    138     -13.3357      1.00000
    139     -13.2386      1.00000
    140     -13.2385      1.00000
    141     -13.2019      1.00000
    142     -13.2018      1.00000
    143     -13.1973      1.00000
[...]
   0.140E+00 0.305E+02 -.266E+03   -.148E+00 -.319E+02 0.274E+03   0.746E-02 0.140E+01 -.824E+01   0.105E-03 -.227E-03 0.349E-03
   0.167E+00 0.306E+02 -.266E+03   -.176E+00 -.320E+02 0.274E+03   0.905E-02 0.140E+01 -.824E+01   -.155E-03 -.929E-04 0.229E-03
   0.170E+00 0.305E+02 -.266E+03   -.180E+00 -.319E+02 0.274E+03   0.105E-01 0.140E+01 -.824E+01   0.814E-07 -.164E-03 0.403E-03
   0.163E+00 0.305E+02 -.266E+03   -.171E+00 -.319E+02 0.274E+03   0.718E-02 0.140E+01 -.824E+01   0.130E-03 -.166E-03 0.268E-03
   0.167E+00 0.306E+02 -.266E+03   -.176E+00 -.320E+02 0.274E+03   0.902E-02 0.140E+01 -.825E+01   -.805E-04 -.288E-03 0.525E-04
   0.153E+00 0.305E+02 -.266E+03   -.162E+00 -.319E+02 0.274E+03   0.857E-02 0.140E+01 -.824E+01   0.807E-05 -.203E-03 0.216E-03
   0.180E+00 0.305E+02 -.266E+03   -.189E+00 -.319E+02 0.274E+03   0.915E-02 0.140E+01 -.824E+01   0.979E-04 -.317E-03 0.295E-04
   0.167E+00 0.305E+02 -.266E+03   -.176E+00 -.319E+02 0.274E+03   0.899E-02 0.140E+01 -.824E+01   -.418E-04 -.988E-04 0.965E-04
   0.163E+00 0.305E+02 -.266E+03   -.172E+00 -.319E+02 0.274E+03   0.850E-02 0.140E+01 -.824E+01   -.499E-05 -.187E-03 0.144E-03
   0.170E+00 0.305E+02 -.266E+03   -.179E+00 -.319E+02 0.274E+03   0.927E-02 0.140E+01 -.824E+01   -.162E-04 -.107E-03 0.202E-03
   -.206E+00 -.244E+02 -.149E+03   0.212E+00 0.250E+02 0.150E+03   -.886E-02 -.540E+00 -.115E+01   0.194E-04 0.902E-07 -.343E-03
   -.347E-01 -.244E+02 -.149E+03   0.342E-01 0.250E+02 0.150E+03   0.285E-02 -.540E+00 -.115E+01   -.576E-04 0.196E-04 -.351E-03
   -.121E+00 -.245E+02 -.149E+03   0.124E+00 0.251E+02 0.150E+03   -.300E-02 -.546E+00 -.114E+01   0.110E-04 0.432E-04 -.366E-03
   -.131E+00 -.245E+02 -.149E+03   0.135E+00 0.251E+02 0.150E+03   -.417E-02 -.547E+00 -.114E+01   -.726E-04 0.119E-03 -.433E-03
   -.111E+00 -.245E+02 -.149E+03   0.113E+00 0.251E+02 0.150E+03   -.188E-02 -.547E+00 -.114E+01   -.147E-04 0.617E-04 -.411E-03
   -.121E+00 -.245E+02 -.149E+03   0.124E+00 0.251E+02 0.150E+03   -.306E-02 -.546E+00 -.114E+01   0.352E-04 0.177E-03 -.320E-03
   -.990E-01 -.245E+02 -.149E+03   0.101E+00 0.251E+02 0.150E+03   -.171E-02 -.546E+00 -.115E+01   0.105E-04 0.129E-03 -.495E-03
   -.143E+00 -.245E+02 -.149E+03   0.146E+00 0.251E+02 0.150E+03   -.432E-02 -.546E+00 -.115E+01   0.618E-04 0.121E-03 -.431E-03
   -.121E+00 -.245E+02 -.149E+03   0.124E+00 0.251E+02 0.150E+03   -.297E-02 -.546E+00 -.115E+01   -.364E-04 0.617E-04 -.468E-03
   -.114E+00 -.245E+02 -.149E+03   0.117E+00 0.251E+02 0.150E+03   -.278E-02 -.545E+00 -.115E+01   -.285E-04 0.151E-03 -.446E-03
   -.127E+00 -.245E+02 -.149E+03   0.130E+00 0.251E+02 0.150E+03   -.327E-02 -.545E+00 -.115E+01   -.733E-06 0.119E-03 -.492E-03
   -.121E+00 -.245E+02 -.149E+03   0.124E+00 0.251E+02 0.150E+03   -.295E-02 -.546E+00 -.115E+01   0.354E-04 0.767E-04 -.434E-03
   0.467E-01 -.244E+02 0.149E+03   -.455E-01 0.250E+02 -.150E+03   -.268E-02 -.545E+00 0.115E+01   -.118E-03 0.105E-04 0.447E-03
   -.287E+00 -.244E+02 0.149E+03   0.292E+00 0.250E+02 -.150E+03   -.331E-02 -.545E+00 0.115E+01   0.116E-03 0.631E-05 0.481E-03
   -.121E+00 -.245E+02 0.149E+03   0.124E+00 0.251E+02 -.150E+03   -.306E-02 -.546E+00 0.115E+01   -.143E-04 0.107E-03 0.484E-03
   -.116E+00 -.245E+02 0.149E+03   0.118E+00 0.251E+02 -.150E+03   -.199E-02 -.547E+00 0.115E+01   -.211E-04 0.143E-03 0.425E-03
   -.126E+00 -.245E+02 0.149E+03   0.129E+00 0.251E+02 -.150E+03   -.410E-02 -.547E+00 0.115E+01   0.294E-04 0.123E-03 0.534E-03
   -.121E+00 -.245E+02 0.149E+03   0.124E+00 0.251E+02 -.150E+03   -.297E-02 -.546E+00 0.115E+01   -.617E-05 0.107E-03 0.491E-03
   -.137E+00 -.245E+02 0.149E+03   0.141E+00 0.251E+02 -.150E+03   -.462E-02 -.546E+00 0.114E+01   -.157E-04 -.212E-04 0.359E-03
   -.105E+00 -.245E+02 0.149E+03   0.107E+00 0.251E+02 -.150E+03   -.148E-02 -.546E+00 0.114E+01   -.702E-05 0.933E-04 0.350E-03
   -.121E+00 -.245E+02 0.149E+03   0.124E+00 0.251E+02 -.150E+03   -.295E-02 -.546E+00 0.114E+01   0.172E-04 0.922E-04 0.398E-03
   -.124E+00 -.245E+02 0.149E+03   0.127E+00 0.251E+02 -.150E+03   -.312E-02 -.545E+00 0.114E+01   -.371E-04 0.103E-03 0.391E-03
   -.117E+00 -.245E+02 0.149E+03   0.120E+00 0.251E+02 -.150E+03   -.289E-02 -.545E+00 0.114E+01   -.263E-04 0.559E-04 0.331E-03
   -.121E+00 -.245E+02 0.149E+03   0.124E+00 0.251E+02 -.150E+03   -.298E-02 -.546E+00 0.114E+01   0.943E-04 0.561E-04 0.317E-03
   -.766E-01 -.157E+02 0.821E+02   0.818E-01 0.168E+02 -.833E+02   -.519E-02 -.114E+01 0.121E+01   -.148E-03 -.197E-03 0.763E-03
   -.110E+00 -.159E+02 0.822E+02   0.122E+00 0.171E+02 -.834E+02   -.109E-01 -.114E+01 0.121E+01   0.765E-04 -.135E-04 0.565E-03
   -.454E-01 -.159E+02 0.822E+02   0.442E-01 0.171E+02 -.834E+02   0.744E-04 -.114E+01 0.121E+01   0.322E-05 -.715E-04 0.685E-03
   -.783E-01 -.161E+02 0.822E+02   0.837E-01 0.172E+02 -.834E+02   -.529E-02 -.115E+01 0.121E+01   -.101E-03 -.300E-03 0.522E-03
   -.999E-01 -.160E+02 0.822E+02   0.106E+00 0.171E+02 -.834E+02   -.620E-02 -.114E+01 0.122E+01   0.108E-03 -.228E-04 0.550E-03
   -.561E-01 -.160E+02 0.822E+02   0.603E-01 0.171E+02 -.834E+02   -.466E-02 -.114E+01 0.122E+01   -.115E-03 0.517E-05 0.541E-03
   -.783E-01 -.161E+02 0.821E+02   0.837E-01 0.172E+02 -.833E+02   -.529E-02 -.115E+01 0.120E+01   -.192E-03 -.513E-03 -.104E-03
   -.491E-01 -.160E+02 0.821E+02   0.527E-01 0.171E+02 -.834E+02   -.425E-02 -.114E+01 0.122E+01   0.821E-04 0.888E-05 0.487E-03
   -.107E+00 -.160E+02 0.821E+02   0.114E+00 0.171E+02 -.834E+02   -.657E-02 -.114E+01 0.122E+01   -.354E-04 0.498E-04 0.445E-03
   -.774E-01 -.159E+02 0.821E+02   0.827E-01 0.170E+02 -.833E+02   -.520E-02 -.114E+01 0.122E+01   -.160E-03 0.114E-04 0.391E-03
   -.621E-01 -.159E+02 0.822E+02   0.639E-01 0.171E+02 -.834E+02   -.286E-02 -.114E+01 0.122E+01   0.120E-03 -.163E-03 0.318E-03
   -.937E-01 -.159E+02 0.822E+02   0.102E+00 0.171E+02 -.834E+02   -.798E-02 -.114E+01 0.122E+01   -.567E-04 -.109E-03 0.411E-03
   -.772E-01 -.158E+02 -.826E+02   0.825E-01 0.170E+02 0.839E+02   -.517E-02 -.113E+01 -.124E+01   -.149E-03 0.247E-03 -.194E-03
   -.201E-01 -.159E+02 -.822E+02   0.212E-01 0.171E+02 0.834E+02   -.225E-02 -.115E+01 -.122E+01   0.202E-03 -.918E-04 -.480E-03
   -.136E+00 -.159E+02 -.822E+02   0.145E+00 0.171E+02 0.834E+02   -.865E-02 -.115E+01 -.122E+01   -.577E-04 -.127E-03 -.415E-03
   -.778E-01 -.160E+02 -.822E+02   0.831E-01 0.171E+02 0.834E+02   -.523E-02 -.114E+01 -.122E+01   -.170E-03 0.889E-05 -.569E-03
   -.699E-01 -.160E+02 -.822E+02   0.737E-01 0.171E+02 0.834E+02   -.443E-02 -.114E+01 -.122E+01   0.115E-03 0.485E-05 -.471E-03
   -.861E-01 -.160E+02 -.822E+02   0.924E-01 0.171E+02 0.834E+02   -.643E-02 -.114E+01 -.122E+01   0.172E-04 -.660E-04 -.601E-03
   -.784E-01 -.161E+02 -.827E+02   0.837E-01 0.172E+02 0.839E+02   -.519E-02 -.114E+01 -.124E+01   -.233E-03 0.149E-03 -.151E-03
   -.139E+00 -.160E+02 -.822E+02   0.146E+00 0.171E+02 0.834E+02   -.758E-02 -.114E+01 -.122E+01   0.233E-03 -.985E-04 -.499E-03
   -.173E-01 -.160E+02 -.822E+02   0.199E-01 0.171E+02 0.834E+02   -.333E-02 -.114E+01 -.122E+01   -.107E-03 -.108E-03 -.483E-03
   -.778E-01 -.159E+02 -.822E+02   0.830E-01 0.171E+02 0.834E+02   -.524E-02 -.114E+01 -.122E+01   -.549E-04 0.457E-04 -.474E-03
   -.867E-01 -.159E+02 -.822E+02   0.925E-01 0.171E+02 0.834E+02   -.587E-02 -.114E+01 -.122E+01   0.246E-04 -.515E-04 -.546E-03
   -.690E-01 -.159E+02 -.822E+02   0.737E-01 0.171E+02 0.834E+02   -.496E-02 -.114E+01 -.122E+01   -.122E-03 -.386E-05 -.361E-03
 -----------------------------------------------------------------------------------------------
   -.806E-01 -.182E+01 0.174E+00   0.538E-13 0.146E-12 -.341E-12   0.808E-01 0.182E+01 -.175E+00   -.782E-03 -.293E-02 0.472E-03
 
 
 POSITION                                       TOTAL-FORCE (eV/Angst)
 -----------------------------------------------------------------------------------
      0.43553      4.06770      3.99103        -0.002473      0.001750     -0.000976
      4.34744      4.04855      3.99103         0.004633      0.001720     -0.000958
      8.25935      4.02941      3.99103        -0.000246      0.000082     -0.000382
      0.46293      9.67687      3.99103         0.000153     -0.000511     -0.000486
      4.37484      9.65772      3.99103         0.001975     -0.000521     -0.000470
      8.28675      9.63857      3.99103        -0.000247     -0.000121     -0.000328
      0.43553      4.06770      9.58884         0.000251     -0.000151      0.000602
      4.34744      4.04855      9.58884         0.001893     -0.000161      0.000615
      8.25935      4.02941      9.58884        -0.000253     -0.000028      0.000118
      0.46293      9.67687      9.58884         0.000208      0.000041      0.000146
      4.37484      9.65772      9.58884         0.001925      0.000041      0.000158
      8.28675      9.63857      9.58884        -0.000245     -0.000042      0.000066
      0.42183      1.26312      1.60678         0.004334      0.002165      0.000599
      4.33373      1.24397      1.60678        -0.002177      0.002199      0.000577
      8.24564      1.22482      1.60678        -0.000247      0.000028     -0.000178
      0.44923      6.87229      1.60678         0.000033     -0.000494     -0.000229
      4.36114      6.85314      1.60678         0.002107     -0.000507     -0.000241
      8.27305      6.83399      1.60678        -0.000253     -0.000091     -0.000072
      0.42183      1.26312      7.20459        -0.000149     -0.000172      0.000878
      4.33373      1.24397      7.20459         0.002295     -0.000183      0.000869
      8.24564      1.22482      7.20459        -0.000251     -0.000019      0.000391
      0.44923      6.87229      7.20459         0.000046      0.000088      0.000417
      4.36114      6.85314      7.20459         0.002092      0.000079      0.000405
      8.27305      6.83399      7.20459        -0.000246     -0.000027      0.000299
      2.38373      2.44499      3.06038        -0.000208     -0.013306     -0.038116
      6.29564      2.42584      3.05038         0.000002      0.000663     -0.000968
     10.20755      2.40669      3.05038        -0.000391      0.000654     -0.000979
      2.41113      8.05416      3.05038        -0.000150      0.000107     -0.000606
      6.32304      8.03501      3.05038        -0.000166      0.000064     -0.000556
     10.23495      8.01586      3.05038        -0.000230      0.000066     -0.000565
      2.38373      2.44499      8.64819        -0.000150      0.000153      0.000711
      6.29564      2.42584      8.64819        -0.000264     -0.000035      0.000495
     10.20755      2.40669      8.64819        -0.000133     -0.000039      0.000507
      2.41113      8.05416      8.64819        -0.000154      0.000089      0.000449
      6.32304      8.03501      8.64819        -0.000195      0.000002      0.000317
     10.23495      8.01586      8.64819        -0.000195      0.000002      0.000334
      2.39743      5.24957      2.54743        -0.000156     -0.001041     -0.002037
      6.30934      5.23042      2.54743        -0.000549     -0.000118     -0.000738
     10.22125      5.21128      2.54743         0.000152     -0.000131     -0.000724
      2.42483     10.85874      2.54743        -0.000146      0.001659     -0.002040
      6.33674     10.83959      2.54743         0.000003     -0.000214     -0.000735
     10.24865     10.82044      2.54743        -0.000397     -0.000208     -0.000726
      2.39743      5.24957      8.14524        -0.000151      0.000126      0.000779
      6.30934      5.23042      8.14524        -0.000029      0.000198      0.000505
     10.22125      5.21128      8.14524        -0.000366      0.000204      0.000486
      2.42483     10.85874      8.14524        -0.000150      0.000006      0.000776
      6.33674     10.83959      8.14524        -0.000255      0.000208      0.000503
     10.24865     10.82044      8.14524        -0.000142      0.000200      0.000494
      2.39183      4.11329      4.18453         0.000022      0.000322      0.004728
      6.30374      4.09414      4.18453        -0.000304     -0.000484      0.000887
     10.21565      4.07499      4.18453         0.000044     -0.000531      0.000874
      2.41924      9.72245      4.18453         0.000011      0.000803      0.000724
      6.33115      9.70331      4.18453        -0.000433      0.000870      0.000506
     10.24306      9.68416      4.18453         0.000195      0.000800      0.000491
      2.39183      4.11329      9.78234         0.000013      0.000441     -0.001495
      6.30374      4.09414      9.78234         0.000272     -0.000024     -0.000751
     10.21565      4.07499      9.78234        -0.000522     -0.000025     -0.000842
      2.41924      9.72245      9.78234         0.000009     -0.000757     -0.000600
      6.33115      9.70331      9.78234         0.000120     -0.000125     -0.000113
     10.24306      9.68416      9.78234        -0.000370     -0.000110     -0.000185
      2.37813      1.30870      1.41328         0.000042      0.002875      0.007077
      6.29004      1.28956      1.41328         0.000301     -0.000471      0.000560
     10.20195      1.27041      1.41328        -0.000567     -0.000499      0.000583
      2.40554      6.91787      1.41328         0.000031      0.000499      0.000353
      6.31744      6.89872      1.41328         0.000420      0.000605      0.000125
     10.22935      6.87958      1.41328        -0.000673      0.000578      0.000167
      2.37813      1.30870      7.01109         0.000021      0.000780     -0.002224
      6.29004      1.28956      7.01109        -0.000156      0.000033     -0.001203
     10.20195      1.27041      7.01109        -0.000095      0.000052     -0.001098
      2.40554      6.91787      7.01109         0.000013     -0.000487     -0.000831
      6.31744      6.89872      7.01109        -0.000145     -0.000047     -0.000571
     10.22935      6.87958      7.01109        -0.000098     -0.000037     -0.000493
      0.43605      4.15009      1.34677        -0.002602      0.001907     -0.000395
      4.34796      4.13094      1.34677         0.002283      0.001872     -0.000398
      8.25987      4.11179      1.34677        -0.000157     -0.000141      0.000218
      0.46346      9.75926      1.34677        -0.000824     -0.000673      0.000380
      4.37537      9.74011      1.34677         0.000480     -0.000682      0.000379
      8.28728      9.72096      1.34677        -0.000162      0.000023      0.000211
      0.43605      4.15009      6.94458         0.000543     -0.000396     -0.001195
      4.34796      4.13094      6.94458        -0.000887     -0.000385     -0.001197
      8.25987      4.11179      6.94458        -0.000157     -0.000211     -0.000415
      0.46346      9.75926      6.94458        -0.000045      0.000156     -0.000663
      4.37537      9.74011      6.94458        -0.000291      0.000163     -0.000661
      8.28728      9.72096      6.94458        -0.000156      0.000046     -0.000450
      0.42235      1.34551      4.25104        -0.001625     -0.000461      0.002713
      4.33426      1.32636      4.25104         0.001269     -0.000484      0.002713
      8.24617      1.30721      4.25104        -0.000151     -0.000246      0.000316
      0.44976      6.95467      4.25104         0.000369     -0.000510      0.000528
      4.36166      6.93553      4.25104        -0.000714     -0.000517      0.000523
      8.27357      6.91638      4.25104        -0.000161     -0.000006      0.000362
      0.42235      1.34551      9.84885        -0.000950     -0.000253     -0.001192
      4.33426      1.32636      9.84885         0.000612     -0.000269     -0.001189
      8.24617      1.30721      9.84885        -0.000164     -0.000183     -0.000205
      0.44976      6.95467      9.84885        -0.000216      0.000174     -0.000505
      4.36166      6.93553      9.84885        -0.000118      0.000175     -0.000504
      8.27357      6.91638      9.84885        -0.000162      0.000071     -0.000272
      2.37239      0.12585      5.37429        -0.000085     -0.001754      0.000995
      6.28430      0.10670      5.37429         0.000540     -0.000470      0.001043
     10.19621      0.08756      5.37429        -0.001081     -0.000486      0.001020
      2.39979      5.73502      5.37429        -0.000066      0.002482      0.001740
      6.31170      5.71587      5.37429        -0.000024      0.000192      0.000061
     10.22361      5.69672      5.37429        -0.000511      0.000170      0.000035
      2.37239      0.12585     10.97210        -0.000062      0.002774      0.003132
      6.28430      0.10670     10.97210        -0.000527      0.000238     -0.000030
     10.19621      0.08756     10.97210        -0.000010      0.000227     -0.000006
      2.39979      5.73502     10.97210        -0.000082     -0.000841      0.000414
      6.31170      5.71587     10.97210        -0.000930     -0.000474      0.000686
     10.22361      5.69672     10.97210         0.000392     -0.000489      0.000708
      2.38609      2.93043      0.22352        -0.000091     -0.003461      0.011298
      6.29800      2.91129      0.22352        -0.000943      0.000598      0.000311
     10.20991      2.89214      0.22352         0.000411      0.000562      0.000332
      2.41350      8.53960      0.22352        -0.000077      0.000219     -0.000029
      6.32541      8.52045      0.22352        -0.000432     -0.000095      0.000175
     10.23731      8.50131      0.22352        -0.000107     -0.000110      0.000185
      2.38609      2.93043      5.82133        -0.000070      0.001557      0.012082
      6.29800      2.91129      5.82133         0.000328      0.000418      0.000230
     10.20991      2.89214      5.82133        -0.000859      0.000416      0.000190
      2.41350      8.53960      5.82133        -0.000080     -0.000085      0.000005
      6.32541      8.52045      5.82133        -0.000105     -0.000146      0.000153
     10.23731      8.50131      5.82133        -0.000434     -0.000148      0.000119
 -----------------------------------------------------------------------------------
    total drift:                               -0.000620      0.001091      0.000056


--------------------------------------------------------------------------------------------------------



  FREE ENERGIE OF THE ION-ELECTRON SYSTEM (eV)
  ---------------------------------------------------
  free  energy   TOTEN  =      -616.43230773 eV

  energy  without entropy=     -616.43230773  energy(sigma->0) =     -616.43230773
 


--------------------------------------------------------------------------------------------------------


    POTLOK:  cpu time    1.8713: real time    1.9580


--------------------------------------------------------------------------------------------------------


     LOOP+:  cpu time 5559.3217: real time 5617.5840
    4ORBIT:  cpu time    0.0000: real time    0.0000

 total amount of memory used by VASP MPI-rank0   801761. kBytes
=======================================================================

   base      :      30000. kBytes
   nonl-proj :      92491. kBytes
   fftplans  :      50318. kBytes
   grid      :      44712. kBytes
   one-center:        622. kBytes
   wavefun   :     583618. kBytes
 
  
  
 General timing and accounting informations for this job:
 ========================================================
  
                  Total CPU time used (sec):     5655.861
                            User time (sec):     5592.993
                          System time (sec):       62.868
                         Elapsed time (sec):     5715.861
  
                   Maximum memory used (kb):      976256.
                   Average memory used (kb):           0.
  
                          Minor page faults:       560561
                          Major page faults:           20
                 Voluntary context switches:        59869
