   95   95   60    2
  0.1340737E+02  0.1119672E-08  0.1119672E-08  0.1055337E-08  0.5000000E-15
   1.0000000000000000E-004
  CAR 
 unknown system                          
    668      8    488

  0.1262379E-14  0.1262379E-14  0.1262379E-14  0.1250000E+00
    1      -51.728403    -46.981581   1.000000   1.000000
    2      -51.726221    -46.978477   1.000000   1.000000
    3      -51.717940    -46.972081   1.000000   1.000000
    4      -51.711597    -46.969151   1.000000   1.000000
    5      -51.710979    -46.967239   1.000000   1.000000
    6      -51.683000    -46.949466   1.000000   1.000000
    7      -51.676456    -46.938793   1.000000   1.000000
    8      -51.663591    -46.936986   1.000000   1.000000
    9      -51.624773    -46.936433   1.000000   1.000000
   10      -51.615491    -46.932653   1.000000   1.000000
   11      -51.612790    -46.931641   1.000000   1.000000
   12      -51.611771    -46.927920   1.000000   1.000000
   13      -51.608449    -46.919801   1.000000   1.000000
   14      -51.602131    -46.912994   1.000000   1.000000
   15      -51.585270    -46.856194   1.000000   1.000000
   16      -51.567001    -46.841659   1.000000   1.000000
   17      -51.555079    -46.841655   1.000000   1.000000
   18      -51.553148    -46.828124   1.000000   1.000000
   19      -51.552510    -46.818546   1.000000   1.000000
   20      -51.533746    -46.814952   1.000000   1.000000
   21      -51.533621    -46.814344   1.000000   1.000000
   22      -51.528604    -46.799781   1.000000   1.000000
   23      -51.527779    -46.796888   1.000000   1.000000
   24      -51.525850    -46.789182   1.000000   1.000000
   25      -50.300483    -46.525959   1.000000   1.000000
   26      -50.278301    -46.520569   1.000000   1.000000
   27      -50.277116    -46.517854   1.000000   1.000000
   28      -50.276641    -46.517057   1.000000   1.000000
   29      -50.274777    -46.511996   1.000000   1.000000
   30      -50.271637    -46.503771   1.000000   1.000000
   31      -50.208074    -46.503416   1.000000   1.000000
   32      -50.197924    -46.499646   1.000000   1.000000
   33      -50.196195    -46.484355   1.000000   1.000000
   34      -50.194269    -46.478809   1.000000   1.000000
   35      -50.167713    -46.472789   1.000000   1.000000
   36      -50.166500    -46.471528   1.000000   1.000000
   37      -50.161640    -46.471483   1.000000   1.000000
   38      -50.160493    -46.470120   1.000000   1.000000
   39      -50.156354    -46.469150   1.000000   1.000000
   40      -50.152966    -46.468558   1.000000   1.000000
   41      -50.149381    -46.460878   1.000000   1.000000
   42      -50.149067    -46.458662   1.000000   1.000000
   43      -50.144947    -46.456678   1.000000   1.000000
   44      -50.142404    -46.452309   1.000000   1.000000
   45      -50.140263    -46.444516   1.000000   1.000000
   46      -50.126220    -46.444036   1.000000   1.000000
   47      -50.126179    -46.440397   1.000000   1.000000
   48      -50.125640    -46.437988   1.000000   1.000000
   49      -50.124141    -46.436890   1.000000   1.000000
   50      -50.111108    -46.436807   1.000000   1.000000
   51      -50.107068    -46.431761   1.000000   1.000000
   52      -50.106887    -46.430411   1.000000   1.000000
   53      -50.104449    -46.423590   1.000000   1.000000
   54      -50.101776    -46.415682   1.000000   1.000000
   55      -50.101484    -46.413244   1.000000   1.000000
   56      -50.098688    -46.406725   1.000000   1.000000
   57      -50.098150    -46.404969   1.000000   1.000000
   58      -50.093252    -46.398146   1.000000   1.000000
   59      -50.092162    -46.397160   1.000000   1.000000
   60      -50.090925    -46.393885   1.000000   1.000000
   61      -50.083176    -46.391339   1.000000   1.000000
   62      -50.081014    -46.387784   1.000000   1.000000
   63      -50.080487    -46.381878   1.000000   1.000000
   64      -50.079079    -46.380922   1.000000   1.000000
   65      -50.077509    -46.378304   1.000000   1.000000
   66      -50.068301    -46.377403   1.000000   1.000000
   67      -50.064567    -46.369076   1.000000   1.000000
   68      -50.051896    -46.369073   1.000000   1.000000
   69      -50.049519    -46.358939   1.000000   1.000000
   70      -50.030967    -46.354632   1.000000   1.000000
   71      -50.023079    -46.354020   1.000000   1.000000
   72      -50.013220    -46.347807   1.000000   1.000000
   73      -40.606597    -40.600631   1.000000   1.000000
   74      -40.595076    -40.589124   1.000000   1.000000
   75      -40.593998    -40.587581   1.000000   1.000000
   76      -40.583993    -40.577930   1.000000   1.000000
   77      -40.570030    -40.564403   1.000000   1.000000
   78      -40.564313    -40.557816   1.000000   1.000000
   79      -40.559904    -40.554090   1.000000   1.000000
   80      -40.375599    -40.375630   1.000000   1.000000
   81      -40.330346    -40.329977   1.000000   1.000000
   82      -40.320948    -40.320617   1.000000   1.000000
   83      -40.318058    -40.318203   1.000000   1.000000
   84      -40.317457    -40.317649   1.000000   1.000000
   85      -40.280540    -40.280367   1.000000   1.000000
   86      -40.276574    -40.276457   1.000000   1.000000
   87      -40.177327    -40.179600   1.000000   1.000000
   88      -40.159625    -40.161544   1.000000   1.000000
   89      -40.134246    -40.136260   1.000000   1.000000
   90      -40.126978    -40.129059   1.000000   1.000000
   91      -40.125505    -40.127905   1.000000   1.000000
   92      -40.123641    -40.125486   1.000000   1.000000
   93      -40.104506    -40.106433   1.000000   1.000000
   94      -40.097550    -40.099766   1.000000   1.000000
   95      -40.089164    -40.088681   1.000000   1.000000
   96      -40.082453    -40.081800   1.000000   1.000000
   97      -40.078785    -40.078130   1.000000   1.000000
   98      -40.067789    -40.067168   1.000000   1.000000
   99      -40.059001    -40.058172   1.000000   1.000000
  100      -40.051273    -40.049262   1.000000   1.000000
  101      -40.034705    -40.034122   1.000000   1.000000
  102      -40.027235    -40.026622   1.000000   1.000000
  103      -39.956516    -39.955983   1.000000   1.000000
  104      -13.855278    -13.489637   1.000000   1.000000
  105      -13.825383    -13.457162   1.000000   1.000000
  106      -13.715189    -13.392618   1.000000   1.000000
  107      -13.711408    -13.388898   1.000000   1.000000
  108      -13.693010    -13.369724   1.000000   1.000000
  109      -13.673935    -13.346887   1.000000   1.000000
  110      -13.564248    -13.290213   1.000000   1.000000
  111      -13.533652    -13.256882   1.000000   1.000000
  112      -13.379113    -13.131587   1.000000   1.000000
  113      -13.251295    -13.030226   1.000000   1.000000
  114      -13.233655    -13.030125   1.000000   1.000000
  115      -13.230849    -13.012998   1.000000   1.000000
  116      -13.124207    -12.930590   1.000000   1.000000
  117      -13.075852    -12.924566   1.000000   1.000000
  118      -13.073790    -12.884236   1.000000   1.000000
  119      -12.887283    -12.688735   1.000000   1.000000
  120       -7.890248     -7.705602   1.000000   1.000000
  121       -7.651719     -7.494064   1.000000   1.000000
  122       -7.645495     -7.481011   1.000000   1.000000
  123       -7.633816     -7.467846   1.000000   1.000000
  124       -7.499260     -7.343493   1.000000   1.000000
  125       -7.480073     -7.328706   1.000000   1.000000
  126       -7.457746     -7.313752   1.000000   1.000000
  127       -7.437241     -7.289981   1.000000   1.000000
  128       -7.410182     -7.214575   1.000000   1.000000
  129       -7.364585     -7.206653   1.000000   1.000000
  130       -7.356238     -7.192671   1.000000   1.000000
  131       -7.329205     -7.179290   1.000000   1.000000
  132       -7.315214     -7.127693   1.000000   1.000000
  133       -7.266494     -7.091430   1.000000   1.000000
  134       -7.259683     -7.085847   1.000000   1.000000
  135       -7.227834     -7.078389   1.000000   1.000000
  136       -7.217406     -7.053506   1.000000   1.000000
  137       -7.206157     -7.049190   1.000000   1.000000
  138       -7.174031     -7.029295   1.000000   1.000000
  139       -7.168052     -6.985158   1.000000   1.000000
  140       -7.141734     -6.960414   1.000000   1.000000
  141       -7.135074     -6.942261   1.000000   1.000000
  142       -7.117568     -6.918079   1.000000   1.000000
  143       -6.979418     -6.776690   1.000000   1.000000
  144       -2.720693     -1.268080   1.000000   1.000000
  145       -2.683253     -1.023504   1.000000   1.000000
  146       -2.399937     -0.912324   1.000000   1.000000
  147       -2.264159     -0.592364   1.000000   1.000000
  148       -1.979519     -0.521220   1.000000   1.000000
  149       -1.966518     -0.516542   1.000000   1.000000
  150       -1.929039     -0.462719   1.000000   1.000000
  151       -1.926458     -0.458318   1.000000   1.000000
  152       -1.893231     -0.353674   1.000000   1.000000
  153       -1.815290     -0.326983   1.000000   1.000000
  154       -1.589058     -0.248238   1.000000   1.000000
  155       -1.587853     -0.239320   1.000000   1.000000
  156       -1.568085     -0.193205   1.000000   1.000000
  157       -1.536689     -0.151926   1.000000   1.000000
  158       -1.529053     -0.107374   1.000000   1.000000
  159       -1.494992     -0.084204   1.000000   1.000000
  160       -1.484721     -0.046075   1.000000   1.000000
  161       -1.477139     -0.032247   1.000000   1.000000
  162       -1.462425      0.054924   1.000000   1.000000
  163       -1.449884      0.105256   1.000000   1.000000
  164       -1.436033      0.110076   1.000000   1.000000
  165       -1.303428      0.116031   1.000000   1.000000
  166       -1.225129      0.233406   1.000000   1.000000
  167       -1.223356      0.343145   1.000000   1.000000
  168       -1.217319      0.368257   1.000000   1.000000
  169       -1.189930      0.397023   1.000000   1.000000
  170       -1.182547      0.402667   1.000000   1.000000
  171       -1.151018      0.404486   1.000000   1.000000
  172       -1.109621      0.436783   1.000000   1.000000
  173       -1.093150      0.447113   1.000000   1.000000
  174       -1.089644      0.587327   1.000000   1.000000
  175       -1.059789      0.603886   1.000000   1.000000
  176       -1.039973      0.623224   1.000000   1.000000
  177       -0.982025      0.635191   1.000000   1.000000
  178       -0.966475      0.654056   1.000000   1.000000
  179       -0.931158      0.704648   1.000000   1.000000
  180       -0.929327      0.776780   1.000000   1.000000
  181       -0.923370      0.778977   1.000000   1.000000
  182       -0.917269      0.805743   1.000000   1.000000
  183       -0.865876      0.841224   1.000000   1.000000
  184       -0.862148      0.848271   1.000000   1.000000
  185       -0.850660      0.857181   1.000000   1.000000
  186       -0.844051      0.884410   1.000000   1.000000
  187       -0.804807      0.888306   1.000000   1.000000
  188       -0.792626      0.901421   1.000000   1.000000
  189       -0.786787      0.951444   1.000000   1.000000
  190       -0.781044      0.967483   1.000000   1.000000
  191       -0.775319      0.986914   1.000000   1.000000
  192       -0.766525      1.039843   1.000000   1.000000
  193       -0.762602      1.062143   1.000000   1.000000
  194       -0.720123      1.104698   1.000000   1.000000
  195       -0.713509      1.172130   1.000000   1.000000
  196       -0.709915      1.186494   1.000000   1.000000
  197       -0.652897      1.194633   1.000000   1.000000
  198       -0.616917      1.206185   1.000000   1.000000
  199       -0.610899      1.236048   1.000000   1.000000
  200       -0.593892      1.254584   1.000000   1.000000
  201       -0.585350      1.278541   1.000000   1.000000
  202       -0.579926      1.286216   1.000000   1.000000
  203       -0.575013      1.302113   1.000000   1.000000
  204       -0.569151      1.402564   1.000000   1.000000
  205       -0.546026      1.454637   1.000000   1.000000
  206       -0.528914      1.468731   1.000000   1.000000
  207       -0.513265      1.497778   1.000000   1.000000
  208       -0.464580      1.576125   1.000000   1.000000
  209       -0.454335      1.589630   1.000000   1.000000
  210       -0.436386      1.674854   1.000000   1.000000
  211       -0.400301      1.684125   1.000000   1.000000
  212       -0.384783      1.710228   1.000000   1.000000
  213       -0.366166      1.721489   1.000000   1.000000
  214       -0.340560      1.770900   1.000000   1.000000
  215       -0.333913      1.805589   1.000000   1.000000
  216       -0.317374      1.827373   1.000000   1.000000
  217       -0.311527      1.838806   1.000000   1.000000
  218       -0.294917      1.923442   1.000000   1.000000
  219       -0.293540      1.973188   1.000000   1.000000
  220       -0.272663      1.981415   1.000000   1.000000
  221       -0.255493      2.116003   1.000000   1.000000
  222       -0.246705      2.144207   1.000000   1.000000
  223       -0.212957      2.195308   1.000000   1.000000
  224       -0.209366      2.251377   1.000000   1.000000
  225       -0.190013      2.265179   1.000000   1.000000
  226       -0.176248      2.316589   1.000000   1.000000
  227       -0.170591      2.326664   1.000000   1.000000
  228       -0.160098      2.340922   1.000000   1.000000
  229       -0.153952      2.382591   1.000000   1.000000
  230       -0.140099      2.408514   1.000000   1.000000
  231       -0.138125      2.486913   1.000000   1.000000
  232       -0.128932      2.546387   1.000000   1.000000
  233       -0.126348      2.577744   1.000000   1.000000
  234       -0.104782      2.603919   1.000000   1.000000
  235       -0.090901      2.631929   1.000000   1.000000
  236       -0.079607      2.660428   1.000000   1.000000
  237       -0.074475      2.677636   1.000000   1.000000
  238       -0.008248      2.721561   1.000000   1.000000
  239        0.103265      2.731122   1.000000   1.000000
  240        0.137339      2.759357   1.000000   1.000000
  241        0.149616      2.774046   1.000000   1.000000
  242        0.166022      2.796326   1.000000   1.000000
  243        0.210863      2.826490   1.000000   1.000000
  244        0.311628      2.842954   1.000000   1.000000
  245        0.331553      2.852312   1.000000   1.000000
  246        0.338735      2.853508   1.000000   1.000000
  247        0.353436      2.871515   1.000000   1.000000
  248        0.392950      2.885134   1.000000   1.000000
  249        0.396171      2.911314   1.000000   1.000000
  250        0.408819      2.917068   1.000000   1.000000
  251        0.418840      2.930773   1.000000   1.000000
  252        0.443940      2.957644   1.000000   1.000000
  253        0.472136      2.973130   1.000000   1.000000
  254        0.486971      3.022713   1.000000   1.000000
  255        0.522160      3.071098   1.000000   1.000000
  256        0.528344      3.075659   1.000000   1.000000
  257        0.681681      3.162065   1.000000   1.000000
  258        0.685776      3.169092   1.000000   1.000000
  259        0.701789      3.212153   1.000000   1.000000
  260        0.710466      3.237571   1.000000   1.000000
  261        0.727223      3.240432   1.000000   1.000000
  262        0.732851      3.315547   1.000000   1.000000
  263        0.782223      3.343378   1.000000   1.000000
  264        0.786951      3.441353   1.000000   1.000000
  265        0.855323      3.485453   1.000000   1.000000
  266        0.871397      3.519879   1.000000   1.000000
  267        0.896868      3.527054   1.000000   1.000000
  268        0.906869      3.565459   1.000000   1.000000
  269        0.912954      3.573921   1.000000   1.000000
  270        0.923967      3.594399   1.000000   1.000000
  271        0.944413      3.607506   1.000000   1.000000
  272        0.957242      3.614563   1.000000   1.000000
  273        1.007210      3.630871   1.000000   1.000000
  274        1.008413      3.650752   1.000000   1.000000
  275        1.055924      3.654253   1.000000   1.000000
  276        1.096356      3.678820   1.000000   1.000000
  277        1.109489      3.690216   1.000000   1.000000
  278        1.132501      3.714953   1.000000   1.000000
  279        1.191719      3.722297   1.000000   1.000000
  280        1.212438      3.737418   1.000000   1.000000
  281        1.251453      3.765400   1.000000   1.000000
  282        1.280667      3.769388   1.000000   1.000000
  283        1.299362      3.777346   1.000000   1.000000
  284        1.338980      3.788850   1.000000   1.000000
  285        1.355695      3.806559   1.000000   1.000000
  286        1.371052      3.812527   1.000000   1.000000
  287        1.394856      3.817191   1.000000   1.000000
  288        1.399132      6.119594   1.000000   0.000000
  289        1.444395      6.236992   1.000000   0.000000
  290        1.449335      6.471394   1.000000   0.000000
  291        1.452942      6.506394   1.000000   0.000000
  292        1.470075      6.534280   1.000000   0.000000
  293        1.483092      6.556746   1.000000   0.000000
  294        1.502577      6.565646   1.000000   0.000000
  295        1.522641      6.578115   1.000000   0.000000
  296        1.530402      6.596220   1.000000   0.000000
  297        1.547123      6.670908   1.000000   0.000000
  298        1.581086      6.749942   1.000000   0.000000
  299        1.594059      6.777534   1.000000   0.000000
  300        1.606879      6.797548   1.000000   0.000000
  301        1.610894      6.850463   1.000000   0.000000
  302        1.627847      6.856259   1.000000   0.000000
  303        1.632439      6.867526   1.000000   0.000000
  304        1.651137      6.883014   1.000000   0.000000
  305        1.673720      6.954342   1.000000   0.000000
  306        1.681369      6.962971   1.000000   0.000000
  307        1.695269      6.996596   1.000000   0.000000
  308        1.724987      6.999315   1.000000   0.000000
  309        1.797166      7.042021   1.000000   0.000000
  310        1.813372      7.054146   1.000000   0.000000
  311        1.884937      7.070111   1.000000   0.000000
  312        1.967916      7.102248   1.000000   0.000000
  313        1.981460      7.121568   1.000000   0.000000
  314        1.993682      7.162412   1.000000   0.000000
  315        2.009325      7.167275   1.000000   0.000000
  316        2.148314      7.178779   1.000000   0.000000
  317        2.174553      7.182283   1.000000   0.000000
  318        2.176681      7.188374   1.000000   0.000000
  319        2.246481      7.222000   1.000000   0.000000
  320        2.339785      7.227532   1.000000   0.000000
  321        2.351713      7.232030   1.000000   0.000000
  322        2.376722      7.240793   1.000000   0.000000
  323        2.396558      7.247846   1.000000   0.000000
  324        2.401448      7.248563   1.000000   0.000000
  325        2.433643      7.264455   1.000000   0.000000
  326        2.470498      7.282606   1.000000   0.000000
  327        2.502183      7.292120   1.000000   0.000000
  328        2.507138      7.297326   1.000000   0.000000
  329        2.535277      7.311698   1.000000   0.000000
  330        2.549335      7.325150   1.000000   0.000000
  331        2.564753      7.334061   1.000000   0.000000
  332        2.571243      7.413325   1.000000   0.000000
  333        2.629702      7.514373   1.000000   0.000000
  334        2.677181      7.525978   1.000000   0.000000
  335        2.762386      7.546180   1.000000   0.000000
  336        2.842551      7.554170   1.000000   0.000000
  337        2.846622      7.568168   1.000000   0.000000
  338        2.876942      7.600348   1.000000   0.000000
  339        2.994179      7.614142   1.000000   0.000000
  340        3.007575      7.631078   1.000000   0.000000
  341        3.009161      7.643168   1.000000   0.000000
  342        3.057612      7.653669   1.000000   0.000000
  343        3.104572      7.667239   1.000000   0.000000
  344        3.148137      7.701680   1.000000   0.000000
  345        3.158436      7.717951   1.000000   0.000000
  346        3.222254      7.725677   1.000000   0.000000
  347        3.224868      7.745917   1.000000   0.000000
  348        3.247734      7.762895   1.000000   0.000000
  349        3.273971      7.781008   1.000000   0.000000
  350        3.309590      7.785228   1.000000   0.000000
  351        3.369358      7.798099   1.000000   0.000000
  352        3.399122      7.811746   1.000000   0.000000
  353        3.432708      7.825407   1.000000   0.000000
  354        3.451334      7.843197   1.000000   0.000000
  355        3.481852      7.851232   1.000000   0.000000
  356        3.506957      7.891452   1.000000   0.000000
  357        3.528287      7.925577   1.000000   0.000000
  358        3.563905      7.940065   1.000000   0.000000
  359        3.581194      8.000705   1.000000   0.000000
  360        3.587726      8.043496   1.000000   0.000000
  361        3.597463      8.057607   1.000000   0.000000
  362        3.636368      8.093274   1.000000   0.000000
  363        3.675650      8.131969   1.000000   0.000000
  364        3.716583      8.174412   1.000000   0.000000
  365        3.784167      8.194173   1.000000   0.000000
  366        3.789787      8.217068   1.000000   0.000000
  367        3.847711      8.234134   1.000000   0.000000
  368        3.884313      8.246956   1.000000   0.000000
  369        3.905326      8.283308   1.000000   0.000000
  370        3.977732      8.314907   1.000000   0.000000
  371        3.985496      8.330222   1.000000   0.000000
  372        4.021875      8.342481   1.000000   0.000000
  373        4.053568      8.381744   1.000000   0.000000
  374        4.062510      8.401620   1.000000   0.000000
  375        4.097609      8.451594   1.000000   0.000000
  376        4.128719      8.511707   1.000000   0.000000
  377        4.145387      8.533484   1.000000   0.000000
  378        4.164672      8.540114   1.000000   0.000000
  379        4.225633      8.638452   1.000000   0.000000
  380        4.406920      8.643296   0.991029   0.000000
  381        4.447597      8.658297   0.888114   0.000000
  382        4.566618      8.767768   0.015852   0.000000
  383        4.591476      8.830615   0.002159   0.000000
  384        7.123753      8.912196   0.000000   0.000000
  385        7.669216      9.097696   0.000000   0.000000
  386        8.188731      9.459182   0.000000   0.000000
  387        8.396372      9.585323   0.000000   0.000000
  388        8.573358      9.623569   0.000000   0.000000
  389        8.595533      9.726183   0.000000   0.000000
  390        8.674539      9.865801   0.000000   0.000000
  391        8.724235     10.070937   0.000000   0.000000
  392        8.732240     10.090633   0.000000   0.000000
  393        8.750704     10.110237   0.000000   0.000000
  394        9.166869     10.118071   0.000000   0.000000
  395        9.185740     10.163652   0.000000   0.000000
  396        9.230649     10.194057   0.000000   0.000000
  397        9.244791     10.211192   0.000000   0.000000
  398        9.271786     10.216641   0.000000   0.000000
  399        9.308414     10.236982   0.000000   0.000000
  400        9.344380     10.255608   0.000000   0.000000
  401        9.412056     10.260905   0.000000   0.000000
  402        9.427527     10.394433   0.000000   0.000000
  403        9.545494     10.448597   0.000000   0.000000
  404        9.610227     10.518685   0.000000   0.000000
  405        9.656736     10.535694   0.000000   0.000000
  406        9.672480     10.632659   0.000000   0.000000
  407        9.747625     10.649058   0.000000   0.000000
  408        9.804782     10.787291   0.000000   0.000000
  409        9.985497     10.792389   0.000000   0.000000
  410       10.032955     10.830168   0.000000   0.000000
  411       10.094794     10.892002   0.000000   0.000000
  412       10.126146     10.930072   0.000000   0.000000
  413       10.183690     10.966769   0.000000   0.000000
  414       10.251411     11.020170   0.000000   0.000000
  415       10.283184     11.052900   0.000000   0.000000
  416       10.306730     11.111129   0.000000   0.000000
  417       10.353956     11.133129   0.000000   0.000000
  418       10.468269     11.144630   0.000000   0.000000
  419       10.507655     11.148822   0.000000   0.000000
  420       10.531696     11.190653   0.000000   0.000000
  421       10.562931     11.269049   0.000000   0.000000
  422       10.608403     11.269825   0.000000   0.000000
  423       10.625240     11.403394   0.000000   0.000000
  424       10.643466     11.424914   0.000000   0.000000
  425       10.684529     11.525380   0.000000   0.000000
  426       10.694701     11.565817   0.000000   0.000000
  427       10.714884     11.587185   0.000000   0.000000
  428       10.761116     11.630784   0.000000   0.000000
  429       10.813549     11.714569   0.000000   0.000000
  430       10.908751     11.716862   0.000000   0.000000
  431       10.928428     11.726381   0.000000   0.000000
  432       10.939323     11.749959   0.000000   0.000000
  433       10.974193     11.763631   0.000000   0.000000
  434       11.031703     11.835178   0.000000   0.000000
  435       11.122295     11.858725   0.000000   0.000000
  436       11.175500     11.875624   0.000000   0.000000
  437       11.219599     11.877902   0.000000   0.000000
  438       11.238361     11.969688   0.000000   0.000000
  439       11.272664     12.043032   0.000000   0.000000
  440       11.292877     12.045151   0.000000   0.000000
  441       11.329739     12.079420   0.000000   0.000000
  442       11.376625     12.123055   0.000000   0.000000
  443       11.412529     12.132869   0.000000   0.000000
  444       11.490760     12.138329   0.000000   0.000000
  445       11.521097     12.155941   0.000000   0.000000
  446       11.542054     12.187811   0.000000   0.000000
  447       11.551962     12.217776   0.000000   0.000000
  448       11.599678     12.222252   0.000000   0.000000
  449       11.639321     12.269237   0.000000   0.000000
  450       11.665931     12.299791   0.000000   0.000000
  451       11.684231     12.302476   0.000000   0.000000
  452       11.696619     12.335865   0.000000   0.000000
  453       11.710198     12.394217   0.000000   0.000000
  454       11.715442     12.423836   0.000000   0.000000
  455       11.750232     12.430108   0.000000   0.000000
  456       11.772983     12.524893   0.000000   0.000000
  457       11.787051     12.537129   0.000000   0.000000
  458       11.905806     12.547728   0.000000   0.000000
  459       11.975620     12.559310   0.000000   0.000000
  460       11.994963     12.569652   0.000000   0.000000
  461       12.028660     12.619825   0.000000   0.000000
  462       12.049176     12.620125   0.000000   0.000000
  463       12.094183     12.700396   0.000000   0.000000
  464       12.141488     12.710209   0.000000   0.000000
  465       12.207567     12.784079   0.000000   0.000000
  466       12.245445     12.785430   0.000000   0.000000
  467       12.277171     12.918621   0.000000   0.000000
  468       12.310097     12.953425   0.000000   0.000000
  469       12.319508     12.969154   0.000000   0.000000
  470       12.354198     13.019690   0.000000   0.000000
  471       12.383951     13.058670   0.000000   0.000000
  472       12.429460     13.070668   0.000000   0.000000
  473       12.481272     13.102931   0.000000   0.000000
  474       12.558045     13.188153   0.000000   0.000000
  475       12.580491     13.232778   0.000000   0.000000
  476       12.618660     13.292933   0.000000   0.000000
  477       12.719415     13.360275   0.000000   0.000000
  478       12.741739     13.456955   0.000000   0.000000
  479       12.837380     13.494069   0.000000   0.000000
  480       12.860734     13.675219   0.000000   0.000000
  481       12.918082     13.716420   0.000000   0.000000
  482       13.073455     13.793049   0.000000   0.000000
  483       13.157523     13.963711   0.000000   0.000000
  484       13.292282     14.048622   0.000000   0.000000
  485       13.385211     14.172431   0.000000   0.000000
  486       13.528318     14.317031   0.000000   0.000000
  487       13.686547     15.304332   0.000000   0.000000
  488       13.730610     19.642623   0.000000   0.000000

  0.5000000E+00  0.1339234E-14  0.1262012E-14  0.1250000E+00
    1      -51.728403    -46.981581   1.000000   1.000000
    2      -51.726220    -46.978476   1.000000   1.000000
    3      -51.717939    -46.972080   1.000000   1.000000
    4      -51.711596    -46.969150   1.000000   1.000000
    5      -51.710979    -46.967238   1.000000   1.000000
    6      -51.682999    -46.949469   1.000000   1.000000
    7      -51.676455    -46.938792   1.000000   1.000000
    8      -51.663590    -46.936988   1.000000   1.000000
    9      -51.624776    -46.936432   1.000000   1.000000
   10      -51.615494    -46.932653   1.000000   1.000000
   11      -51.612793    -46.931645   1.000000   1.000000
   12      -51.611773    -46.927922   1.000000   1.000000
   13      -51.608452    -46.919801   1.000000   1.000000
   14      -51.602134    -46.912996   1.000000   1.000000
   15      -51.585273    -46.856195   1.000000   1.000000
   16      -51.567004    -46.841661   1.000000   1.000000
   17      -51.555082    -46.841657   1.000000   1.000000
   18      -51.553150    -46.828126   1.000000   1.000000
   19      -51.552512    -46.818549   1.000000   1.000000
   20      -51.533748    -46.814954   1.000000   1.000000
   21      -51.533625    -46.814346   1.000000   1.000000
   22      -51.528607    -46.799783   1.000000   1.000000
   23      -51.527782    -46.796890   1.000000   1.000000