 160 160   0   0
  0.1215613E+02  0.1537564E-08  0.1124787E-08  0.1124760E-08  0.5000000E-15
  1.000000000000000E-004
  CAR 
 unknown system                          
     17.04901904    -54.78876086  301      4.89646127      1.00000000
    -54.789  0.0000E+00  0.0000E+00  0.0000E+00  0.0000E+00
    -54.549  0.0000E+00  0.0000E+00  0.0000E+00  0.0000E+00
    -54.310  0.0000E+00  0.0000E+00  0.0000E+00  0.0000E+00
    -54.070  0.0000E+00  0.0000E+00  0.0000E+00  0.0000E+00
    -53.831  0.0000E+00  0.0000E+00  0.0000E+00  0.0000E+00
    -53.591  0.0000E+00  0.0000E+00  0.0000E+00  0.0000E+00
    -53.352  0.0000E+00  0.0000E+00  0.0000E+00  0.0000E+00
    -53.113  0.0000E+00  0.0000E+00  0.0000E+00  0.0000E+00
    -52.873  0.0000E+00  0.0000E+00  0.0000E+00  0.0000E+00
    -52.634  0.0000E+00  0.0000E+00  0.0000E+00  0.0000E+00
    -52.394  0.0000E+00  0.0000E+00  0.0000E+00  0.0000E+00
    -52.155  0.0000E+00  0.0000E+00  0.0000E+00  0.0000E+00
    -51.915  0.0000E+00  0.0000E+00  0.0000E+00  0.0000E+00
    -51.676  0.4187E-03  0.0000E+00  0.1003E-03  0.0000E+00
    -51.436  0.8296E+02  0.0000E+00  0.1987E+02  0.0000E+00
    -51.197  0.5067E+02  0.0000E+00  0.3200E+02  0.0000E+00
    -50.957  0.0000E+00  0.0000E+00  0.3200E+02  0.0000E+00
    -50.718  0.0000E+00  0.0000E+00  0.3200E+02  0.0000E+00
    -50.478  0.6396E-13  0.0000E+00  0.3200E+02  0.0000E+00
    -50.239  0.7959E+01  0.0000E+00  0.3391E+02  0.0000E+00
    -50.000  0.1702E+03  0.0000E+00  0.7466E+02  0.0000E+00
    -49.760  0.8911E+02  0.0000E+00  0.9600E+02  0.0000E+00
    -49.521  0.0000E+00  0.0000E+00  0.9600E+02  0.0000E+00
    -49.281  0.0000E+00  0.0000E+00  0.9600E+02  0.0000E+00
    -49.042  0.0000E+00  0.0000E+00  0.9600E+02  0.0000E+00
    -48.802  0.0000E+00  0.0000E+00  0.9600E+02  0.0000E+00
    -48.563  0.0000E+00  0.0000E+00  0.9600E+02  0.0000E+00
    -48.323  0.0000E+00  0.0000E+00  0.9600E+02  0.0000E+00
    -48.084  0.0000E+00  0.0000E+00  0.9600E+02  0.0000E+00
    -47.844  0.0000E+00  0.0000E+00  0.9600E+02  0.0000E+00
    -47.605  0.0000E+00  0.0000E+00  0.9600E+02  0.0000E+00
    -47.366  0.0000E+00  0.0000E+00  0.9600E+02  0.0000E+00
    -47.126  0.0000E+00  0.0000E+00  0.9600E+02  0.0000E+00
    -46.887  0.0000E+00  0.2026E+00  0.9600E+02  0.4852E-01
    -46.647  0.0000E+00  0.1072E+03  0.9600E+02  0.2571E+02
    -46.408  0.0000E+00  0.1041E+03  0.9600E+02  0.5064E+02
    -46.168  0.0000E+00  0.1892E+03  0.9600E+02  0.9593E+02
    -45.929  0.0000E+00  0.2734E+00  0.9600E+02  0.9600E+02
    -45.689  0.0000E+00  0.0000E+00  0.9600E+02  0.9600E+02
    -45.450  0.0000E+00  0.0000E+00  0.9600E+02  0.9600E+02
    -45.210  0.0000E+00  0.0000E+00  0.9600E+02  0.9600E+02
    -44.971  0.0000E+00  0.0000E+00  0.9600E+02  0.9600E+02
    -44.731  0.0000E+00  0.0000E+00  0.9600E+02  0.9600E+02
    -44.492  0.0000E+00  0.0000E+00  0.9600E+02  0.9600E+02
    -44.253  0.0000E+00  0.0000E+00  0.9600E+02  0.9600E+02
    -44.013  0.0000E+00  0.0000E+00  0.9600E+02  0.9600E+02
    -43.774  0.0000E+00  0.0000E+00  0.9600E+02  0.9600E+02
    -43.534  0.0000E+00  0.0000E+00  0.9600E+02  0.9600E+02
    -43.295  0.0000E+00  0.0000E+00  0.9600E+02  0.9600E+02
    -43.055  0.0000E+00  0.0000E+00  0.9600E+02  0.9600E+02
    -42.816  0.0000E+00  0.0000E+00  0.9600E+02  0.9600E+02
    -42.576  0.0000E+00  0.0000E+00  0.9600E+02  0.9600E+02
    -42.337  0.0000E+00  0.0000E+00  0.9600E+02  0.9600E+02
    -42.097  0.0000E+00  0.0000E+00  0.9600E+02  0.9600E+02
    -41.858  0.0000E+00  0.0000E+00  0.9600E+02  0.9600E+02
    -41.619  0.0000E+00  0.0000E+00  0.9600E+02  0.9600E+02
    -41.379  0.0000E+00  0.0000E+00  0.9600E+02  0.9600E+02
    -41.140  0.0000E+00  0.0000E+00  0.9600E+02  0.9600E+02
    -40.900  0.0000E+00  0.0000E+00  0.9600E+02  0.9600E+02
    -40.661  0.2370E-14  0.6182E-15  0.9600E+02  0.9600E+02
    -40.421  0.3761E+01  0.3310E+01  0.9690E+02  0.9679E+02
    -40.182  0.1810E+03  0.1836E+03  0.1403E+03  0.1407E+03
    -39.942  0.8248E+02  0.8040E+02  0.1600E+03  0.1600E+03
    -39.703  0.0000E+00  0.0000E+00  0.1600E+03  0.1600E+03
    -39.463  0.0000E+00  0.0000E+00  0.1600E+03  0.1600E+03
    -39.224  0.0000E+00  0.0000E+00  0.1600E+03  0.1600E+03
    -38.984  0.0000E+00  0.0000E+00  0.1600E+03  0.1600E+03
    -38.745  0.0000E+00  0.0000E+00  0.1600E+03  0.1600E+03
    -38.506  0.0000E+00  0.0000E+00  0.1600E+03  0.1600E+03
    -38.266  0.0000E+00  0.0000E+00  0.1600E+03  0.1600E+03
    -38.027  0.0000E+00  0.0000E+00  0.1600E+03  0.1600E+03
    -37.787  0.0000E+00  0.0000E+00  0.1600E+03  0.1600E+03
    -37.548  0.0000E+00  0.0000E+00  0.1600E+03  0.1600E+03
    -37.308  0.0000E+00  0.0000E+00  0.1600E+03  0.1600E+03
    -37.069  0.0000E+00  0.0000E+00  0.1600E+03  0.1600E+03
    -36.829  0.0000E+00  0.0000E+00  0.1600E+03  0.1600E+03
    -36.590  0.0000E+00  0.0000E+00  0.1600E+03  0.1600E+03
    -36.350  0.0000E+00  0.0000E+00  0.1600E+03  0.1600E+03
    -36.111  0.0000E+00  0.0000E+00  0.1600E+03  0.1600E+03
    -35.871  0.0000E+00  0.0000E+00  0.1600E+03  0.1600E+03
    -35.632  0.0000E+00  0.0000E+00  0.1600E+03  0.1600E+03
    -35.393  0.0000E+00  0.0000E+00  0.1600E+03  0.1600E+03
    -35.153  0.0000E+00  0.0000E+00  0.1600E+03  0.1600E+03
    -34.914  0.0000E+00  0.0000E+00  0.1600E+03  0.1600E+03
    -34.674  0.0000E+00  0.0000E+00  0.1600E+03  0.1600E+03
    -34.435  0.0000E+00  0.0000E+00  0.1600E+03  0.1600E+03
    -34.195  0.0000E+00  0.0000E+00  0.1600E+03  0.1600E+03
    -33.956  0.0000E+00  0.0000E+00  0.1600E+03  0.1600E+03
    -33.716  0.0000E+00  0.0000E+00  0.1600E+03  0.1600E+03
    -33.477  0.0000E+00  0.0000E+00  0.1600E+03  0.1600E+03
    -33.237  0.0000E+00  0.0000E+00  0.1600E+03  0.1600E+03
    -32.998  0.0000E+00  0.0000E+00  0.1600E+03  0.1600E+03
    -32.759  0.0000E+00  0.0000E+00  0.1600E+03  0.1600E+03
    -32.519  0.0000E+00  0.0000E+00  0.1600E+03  0.1600E+03
    -32.280  0.0000E+00  0.0000E+00  0.1600E+03  0.1600E+03
    -32.040  0.0000E+00  0.0000E+00  0.1600E+03  0.1600E+03
    -31.801  0.0000E+00  0.0000E+00  0.1600E+03  0.1600E+03
    -31.561  0.0000E+00  0.0000E+00  0.1600E+03  0.1600E+03
    -31.322  0.0000E+00  0.0000E+00  0.1600E+03  0.1600E+03
    -31.082  0.0000E+00  0.0000E+00  0.1600E+03  0.1600E+03
    -30.843  0.0000E+00  0.0000E+00  0.1600E+03  0.1600E+03
    -30.603  0.0000E+00  0.0000E+00  0.1600E+03  0.1600E+03
    -30.364  0.0000E+00  0.0000E+00  0.1600E+03  0.1600E+03
    -30.124  0.0000E+00  0.0000E+00  0.1600E+03  0.1600E+03
    -29.885  0.0000E+00  0.0000E+00  0.1600E+03  0.1600E+03
    -29.646  0.0000E+00  0.0000E+00  0.1600E+03  0.1600E+03
    -29.406  0.0000E+00  0.0000E+00  0.1600E+03  0.1600E+03
    -29.167  0.0000E+00  0.0000E+00  0.1600E+03  0.1600E+03
    -28.927  0.0000E+00  0.0000E+00  0.1600E+03  0.1600E+03
    -28.688  0.0000E+00  0.0000E+00  0.1600E+03  0.1600E+03
    -28.448  0.0000E+00  0.0000E+00  0.1600E+03  0.1600E+03
    -28.209  0.0000E+00  0.0000E+00  0.1600E+03  0.1600E+03
    -27.969  0.0000E+00  0.0000E+00  0.1600E+03  0.1600E+03
    -27.730  0.0000E+00  0.0000E+00  0.1600E+03  0.1600E+03
    -27.490  0.0000E+00  0.0000E+00  0.1600E+03  0.1600E+03
    -27.251  0.0000E+00  0.0000E+00  0.1600E+03  0.1600E+03
    -27.011  0.0000E+00  0.0000E+00  0.1600E+03  0.1600E+03
    -26.772  0.0000E+00  0.0000E+00  0.1600E+03  0.1600E+03
    -26.533  0.0000E+00  0.0000E+00  0.1600E+03  0.1600E+03
    -26.293  0.0000E+00  0.0000E+00  0.1600E+03  0.1600E+03
    -26.054  0.0000E+00  0.0000E+00  0.1600E+03  0.1600E+03
    -25.814  0.0000E+00  0.0000E+00  0.1600E+03  0.1600E+03
    -25.575  0.0000E+00  0.0000E+00  0.1600E+03  0.1600E+03
    -25.335  0.0000E+00  0.0000E+00  0.1600E+03  0.1600E+03
    -25.096  0.0000E+00  0.0000E+00  0.1600E+03  0.1600E+03
    -24.856  0.0000E+00  0.0000E+00  0.1600E+03  0.1600E+03
    -24.617  0.0000E+00  0.0000E+00  0.1600E+03  0.1600E+03
    -24.377  0.0000E+00  0.0000E+00  0.1600E+03  0.1600E+03
    -24.138  0.0000E+00  0.0000E+00  0.1600E+03  0.1600E+03
    -23.899  0.0000E+00  0.0000E+00  0.1600E+03  0.1600E+03
    -23.659  0.0000E+00  0.0000E+00  0.1600E+03  0.1600E+03
    -23.420  0.0000E+00  0.0000E+00  0.1600E+03  0.1600E+03
    -23.180  0.0000E+00  0.0000E+00  0.1600E+03  0.1600E+03
    -22.941  0.0000E+00  0.0000E+00  0.1600E+03  0.1600E+03
    -22.701  0.0000E+00  0.0000E+00  0.1600E+03  0.1600E+03
    -22.462  0.0000E+00  0.0000E+00  0.1600E+03  0.1600E+03
    -22.222  0.0000E+00  0.0000E+00  0.1600E+03  0.1600E+03
    -21.983  0.0000E+00  0.0000E+00  0.1600E+03  0.1600E+03
    -21.743  0.0000E+00  0.0000E+00  0.1600E+03  0.1600E+03
    -21.504  0.0000E+00  0.0000E+00  0.1600E+03  0.1600E+03
    -21.264  0.0000E+00  0.0000E+00  0.1600E+03  0.1600E+03
    -21.025  0.0000E+00  0.0000E+00  0.1600E+03  0.1600E+03
    -20.786  0.0000E+00  0.0000E+00  0.1600E+03  0.1600E+03
    -20.546  0.0000E+00  0.0000E+00  0.1600E+03  0.1600E+03
    -20.307  0.0000E+00  0.0000E+00  0.1600E+03  0.1600E+03
    -20.067  0.0000E+00  0.0000E+00  0.1600E+03  0.1600E+03
    -19.828  0.0000E+00  0.0000E+00  0.1600E+03  0.1600E+03
    -19.588  0.0000E+00  0.0000E+00  0.1600E+03  0.1600E+03
    -19.349  0.0000E+00  0.0000E+00  0.1600E+03  0.1600E+03
    -19.109  0.0000E+00  0.0000E+00  0.1600E+03  0.1600E+03
    -18.870  0.0000E+00  0.0000E+00  0.1600E+03  0.1600E+03
    -18.630  0.0000E+00  0.0000E+00  0.1600E+03  0.1600E+03
    -18.391  0.0000E+00  0.0000E+00  0.1600E+03  0.1600E+03
    -18.151  0.0000E+00  0.0000E+00  0.1600E+03  0.1600E+03
    -17.912  0.0000E+00  0.0000E+00  0.1600E+03  0.1600E+03
    -17.673  0.0000E+00  0.0000E+00  0.1600E+03  0.1600E+03
    -17.433  0.0000E+00  0.0000E+00  0.1600E+03  0.1600E+03
    -17.194  0.0000E+00  0.0000E+00  0.1600E+03  0.1600E+03
    -16.954  0.0000E+00  0.0000E+00  0.1600E+03  0.1600E+03
    -16.715  0.0000E+00  0.0000E+00  0.1600E+03  0.1600E+03
    -16.475  0.0000E+00  0.0000E+00  0.1600E+03  0.1600E+03
    -16.236  0.0000E+00  0.0000E+00  0.1600E+03  0.1600E+03
    -15.996  0.0000E+00  0.0000E+00  0.1600E+03  0.1600E+03
    -15.757  0.0000E+00  0.0000E+00  0.1600E+03  0.1600E+03
    -15.517  0.0000E+00  0.0000E+00  0.1600E+03  0.1600E+03
    -15.278  0.0000E+00  0.0000E+00  0.1600E+03  0.1600E+03
    -15.039  0.0000E+00  0.0000E+00  0.1600E+03  0.1600E+03
    -14.799  0.0000E+00  0.0000E+00  0.1600E+03  0.1600E+03
    -14.560  0.0000E+00  0.0000E+00  0.1600E+03  0.1600E+03
    -14.320  0.0000E+00  0.0000E+00  0.1600E+03  0.1600E+03
    -14.081  0.0000E+00  0.0000E+00  0.1600E+03  0.1600E+03
    -13.841  0.0000E+00  0.0000E+00  0.1600E+03  0.1600E+03
    -13.602  0.1847E-01  0.0000E+00  0.1600E+03  0.1600E+03
    -13.362  0.5315E+02  0.2035E-05  0.1727E+03  0.1600E+03
    -13.123  0.7219E+02  0.2911E+02  0.1900E+03  0.1670E+03
    -12.883  0.8272E+01  0.9992E+02  0.1920E+03  0.1909E+03
    -12.644  0.0000E+00  0.4603E+01  0.1920E+03  0.1920E+03
    -12.404  0.0000E+00  0.0000E+00  0.1920E+03  0.1920E+03
    -12.165  0.0000E+00  0.0000E+00  0.1920E+03  0.1920E+03
    -11.926  0.0000E+00  0.0000E+00  0.1920E+03  0.1920E+03
    -11.686  0.0000E+00  0.0000E+00  0.1920E+03  0.1920E+03
    -11.447  0.0000E+00  0.0000E+00  0.1920E+03  0.1920E+03
    -11.207  0.0000E+00  0.0000E+00  0.1920E+03  0.1920E+03
    -10.968  0.0000E+00  0.0000E+00  0.1920E+03  0.1920E+03
    -10.728  0.0000E+00  0.0000E+00  0.1920E+03  0.1920E+03
    -10.489  0.0000E+00  0.0000E+00  0.1920E+03  0.1920E+03
    -10.249  0.0000E+00  0.0000E+00  0.1920E+03  0.1920E+03
    -10.010  0.0000E+00  0.0000E+00  0.1920E+03  0.1920E+03
     -9.770  0.0000E+00  0.0000E+00  0.1920E+03  0.1920E+03
     -9.531  0.0000E+00  0.0000E+00  0.1920E+03  0.1920E+03
     -9.292  0.0000E+00  0.0000E+00  0.1920E+03  0.1920E+03
     -9.052  0.0000E+00  0.0000E+00  0.1920E+03  0.1920E+03
     -8.813  0.0000E+00  0.0000E+00  0.1920E+03  0.1920E+03
     -8.573  0.0000E+00  0.0000E+00  0.1920E+03  0.1920E+03
     -8.334  0.0000E+00  0.0000E+00  0.1920E+03  0.1920E+03
     -8.094  0.0000E+00  0.0000E+00  0.1920E+03  0.1920E+03
     -7.855  0.4540E-10  0.0000E+00  0.1920E+03  0.1920E+03
     -7.615  0.1561E+01  0.4318E-07  0.1924E+03  0.1920E+03
     -7.376  0.4682E+02  0.7697E+01  0.2036E+03  0.1938E+03
     -7.136  0.6532E+02  0.6079E+02  0.2192E+03  0.2084E+03
     -6.897  0.1992E+02  0.5432E+02  0.2240E+03  0.2214E+03
     -6.657  0.9784E-02  0.1082E+02  0.2240E+03  0.2240E+03
     -6.418  0.0000E+00  0.3642E-02  0.2240E+03  0.2240E+03
     -6.179  0.0000E+00  0.0000E+00  0.2240E+03  0.2240E+03
     -5.939  0.0000E+00  0.0000E+00  0.2240E+03  0.2240E+03
     -5.700  0.0000E+00  0.0000E+00  0.2240E+03  0.2240E+03
     -5.460  0.0000E+00  0.0000E+00  0.2240E+03  0.2240E+03
     -5.221  0.0000E+00  0.0000E+00  0.2240E+03  0.2240E+03
     -4.981  0.0000E+00  0.0000E+00  0.2240E+03  0.2240E+03
     -4.742  0.0000E+00  0.0000E+00  0.2240E+03  0.2240E+03
     -4.502  0.0000E+00  0.0000E+00  0.2240E+03  0.2240E+03
     -4.263  0.0000E+00  0.0000E+00  0.2240E+03  0.2240E+03
     -4.023  0.0000E+00  0.0000E+00  0.2240E+03  0.2240E+03
     -3.784  0.0000E+00  0.0000E+00  0.2240E+03  0.2240E+03
     -3.544  0.0000E+00  0.0000E+00  0.2240E+03  0.2240E+03
     -3.305  0.0000E+00  0.0000E+00  0.2240E+03  0.2240E+03
     -3.066  0.0000E+00  0.0000E+00  0.2240E+03  0.2240E+03
     -2.826  0.3992E-15  0.0000E+00  0.2240E+03  0.2240E+03
     -2.587  0.3939E+00  0.0000E+00  0.2241E+03  0.2240E+03
     -2.347  0.3098E+02  0.0000E+00  0.2315E+03  0.2240E+03
     -2.108  0.1152E+02  0.0000E+00  0.2343E+03  0.2240E+03
     -1.868  0.1279E+02  0.0000E+00  0.2373E+03  0.2240E+03
     -1.629  0.1139E+02  0.0000E+00  0.2401E+03  0.2240E+03
     -1.389  0.1562E+02  0.0000E+00  0.2438E+03  0.2240E+03
     -1.150  0.6294E+02  0.2213E-05  0.2589E+03  0.2240E+03
     -0.910  0.7654E+02  0.3396E+01  0.2772E+03  0.2248E+03
     -0.671  0.6745E+02  0.3292E+02  0.2934E+03  0.2327E+03
     -0.432  0.7787E+02  0.1885E+02  0.3120E+03  0.2372E+03
     -0.192  0.1061E+03  0.1909E+02  0.3374E+03  0.2418E+03
      0.047  0.7852E+02  0.1225E+02  0.3562E+03  0.2447E+03
      0.287  0.5341E+02  0.3173E+02  0.3690E+03  0.2523E+03
      0.526  0.4757E+02  0.8138E+02  0.3804E+03  0.2718E+03
      0.766  0.4617E+02  0.6838E+02  0.3915E+03  0.2882E+03
      1.005  0.4672E+02  0.6983E+02  0.4026E+03  0.3049E+03
      1.245  0.7674E+02  0.6338E+02  0.4210E+03  0.3201E+03
      1.484  0.8774E+02  0.2170E+02  0.4420E+03  0.3253E+03
      1.724  0.5816E+02  0.5072E+02  0.4560E+03  0.3374E+03
      1.963  0.4000E+02  0.5158E+02  0.4655E+03  0.3498E+03
      2.203  0.4717E+02  0.3058E+02  0.4768E+03  0.3571E+03
      2.442  0.4167E+02  0.3904E+02  0.4868E+03  0.3664E+03
      2.681  0.5334E+02  0.6470E+02  0.4996E+03  0.3819E+03
      2.921  0.5388E+02  0.7217E+02  0.5125E+03  0.3992E+03
      3.160  0.5653E+02  0.5995E+02  0.5260E+03  0.4136E+03
      3.400  0.5303E+02  0.1611E+02  0.5387E+03  0.4174E+03
      3.639  0.5333E+02  0.3617E+02  0.5515E+03  0.4261E+03
      3.879  0.3994E+02  0.5940E+02  0.5611E+03  0.4403E+03
      4.118  0.3547E+02  0.3208E+02  0.5695E+03  0.4480E+03
      4.358  0.1925E+02  0.4382E-01  0.5742E+03  0.4480E+03
      4.597  0.7382E+01  0.0000E+00  0.5759E+03  0.4480E+03
      4.837  0.3181E+00  0.0000E+00  0.5760E+03  0.4480E+03
      5.076  0.0000E+00  0.0000E+00  0.5760E+03  0.4480E+03
      5.316  0.0000E+00  0.0000E+00  0.5760E+03  0.4480E+03
      5.555  0.0000E+00  0.0000E+00  0.5760E+03  0.4480E+03
      5.794  0.0000E+00  0.0000E+00  0.5760E+03  0.4480E+03
      6.034  0.0000E+00  0.0000E+00  0.5760E+03  0.4480E+03
      6.273  0.0000E+00  0.1545E-15  0.5760E+03  0.4480E+03
      6.513  0.0000E+00  0.6723E-01  0.5760E+03  0.4480E+03
      6.752  0.0000E+00  0.2432E+02  0.5760E+03  0.4538E+03
      6.992  0.7028E-06  0.7768E+02  0.5760E+03  0.4724E+03
      7.231  0.2292E+00  0.6325E+02  0.5761E+03  0.4876E+03
      7.471  0.1889E+00  0.6384E+02  0.5761E+03  0.5029E+03
      7.710  0.1384E+01  0.6307E+02  0.5764E+03  0.5180E+03
      7.950  0.3020E+01  0.9509E+02  0.5772E+03  0.5407E+03
      8.189  0.6549E+01  0.7268E+02  0.5787E+03  0.5581E+03
      8.428  0.9481E+01  0.4921E+02  0.5810E+03  0.5699E+03
      8.668  0.1876E+02  0.2496E+02  0.5855E+03  0.5759E+03
      8.907  0.2339E+02  0.7244E+01  0.5911E+03  0.5776E+03
      9.147  0.3136E+02  0.8603E+01  0.5986E+03  0.5797E+03
      9.386  0.2853E+02  0.1782E+02  0.6054E+03  0.5840E+03
      9.626  0.2978E+02  0.2684E+02  0.6126E+03  0.5904E+03
      9.865  0.2620E+02  0.3192E+02  0.6188E+03  0.5980E+03
     10.105  0.1754E+02  0.3780E+02  0.6230E+03  0.6071E+03
     10.344  0.2596E+02  0.3350E+02  0.6292E+03  0.6151E+03
     10.584  0.3632E+02  0.2857E+02  0.6379E+03  0.6220E+03
     10.823  0.4024E+02  0.3309E+02  0.6476E+03  0.6299E+03
     11.063  0.3302E+02  0.2822E+02  0.6555E+03  0.6366E+03
     11.302  0.4924E+02  0.2600E+02  0.6673E+03  0.6429E+03
     11.541  0.4114E+02  0.2924E+02  0.6771E+03  0.6499E+03
     11.781  0.4148E+02  0.5095E+02  0.6871E+03  0.6621E+03
     12.020  0.3405E+02  0.5025E+02  0.6952E+03  0.6741E+03
     12.260  0.3277E+02  0.5599E+02  0.7031E+03  0.6875E+03
     12.499  0.3252E+02  0.3156E+02  0.7109E+03  0.6951E+03
     12.739  0.3679E+02  0.3269E+02  0.7197E+03  0.7029E+03
     12.978  0.3450E+02  0.3217E+02  0.7279E+03  0.7106E+03
     13.218  0.1562E+02  0.3809E+02  0.7317E+03  0.7197E+03
     13.457  0.1047E+01  0.3359E+02  0.7319E+03  0.7278E+03
     13.697  0.3631E+00  0.1693E+02  0.7320E+03  0.7318E+03
     13.936  0.0000E+00  0.7712E+00  0.7320E+03  0.7320E+03
     14.176  0.0000E+00  0.3173E-05  0.7320E+03  0.7320E+03
     14.415  0.0000E+00  0.0000E+00  0.7320E+03  0.7320E+03
     14.654  0.0000E+00  0.0000E+00  0.7320E+03  0.7320E+03
     14.894  0.0000E+00  0.0000E+00  0.7320E+03  0.7320E+03
     15.133  0.0000E+00  0.0000E+00  0.7320E+03  0.7320E+03
     15.373  0.0000E+00  0.0000E+00  0.7320E+03  0.7320E+03
     15.612  0.0000E+00  0.0000E+00  0.7320E+03  0.7320E+03
     15.852  0.0000E+00  0.0000E+00  0.7320E+03  0.7320E+03
     16.091  0.0000E+00  0.0000E+00  0.7320E+03  0.7320E+03
     16.331  0.0000E+00  0.0000E+00  0.7320E+03  0.7320E+03
     16.570  0.0000E+00  0.0000E+00  0.7320E+03  0.7320E+03
     16.810  0.0000E+00  0.0000E+00  0.7320E+03  0.7320E+03
     17.049  0.0000E+00  0.0000E+00  0.7320E+03  0.7320E+03
