  99  99   0   0
  0.1430410E+02  0.1177748E-08  0.1177748E-08  0.1058004E-08  0.5000000E-15
  1.000000000000000E-004
  CAR 
 unknown system                          
     17.97172485    -54.33836945  301      5.25719993      1.00000000
    -54.338  0.0000E+00  0.0000E+00  0.0000E+00  0.0000E+00
    -54.097  0.0000E+00  0.0000E+00  0.0000E+00  0.0000E+00
    -53.856  0.0000E+00  0.0000E+00  0.0000E+00  0.0000E+00
    -53.615  0.0000E+00  0.0000E+00  0.0000E+00  0.0000E+00
    -53.374  0.0000E+00  0.0000E+00  0.0000E+00  0.0000E+00
    -53.133  0.0000E+00  0.0000E+00  0.0000E+00  0.0000E+00
    -52.892  0.0000E+00  0.0000E+00  0.0000E+00  0.0000E+00
    -52.651  0.0000E+00  0.0000E+00  0.0000E+00  0.0000E+00
    -52.410  0.0000E+00  0.0000E+00  0.0000E+00  0.0000E+00
    -52.169  0.0000E+00  0.0000E+00  0.0000E+00  0.0000E+00
    -51.928  0.0000E+00  0.0000E+00  0.0000E+00  0.0000E+00
    -51.687  0.0000E+00  0.0000E+00  0.0000E+00  0.0000E+00
    -51.446  0.0000E+00  0.0000E+00  0.0000E+00  0.0000E+00
    -51.205  0.4598E-03  0.0000E+00  0.1108E-03  0.0000E+00
    -50.964  0.1472E+03  0.0000E+00  0.3549E+02  0.0000E+00
    -50.723  0.2131E+01  0.0000E+00  0.3600E+02  0.0000E+00
    -50.482  0.0000E+00  0.0000E+00  0.3600E+02  0.0000E+00
    -50.241  0.0000E+00  0.0000E+00  0.3600E+02  0.0000E+00
    -50.000  0.0000E+00  0.0000E+00  0.3600E+02  0.0000E+00
    -49.759  0.1853E+01  0.0000E+00  0.3645E+02  0.0000E+00
    -49.518  0.2715E+03  0.0000E+00  0.1019E+03  0.0000E+00
    -49.277  0.2536E+02  0.0000E+00  0.1080E+03  0.0000E+00
    -49.036  0.0000E+00  0.0000E+00  0.1080E+03  0.0000E+00
    -48.795  0.0000E+00  0.0000E+00  0.1080E+03  0.0000E+00
    -48.554  0.0000E+00  0.0000E+00  0.1080E+03  0.0000E+00
    -48.313  0.0000E+00  0.0000E+00  0.1080E+03  0.0000E+00
    -48.071  0.0000E+00  0.0000E+00  0.1080E+03  0.0000E+00
    -47.830  0.0000E+00  0.0000E+00  0.1080E+03  0.0000E+00
    -47.589  0.0000E+00  0.0000E+00  0.1080E+03  0.0000E+00
    -47.348  0.0000E+00  0.0000E+00  0.1080E+03  0.0000E+00
    -47.107  0.0000E+00  0.0000E+00  0.1080E+03  0.0000E+00
    -46.866  0.0000E+00  0.0000E+00  0.1080E+03  0.0000E+00
    -46.625  0.0000E+00  0.0000E+00  0.1080E+03  0.0000E+00
    -46.384  0.0000E+00  0.4286E+00  0.1080E+03  0.1033E+00
    -46.143  0.0000E+00  0.1489E+03  0.1080E+03  0.3599E+02
    -45.902  0.0000E+00  0.7253E+02  0.1080E+03  0.5348E+02
    -45.661  0.0000E+00  0.2262E+03  0.1080E+03  0.1080E+03
    -45.420  0.0000E+00  0.0000E+00  0.1080E+03  0.1080E+03
    -45.179  0.0000E+00  0.0000E+00  0.1080E+03  0.1080E+03
    -44.938  0.0000E+00  0.0000E+00  0.1080E+03  0.1080E+03
    -44.697  0.0000E+00  0.0000E+00  0.1080E+03  0.1080E+03
    -44.456  0.0000E+00  0.0000E+00  0.1080E+03  0.1080E+03
    -44.215  0.0000E+00  0.0000E+00  0.1080E+03  0.1080E+03
    -43.974  0.0000E+00  0.0000E+00  0.1080E+03  0.1080E+03
    -43.733  0.0000E+00  0.0000E+00  0.1080E+03  0.1080E+03
    -43.492  0.0000E+00  0.0000E+00  0.1080E+03  0.1080E+03
    -43.251  0.0000E+00  0.0000E+00  0.1080E+03  0.1080E+03
    -43.010  0.0000E+00  0.0000E+00  0.1080E+03  0.1080E+03
    -42.769  0.0000E+00  0.0000E+00  0.1080E+03  0.1080E+03
    -42.528  0.0000E+00  0.0000E+00  0.1080E+03  0.1080E+03
    -42.287  0.0000E+00  0.0000E+00  0.1080E+03  0.1080E+03
    -42.046  0.0000E+00  0.0000E+00  0.1080E+03  0.1080E+03
    -41.805  0.0000E+00  0.0000E+00  0.1080E+03  0.1080E+03
    -41.564  0.0000E+00  0.0000E+00  0.1080E+03  0.1080E+03
    -41.323  0.0000E+00  0.0000E+00  0.1080E+03  0.1080E+03
    -41.082  0.0000E+00  0.0000E+00  0.1080E+03  0.1080E+03
    -40.840  0.0000E+00  0.0000E+00  0.1080E+03  0.1080E+03
    -40.599  0.0000E+00  0.0000E+00  0.1080E+03  0.1080E+03
    -40.358  0.0000E+00  0.0000E+00  0.1080E+03  0.1080E+03
    -40.117  0.2252E-10  0.1462E-10  0.1080E+03  0.1080E+03
    -39.876  0.2588E+02  0.2429E+02  0.1142E+03  0.1139E+03
    -39.635  0.4880E+02  0.5039E+02  0.1260E+03  0.1260E+03
    -39.394  0.0000E+00  0.0000E+00  0.1260E+03  0.1260E+03
    -39.153  0.0000E+00  0.0000E+00  0.1260E+03  0.1260E+03
    -38.912  0.0000E+00  0.0000E+00  0.1260E+03  0.1260E+03
    -38.671  0.0000E+00  0.0000E+00  0.1260E+03  0.1260E+03
    -38.430  0.0000E+00  0.0000E+00  0.1260E+03  0.1260E+03
    -38.189  0.0000E+00  0.0000E+00  0.1260E+03  0.1260E+03
    -37.948  0.0000E+00  0.0000E+00  0.1260E+03  0.1260E+03
    -37.707  0.0000E+00  0.0000E+00  0.1260E+03  0.1260E+03
    -37.466  0.0000E+00  0.0000E+00  0.1260E+03  0.1260E+03
    -37.225  0.0000E+00  0.0000E+00  0.1260E+03  0.1260E+03
    -36.984  0.0000E+00  0.0000E+00  0.1260E+03  0.1260E+03
    -36.743  0.0000E+00  0.0000E+00  0.1260E+03  0.1260E+03
    -36.502  0.0000E+00  0.0000E+00  0.1260E+03  0.1260E+03
    -36.261  0.0000E+00  0.0000E+00  0.1260E+03  0.1260E+03
    -36.020  0.0000E+00  0.0000E+00  0.1260E+03  0.1260E+03
    -35.779  0.0000E+00  0.0000E+00  0.1260E+03  0.1260E+03
    -35.538  0.0000E+00  0.0000E+00  0.1260E+03  0.1260E+03
    -35.297  0.0000E+00  0.0000E+00  0.1260E+03  0.1260E+03
    -35.056  0.0000E+00  0.0000E+00  0.1260E+03  0.1260E+03
    -34.815  0.0000E+00  0.0000E+00  0.1260E+03  0.1260E+03
    -34.574  0.0000E+00  0.0000E+00  0.1260E+03  0.1260E+03
    -34.333  0.0000E+00  0.0000E+00  0.1260E+03  0.1260E+03
    -34.092  0.0000E+00  0.0000E+00  0.1260E+03  0.1260E+03
    -33.851  0.0000E+00  0.0000E+00  0.1260E+03  0.1260E+03
    -33.609  0.0000E+00  0.0000E+00  0.1260E+03  0.1260E+03
    -33.368  0.0000E+00  0.0000E+00  0.1260E+03  0.1260E+03
    -33.127  0.0000E+00  0.0000E+00  0.1260E+03  0.1260E+03
    -32.886  0.0000E+00  0.0000E+00  0.1260E+03  0.1260E+03
    -32.645  0.0000E+00  0.0000E+00  0.1260E+03  0.1260E+03
    -32.404  0.0000E+00  0.0000E+00  0.1260E+03  0.1260E+03
    -32.163  0.0000E+00  0.0000E+00  0.1260E+03  0.1260E+03
    -31.922  0.0000E+00  0.0000E+00  0.1260E+03  0.1260E+03
    -31.681  0.0000E+00  0.0000E+00  0.1260E+03  0.1260E+03
    -31.440  0.0000E+00  0.0000E+00  0.1260E+03  0.1260E+03
    -31.199  0.0000E+00  0.0000E+00  0.1260E+03  0.1260E+03
    -30.958  0.0000E+00  0.0000E+00  0.1260E+03  0.1260E+03
    -30.717  0.0000E+00  0.0000E+00  0.1260E+03  0.1260E+03
    -30.476  0.0000E+00  0.0000E+00  0.1260E+03  0.1260E+03
    -30.235  0.0000E+00  0.0000E+00  0.1260E+03  0.1260E+03
    -29.994  0.0000E+00  0.0000E+00  0.1260E+03  0.1260E+03
    -29.753  0.0000E+00  0.0000E+00  0.1260E+03  0.1260E+03
    -29.512  0.0000E+00  0.0000E+00  0.1260E+03  0.1260E+03
    -29.271  0.0000E+00  0.0000E+00  0.1260E+03  0.1260E+03
    -29.030  0.0000E+00  0.0000E+00  0.1260E+03  0.1260E+03
    -28.789  0.0000E+00  0.0000E+00  0.1260E+03  0.1260E+03
    -28.548  0.0000E+00  0.0000E+00  0.1260E+03  0.1260E+03
    -28.307  0.0000E+00  0.0000E+00  0.1260E+03  0.1260E+03
    -28.066  0.0000E+00  0.0000E+00  0.1260E+03  0.1260E+03
    -27.825  0.0000E+00  0.0000E+00  0.1260E+03  0.1260E+03
    -27.584  0.0000E+00  0.0000E+00  0.1260E+03  0.1260E+03
    -27.343  0.0000E+00  0.0000E+00  0.1260E+03  0.1260E+03
    -27.102  0.0000E+00  0.0000E+00  0.1260E+03  0.1260E+03
    -26.861  0.0000E+00  0.0000E+00  0.1260E+03  0.1260E+03
    -26.619  0.0000E+00  0.0000E+00  0.1260E+03  0.1260E+03
    -26.378  0.0000E+00  0.0000E+00  0.1260E+03  0.1260E+03
    -26.137  0.0000E+00  0.0000E+00  0.1260E+03  0.1260E+03
    -25.896  0.0000E+00  0.0000E+00  0.1260E+03  0.1260E+03
    -25.655  0.0000E+00  0.0000E+00  0.1260E+03  0.1260E+03
    -25.414  0.0000E+00  0.0000E+00  0.1260E+03  0.1260E+03
    -25.173  0.0000E+00  0.0000E+00  0.1260E+03  0.1260E+03
    -24.932  0.0000E+00  0.0000E+00  0.1260E+03  0.1260E+03
    -24.691  0.0000E+00  0.0000E+00  0.1260E+03  0.1260E+03
    -24.450  0.0000E+00  0.0000E+00  0.1260E+03  0.1260E+03
    -24.209  0.0000E+00  0.0000E+00  0.1260E+03  0.1260E+03
    -23.968  0.0000E+00  0.0000E+00  0.1260E+03  0.1260E+03
    -23.727  0.0000E+00  0.0000E+00  0.1260E+03  0.1260E+03
    -23.486  0.0000E+00  0.0000E+00  0.1260E+03  0.1260E+03
    -23.245  0.0000E+00  0.0000E+00  0.1260E+03  0.1260E+03
    -23.004  0.0000E+00  0.0000E+00  0.1260E+03  0.1260E+03
    -22.763  0.0000E+00  0.0000E+00  0.1260E+03  0.1260E+03
    -22.522  0.0000E+00  0.0000E+00  0.1260E+03  0.1260E+03
    -22.281  0.0000E+00  0.0000E+00  0.1260E+03  0.1260E+03
    -22.040  0.0000E+00  0.0000E+00  0.1260E+03  0.1260E+03
    -21.799  0.0000E+00  0.0000E+00  0.1260E+03  0.1260E+03
    -21.558  0.0000E+00  0.0000E+00  0.1260E+03  0.1260E+03
    -21.317  0.0000E+00  0.0000E+00  0.1260E+03  0.1260E+03
    -21.076  0.0000E+00  0.0000E+00  0.1260E+03  0.1260E+03
    -20.835  0.0000E+00  0.0000E+00  0.1260E+03  0.1260E+03
    -20.594  0.0000E+00  0.0000E+00  0.1260E+03  0.1260E+03
    -20.353  0.0000E+00  0.0000E+00  0.1260E+03  0.1260E+03
    -20.112  0.0000E+00  0.0000E+00  0.1260E+03  0.1260E+03
    -19.871  0.0000E+00  0.0000E+00  0.1260E+03  0.1260E+03
    -19.630  0.0000E+00  0.0000E+00  0.1260E+03  0.1260E+03
    -19.388  0.0000E+00  0.0000E+00  0.1260E+03  0.1260E+03
    -19.147  0.0000E+00  0.0000E+00  0.1260E+03  0.1260E+03
    -18.906  0.0000E+00  0.0000E+00  0.1260E+03  0.1260E+03
    -18.665  0.0000E+00  0.0000E+00  0.1260E+03  0.1260E+03
    -18.424  0.0000E+00  0.0000E+00  0.1260E+03  0.1260E+03
    -18.183  0.0000E+00  0.0000E+00  0.1260E+03  0.1260E+03
    -17.942  0.0000E+00  0.0000E+00  0.1260E+03  0.1260E+03
    -17.701  0.0000E+00  0.0000E+00  0.1260E+03  0.1260E+03
    -17.460  0.0000E+00  0.0000E+00  0.1260E+03  0.1260E+03
    -17.219  0.0000E+00  0.0000E+00  0.1260E+03  0.1260E+03
    -16.978  0.0000E+00  0.0000E+00  0.1260E+03  0.1260E+03
    -16.737  0.0000E+00  0.0000E+00  0.1260E+03  0.1260E+03
    -16.496  0.0000E+00  0.0000E+00  0.1260E+03  0.1260E+03
    -16.255  0.0000E+00  0.0000E+00  0.1260E+03  0.1260E+03
    -16.014  0.0000E+00  0.0000E+00  0.1260E+03  0.1260E+03
    -15.773  0.0000E+00  0.0000E+00  0.1260E+03  0.1260E+03
    -15.532  0.0000E+00  0.0000E+00  0.1260E+03  0.1260E+03
    -15.291  0.0000E+00  0.0000E+00  0.1260E+03  0.1260E+03
    -15.050  0.0000E+00  0.0000E+00  0.1260E+03  0.1260E+03
    -14.809  0.0000E+00  0.0000E+00  0.1260E+03  0.1260E+03
    -14.568  0.0000E+00  0.0000E+00  0.1260E+03  0.1260E+03
    -14.327  0.0000E+00  0.0000E+00  0.1260E+03  0.1260E+03
    -14.086  0.0000E+00  0.0000E+00  0.1260E+03  0.1260E+03
    -13.845  0.0000E+00  0.0000E+00  0.1260E+03  0.1260E+03
    -13.604  0.0000E+00  0.0000E+00  0.1260E+03  0.1260E+03
    -13.363  0.1061E-02  0.0000E+00  0.1260E+03  0.1260E+03
    -13.122  0.3362E+02  0.2815E-15  0.1341E+03  0.1260E+03
    -12.881  0.4098E+02  0.6276E+00  0.1440E+03  0.1262E+03
    -12.640  0.7482E-01  0.6252E+02  0.1440E+03  0.1412E+03
    -12.399  0.0000E+00  0.1153E+02  0.1440E+03  0.1440E+03
    -12.157  0.0000E+00  0.0000E+00  0.1440E+03  0.1440E+03
    -11.916  0.0000E+00  0.0000E+00  0.1440E+03  0.1440E+03
    -11.675  0.0000E+00  0.0000E+00  0.1440E+03  0.1440E+03
    -11.434  0.0000E+00  0.0000E+00  0.1440E+03  0.1440E+03
    -11.193  0.0000E+00  0.0000E+00  0.1440E+03  0.1440E+03
    -10.952  0.0000E+00  0.0000E+00  0.1440E+03  0.1440E+03
    -10.711  0.0000E+00  0.0000E+00  0.1440E+03  0.1440E+03
    -10.470  0.0000E+00  0.0000E+00  0.1440E+03  0.1440E+03
    -10.229  0.0000E+00  0.0000E+00  0.1440E+03  0.1440E+03
     -9.988  0.0000E+00  0.0000E+00  0.1440E+03  0.1440E+03
     -9.747  0.0000E+00  0.0000E+00  0.1440E+03  0.1440E+03
     -9.506  0.0000E+00  0.0000E+00  0.1440E+03  0.1440E+03
     -9.265  0.0000E+00  0.0000E+00  0.1440E+03  0.1440E+03
     -9.024  0.0000E+00  0.0000E+00  0.1440E+03  0.1440E+03
     -8.783  0.0000E+00  0.0000E+00  0.1440E+03  0.1440E+03
     -8.542  0.0000E+00  0.0000E+00  0.1440E+03  0.1440E+03
     -8.301  0.0000E+00  0.0000E+00  0.1440E+03  0.1440E+03
     -8.060  0.0000E+00  0.0000E+00  0.1440E+03  0.1440E+03
     -7.819  0.6172E-09  0.0000E+00  0.1440E+03  0.1440E+03
     -7.578  0.9384E+00  0.9183E-10  0.1442E+03  0.1440E+03
     -7.337  0.1941E+02  0.8273E+00  0.1489E+03  0.1442E+03
     -7.096  0.3149E+02  0.2140E+02  0.1565E+03  0.1494E+03
     -6.855  0.3688E+02  0.2984E+02  0.1654E+03  0.1565E+03
     -6.614  0.2330E+02  0.2749E+02  0.1710E+03  0.1632E+03
     -6.373  0.6914E-05  0.3243E+02  0.1710E+03  0.1710E+03
     -6.132  0.0000E+00  0.3552E-01  0.1710E+03  0.1710E+03
     -5.891  0.0000E+00  0.0000E+00  0.1710E+03  0.1710E+03
     -5.650  0.0000E+00  0.0000E+00  0.1710E+03  0.1710E+03
     -5.409  0.0000E+00  0.0000E+00  0.1710E+03  0.1710E+03
     -5.168  0.0000E+00  0.0000E+00  0.1710E+03  0.1710E+03
     -4.926  0.0000E+00  0.0000E+00  0.1710E+03  0.1710E+03
     -4.685  0.0000E+00  0.0000E+00  0.1710E+03  0.1710E+03
     -4.444  0.0000E+00  0.0000E+00  0.1710E+03  0.1710E+03
     -4.203  0.0000E+00  0.0000E+00  0.1710E+03  0.1710E+03
     -3.962  0.0000E+00  0.0000E+00  0.1710E+03  0.1710E+03
     -3.721  0.0000E+00  0.0000E+00  0.1710E+03  0.1710E+03
     -3.480  0.0000E+00  0.0000E+00  0.1710E+03  0.1710E+03
     -3.239  0.0000E+00  0.0000E+00  0.1710E+03  0.1710E+03
     -2.998  0.0000E+00  0.0000E+00  0.1710E+03  0.1710E+03
     -2.757  0.0000E+00  0.0000E+00  0.1710E+03  0.1710E+03
     -2.516  0.0000E+00  0.0000E+00  0.1710E+03  0.1710E+03
     -2.275  0.0000E+00  0.0000E+00  0.1710E+03  0.1710E+03
     -2.034  0.3764E-01  0.0000E+00  0.1710E+03  0.1710E+03
     -1.793  0.2638E+02  0.0000E+00  0.1774E+03  0.1710E+03
     -1.552  0.1852E+02  0.0000E+00  0.1818E+03  0.1710E+03
     -1.311  0.1481E+02  0.0000E+00  0.1854E+03  0.1710E+03
     -1.070  0.2417E+02  0.0000E+00  0.1912E+03  0.1710E+03
     -0.829  0.5722E+02  0.0000E+00  0.2050E+03  0.1710E+03
     -0.588  0.6231E+02  0.1183E-02  0.2200E+03  0.1710E+03
     -0.347  0.4128E+02  0.1107E+02  0.2300E+03  0.1737E+03
     -0.106  0.8221E+02  0.2042E+02  0.2498E+03  0.1786E+03
      0.135  0.9007E+02  0.1352E+02  0.2715E+03  0.1818E+03
      0.376  0.8283E+02  0.2397E+02  0.2915E+03  0.1876E+03
      0.617  0.7289E+02  0.3272E+02  0.3090E+03  0.1955E+03
      0.858  0.5861E+02  0.4726E+02  0.3232E+03  0.2069E+03
      1.099  0.3823E+02  0.4059E+02  0.3324E+03  0.2167E+03
      1.340  0.3703E+02  0.3286E+02  0.3413E+03  0.2246E+03
      1.581  0.4960E+02  0.2522E+02  0.3533E+03  0.2307E+03
      1.822  0.5588E+02  0.3268E+02  0.3667E+03  0.2386E+03
      2.064  0.7636E+02  0.4105E+02  0.3851E+03  0.2485E+03
      2.305  0.6009E+02  0.2643E+02  0.3996E+03  0.2548E+03
      2.546  0.3249E+02  0.2980E+02  0.4075E+03  0.2620E+03
      2.787  0.5090E+02  0.4122E+02  0.4197E+03  0.2719E+03
      3.028  0.2202E+02  0.4647E+02  0.4250E+03  0.2832E+03
      3.269  0.1103E+02  0.4700E+02  0.4277E+03  0.2945E+03
      3.510  0.3891E+02  0.3963E+02  0.4371E+03  0.3040E+03
      3.751  0.2565E+02  0.6891E+01  0.4433E+03  0.3057E+03
      3.992  0.3828E+02  0.2529E+02  0.4525E+03  0.3118E+03
      4.233  0.3861E+02  0.7519E+02  0.4618E+03  0.3299E+03
      4.474  0.3868E+02  0.4045E+02  0.4711E+03  0.3397E+03
      4.715  0.3537E+02  0.9707E+01  0.4796E+03  0.3420E+03
      4.956  0.2393E+02  0.0000E+00  0.4854E+03  0.3420E+03
      5.197  0.2475E+01  0.0000E+00  0.4860E+03  0.3420E+03
      5.438  0.0000E+00  0.0000E+00  0.4860E+03  0.3420E+03
      5.679  0.0000E+00  0.0000E+00  0.4860E+03  0.3420E+03
      5.920  0.0000E+00  0.0000E+00  0.4860E+03  0.3420E+03
      6.161  0.0000E+00  0.1323E-07  0.4860E+03  0.3420E+03
      6.402  0.0000E+00  0.1601E+01  0.4860E+03  0.3424E+03
      6.643  0.0000E+00  0.5081E+01  0.4860E+03  0.3436E+03
      6.884  0.0000E+00  0.1139E+02  0.4860E+03  0.3464E+03
      7.125  0.9975E-12  0.2184E+02  0.4860E+03  0.3516E+03
      7.366  0.7981E-01  0.6135E+02  0.4860E+03  0.3664E+03
      7.607  0.7385E-01  0.6214E+02  0.4860E+03  0.3814E+03
      7.848  0.6058E+00  0.6274E+02  0.4862E+03  0.3965E+03
      8.089  0.7503E+00  0.7548E+02  0.4864E+03  0.4147E+03
      8.330  0.2524E+01  0.8114E+02  0.4870E+03  0.4343E+03
      8.571  0.4661E+01  0.6836E+02  0.4881E+03  0.4507E+03
      8.812  0.1004E+02  0.6469E+02  0.4905E+03  0.4663E+03
      9.053  0.1469E+02  0.4441E+02  0.4941E+03  0.4770E+03
      9.295  0.1716E+02  0.3145E+02  0.4982E+03  0.4846E+03
      9.536  0.1924E+02  0.8255E+01  0.5028E+03  0.4866E+03
      9.777  0.1636E+02  0.5943E+01  0.5068E+03  0.4880E+03
     10.018  0.2466E+02  0.1180E+02  0.5127E+03  0.4909E+03
     10.259  0.1653E+02  0.1783E+02  0.5167E+03  0.4952E+03
     10.500  0.2190E+02  0.2275E+02  0.5220E+03  0.5007E+03
     10.741  0.1308E+02  0.2251E+02  0.5251E+03  0.5061E+03
     10.982  0.1563E+02  0.2331E+02  0.5289E+03  0.5117E+03
     11.223  0.2309E+02  0.3038E+02  0.5345E+03  0.5190E+03
     11.464  0.3271E+02  0.2000E+02  0.5424E+03  0.5239E+03
     11.705  0.2806E+02  0.1775E+02  0.5491E+03  0.5281E+03
     11.946  0.3363E+02  0.1142E+02  0.5572E+03  0.5309E+03
     12.187  0.3567E+02  0.2673E+02  0.5658E+03  0.5373E+03
     12.428  0.2200E+02  0.4565E+02  0.5711E+03  0.5483E+03
     12.669  0.1949E+02  0.3482E+02  0.5758E+03  0.5567E+03
     12.910  0.2481E+02  0.3110E+02  0.5818E+03  0.5642E+03
     13.151  0.2662E+02  0.2066E+02  0.5882E+03  0.5692E+03
     13.392  0.2843E+02  0.2487E+02  0.5951E+03  0.5752E+03
     13.633  0.2470E+02  0.3296E+02  0.6010E+03  0.5831E+03
     13.874  0.1755E+02  0.2604E+02  0.6053E+03  0.5894E+03
     14.115  0.3110E+01  0.2562E+02  0.6060E+03  0.5956E+03
     14.356  0.3768E-04  0.2332E+02  0.6060E+03  0.6012E+03
     14.597  0.0000E+00  0.1816E+02  0.6060E+03  0.6056E+03
     14.838  0.0000E+00  0.1733E+01  0.6060E+03  0.6060E+03
     15.079  0.0000E+00  0.2206E-05  0.6060E+03  0.6060E+03
     15.320  0.0000E+00  0.0000E+00  0.6060E+03  0.6060E+03
     15.561  0.0000E+00  0.0000E+00  0.6060E+03  0.6060E+03
     15.802  0.0000E+00  0.0000E+00  0.6060E+03  0.6060E+03
     16.043  0.0000E+00  0.0000E+00  0.6060E+03  0.6060E+03
     16.284  0.0000E+00  0.0000E+00  0.6060E+03  0.6060E+03
     16.526  0.0000E+00  0.0000E+00  0.6060E+03  0.6060E+03
     16.767  0.0000E+00  0.0000E+00  0.6060E+03  0.6060E+03
     17.008  0.0000E+00  0.0000E+00  0.6060E+03  0.6060E+03
     17.249  0.0000E+00  0.0000E+00  0.6060E+03  0.6060E+03
     17.490  0.0000E+00  0.0000E+00  0.6060E+03  0.6060E+03
     17.731  0.0000E+00  0.0000E+00  0.6060E+03  0.6060E+03
     17.972  0.0000E+00  0.0000E+00  0.6060E+03  0.6060E+03
