  99  99   0   0
  0.1430410E+02  0.1177748E-08  0.1177748E-08  0.1058004E-08  0.5000000E-15
  1.000000000000000E-004
  CAR 
 unknown system                          
     18.03422906    -54.34439986  301      5.30765347      1.00000000
    -54.344  0.0000E+00  0.0000E+00  0.0000E+00  0.0000E+00
    -54.103  0.0000E+00  0.0000E+00  0.0000E+00  0.0000E+00
    -53.862  0.0000E+00  0.0000E+00  0.0000E+00  0.0000E+00
    -53.621  0.0000E+00  0.0000E+00  0.0000E+00  0.0000E+00
    -53.379  0.0000E+00  0.0000E+00  0.0000E+00  0.0000E+00
    -53.138  0.0000E+00  0.0000E+00  0.0000E+00  0.0000E+00
    -52.897  0.0000E+00  0.0000E+00  0.0000E+00  0.0000E+00
    -52.656  0.0000E+00  0.0000E+00  0.0000E+00  0.0000E+00
    -52.414  0.0000E+00  0.0000E+00  0.0000E+00  0.0000E+00
    -52.173  0.0000E+00  0.0000E+00  0.0000E+00  0.0000E+00
    -51.932  0.0000E+00  0.0000E+00  0.0000E+00  0.0000E+00
    -51.691  0.0000E+00  0.0000E+00  0.0000E+00  0.0000E+00
    -51.449  0.0000E+00  0.0000E+00  0.0000E+00  0.0000E+00
    -51.208  0.3174E-03  0.0000E+00  0.7659E-04  0.0000E+00
    -50.967  0.1466E+03  0.0000E+00  0.3538E+02  0.0000E+00
    -50.725  0.2583E+01  0.0000E+00  0.3600E+02  0.0000E+00
    -50.484  0.0000E+00  0.0000E+00  0.3600E+02  0.0000E+00
    -50.243  0.0000E+00  0.0000E+00  0.3600E+02  0.0000E+00
    -50.002  0.0000E+00  0.0000E+00  0.3600E+02  0.0000E+00
    -49.760  0.1649E+01  0.0000E+00  0.3640E+02  0.0000E+00
    -49.519  0.2698E+03  0.0000E+00  0.1015E+03  0.0000E+00
    -49.278  0.2696E+02  0.0000E+00  0.1080E+03  0.0000E+00
    -49.037  0.0000E+00  0.0000E+00  0.1080E+03  0.0000E+00
    -48.795  0.0000E+00  0.0000E+00  0.1080E+03  0.0000E+00
    -48.554  0.0000E+00  0.0000E+00  0.1080E+03  0.0000E+00
    -48.313  0.0000E+00  0.0000E+00  0.1080E+03  0.0000E+00
    -48.072  0.0000E+00  0.0000E+00  0.1080E+03  0.0000E+00
    -47.830  0.0000E+00  0.0000E+00  0.1080E+03  0.0000E+00
    -47.589  0.0000E+00  0.0000E+00  0.1080E+03  0.0000E+00
    -47.348  0.0000E+00  0.0000E+00  0.1080E+03  0.0000E+00
    -47.107  0.0000E+00  0.0000E+00  0.1080E+03  0.0000E+00
    -46.865  0.0000E+00  0.0000E+00  0.1080E+03  0.0000E+00
    -46.624  0.0000E+00  0.0000E+00  0.1080E+03  0.0000E+00
    -46.383  0.0000E+00  0.4932E+00  0.1080E+03  0.1190E+00
    -46.141  0.0000E+00  0.1487E+03  0.1080E+03  0.3599E+02
    -45.900  0.0000E+00  0.7538E+02  0.1080E+03  0.5418E+02
    -45.659  0.0000E+00  0.2231E+03  0.1080E+03  0.1080E+03
    -45.418  0.0000E+00  0.0000E+00  0.1080E+03  0.1080E+03
    -45.176  0.0000E+00  0.0000E+00  0.1080E+03  0.1080E+03
    -44.935  0.0000E+00  0.0000E+00  0.1080E+03  0.1080E+03
    -44.694  0.0000E+00  0.0000E+00  0.1080E+03  0.1080E+03
    -44.453  0.0000E+00  0.0000E+00  0.1080E+03  0.1080E+03
    -44.211  0.0000E+00  0.0000E+00  0.1080E+03  0.1080E+03
    -43.970  0.0000E+00  0.0000E+00  0.1080E+03  0.1080E+03
    -43.729  0.0000E+00  0.0000E+00  0.1080E+03  0.1080E+03
    -43.488  0.0000E+00  0.0000E+00  0.1080E+03  0.1080E+03
    -43.246  0.0000E+00  0.0000E+00  0.1080E+03  0.1080E+03
    -43.005  0.0000E+00  0.0000E+00  0.1080E+03  0.1080E+03
    -42.764  0.0000E+00  0.0000E+00  0.1080E+03  0.1080E+03
    -42.523  0.0000E+00  0.0000E+00  0.1080E+03  0.1080E+03
    -42.281  0.0000E+00  0.0000E+00  0.1080E+03  0.1080E+03
    -42.040  0.0000E+00  0.0000E+00  0.1080E+03  0.1080E+03
    -41.799  0.0000E+00  0.0000E+00  0.1080E+03  0.1080E+03
    -41.558  0.0000E+00  0.0000E+00  0.1080E+03  0.1080E+03
    -41.316  0.0000E+00  0.0000E+00  0.1080E+03  0.1080E+03
    -41.075  0.0000E+00  0.0000E+00  0.1080E+03  0.1080E+03
    -40.834  0.0000E+00  0.0000E+00  0.1080E+03  0.1080E+03
    -40.592  0.0000E+00  0.0000E+00  0.1080E+03  0.1080E+03
    -40.351  0.0000E+00  0.0000E+00  0.1080E+03  0.1080E+03
    -40.110  0.6081E-09  0.3810E-09  0.1080E+03  0.1080E+03
    -39.869  0.3988E+02  0.3786E+02  0.1176E+03  0.1171E+03
    -39.627  0.3473E+02  0.3675E+02  0.1260E+03  0.1260E+03
    -39.386  0.0000E+00  0.0000E+00  0.1260E+03  0.1260E+03
    -39.145  0.0000E+00  0.0000E+00  0.1260E+03  0.1260E+03
    -38.904  0.0000E+00  0.0000E+00  0.1260E+03  0.1260E+03
    -38.662  0.0000E+00  0.0000E+00  0.1260E+03  0.1260E+03
    -38.421  0.0000E+00  0.0000E+00  0.1260E+03  0.1260E+03
    -38.180  0.0000E+00  0.0000E+00  0.1260E+03  0.1260E+03
    -37.939  0.0000E+00  0.0000E+00  0.1260E+03  0.1260E+03
    -37.697  0.0000E+00  0.0000E+00  0.1260E+03  0.1260E+03
    -37.456  0.0000E+00  0.0000E+00  0.1260E+03  0.1260E+03
    -37.215  0.0000E+00  0.0000E+00  0.1260E+03  0.1260E+03
    -36.974  0.0000E+00  0.0000E+00  0.1260E+03  0.1260E+03
    -36.732  0.0000E+00  0.0000E+00  0.1260E+03  0.1260E+03
    -36.491  0.0000E+00  0.0000E+00  0.1260E+03  0.1260E+03
    -36.250  0.0000E+00  0.0000E+00  0.1260E+03  0.1260E+03
    -36.008  0.0000E+00  0.0000E+00  0.1260E+03  0.1260E+03
    -35.767  0.0000E+00  0.0000E+00  0.1260E+03  0.1260E+03
    -35.526  0.0000E+00  0.0000E+00  0.1260E+03  0.1260E+03
    -35.285  0.0000E+00  0.0000E+00  0.1260E+03  0.1260E+03
    -35.043  0.0000E+00  0.0000E+00  0.1260E+03  0.1260E+03
    -34.802  0.0000E+00  0.0000E+00  0.1260E+03  0.1260E+03
    -34.561  0.0000E+00  0.0000E+00  0.1260E+03  0.1260E+03
    -34.320  0.0000E+00  0.0000E+00  0.1260E+03  0.1260E+03
    -34.078  0.0000E+00  0.0000E+00  0.1260E+03  0.1260E+03
    -33.837  0.0000E+00  0.0000E+00  0.1260E+03  0.1260E+03
    -33.596  0.0000E+00  0.0000E+00  0.1260E+03  0.1260E+03
    -33.355  0.0000E+00  0.0000E+00  0.1260E+03  0.1260E+03
    -33.113  0.0000E+00  0.0000E+00  0.1260E+03  0.1260E+03
    -32.872  0.0000E+00  0.0000E+00  0.1260E+03  0.1260E+03
    -32.631  0.0000E+00  0.0000E+00  0.1260E+03  0.1260E+03
    -32.390  0.0000E+00  0.0000E+00  0.1260E+03  0.1260E+03
    -32.148  0.0000E+00  0.0000E+00  0.1260E+03  0.1260E+03
    -31.907  0.0000E+00  0.0000E+00  0.1260E+03  0.1260E+03
    -31.666  0.0000E+00  0.0000E+00  0.1260E+03  0.1260E+03
    -31.425  0.0000E+00  0.0000E+00  0.1260E+03  0.1260E+03
    -31.183  0.0000E+00  0.0000E+00  0.1260E+03  0.1260E+03
    -30.942  0.0000E+00  0.0000E+00  0.1260E+03  0.1260E+03
    -30.701  0.0000E+00  0.0000E+00  0.1260E+03  0.1260E+03
    -30.459  0.0000E+00  0.0000E+00  0.1260E+03  0.1260E+03
    -30.218  0.0000E+00  0.0000E+00  0.1260E+03  0.1260E+03
    -29.977  0.0000E+00  0.0000E+00  0.1260E+03  0.1260E+03
    -29.736  0.0000E+00  0.0000E+00  0.1260E+03  0.1260E+03
    -29.494  0.0000E+00  0.0000E+00  0.1260E+03  0.1260E+03
    -29.253  0.0000E+00  0.0000E+00  0.1260E+03  0.1260E+03
    -29.012  0.0000E+00  0.0000E+00  0.1260E+03  0.1260E+03
    -28.771  0.0000E+00  0.0000E+00  0.1260E+03  0.1260E+03
    -28.529  0.0000E+00  0.0000E+00  0.1260E+03  0.1260E+03
    -28.288  0.0000E+00  0.0000E+00  0.1260E+03  0.1260E+03
    -28.047  0.0000E+00  0.0000E+00  0.1260E+03  0.1260E+03
    -27.806  0.0000E+00  0.0000E+00  0.1260E+03  0.1260E+03
    -27.564  0.0000E+00  0.0000E+00  0.1260E+03  0.1260E+03
    -27.323  0.0000E+00  0.0000E+00  0.1260E+03  0.1260E+03
    -27.082  0.0000E+00  0.0000E+00  0.1260E+03  0.1260E+03
    -26.841  0.0000E+00  0.0000E+00  0.1260E+03  0.1260E+03
    -26.599  0.0000E+00  0.0000E+00  0.1260E+03  0.1260E+03
    -26.358  0.0000E+00  0.0000E+00  0.1260E+03  0.1260E+03
    -26.117  0.0000E+00  0.0000E+00  0.1260E+03  0.1260E+03
    -25.875  0.0000E+00  0.0000E+00  0.1260E+03  0.1260E+03
    -25.634  0.0000E+00  0.0000E+00  0.1260E+03  0.1260E+03
    -25.393  0.0000E+00  0.0000E+00  0.1260E+03  0.1260E+03
    -25.152  0.0000E+00  0.0000E+00  0.1260E+03  0.1260E+03
    -24.910  0.0000E+00  0.0000E+00  0.1260E+03  0.1260E+03
    -24.669  0.0000E+00  0.0000E+00  0.1260E+03  0.1260E+03
    -24.428  0.0000E+00  0.0000E+00  0.1260E+03  0.1260E+03
    -24.187  0.0000E+00  0.0000E+00  0.1260E+03  0.1260E+03
    -23.945  0.0000E+00  0.0000E+00  0.1260E+03  0.1260E+03
    -23.704  0.0000E+00  0.0000E+00  0.1260E+03  0.1260E+03
    -23.463  0.0000E+00  0.0000E+00  0.1260E+03  0.1260E+03
    -23.222  0.0000E+00  0.0000E+00  0.1260E+03  0.1260E+03
    -22.980  0.0000E+00  0.0000E+00  0.1260E+03  0.1260E+03
    -22.739  0.0000E+00  0.0000E+00  0.1260E+03  0.1260E+03
    -22.498  0.0000E+00  0.0000E+00  0.1260E+03  0.1260E+03
    -22.257  0.0000E+00  0.0000E+00  0.1260E+03  0.1260E+03
    -22.015  0.0000E+00  0.0000E+00  0.1260E+03  0.1260E+03
    -21.774  0.0000E+00  0.0000E+00  0.1260E+03  0.1260E+03
    -21.533  0.0000E+00  0.0000E+00  0.1260E+03  0.1260E+03
    -21.291  0.0000E+00  0.0000E+00  0.1260E+03  0.1260E+03
    -21.050  0.0000E+00  0.0000E+00  0.1260E+03  0.1260E+03
    -20.809  0.0000E+00  0.0000E+00  0.1260E+03  0.1260E+03
    -20.568  0.0000E+00  0.0000E+00  0.1260E+03  0.1260E+03
    -20.326  0.0000E+00  0.0000E+00  0.1260E+03  0.1260E+03
    -20.085  0.0000E+00  0.0000E+00  0.1260E+03  0.1260E+03
    -19.844  0.0000E+00  0.0000E+00  0.1260E+03  0.1260E+03
    -19.603  0.0000E+00  0.0000E+00  0.1260E+03  0.1260E+03
    -19.361  0.0000E+00  0.0000E+00  0.1260E+03  0.1260E+03
    -19.120  0.0000E+00  0.0000E+00  0.1260E+03  0.1260E+03
    -18.879  0.0000E+00  0.0000E+00  0.1260E+03  0.1260E+03
    -18.638  0.0000E+00  0.0000E+00  0.1260E+03  0.1260E+03
    -18.396  0.0000E+00  0.0000E+00  0.1260E+03  0.1260E+03
    -18.155  0.0000E+00  0.0000E+00  0.1260E+03  0.1260E+03
    -17.914  0.0000E+00  0.0000E+00  0.1260E+03  0.1260E+03
    -17.673  0.0000E+00  0.0000E+00  0.1260E+03  0.1260E+03
    -17.431  0.0000E+00  0.0000E+00  0.1260E+03  0.1260E+03
    -17.190  0.0000E+00  0.0000E+00  0.1260E+03  0.1260E+03
    -16.949  0.0000E+00  0.0000E+00  0.1260E+03  0.1260E+03
    -16.708  0.0000E+00  0.0000E+00  0.1260E+03  0.1260E+03
    -16.466  0.0000E+00  0.0000E+00  0.1260E+03  0.1260E+03
    -16.225  0.0000E+00  0.0000E+00  0.1260E+03  0.1260E+03
    -15.984  0.0000E+00  0.0000E+00  0.1260E+03  0.1260E+03
    -15.742  0.0000E+00  0.0000E+00  0.1260E+03  0.1260E+03
    -15.501  0.0000E+00  0.0000E+00  0.1260E+03  0.1260E+03
    -15.260  0.0000E+00  0.0000E+00  0.1260E+03  0.1260E+03
    -15.019  0.0000E+00  0.0000E+00  0.1260E+03  0.1260E+03
    -14.777  0.0000E+00  0.0000E+00  0.1260E+03  0.1260E+03
    -14.536  0.0000E+00  0.0000E+00  0.1260E+03  0.1260E+03
    -14.295  0.0000E+00  0.0000E+00  0.1260E+03  0.1260E+03
    -14.054  0.0000E+00  0.0000E+00  0.1260E+03  0.1260E+03
    -13.812  0.0000E+00  0.0000E+00  0.1260E+03  0.1260E+03
    -13.571  0.0000E+00  0.0000E+00  0.1260E+03  0.1260E+03
    -13.330  0.2632E-01  0.0000E+00  0.1260E+03  0.1260E+03
    -13.089  0.4019E+02  0.5162E-12  0.1357E+03  0.1260E+03
    -12.847  0.3439E+02  0.3485E+01  0.1440E+03  0.1268E+03
    -12.606  0.3790E-02  0.6699E+02  0.1440E+03  0.1430E+03
    -12.365  0.0000E+00  0.4135E+01  0.1440E+03  0.1440E+03
    -12.124  0.0000E+00  0.0000E+00  0.1440E+03  0.1440E+03
    -11.882  0.0000E+00  0.0000E+00  0.1440E+03  0.1440E+03
    -11.641  0.0000E+00  0.0000E+00  0.1440E+03  0.1440E+03
    -11.400  0.0000E+00  0.0000E+00  0.1440E+03  0.1440E+03
    -11.158  0.0000E+00  0.0000E+00  0.1440E+03  0.1440E+03
    -10.917  0.0000E+00  0.0000E+00  0.1440E+03  0.1440E+03
    -10.676  0.0000E+00  0.0000E+00  0.1440E+03  0.1440E+03
    -10.435  0.0000E+00  0.0000E+00  0.1440E+03  0.1440E+03
    -10.193  0.0000E+00  0.0000E+00  0.1440E+03  0.1440E+03
     -9.952  0.0000E+00  0.0000E+00  0.1440E+03  0.1440E+03
     -9.711  0.0000E+00  0.0000E+00  0.1440E+03  0.1440E+03
     -9.470  0.0000E+00  0.0000E+00  0.1440E+03  0.1440E+03
     -9.228  0.0000E+00  0.0000E+00  0.1440E+03  0.1440E+03
     -8.987  0.0000E+00  0.0000E+00  0.1440E+03  0.1440E+03
     -8.746  0.0000E+00  0.0000E+00  0.1440E+03  0.1440E+03
     -8.505  0.0000E+00  0.0000E+00  0.1440E+03  0.1440E+03
     -8.263  0.0000E+00  0.0000E+00  0.1440E+03  0.1440E+03
     -8.022  0.0000E+00  0.0000E+00  0.1440E+03  0.1440E+03
     -7.781  0.2105E-06  0.0000E+00  0.1440E+03  0.1440E+03
     -7.540  0.2174E+01  0.4599E-07  0.1445E+03  0.1440E+03
     -7.298  0.2454E+02  0.2101E+01  0.1504E+03  0.1445E+03
     -7.057  0.2863E+02  0.2649E+02  0.1574E+03  0.1509E+03
     -6.816  0.4429E+02  0.2671E+02  0.1680E+03  0.1573E+03
     -6.575  0.1228E+02  0.3436E+02  0.1710E+03  0.1656E+03
     -6.333  0.0000E+00  0.2225E+02  0.1710E+03  0.1710E+03
     -6.092  0.0000E+00  0.1257E-02  0.1710E+03  0.1710E+03
     -5.851  0.0000E+00  0.0000E+00  0.1710E+03  0.1710E+03
     -5.609  0.0000E+00  0.0000E+00  0.1710E+03  0.1710E+03
     -5.368  0.0000E+00  0.0000E+00  0.1710E+03  0.1710E+03
     -5.127  0.0000E+00  0.0000E+00  0.1710E+03  0.1710E+03
     -4.886  0.0000E+00  0.0000E+00  0.1710E+03  0.1710E+03
     -4.644  0.0000E+00  0.0000E+00  0.1710E+03  0.1710E+03
     -4.403  0.0000E+00  0.0000E+00  0.1710E+03  0.1710E+03
     -4.162  0.0000E+00  0.0000E+00  0.1710E+03  0.1710E+03
     -3.921  0.0000E+00  0.0000E+00  0.1710E+03  0.1710E+03
     -3.679  0.0000E+00  0.0000E+00  0.1710E+03  0.1710E+03
     -3.438  0.0000E+00  0.0000E+00  0.1710E+03  0.1710E+03
     -3.197  0.0000E+00  0.0000E+00  0.1710E+03  0.1710E+03
     -2.956  0.0000E+00  0.0000E+00  0.1710E+03  0.1710E+03
     -2.714  0.0000E+00  0.0000E+00  0.1710E+03  0.1710E+03
     -2.473  0.0000E+00  0.0000E+00  0.1710E+03  0.1710E+03
     -2.232  0.1227E-14  0.0000E+00  0.1710E+03  0.1710E+03
     -1.991  0.7786E+00  0.0000E+00  0.1712E+03  0.1710E+03
     -1.749  0.3048E+02  0.0000E+00  0.1785E+03  0.1710E+03
     -1.508  0.1748E+02  0.0000E+00  0.1828E+03  0.1710E+03
     -1.267  0.1615E+02  0.0000E+00  0.1867E+03  0.1710E+03
     -1.025  0.2717E+02  0.0000E+00  0.1932E+03  0.1710E+03
     -0.784  0.5893E+02  0.0000E+00  0.2074E+03  0.1710E+03
     -0.543  0.6194E+02  0.3975E-01  0.2224E+03  0.1710E+03
     -0.302  0.4788E+02  0.1653E+02  0.2339E+03  0.1750E+03
     -0.060  0.7968E+02  0.1681E+02  0.2531E+03  0.1791E+03
      0.181  0.9444E+02  0.1558E+02  0.2759E+03  0.1828E+03
      0.422  0.7800E+02  0.2424E+02  0.2947E+03  0.1887E+03
      0.663  0.7573E+02  0.3853E+02  0.3130E+03  0.1980E+03
      0.905  0.5088E+02  0.4575E+02  0.3253E+03  0.2090E+03
      1.146  0.3513E+02  0.3922E+02  0.3338E+03  0.2185E+03
      1.387  0.4287E+02  0.2989E+02  0.3441E+03  0.2257E+03
      1.628  0.4670E+02  0.2767E+02  0.3554E+03  0.2323E+03
      1.870  0.6512E+02  0.3349E+02  0.3711E+03  0.2404E+03
      2.111  0.7919E+02  0.3988E+02  0.3902E+03  0.2500E+03
      2.352  0.4436E+02  0.2485E+02  0.4009E+03  0.2560E+03
      2.593  0.3676E+02  0.3055E+02  0.4098E+03  0.2634E+03
      2.835  0.5050E+02  0.4454E+02  0.4220E+03  0.2742E+03
      3.076  0.1391E+02  0.4974E+02  0.4253E+03  0.2862E+03
      3.317  0.1516E+02  0.4335E+02  0.4290E+03  0.2966E+03
      3.559  0.3838E+02  0.3241E+02  0.4382E+03  0.3044E+03
      3.800  0.2687E+02  0.7205E+01  0.4447E+03  0.3062E+03
      4.041  0.4108E+02  0.3692E+02  0.4546E+03  0.3151E+03
      4.282  0.3782E+02  0.7627E+02  0.4637E+03  0.3335E+03
      4.524  0.3907E+02  0.3092E+02  0.4732E+03  0.3409E+03
      4.765  0.3219E+02  0.4384E+01  0.4809E+03  0.3420E+03
      5.006  0.2023E+02  0.0000E+00  0.4858E+03  0.3420E+03
      5.247  0.7573E+00  0.0000E+00  0.4860E+03  0.3420E+03
      5.489  0.0000E+00  0.0000E+00  0.4860E+03  0.3420E+03
      5.730  0.0000E+00  0.0000E+00  0.4860E+03  0.3420E+03
      5.971  0.0000E+00  0.0000E+00  0.4860E+03  0.3420E+03
      6.212  0.0000E+00  0.2013E-04  0.4860E+03  0.3420E+03
      6.454  0.0000E+00  0.2126E+01  0.4860E+03  0.3425E+03
      6.695  0.0000E+00  0.5285E+01  0.4860E+03  0.3438E+03
      6.936  0.0000E+00  0.1447E+02  0.4860E+03  0.3473E+03
      7.177  0.9256E-08  0.2932E+02  0.4860E+03  0.3544E+03
      7.419  0.1439E+00  0.5943E+02  0.4860E+03  0.3687E+03
      7.660  0.1007E-01  0.6712E+02  0.4860E+03  0.3849E+03
      7.901  0.6529E+00  0.6479E+02  0.4862E+03  0.4005E+03
      8.142  0.1319E+01  0.7539E+02  0.4865E+03  0.4187E+03
      8.384  0.2857E+01  0.8307E+02  0.4872E+03  0.4387E+03
      8.625  0.5263E+01  0.6567E+02  0.4885E+03  0.4546E+03
      8.866  0.1128E+02  0.6125E+02  0.4912E+03  0.4694E+03
      9.108  0.1455E+02  0.4206E+02  0.4947E+03  0.4795E+03
      9.349  0.2018E+02  0.2433E+02  0.4996E+03  0.4854E+03
      9.590  0.1607E+02  0.5748E+01  0.5035E+03  0.4868E+03
      9.831  0.1825E+02  0.7674E+01  0.5079E+03  0.4886E+03
     10.073  0.2458E+02  0.1166E+02  0.5138E+03  0.4914E+03
     10.314  0.1839E+02  0.2180E+02  0.5182E+03  0.4967E+03
     10.555  0.1979E+02  0.2138E+02  0.5230E+03  0.5019E+03
     10.796  0.1176E+02  0.2264E+02  0.5258E+03  0.5073E+03
     11.038  0.1867E+02  0.2838E+02  0.5303E+03  0.5142E+03
     11.279  0.2517E+02  0.2462E+02  0.5364E+03  0.5201E+03
     11.520  0.3214E+02  0.2102E+02  0.5442E+03  0.5252E+03
     11.761  0.2736E+02  0.1489E+02  0.5508E+03  0.5288E+03
     12.003  0.3394E+02  0.1195E+02  0.5590E+03  0.5316E+03
     12.244  0.3251E+02  0.3181E+02  0.5668E+03  0.5393E+03
     12.485  0.2274E+02  0.4609E+02  0.5723E+03  0.5504E+03
     12.726  0.2064E+02  0.3592E+02  0.5773E+03  0.5591E+03
     12.968  0.2404E+02  0.2522E+02  0.5831E+03  0.5652E+03
     13.209  0.2807E+02  0.2071E+02  0.5898E+03  0.5702E+03
     13.450  0.2793E+02  0.2895E+02  0.5966E+03  0.5772E+03
     13.692  0.2248E+02  0.3073E+02  0.6020E+03  0.5846E+03
     13.933  0.1505E+02  0.2681E+02  0.6056E+03  0.5911E+03
     14.174  0.1541E+01  0.2438E+02  0.6060E+03  0.5969E+03
     14.415  0.0000E+00  0.2245E+02  0.6060E+03  0.6023E+03
     14.657  0.0000E+00  0.1440E+02  0.6060E+03  0.6058E+03
     14.898  0.0000E+00  0.7344E+00  0.6060E+03  0.6060E+03
     15.139  0.0000E+00  0.2163E-05  0.6060E+03  0.6060E+03
     15.380  0.0000E+00  0.0000E+00  0.6060E+03  0.6060E+03
     15.622  0.0000E+00  0.0000E+00  0.6060E+03  0.6060E+03
     15.863  0.0000E+00  0.0000E+00  0.6060E+03  0.6060E+03
     16.104  0.0000E+00  0.0000E+00  0.6060E+03  0.6060E+03
     16.345  0.0000E+00  0.0000E+00  0.6060E+03  0.6060E+03
     16.587  0.0000E+00  0.0000E+00  0.6060E+03  0.6060E+03
     16.828  0.0000E+00  0.0000E+00  0.6060E+03  0.6060E+03
     17.069  0.0000E+00  0.0000E+00  0.6060E+03  0.6060E+03
     17.310  0.0000E+00  0.0000E+00  0.6060E+03  0.6060E+03
     17.552  0.0000E+00  0.0000E+00  0.6060E+03  0.6060E+03
     17.793  0.0000E+00  0.0000E+00  0.6060E+03  0.6060E+03
     18.034  0.0000E+00  0.0000E+00  0.6060E+03  0.6060E+03
