 vasp.5.4.4.18Apr17-6-g9f103f2a35 (build Oct 25 2017 14:42:18) complex          
  
 executed on             LinuxIFC date 2021.05.28  05:17:42
 running on   24 total cores
 distrk:  each k-point on   12 cores,    2 groups
 distr:  one band on NCORES_PER_BAND=   6 cores,    2 groups


--------------------------------------------------------------------------------------------------------


 INCAR:
 POTCAR:    PAW_PBE Li_sv 10Sep2004               
 POTCAR:    PAW_PBE O 08Apr2002                   
 POTCAR:    PAW_PBE S 06Sep2000                   
 POTCAR:    PAW_PBE Fe_pv 02Aug2007               

 ----------------------------------------------------------------------------- 
|                                                                             |
|           W    W    AA    RRRRR   N    N  II  N    N   GGGG   !!!           |
|           W    W   A  A   R    R  NN   N  II  NN   N  G    G  !!!           |
|           W    W  A    A  R    R  N N  N  II  N N  N  G       !!!           |
|           W WW W  AAAAAA  RRRRR   N  N N  II  N  N N  G  GGG   !            |
|           WW  WW  A    A  R   R   N   NN  II  N   NN  G    G                |
|           W    W  A    A  R    R  N    N  II  N    N   GGGG   !!!           |
|                                                                             |
|      You have enabled k-point parallelism (KPAR>1).                         |
|      This developmental code was originally  written by Paul Kent at ORNL,  |
|      and carefully double checked in Vienna.                                |
|      GW as well as linear response parallelism added by Martijn Marsman     |
|      and Georg Kresse.                                                      |
|      Carefully verify results versus KPAR=1.                                |
|      Report problems to Paul Kent and Vienna.                               |
|                                                                             |
 ----------------------------------------------------------------------------- 

 POTCAR:    PAW_PBE Li_sv 10Sep2004               
  local pseudopotential read in
  atomic valenz-charges read in
  non local Contribution for L=           0  read in
    real space projection operators read in
  non local Contribution for L=           0  read in
    real space projection operators read in
  non local Contribution for L=           1  read in
    real space projection operators read in
    PAW grid and wavefunctions read in
 
   number of l-projection  operators is LMAX  =           3
   number of lm-projection operators is LMMAX =           5
 
 POTCAR:    PAW_PBE O 08Apr2002                   
  local pseudopotential read in
  partial core-charges read in
  partial kinetic energy density read in
  kinetic energy density of atom read in
  atomic valenz-charges read in
  non local Contribution for L=           0  read in
    real space projection operators read in
  non local Contribution for L=           0  read in
    real space projection operators read in
  non local Contribution for L=           1  read in
    real space projection operators read in
  non local Contribution for L=           1  read in
    real space projection operators read in
    PAW grid and wavefunctions read in
 
   number of l-projection  operators is LMAX  =           4
   number of lm-projection operators is LMMAX =           8
 
 POTCAR:    PAW_PBE S 06Sep2000                   
  local pseudopotential read in
  partial core-charges read in
  partial kinetic energy density read in
  atomic valenz-charges read in
  non local Contribution for L=           0  read in
    real space projection operators read in
  non local Contribution for L=           0  read in
    real space projection operators read in
  non local Contribution for L=           1  read in
    real space projection operators read in
  non local Contribution for L=           1  read in
    real space projection operators read in
    PAW grid and wavefunctions read in
 
   number of l-projection  operators is LMAX  =           4
   number of lm-projection operators is LMMAX =           8
 
 POTCAR:    PAW_PBE Fe_pv 02Aug2007               
  local pseudopotential read in
  partial core-charges read in
  partial kinetic energy density read in
  atomic valenz-charges read in
  non local Contribution for L=           1  read in
    real space projection operators read in
  non local Contribution for L=           1  read in
    real space projection operators read in
  non local Contribution for L=           2  read in
    real space projection operators read in
  non local Contribution for L=           2  read in
    real space projection operators read in
  non local Contribution for L=           0  read in
    real space projection operators read in
  non local Contribution for L=           0  read in
    real space projection operators read in
    PAW grid and wavefunctions read in
 
   number of l-projection  operators is LMAX  =           6
   number of lm-projection operators is LMMAX =          18
 

 ----------------------------------------------------------------------------- 
|                                                                             |
|  ADVICE TO THIS USER RUNNING 'VASP/VAMP'   (HEAR YOUR MASTER'S VOICE ...):  |
|                                                                             |
|      You have a (more or less) 'large supercell' and for larger cells       |
|      it might be more efficient to use real space projection opertators     |
|      So try LREAL= Auto  in the INCAR   file.                               |
|      Mind:          For very  accurate calculation you might also keep the  |
|      reciprocal projection scheme          (i.e. LREAL=.FALSE.)             |
|                                                                             |
 ----------------------------------------------------------------------------- 

  PAW_PBE Li_sv 10Sep2004               :
 energy of atom  1       EATOM= -202.7858
 kinetic energy error for atom=    0.0072 (will be added to EATOM!!)
  PAW_PBE O 08Apr2002                   :
 energy of atom  2       EATOM= -432.3788
 kinetic energy error for atom=    0.0129 (will be added to EATOM!!)
  PAW_PBE S 06Sep2000                   :
 energy of atom  3       EATOM= -276.8230
 kinetic energy error for atom=    0.0008 (will be added to EATOM!!)
  PAW_PBE Fe_pv 02Aug2007               :
 energy of atom  4       EATOM=-2457.4239
 kinetic energy error for atom=    0.0041 (will be added to EATOM!!)
 
 
 POSCAR: # Compound: Li18O18S27Fe36. Old comment:
  positions in direct lattice
  No initial velocities read in
 exchange correlation table for  LEXCH =        8
   RHO(1)=    0.500       N(1)  =     2000
   RHO(2)=  100.500       N(2)  =     4000
 


--------------------------------------------------------------------------------------------------------


 ion  position               nearest neighbor table
   1  0.202  0.242  0.832-  31 1.98  28 1.99  56 2.61  55 2.61
   2  0.536  0.242  0.832-  32 1.98  29 1.99  57 2.61  56 2.61
   3  0.869  0.242  0.832-  33 1.98  30 1.99  55 2.61  57 2.61
   4  0.202  0.575  0.832-  34 1.98  31 1.99  59 2.61  58 2.61
   5  0.536  0.575  0.832-  35 1.98  32 1.99  60 2.61  59 2.61
   6  0.869  0.575  0.832-  36 1.98  33 1.99  58 2.61  60 2.61
   7  0.202  0.909  0.832-  28 1.98  34 1.99  62 2.61  61 2.61
   8  0.536  0.909  0.832-  29 1.98  35 1.99  63 2.61  62 2.61
   9  0.869  0.909  0.832-  30 1.98  36 1.99  61 2.61  63 2.61
  10  0.091  0.131  0.168-  21 1.98  19 1.99  61 2.61  55 2.61
  11  0.425  0.131  0.168-  19 1.98  20 1.99  62 2.61  56 2.61
  12  0.758  0.131  0.168-  20 1.98  21 1.99  63 2.61  57 2.61
  13  0.091  0.464  0.168-  24 1.98  22 1.99  55 2.61  58 2.61
  14  0.425  0.464  0.168-  22 1.98  23 1.99  56 2.61  59 2.61
  15  0.758  0.464  0.168-  23 1.98  24 1.99  57 2.61  60 2.61
  16  0.091  0.798  0.168-  27 1.98  25 1.99  58 2.61  61 2.61
  17  0.425  0.798  0.168-  25 1.98  26 1.99  59 2.61  62 2.61
  18  0.758  0.798  0.168-  26 1.98  27 1.99  60 2.61  63 2.61
  19  0.263  0.136  0.197-  11 1.98  10 1.99  97 2.01  64 2.01  91 2.01
  20  0.596  0.136  0.197-  12 1.98  11 1.99  98 2.01  65 2.01  92 2.01
  21  0.930  0.136  0.197-  10 1.98  12 1.99  99 2.01  66 2.01  93 2.01
  22  0.263  0.469  0.197-  14 1.98  13 1.99  91 2.01  67 2.01  94 2.01
  23  0.596  0.469  0.197-  15 1.98  14 1.99  92 2.01  68 2.01  95 2.01
  24  0.930  0.469  0.197-  13 1.98  15 1.99  93 2.01  69 2.01  96 2.01
  25  0.263  0.803  0.197-  17 1.98  16 1.99  94 2.01  70 2.01  97 2.01
  26  0.596  0.803  0.197-  18 1.98  17 1.99  95 2.01  71 2.01  98 2.01
  27  0.930  0.803  0.197-  16 1.98  18 1.99  96 2.01  72 2.01  99 2.01
  28  0.197  0.070  0.803-   7 1.98   1 1.99  83 2.01  73 2.01  82 2.01
  29  0.531  0.070  0.803-   8 1.98   2 1.99  84 2.01  74 2.01  83 2.01
  30  0.864  0.070  0.803-   9 1.98   3 1.99  82 2.01  75 2.01  84 2.01
  31  0.197  0.404  0.803-   1 1.98   4 1.99  86 2.01  76 2.01  85 2.01
  32  0.531  0.404  0.803-   2 1.98   5 1.99  87 2.01  77 2.01  86 2.01
  33  0.864  0.404  0.803-   3 1.98   6 1.99  85 2.01  78 2.01  87 2.01
  34  0.197  0.737  0.803-   4 1.98   7 1.99  89 2.01  79 2.01  88 2.01
  35  0.531  0.737  0.803-   5 1.98   8 1.99  90 2.01  80 2.01  89 2.01
  36  0.864  0.737  0.803-   6 1.98   9 1.99  88 2.01  81 2.01  90 2.01
  37  0.003  0.207  0.629-  66 2.41  73 2.70  75 2.77
  38  0.336  0.207  0.629-  64 2.41  74 2.70  73 2.76
  39  0.669  0.207  0.629-  65 2.41  75 2.70  74 2.76
  40  0.003  0.540  0.629-  69 2.41  76 2.70  78 2.76
  41  0.336  0.540  0.629-  67 2.41  77 2.70  76 2.76
  42  0.669  0.540  0.629-  68 2.41  78 2.70  77 2.76
  43  0.003  0.873  0.629-  72 2.41  79 2.70  81 2.76
  44  0.336  0.873  0.629-  70 2.41  80 2.70  79 2.76
  45  0.669  0.873  0.629-  71 2.41  81 2.70  80 2.76
  46  0.127  0.331  0.371-  76 2.41  64 2.70  67 2.76
  47  0.460  0.331  0.371-  77 2.41  65 2.70  68 2.76
  48  0.793  0.331  0.371-  78 2.41  66 2.70  69 2.76
  49  0.127  0.664  0.371-  79 2.41  67 2.70  70 2.76
  50  0.460  0.664  0.371-  80 2.41  68 2.70  71 2.76
  51  0.793  0.664  0.371-  81 2.41  69 2.70  72 2.76
  52  0.127  0.997  0.371-  73 2.41  70 2.70  64 2.76
  53  0.460  0.997  0.371-  74 2.41  71 2.70  65 2.76
  54  0.793  0.997  0.371-  75 2.41  72 2.70  66 2.76
  55  0.064  0.270  0.000-  85 2.52  93 2.52  82 2.52  91 2.52  13 2.61   3 2.61  10 2.61   1 2.61

  56  0.397  0.270  0.000-  86 2.52  91 2.52  83 2.52  92 2.52  14 2.61   1 2.61  11 2.61   2 2.61

  57  0.730  0.270  0.000-  87 2.52  92 2.52  84 2.52  93 2.52  15 2.61   2 2.61  12 2.61   3 2.61

  58  0.064  0.603  0.000-  88 2.52  96 2.52  85 2.52  94 2.52  16 2.61   6 2.61  13 2.61   4 2.61

  59  0.397  0.603  0.000-  89 2.52  94 2.52  86 2.52  95 2.52  17 2.61   4 2.61  14 2.61   5 2.61

  60  0.730  0.603  0.000-  90 2.52  95 2.52  87 2.52  96 2.52  18 2.61   5 2.61  15 2.61   6 2.61

  61  0.064  0.936  0.000-  82 2.52  99 2.52  88 2.52  97 2.52  10 2.61   9 2.61  16 2.61   7 2.61

  62  0.397  0.936  0.000-  83 2.52  97 2.52  89 2.52  98 2.52  11 2.61   7 2.61  17 2.61   8 2.61

  63  0.730  0.936  0.000-  84 2.52  98 2.52  90 2.52  99 2.52  12 2.61   8 2.61  18 2.61   9 2.61

  64  0.290  0.172  0.394-  19 2.01  38 2.41  46 2.70  52 2.76
  65  0.624  0.172  0.394-  20 2.01  39 2.41  47 2.70  53 2.76
  66  0.957  0.172  0.394-  21 2.01  37 2.41  48 2.70  54 2.76
  67  0.290  0.505  0.394-  22 2.01  41 2.41  49 2.70  46 2.76
  68  0.624  0.505  0.394-  23 2.01  42 2.41  50 2.70  47 2.76
  69  0.957  0.505  0.394-  24 2.01  40 2.41  51 2.70  48 2.76
  70  0.290  0.839  0.394-  25 2.01  44 2.41  52 2.70  49 2.76
  71  0.624  0.839  0.394-  26 2.01  45 2.41  53 2.70  50 2.76
  72  0.957  0.839  0.394-  27 2.01  43 2.41  54 2.70  51 2.76
  73  0.161  0.043  0.606-  28 2.01  52 2.41  37 2.70  38 2.76
  74  0.495  0.043  0.606-  29 2.01  53 2.41  38 2.70  39 2.76
  75  0.828  0.043  0.606-  30 2.01  54 2.41  39 2.70  37 2.77
  76  0.161  0.376  0.606-  31 2.01  46 2.41  40 2.70  41 2.76
  77  0.495  0.376  0.606-  32 2.01  47 2.41  41 2.70  42 2.76
  78  0.828  0.376  0.606-  33 2.01  48 2.41  42 2.70  40 2.76
  79  0.161  0.710  0.606-  34 2.01  49 2.41  43 2.70  44 2.76
  80  0.495  0.710  0.606-  35 2.01  50 2.41  44 2.70  45 2.76
  81  0.828  0.710  0.606-  36 2.01  51 2.41  45 2.70  43 2.76
  82  0.038  0.077  0.845-  30 2.01  28 2.01  61 2.52  55 2.52
  83  0.371  0.077  0.845-  28 2.01  29 2.01  62 2.52  56 2.52
  84  0.704  0.077  0.845-  29 2.01  30 2.01  63 2.52  57 2.52
  85  0.038  0.411  0.845-  33 2.01  31 2.01  55 2.52  58 2.52
  86  0.371  0.411  0.845-  31 2.01  32 2.01  56 2.52  59 2.52
  87  0.704  0.411  0.845-  32 2.01  33 2.01  57 2.52  60 2.52
  88  0.038  0.744  0.845-  36 2.01  34 2.01  58 2.52  61 2.52
  89  0.371  0.744  0.845-  34 2.01  35 2.01  59 2.52  62 2.52
  90  0.704  0.744  0.845-  35 2.01  36 2.01  60 2.52  63 2.52
  91  0.256  0.296  0.155-  22 2.01  19 2.01  56 2.52  55 2.52
  92  0.589  0.296  0.155-  23 2.01  20 2.01  57 2.52  56 2.52
  93  0.923  0.296  0.155-  24 2.01  21 2.01  55 2.52  57 2.52
  94  0.256  0.629  0.155-  25 2.01  22 2.01  59 2.52  58 2.52
  95  0.589  0.629  0.155-  26 2.01  23 2.01  60 2.52  59 2.52
  96  0.923  0.629  0.155-  27 2.01  24 2.01  58 2.52  60 2.52
  97  0.256  0.962  0.155-  19 2.01  25 2.01  62 2.52  61 2.52
  98  0.589  0.962  0.155-  20 2.01  26 2.01  63 2.52  62 2.52
  99  0.923  0.962  0.155-  21 2.01  27 2.01  61 2.52  63 2.52
 

IMPORTANT INFORMATION: All symmetrisations will be switched off!
NOSYMM: (Re-)initialisation of all symmetry stuff for point group C_1.

 
 
 KPOINTS: # No comment                            

Automatic generation of k-mesh.
Space group operators:
 irot       det(A)        alpha          n_x          n_y          n_z        tau_x        tau_y        tau_z
    1     1.000000     0.000001     1.000000     0.000000     0.000000     0.000000     0.000000     0.000000
 
 Subroutine IBZKPT returns following result:
 ===========================================
 
 Found     14 irreducible k-points:
 
 Following reciprocal coordinates:
            Coordinates               Weight
  0.000000  0.000000  0.000000      1.000000
  0.333333 -0.000000 -0.000000      2.000000
  0.000000  0.333333  0.000000      2.000000
  0.333333  0.333333  0.000000      2.000000
 -0.333333  0.333333  0.000000      2.000000
 -0.000000 -0.000000  0.333333      2.000000
  0.333333 -0.000000  0.333333      2.000000
 -0.333333 -0.000000  0.333333      2.000000
 -0.000000  0.333333  0.333333      2.000000
  0.333333  0.333333  0.333333      2.000000
 -0.333333  0.333333  0.333333      2.000000
 -0.000000 -0.333333  0.333333      2.000000
  0.333333 -0.333333  0.333333      2.000000
 -0.333333 -0.333333  0.333333      2.000000
 
 Following cartesian coordinates:
            Coordinates               Weight
  0.000000  0.000000  0.000000      1.000000
  0.028270  0.000040  0.005614      2.000000
 -0.000053  0.028270  0.005614      2.000000
  0.028217  0.028310  0.011229      2.000000
 -0.028323  0.028230 -0.000000      2.000000
 -0.000192 -0.000192  0.032649      2.000000
  0.028078 -0.000153  0.038263      2.000000
 -0.028462 -0.000232  0.027035      2.000000
 -0.000245  0.028078  0.038263      2.000000
  0.028025  0.028117  0.043878      2.000000
 -0.028515  0.028038  0.032649      2.000000
 -0.000138 -0.028462  0.027035      2.000000
  0.028132 -0.028423  0.032649      2.000000
 -0.028408 -0.028502  0.021421      2.000000
 


--------------------------------------------------------------------------------------------------------




 Dimension of arrays:
   k-points           NKPTS =     14   k-points in BZ     NKDIM =     14   number of bands    NBANDS=    606
   number of dos      NEDOS =    301   number of ions     NIONS =     99
   non local maximal  LDIM  =      6   non local SUM 2l+1 LMDIM =     18
   total plane-waves  NPLWV = 864360
   max r-space proj   IRMAX =      1   max aug-charges    IRDMAX= 154021
   dimension x,y,z NGX =    98 NGY =   98 NGZ =   90
   dimension x,y,z NGXF=   196 NGYF=  196 NGZF=  180
   support grid    NGXF=   392 NGYF=  392 NGZF=  360
   ions per type =              18  18  27  36
   NGX,Y,Z   is equivalent  to a cutoff of  13.83, 13.83, 14.14 a.u.
   NGXF,Y,Z  is equivalent  to a cutoff of  27.67, 27.67, 28.28 a.u.

 SYSTEM =  unknown system                          
 POSCAR =  # Compound: Li18O18S27Fe36. Old comment:

 Startparameter for this run:
   NWRITE =      1    write-flag & timer
   PREC   = accura    normal or accurate (medium, high low for compatibility)
   ISTART =      0    job   : 0-new  1-cont  2-samecut
   ICHARG =      1    charge: 1-file 2-atom 10-const
   ISPIN  =      2    spin polarized calculation?
   LNONCOLLINEAR =      F non collinear calculations
   LSORBIT =      F    spin-orbit coupling
   INIWAV =      1    electr: 0-lowe 1-rand  2-diag
   LASPH  =      T    aspherical Exc in radial PAW
   METAGGA=      F    non-selfconsistent MetaGGA calc.

 Electronic Relaxation 1
   ENCUT  =  650.0 eV  47.77 Ry    6.91 a.u.  24.48 24.48 21.99*2*pi/ulx,y,z
   ENINI  =  650.0     initial cutoff
   ENAUG  =  628.9 eV  augmentation charge cutoff
   NELM   =    200;   NELMIN=  8; NELMDL=  0     # of ELM steps 
   EDIFF  = 0.1E-05   stopping-criterion for ELM
   LREAL  =      F    real-space projection
   NLSPLINE    = F    spline interpolate recip. space projectors
   LCOMPAT=      F    compatible to vasp.4.4
   GGA_COMPAT  = T    GGA compatible to vasp.4.4-vasp.4.6
   LMAXPAW     = -100 max onsite density
   LMAXMIX     =    4 max onsite mixed and CHGCAR
   VOSKOWN=      0    Vosko Wilk Nusair interpolation
   ROPT   =    0.00000   0.00000   0.00000   0.00000
 Ionic relaxation
   EDIFFG = 0.1E-04   stopping-criterion for IOM
   NSW    =      0    number of steps for IOM
   NBLOCK =      1;   KBLOCK =      1    inner block; outer block 
   IBRION =     -1    ionic relax: 0-MD 1-quasi-New 2-CG
   NFREE  =      0    steps in history (QN), initial steepest desc. (CG)
   ISIF   =      2    stress and relaxation
   IWAVPR =     10    prediction:  0-non 1-charg 2-wave 3-comb
   ISYM   =      0    0-nonsym 1-usesym 2-fastsym
   LCORR  =      T    Harris-Foulkes like correction to forces

   POTIM  = 0.5000    time-step for ionic-motion
   TEIN   =    0.0    initial temperature
   TEBEG  =    0.0;   TEEND  =   0.0 temperature during run
   SMASS  =  -3.00    Nose mass-parameter (am)
   estimated Nose-frequenzy (Omega)   =  0.10E-29 period in steps =****** mass=  -0.317E-26a.u.
   SCALEE = 1.0000    scale energy and forces
   NPACO  =    256;   APACO  = 16.0  distance and # of slots for P.C.
   PSTRESS=    0.0 pullay stress

  Mass of Ions in am
   POMASS =   7.01 16.00 32.07 55.85
  Ionic Valenz
   ZVAL   =   3.00  6.00  6.00 14.00
  Atomic Wigner-Seitz radii
   RWIGS  =  -1.00 -1.00 -1.00 -1.00
  virtual crystal weights 
   VCA    =   1.00  1.00  1.00  1.00
   NELECT =     828.0000    total number of electrons
   NUPDOWN=      -1.0000    fix difference up-down

 DOS related values:
   EMIN   =  10.00;   EMAX   =-10.00  energy-range for DOS
   EFERMI =   0.00
   ISMEAR =     0;   SIGMA  =   0.05  broadening in eV -4-tet -1-fermi 0-gaus

 Electronic relaxation 2 (details)
   IALGO  =     38    algorithm
   LDIAG  =      T    sub-space diagonalisation (order eigenvalues)
   LSUBROT=      F    optimize rotation matrix (better conditioning)
   TURBO    =      0    0=normal 1=particle mesh
   IRESTART =      0    0=no restart 2=restart with 2 vectors
   NREBOOT  =      0    no. of reboots
   NMIN     =      0    reboot dimension
   EREF     =   0.00    reference energy to select bands
   IMIX   =      4    mixing-type and parameters
     AMIX     =   0.40;   BMIX     =  1.00
     AMIX_MAG =   1.60;   BMIX_MAG =  1.00
     AMIN     =   0.10
     WC   =   100.;   INIMIX=   1;  MIXPRE=   1;  MAXMIX= -45

 Intra band minimization:
   WEIMIN = 0.0000     energy-eigenvalue tresh-hold
   EBREAK =  0.41E-09  absolut break condition
   DEPER  =   0.30     relativ break condition  

   TIME   =   0.40     timestep for ELM

  volume/ion in A,a.u.               =      14.30        96.53
  Fermi-wavevector in a.u.,A,eV,Ry     =   1.368946  2.586933 25.497507  1.874014
  Thomas-Fermi vector in A             =   2.494865
 
 Write flags
   LWAVE        =      F    write WAVECAR
   LDOWNSAMPLE  =      F    k-point downsampling of WAVECAR
   LCHARG       =      T    write CHGCAR
   LVTOT        =      F    write LOCPOT, total local potential
   LVHAR        =      F    write LOCPOT, Hartree potential only
   LELF         =      F    write electronic localiz. function (ELF)
   LORBIT       =      0    0 simple, 1 ext, 2 COOP (PROOUT), +10 PAW based schemes


 Dipole corrections
   LMONO  =      F    monopole corrections only (constant potential shift)
   LDIPOL =      F    correct potential (dipole corrections)
   IDIPOL =      0    1-x, 2-y, 3-z, 4-all directions 
   EPSILON=  1.0000000 bulk dielectric constant

 LDA+U is selected, type is set to LDAUTYPE =  2
   angular momentum for each species LDAUL =    -1   -1   -1    2
   U (eV)           for each species LDAUU =   0.0  0.0  0.0  4.0
   J (eV)           for each species LDAUJ =   0.0  0.0  0.0  0.0
 Exchange correlation treatment:
   GGA     =    PE    GGA type
   LEXCH   =     8    internal setting for exchange type
   VOSKOWN=      0    Vosko Wilk Nusair interpolation
   LHFCALC =     F    Hartree Fock is set to
   LHFONE  =     F    Hartree Fock one center treatment
   AEXX    =    0.0000 exact exchange contribution

 Linear response parameters
   LEPSILON=     F    determine dielectric tensor
   LRPA    =     F    only Hartree local field effects (RPA)
   LNABLA  =     F    use nabla operator in PAW spheres
   LVEL    =     F    velocity operator in full k-point grid
   LINTERFAST=   F  fast interpolation
   KINTER  =     0    interpolate to denser k-point grid
   CSHIFT  =0.1000    complex shift for real part using Kramers Kronig
   OMEGAMAX=  -1.0    maximum frequency
   DEG_THRESHOLD= 0.2000000E-02 threshold for treating states as degnerate
   RTIME   =   -0.100 relaxation time in fs
  (WPLASMAI=    0.000 imaginary part of plasma frequency in eV, 0.658/RTIME)
   DFIELD  = 0.0000000 0.0000000 0.0000000 field for delta impulse in time
 
 Orbital magnetization related:
   ORBITALMAG=     F  switch on orbital magnetization
   LCHIMAG   =     F  perturbation theory with respect to B field
   DQ        =  0.001000  dq finite difference perturbation B field
   LLRAUG    =     F  two centre corrections for induced B field



--------------------------------------------------------------------------------------------------------


 Static calculation
 charge density and potential will be updated during run
 spin polarized calculation
 Variant of blocked Davidson
 Davidson routine will perform the subspace rotation
 perform sub-space diagonalisation
    after iterative eigenvector-optimisation
 modified Broyden-mixing scheme, WC =      100.0
 initial mixing is a Kerker type mixing with AMIX =  0.4000 and BMIX =      1.0000
 Hartree-type preconditioning will be used
 using additional bands          192
 reciprocal scheme for non local part
 use partial core corrections
 calculate Harris-corrections to forces 
   (improved forces if not selfconsistent)
 use gradient corrections 
 use of overlap-Matrix (Vanderbilt PP)
 Gauss-broadening in eV      SIGMA  =   0.05


--------------------------------------------------------------------------------------------------------


  energy-cutoff  :      650.00
  volume of cell :     1416.11
      direct lattice vectors                 reciprocal lattice vectors
    11.777269740  0.008488710  0.069233160     0.084810225  0.000119058  0.016842962
    -0.030282480 11.777233860  0.069233160    -0.000160141  0.084810158  0.016842962
    -2.020002310 -2.026663200 10.185746220    -0.000575372 -0.000577269  0.097947445

  length of vectors
    11.777476292 11.777476285 10.580037765     0.086466605  0.086466605  0.097950836


 
 k-points in units of 2pi/SCALE and weight: # No comment                            
   0.00000000  0.00000000  0.00000000       0.037
   0.02827008  0.00003969  0.00561432       0.074
  -0.00005338  0.02827005  0.00561432       0.074
   0.02821669  0.02830974  0.01122864       0.074
  -0.02832346  0.02823037 -0.00000000       0.074
  -0.00019179 -0.00019242  0.03264915       0.074
   0.02807828 -0.00015274  0.03826347       0.074
  -0.02846187 -0.00023211  0.02703483       0.074
  -0.00024517  0.02807763  0.03826347       0.074
   0.02802490  0.02811732  0.04387779       0.074
  -0.02851525  0.02803794  0.03264915       0.074
  -0.00013841 -0.02846248  0.02703483       0.074
   0.02813166 -0.02842279  0.03264915       0.074
  -0.02840849 -0.02850216  0.02142051       0.074
 
 k-points in reciprocal lattice and weights: # No comment                            
   0.00000000  0.00000000  0.00000000       0.037
   0.33333333 -0.00000000 -0.00000000       0.074
   0.00000000  0.33333333  0.00000000       0.074
   0.33333333  0.33333333  0.00000000       0.074
  -0.33333333  0.33333333  0.00000000       0.074
  -0.00000000 -0.00000000  0.33333333       0.074
   0.33333333 -0.00000000  0.33333333       0.074
  -0.33333333 -0.00000000  0.33333333       0.074
  -0.00000000  0.33333333  0.33333333       0.074
   0.33333333  0.33333333  0.33333333       0.074
  -0.33333333  0.33333333  0.33333333       0.074
  -0.00000000 -0.33333333  0.33333333       0.074
   0.33333333 -0.33333333  0.33333333       0.074
  -0.33333333 -0.33333333  0.33333333       0.074
 
 position of ions in fractional coordinates (direct lattice) 
   0.20224939  0.24206952  0.83183419
   0.53558272  0.24206952  0.83183419
   0.86891606  0.24206952  0.83183419
   0.20224939  0.57540285  0.83183419
   0.53558272  0.57540285  0.83183419
   0.86891606  0.57540285  0.83183419
   0.20224939  0.90873619  0.83183419
   0.53558272  0.90873619  0.83183419
   0.86891606  0.90873619  0.83183419
   0.09126381  0.13108394  0.16816581
   0.42459715  0.13108394  0.16816581
   0.75793048  0.13108394  0.16816581
   0.09126381  0.46441728  0.16816581
   0.42459715  0.46441728  0.16816581
   0.75793048  0.46441728  0.16816581
   0.09126381  0.79775061  0.16816581
   0.42459715  0.79775061  0.16816581
   0.75793048  0.79775061  0.16816581
   0.26311007  0.13598816  0.19686089
   0.59644341  0.13598816  0.19686089
   0.92977674  0.13598816  0.19686089
   0.26311007  0.46932149  0.19686089
   0.59644341  0.46932149  0.19686089
   0.92977674  0.46932149  0.19686089
   0.26311007  0.80265483  0.19686089
   0.59644341  0.80265483  0.19686089
   0.92977674  0.80265483  0.19686089
   0.19734517  0.07022326  0.80313911
   0.53067851  0.07022326  0.80313911
   0.86401184  0.07022326  0.80313911
   0.19734517  0.40355659  0.80313911
   0.53067851  0.40355659  0.80313911
   0.86401184  0.40355659  0.80313911
   0.19734517  0.73688993  0.80313911
   0.53067851  0.73688993  0.80313911
   0.86401184  0.73688993  0.80313911
   0.00253935  0.20742204  0.62920335
   0.33587268  0.20657296  0.62920335
   0.66920601  0.20657296  0.62920335
   0.00253935  0.53990630  0.62920335
   0.33587268  0.53990630  0.62920335
   0.66920601  0.53990630  0.62920335
   0.00253935  0.87323963  0.62920335
   0.33587268  0.87323963  0.62920335
   0.66920601  0.87323963  0.62920335
   0.12676037  0.33079399  0.37079665
   0.46009370  0.33079399  0.37079665
   0.79342704  0.33079399  0.37079665
   0.12676037  0.66412732  0.37079665
   0.46009370  0.66412732  0.37079665
   0.79342704  0.66412732  0.37079665
   0.12676037  0.99746065  0.37079665
   0.46009370  0.99746065  0.37079665
   0.79342704  0.99746065  0.37079665
   0.06350899  0.26982435  0.00000000
   0.39684232  0.26982435  0.00000000
   0.73017565  0.26982435  0.00000000
   0.06350899  0.60315768  0.00000000
   0.39684232  0.60315768  0.00000000
   0.73017565  0.60315768  0.00000000
   0.06350899  0.93649101  0.00000000
   0.39684232  0.93649101  0.00000000
   0.73017565  0.93649101  0.00000000
   0.29027274  0.17214940  0.39352170
   0.62360607  0.17214940  0.39352170
   0.95693941  0.17214940  0.39352170
   0.29027274  0.50548273  0.39352170
   0.62360607  0.50548273  0.39352170
   0.95693941  0.50548273  0.39352170
   0.29027274  0.83881607  0.39352170
   0.62360607  0.83881607  0.39352170
   0.95693941  0.83881607  0.39352170
   0.16118393  0.04306059  0.60647830
   0.49451727  0.04306059  0.60647830
   0.82785060  0.04306059  0.60647830
   0.16118393  0.37639393  0.60647830
   0.49451727  0.37639393  0.60647830
   0.82785060  0.37639393  0.60647830
   0.16118393  0.70972726  0.60647830
   0.49451727  0.70972726  0.60647830
   0.82785060  0.70972726  0.60647830
   0.03761391  0.07731307  0.84542777
   0.37094724  0.07731307  0.84542777
   0.70428057  0.07731307  0.84542777
   0.03761391  0.41064640  0.84542777
   0.37094724  0.41064640  0.84542777
   0.70428057  0.41064640  0.84542777
   0.03761391  0.74397973  0.84542777
   0.37094724  0.74397973  0.84542777
   0.70428057  0.74397973  0.84542777
   0.25602027  0.29571943  0.15457223
   0.58935360  0.29571943  0.15457223
   0.92268693  0.29571943  0.15457223
   0.25602027  0.62905276  0.15457223
   0.58935360  0.62905276  0.15457223
   0.92268693  0.62905276  0.15457223
   0.25602027  0.96238609  0.15457223
   0.58935360  0.96238609  0.15457223
   0.92268693  0.96238609  0.15457223
 
 position of ions in cartesian coordinates  (Angst):
   0.69430817  1.16677844  8.50361356
   4.62006475  1.16960801  8.52669128
   8.54582133  1.17243758  8.54976900
   0.68421401  5.09252306  8.52669128
   4.60997059  5.09535263  8.54976900
   8.53572717  5.09818220  8.57284672
   0.67411985  9.01826768  8.54976900
   4.59987643  9.02109725  8.57284672
   8.52563301  9.02392682  8.59592444
   0.73117368  1.20376551  1.72828810
   4.65693026  1.20659508  1.75136582
   8.58268684  1.20942465  1.77444354
   0.72107952  5.12951013  1.75136582
   4.64683610  5.13233970  1.77444354
   8.57259268  5.13516927  1.79752126
   0.71098536  9.05525475  1.77444354
   4.63674194  9.05808432  1.79752126
   8.56249852  9.06091389  1.82059898
   2.69694079  1.20482711  2.03280590
   6.62269737  1.20765668  2.05588362
  10.54845395  1.21048625  2.07896134
   2.68684663  5.13057173  2.05588362
   6.61260321  5.13340130  2.07896134
  10.53835979  5.13623087  2.10203906
   2.67675247  9.05631635  2.07896134
   6.60250905  9.05914592  2.10203906
  10.52826563  9.06197549  2.12511678
   0.69971795 -0.79898152  8.19909576
   4.62547453 -0.79615195  8.22217348
   8.55123111 -0.79332238  8.24525120
   0.68962379  3.12676310  8.22217348
   4.61538037  3.12959267  8.24525120
   8.54113695  3.13242224  8.26832892
   0.67952963  7.05250772  8.24525120
   4.60528621  7.05533729  8.26832892
   8.53104279  7.05816686  8.29140664
  -1.24736690  1.16769617  6.42344193
   2.67841539  1.16052595  6.44646087
   6.60417197  1.16335552  6.46953859
  -1.25743535  5.08344100  6.44646087
   2.66832123  5.08627057  6.46953859
   6.59407781  5.08910014  6.49261631
  -1.26752951  9.00918562  6.46953859
   2.65822707  9.01201519  6.49261631
   6.58398365  9.01484476  6.51569403
   0.73386372  3.14543425  3.80851851
   4.65962030  3.14826382  3.83159623
   8.58537688  3.15109339  3.85467395
   0.72376956  7.07117887  3.83159623
   4.64952614  7.07400844  3.85467395
   8.57528272  7.07683801  3.87775167
   0.71367540 10.99692349  3.85467395
   4.63943198 10.99975306  3.87775167
   8.56518856 11.00258263  3.90082939
   0.73979152  3.17832354  0.02307772
   4.66554810  3.18115311  0.04615544
   8.59130468  3.18398268  0.06923316
   0.72969736  7.10406816  0.04615544
   4.65545394  7.10689773  0.06923316
   8.58121052  7.10972730  0.09231088
   0.71960320 11.02981278  0.06923316
   4.64535978 11.03264235  0.09231088
   8.57111636 11.03547192  0.11538860
   2.61849250  1.23237184  4.04032711
   6.54424908  1.23520141  4.06340483
  10.47000566  1.23803098  4.08648255
   2.60839834  5.15811646  4.06340483
   6.53415492  5.16094603  4.08648255
  10.45991150  5.16377560  4.10956027
   2.59830418  9.08386108  4.08648255
   6.52406076  9.08669065  4.10956027
  10.44981734  9.08952022  4.13263799
   0.67191511 -0.72062433  6.19157455
   4.59767169 -0.71779476  6.21465227
   8.52342827 -0.71496519  6.23772999
   0.66182095  3.20512029  6.21465227
   4.58757753  3.20794986  6.23772999
   8.51333411  3.21077943  6.26080771
   0.65172679  7.13086491  6.23772999
   4.57748337  7.13369448  6.26080771
   8.50323995  7.13652405  6.28388543
  -1.26711815 -0.80254399  8.61926947
   2.65863843 -0.79971442  8.64234719
   6.58439500 -0.79688485  8.66542491
  -1.27721231  3.12320063  8.64234719
   2.64854427  3.12603020  8.66542491
   6.57430084  3.12885977  8.68850263
  -1.28730647  7.04894525  8.66542491
   2.63845011  7.05177482  8.68850263
   6.56420668  7.05460439  8.71158035
   2.69402836  3.17166428  1.61263219
   6.61978494  3.17449385  1.63570991
  10.54554152  3.17732342  1.65878763
   2.68393420  7.09740890  1.63570991
   6.60969078  7.10023847  1.65878763
  10.53544736  7.10306804  1.68186535
   2.67384004 11.02315352  1.65878763
   6.59959662 11.02598309  1.68186535
  10.52535320 11.02881266  1.70494307
 


--------------------------------------------------------------------------------------------------------


 k-point  1 :   0.0000 0.0000 0.0000  plane waves:   53279
 k-point  2 :   0.3333-0.0000-0.0000  plane waves:   53283
 k-point  3 :   0.0000 0.3333 0.0000  plane waves:   53283
 k-point  4 :   0.3333 0.3333 0.0000  plane waves:   53248
 k-point  5 :  -0.3333 0.3333 0.0000  plane waves:   53268
 k-point  6 :  -0.0000-0.0000 0.3333  plane waves:   53317
 k-point  7 :   0.3333-0.0000 0.3333  plane waves:   53290
 k-point  8 :  -0.3333-0.0000 0.3333  plane waves:   53280
 k-point  9 :  -0.0000 0.3333 0.3333  plane waves:   53290
 k-point 10 :   0.3333 0.3333 0.3333  plane waves:   53292
 k-point 11 :  -0.3333 0.3333 0.3333  plane waves:   53261
 k-point 12 :  -0.0000-0.3333 0.3333  plane waves:   53280
 k-point 13 :   0.3333-0.3333 0.3333  plane waves:   53261
 k-point 14 :  -0.3333-0.3333 0.3333  plane waves:   53313

 maximum and minimum number of plane-waves per node :      8936     8841

 maximum number of plane-waves:     53317
 maximum index in each direction: 
   IXMAX=   24   IYMAX=   24   IZMAX=   21
   IXMIN=  -24   IYMIN=  -24   IZMIN=  -22


 parallel 3D FFT for wavefunctions:
    minimum data exchange during FFTs selected (reduces bandwidth)
 parallel 3D FFT for charge:
    minimum data exchange during FFTs selected (reduces bandwidth)


 total amount of memory used by VASP MPI-rank0  1508757. kBytes
=======================================================================

   base      :      30000. kBytes
   nonl-proj :      85790. kBytes
   fftplans  :      89726. kBytes
   grid      :      70158. kBytes
   one-center:        528. kBytes
   wavefun   :    1232555. kBytes
 
     INWAV:  cpu time    0.0000: real time    0.0000
 Broyden mixing: mesh for mixing (old mesh)
   NGX = 49   NGY = 49   NGZ = 43
  (NGX  =196   NGY  =196   NGZ  =180)
  gives a total of 103243 points

 initial charge density was supplied:
 number of electron     828.0000017 magnetization     144.0000076
 keeping initial charge density in first step


--------------------------------------------------------------------------------------------------------


 Maximum index for augmentation-charges        13331 (set IRDMAX)


--------------------------------------------------------------------------------------------------------


 First call to EWALD:  gamma=   0.158
 Maximum number of real-space cells 3x 3x 3
 Maximum number of reciprocal cells 3x 3x 3

    FEWALD:  cpu time    0.0046: real time    0.0046


--------------------------------------- Iteration      1(   1)  ---------------------------------------


    POTLOK:  cpu time    1.1201: real time    1.1513
    SETDIJ:  cpu time    2.5659: real time    2.5697
     EDDAV:  cpu time  429.2401: real time  433.6110
       DOS:  cpu time    0.0093: real time    0.0096
    --------------------------------------------
      LOOP:  cpu time  432.9354: real time  437.3416

 eigenvalue-minimisations  : 34880
 total energy-change (2. order) : 0.1170597E+05  (-0.4628329E+05)
 number of electron     828.0000017 magnetization     144.0000076
 augmentation part      828.0000017 magnetization     144.0000076

 Free energy of the ion-electron system (eV)
  ---------------------------------------------------
  alpha Z        PSCENC =      2606.24521607
  Ewald energy   TEWEN  =    -65007.81695454
  -Hartree energ DENC   =    -34081.80806335
  -exchange      EXHF   =         0.00000000
  -V(xc)+E(xc)   XCENC  =      3632.83540630
  PAW double counting   =    104149.30743192  -107360.85880398
  entropy T*S    EENTRO =        -0.01716702
  eigenvalues    EBANDS =       394.16878468
  atomic energy  EATOM  =    107373.91467324
  Solvation  Ediel_sol  =         0.00000000
  ---------------------------------------------------
  free energy    TOTEN  =     11705.97052332 eV

  energy without entropy =    11705.98769034  energy(sigma->0) =    11705.97910683


--------------------------------------------------------------------------------------------------------




--------------------------------------- Iteration      1(   2)  ---------------------------------------


     EDDAV:  cpu time  422.1407: real time  426.4479
       DOS:  cpu time    0.0097: real time    0.0097
    --------------------------------------------
      LOOP:  cpu time  422.1504: real time  426.4576

 eigenvalue-minimisations  : 33936
 total energy-change (2. order) :-0.1037727E+05  (-0.9729352E+04)
 number of electron     828.0000017 magnetization     144.0000076
 augmentation part      828.0000017 magnetization     144.0000076

 Free energy of the ion-electron system (eV)
  ---------------------------------------------------
  alpha Z        PSCENC =      2606.24521607
  Ewald energy   TEWEN  =    -65007.81695454
  -Hartree energ DENC   =    -34081.80806335
  -exchange      EXHF   =         0.00000000
  -V(xc)+E(xc)   XCENC  =      3632.83540630
  PAW double counting   =    104149.30743192  -107360.85880398
  entropy T*S    EENTRO =        -0.06741023
  eigenvalues    EBANDS =     -9983.04886070
  atomic energy  EATOM  =    107373.91467324
  Solvation  Ediel_sol  =         0.00000000
  ---------------------------------------------------
  free energy    TOTEN  =      1328.70263473 eV

  energy without entropy =     1328.77004497  energy(sigma->0) =     1328.73633985


--------------------------------------------------------------------------------------------------------




--------------------------------------- Iteration      1(   3)  ---------------------------------------


     EDDAV:  cpu time  445.8295: real time  450.3934
       DOS:  cpu time    0.0029: real time    0.0029
    --------------------------------------------
      LOOP:  cpu time  445.8324: real time  450.3963

 eigenvalue-minimisations  : 36384
 total energy-change (2. order) :-0.1674191E+04  (-0.1441990E+04)
 number of electron     828.0000017 magnetization     144.0000076
 augmentation part      828.0000017 magnetization     144.0000076

 Free energy of the ion-electron system (eV)
  ---------------------------------------------------
  alpha Z        PSCENC =      2606.24521607
  Ewald energy   TEWEN  =    -65007.81695454
  -Hartree energ DENC   =    -34081.80806335
  -exchange      EXHF   =         0.00000000
  -V(xc)+E(xc)   XCENC  =      3632.83540630
  PAW double counting   =    104149.30743192  -107360.85880398
  entropy T*S    EENTRO =        -0.00000000
  eigenvalues    EBANDS =    -11657.30751910
  atomic energy  EATOM  =    107373.91467324
  Solvation  Ediel_sol  =         0.00000000
  ---------------------------------------------------
  free energy    TOTEN  =      -345.48861344 eV

  energy without entropy =     -345.48861344  energy(sigma->0) =     -345.48861344


--------------------------------------------------------------------------------------------------------




--------------------------------------- Iteration      1(   4)  ---------------------------------------


     EDDAV:  cpu time  477.7782: real time  482.9481
       DOS:  cpu time    0.0029: real time    0.0030
    --------------------------------------------
      LOOP:  cpu time  477.7811: real time  482.9510

 eigenvalue-minimisations  : 39776
 total energy-change (2. order) :-0.1903933E+03  (-0.1872511E+03)
 number of electron     828.0000017 magnetization     144.0000076
 augmentation part      828.0000017 magnetization     144.0000076

 Free energy of the ion-electron system (eV)
  ---------------------------------------------------
  alpha Z        PSCENC =      2606.24521607
  Ewald energy   TEWEN  =    -65007.81695454
  -Hartree energ DENC   =    -34081.80806335
  -exchange      EXHF   =         0.00000000
  -V(xc)+E(xc)   XCENC  =      3632.83540630
  PAW double counting   =    104149.30743192  -107360.85880398
  entropy T*S    EENTRO =        -0.00000000
  eigenvalues    EBANDS =    -11847.70082714
  atomic energy  EATOM  =    107373.91467324
  Solvation  Ediel_sol  =         0.00000000
  ---------------------------------------------------
  free energy    TOTEN  =      -535.88192148 eV

  energy without entropy =     -535.88192148  energy(sigma->0) =     -535.88192148


--------------------------------------------------------------------------------------------------------




--------------------------------------- Iteration      1(   5)  ---------------------------------------


     EDDAV:  cpu time  623.2456: real time  629.0496
       DOS:  cpu time    0.0032: real time    0.0032
    CHARGE:  cpu time   12.1121: real time   12.2078
    MIXING:  cpu time    0.0300: real time    0.0342
    --------------------------------------------
      LOOP:  cpu time  635.3909: real time  641.2949

 eigenvalue-minimisations  : 55360
 total energy-change (2. order) :-0.1391174E+02  (-0.1377113E+02)
 number of electron     828.0000017 magnetization     144.0000050
 augmentation part      313.2917928 magnetization      94.6595035

 Broyden mixing:
  rms(total) = 0.20584E+00    rms(broyden)= 0.20572E+00
  rms(prec ) = 0.20936E+00
  weight for this iteration     100.00

 Free energy of the ion-electron system (eV)
  ---------------------------------------------------
  alpha Z        PSCENC =      2606.24521607
  Ewald energy   TEWEN  =    -65007.81695454
  -Hartree energ DENC   =    -34081.80806335
  -exchange      EXHF   =         0.00000000
  -V(xc)+E(xc)   XCENC  =      3632.83540630
  PAW double counting   =    104149.30743192  -107360.85880398
  entropy T*S    EENTRO =        -0.00000000
  eigenvalues    EBANDS =    -11861.61256555
  atomic energy  EATOM  =    107373.91467324
  Solvation  Ediel_sol  =         0.00000000
  ---------------------------------------------------
  free energy    TOTEN  =      -549.79365988 eV

  energy without entropy =     -549.79365988  energy(sigma->0) =     -549.79365988


--------------------------------------------------------------------------------------------------------




--------------------------------------- Iteration      1(   6)  ---------------------------------------


    POTLOK:  cpu time    1.1263: real time    1.1458
    SETDIJ:  cpu time    2.5874: real time    2.6107
     EDDAV:  cpu time  555.1883: real time  560.5179
       DOS:  cpu time    0.0031: real time    0.0031
    CHARGE:  cpu time   11.9879: real time   12.1203
    MIXING:  cpu time    0.0301: real time    0.0301
    --------------------------------------------
      LOOP:  cpu time  570.9231: real time  576.4279

 eigenvalue-minimisations  : 48032
 total energy-change (2. order) :-0.5292771E+00  (-0.5442734E+00)
 number of electron     828.0000017 magnetization     144.0000039
 augmentation part      312.7281857 magnetization      94.7036070

 Broyden mixing:
  rms(total) = 0.10222E+00    rms(broyden)= 0.10209E+00
  rms(prec ) = 0.10294E+00
  weight for this iteration     100.00

 eigenvalues of (default mixing * dielectric matrix)
  average eigenvalue GAMMA=   0.6334
  0.6334

 Free energy of the ion-electron system (eV)
  ---------------------------------------------------
  alpha Z        PSCENC =      2606.24521607
  Ewald energy   TEWEN  =    -65007.81695454
  -Hartree energ DENC   =    -34079.88604651
  -exchange      EXHF   =         0.00000000
  -V(xc)+E(xc)   XCENC  =      3632.51395296
  PAW double counting   =    103985.96463837  -107195.71491235
  entropy T*S    EENTRO =        -0.00000000
  eigenvalues    EBANDS =    -11865.54350423
  atomic energy  EATOM  =    107373.91467324
  Solvation  Ediel_sol  =         0.00000000
  ---------------------------------------------------
  free energy    TOTEN  =      -550.32293699 eV

  energy without entropy =     -550.32293699  energy(sigma->0) =     -550.32293699


--------------------------------------------------------------------------------------------------------




--------------------------------------- Iteration      1(   7)  ---------------------------------------


    POTLOK:  cpu time    1.1149: real time    1.1340
    SETDIJ:  cpu time    2.5878: real time    2.6158
     EDDAV:  cpu time  594.4590: real time  600.2235
       DOS:  cpu time    0.0032: real time    0.0032
    CHARGE:  cpu time   12.1818: real time   12.4524
    MIXING:  cpu time    0.0287: real time    0.0305
    --------------------------------------------
      LOOP:  cpu time  610.3755: real time  616.4595

 eigenvalue-minimisations  : 52136
 total energy-change (2. order) :-0.1834830E-01  (-0.1936305E-01)
 number of electron     828.0000017 magnetization     144.0000034
 augmentation part      312.6392879 magnetization      94.6959552

 Broyden mixing:
  rms(total) = 0.60949E-01    rms(broyden)= 0.60919E-01
  rms(prec ) = 0.62345E-01
  weight for this iteration     100.00

 eigenvalues of (default mixing * dielectric matrix)
  average eigenvalue GAMMA=   0.5814
  0.5814  0.5814

 Free energy of the ion-electron system (eV)
  ---------------------------------------------------
  alpha Z        PSCENC =      2606.24521607
  Ewald energy   TEWEN  =    -65007.81695454
  -Hartree energ DENC   =    -34080.81563460
  -exchange      EXHF   =         0.00000000
  -V(xc)+E(xc)   XCENC  =      3632.59989560
  PAW double counting   =    104044.24594472  -107254.61615712
  entropy T*S    EENTRO =        -0.00000000
  eigenvalues    EBANDS =    -11864.09826866
  atomic energy  EATOM  =    107373.91467324
  Solvation  Ediel_sol  =         0.00000000
  ---------------------------------------------------
  free energy    TOTEN  =      -550.34128529 eV

  energy without entropy =     -550.34128529  energy(sigma->0) =     -550.34128529


--------------------------------------------------------------------------------------------------------




--------------------------------------- Iteration      1(   8)  ---------------------------------------


    POTLOK:  cpu time    1.1154: real time    1.1392
    SETDIJ:  cpu time    2.5344: real time    2.5904
     EDDAV:  cpu time  559.4569: real time  565.4824
       DOS:  cpu time    0.0035: real time    0.0038
    CHARGE:  cpu time   12.1806: real time   12.4006
    MIXING:  cpu time    0.0347: real time    0.0414
    --------------------------------------------
      LOOP:  cpu time  575.3255: real time  581.6578

 eigenvalue-minimisations  : 48512
 total energy-change (2. order) : 0.4989361E-03  (-0.3809135E-03)
 number of electron     828.0000017 magnetization     144.0000032
 augmentation part      312.6313623 magnetization      94.6989206

 Broyden mixing:
  rms(total) = 0.53191E-01    rms(broyden)= 0.53188E-01
  rms(prec ) = 0.54428E-01
  weight for this iteration     100.00

 eigenvalues of (default mixing * dielectric matrix)
  average eigenvalue GAMMA=   0.5462
  0.6126  0.6126  0.4132

 Free energy of the ion-electron system (eV)
  ---------------------------------------------------
  alpha Z        PSCENC =      2606.24521607
  Ewald energy   TEWEN  =    -65007.81695454
  -Hartree energ DENC   =    -34080.77990151
  -exchange      EXHF   =         0.00000000
  -V(xc)+E(xc)   XCENC  =      3632.63229677
  PAW double counting   =    104059.02053042  -107269.53655815
  entropy T*S    EENTRO =        -0.00000000
  eigenvalues    EBANDS =    -11864.02008867
  atomic energy  EATOM  =    107373.91467324
  Solvation  Ediel_sol  =         0.00000000
  ---------------------------------------------------
  free energy    TOTEN  =      -550.34078636 eV

  energy without entropy =     -550.34078636  energy(sigma->0) =     -550.34078636


--------------------------------------------------------------------------------------------------------




--------------------------------------- Iteration      1(   9)  ---------------------------------------


    POTLOK:  cpu time    1.1207: real time    1.1233
    SETDIJ:  cpu time    2.5672: real time    2.5715
     EDDAV:  cpu time  604.2979: real time  609.8920
       DOS:  cpu time    0.0031: real time    0.0031
    CHARGE:  cpu time   11.9728: real time   12.2063
    MIXING:  cpu time    0.0473: real time    0.0473
    --------------------------------------------
      LOOP:  cpu time  620.0089: real time  625.8434

 eigenvalue-minimisations  : 53224
 total energy-change (2. order) : 0.3733383E-03  (-0.2394312E-04)
 number of electron     828.0000017 magnetization     144.0000027
 augmentation part      312.6339605 magnetization      94.6989569

 Broyden mixing:
  rms(total) = 0.47831E-01    rms(broyden)= 0.47831E-01
  rms(prec ) = 0.48917E-01
  weight for this iteration     100.00

 eigenvalues of (default mixing * dielectric matrix)
  average eigenvalue GAMMA=   0.4655
  0.5971  0.5971  0.3339  0.3339

 Free energy of the ion-electron system (eV)
  ---------------------------------------------------
  alpha Z        PSCENC =      2606.24521607
  Ewald energy   TEWEN  =    -65007.81695454
  -Hartree energ DENC   =    -34080.84709936
  -exchange      EXHF   =         0.00000000
  -V(xc)+E(xc)   XCENC  =      3632.65313375
  PAW double counting   =    104065.99762599  -107276.60895328
  entropy T*S    EENTRO =        -0.00000000
  eigenvalues    EBANDS =    -11863.87805489
  atomic energy  EATOM  =    107373.91467324
  Solvation  Ediel_sol  =         0.00000000
  ---------------------------------------------------
  free energy    TOTEN  =      -550.34041302 eV

  energy without entropy =     -550.34041302  energy(sigma->0) =     -550.34041302


--------------------------------------------------------------------------------------------------------




--------------------------------------- Iteration      1(  10)  ---------------------------------------


    POTLOK:  cpu time    1.1336: real time    1.1370
    SETDIJ:  cpu time    2.5848: real time    2.5876
     EDDAV:  cpu time  587.4718: real time  593.1897
       DOS:  cpu time    0.0033: real time    0.0033
    CHARGE:  cpu time   12.2807: real time   12.3445
    MIXING:  cpu time    0.0587: real time    0.0616
    --------------------------------------------
      LOOP:  cpu time  603.5330: real time  609.3238

 eigenvalue-minimisations  : 51288
 total energy-change (2. order) : 0.5352737E-03  (-0.1578735E-04)
 number of electron     828.0000017 magnetization     144.0000016
 augmentation part      312.6393243 magnetization      94.6995944

 Broyden mixing:
  rms(total) = 0.38632E-01    rms(broyden)= 0.38631E-01
  rms(prec ) = 0.39433E-01
  weight for this iteration     100.00

 eigenvalues of (default mixing * dielectric matrix)
  average eigenvalue GAMMA=   0.8401
  1.2904  1.2904  0.5800  0.5800  0.4599

 Free energy of the ion-electron system (eV)
  ---------------------------------------------------
  alpha Z        PSCENC =      2606.24521607
  Ewald energy   TEWEN  =    -65007.81695454
  -Hartree energ DENC   =    -34081.04186881
  -exchange      EXHF   =         0.00000000
  -V(xc)+E(xc)   XCENC  =      3632.69332830
  PAW double counting   =    104080.08082179  -107290.88490320
  entropy T*S    EENTRO =        -0.00000000
  eigenvalues    EBANDS =    -11863.53019060
  atomic energy  EATOM  =    107373.91467324
  Solvation  Ediel_sol  =         0.00000000
  ---------------------------------------------------
  free energy    TOTEN  =      -550.33987774 eV

  energy without entropy =     -550.33987774  energy(sigma->0) =     -550.33987774


--------------------------------------------------------------------------------------------------------




--------------------------------------- Iteration      1(  11)  ---------------------------------------


    POTLOK:  cpu time    1.1166: real time    1.1376
    SETDIJ:  cpu time    2.5712: real time    2.5971
     EDDAV:  cpu time  560.6076: real time  566.2733
       DOS:  cpu time    0.0029: real time    0.0029
    CHARGE:  cpu time   12.1028: real time   12.2124
    MIXING:  cpu time    0.0345: real time    0.0355
    --------------------------------------------
      LOOP:  cpu time  576.4356: real time  582.2589

 eigenvalue-minimisations  : 48832
 total energy-change (2. order) : 0.7080829E-03  (-0.4719365E-04)
 number of electron     828.0000017 magnetization     144.0000013
 augmentation part      312.6475661 magnetization      94.7006978

 Broyden mixing:
  rms(total) = 0.17834E-01    rms(broyden)= 0.17833E-01
  rms(prec ) = 0.18064E-01
  weight for this iteration     100.00

 eigenvalues of (default mixing * dielectric matrix)
  average eigenvalue GAMMA=   0.8565
  1.4164  1.4164  0.6441  0.6441  0.5090  0.5090

 Free energy of the ion-electron system (eV)
  ---------------------------------------------------
  alpha Z        PSCENC =      2606.24521607
  Ewald energy   TEWEN  =    -65007.81695454
  -Hartree energ DENC   =    -34081.47748574
  -exchange      EXHF   =         0.00000000
  -V(xc)+E(xc)   XCENC  =      3632.78260386
  PAW double counting   =    104114.33759277  -107325.58087240
  entropy T*S    EENTRO =        -0.00000000
  eigenvalues    EBANDS =    -11862.74394293
  atomic energy  EATOM  =    107373.91467324
  Solvation  Ediel_sol  =         0.00000000
  ---------------------------------------------------
  free energy    TOTEN  =      -550.33916966 eV

  energy without entropy =     -550.33916966  energy(sigma->0) =     -550.33916966


--------------------------------------------------------------------------------------------------------




--------------------------------------- Iteration      1(  12)  ---------------------------------------


    POTLOK:  cpu time    1.1083: real time    1.1297
    SETDIJ:  cpu time    2.5599: real time    2.5730
     EDDAV:  cpu time  508.6094: real time  513.4986
       DOS:  cpu time    0.0031: real time    0.0031
    CHARGE:  cpu time   12.0483: real time   12.3808
    MIXING:  cpu time    0.0372: real time    0.0372
    --------------------------------------------
      LOOP:  cpu time  524.3662: real time  529.6224

 eigenvalue-minimisations  : 43176
 total energy-change (2. order) : 0.4128787E-04  (-0.2414301E-04)
 number of electron     828.0000017 magnetization     144.0000013
 augmentation part      312.6507769 magnetization      94.7005637

 Broyden mixing:
  rms(total) = 0.12291E-01    rms(broyden)= 0.12290E-01
  rms(prec ) = 0.12409E-01
  weight for this iteration     100.00

 eigenvalues of (default mixing * dielectric matrix)
  average eigenvalue GAMMA=   0.8268
  1.4636  1.4636  0.6923  0.6923  0.5124  0.5124  0.4512

 Free energy of the ion-electron system (eV)
  ---------------------------------------------------
  alpha Z        PSCENC =      2606.24521607
  Ewald energy   TEWEN  =    -65007.81695454
  -Hartree energ DENC   =    -34081.57747646
  -exchange      EXHF   =         0.00000000
  -V(xc)+E(xc)   XCENC  =      3632.80205397
  PAW double counting   =    104123.89285697  -107335.23568012
  entropy T*S    EENTRO =        -0.00000000
  eigenvalues    EBANDS =    -11862.56381751
  atomic energy  EATOM  =    107373.91467324
  Solvation  Ediel_sol  =         0.00000000
  ---------------------------------------------------
  free energy    TOTEN  =      -550.33912837 eV

  energy without entropy =     -550.33912837  energy(sigma->0) =     -550.33912837


--------------------------------------------------------------------------------------------------------




--------------------------------------- Iteration      1(  13)  ---------------------------------------


    POTLOK:  cpu time    1.1210: real time    1.1220
    SETDIJ:  cpu time    2.5671: real time    2.5691
     EDDAV:  cpu time  516.9222: real time  522.4633
       DOS:  cpu time    0.0032: real time    0.0033
    CHARGE:  cpu time   12.0968: real time   12.2683
    MIXING:  cpu time    0.0502: real time    0.0524
    --------------------------------------------
      LOOP:  cpu time  532.7605: real time  538.4783

 eigenvalue-minimisations  : 44112
 total energy-change (2. order) :-0.5135356E-05  (-0.3231836E-05)
 number of electron     828.0000017 magnetization     144.0000012
 augmentation part      312.6527129 magnetization      94.7006051

 Broyden mixing:
  rms(total) = 0.11716E-01    rms(broyden)= 0.11715E-01
  rms(prec ) = 0.11823E-01
  weight for this iteration     100.00

 eigenvalues of (default mixing * dielectric matrix)
  average eigenvalue GAMMA=   0.8773
  1.6424  1.6424  0.8596  0.8596  0.5404  0.5404  0.4666  0.4666

 Free energy of the ion-electron system (eV)
  ---------------------------------------------------
  alpha Z        PSCENC =      2606.24521607
  Ewald energy   TEWEN  =    -65007.81695454
  -Hartree energ DENC   =    -34081.58366214
  -exchange      EXHF   =         0.00000000
  -V(xc)+E(xc)   XCENC  =      3632.80276447
  PAW double counting   =    104124.95070909  -107336.29748951
  entropy T*S    EENTRO =        -0.00000000
  eigenvalues    EBANDS =    -11862.55439019
  atomic energy  EATOM  =    107373.91467324
  Solvation  Ediel_sol  =         0.00000000
  ---------------------------------------------------
  free energy    TOTEN  =      -550.33913351 eV

  energy without entropy =     -550.33913351  energy(sigma->0) =     -550.33913351


--------------------------------------------------------------------------------------------------------




--------------------------------------- Iteration      1(  14)  ---------------------------------------


    POTLOK:  cpu time    1.1392: real time    1.1697
    SETDIJ:  cpu time    2.5348: real time    2.5621
     EDDAV:  cpu time  340.5510: real time  344.2526
       DOS:  cpu time    0.0029: real time    0.0029
    --------------------------------------------
      LOOP:  cpu time  344.2279: real time  347.9873

 eigenvalue-minimisations  : 25272
 total energy-change (2. order) :-0.6790942E-06  (-0.5810814E-07)
 number of electron     828.0000017 magnetization     144.0000012
 augmentation part      312.6527129 magnetization      94.7006051

 Free energy of the ion-electron system (eV)
  ---------------------------------------------------
  alpha Z        PSCENC =      2606.24521607
  Ewald energy   TEWEN  =    -65007.81695454
  -Hartree energ DENC   =    -34081.60654633
  -exchange      EXHF   =         0.00000000
  -V(xc)+E(xc)   XCENC  =      3632.80513697
  PAW double counting   =    104128.58492280  -107339.95081012
  entropy T*S    EENTRO =        -0.00000000
  eigenvalues    EBANDS =    -11862.51477228
  atomic energy  EATOM  =    107373.91467324
  Solvation  Ediel_sol  =         0.00000000
  ---------------------------------------------------
  free energy    TOTEN  =      -550.33913419 eV

  energy without entropy =     -550.33913419  energy(sigma->0) =     -550.33913419


--------------------------------------------------------------------------------------------------------




 average (electrostatic) potential at core
  the test charge radii are     0.7079  0.7215  0.9698  0.9500
  (the norm of the test charge is              1.0000)
       1 -58.9536       2 -58.9536       3 -58.9535       4 -58.9526       5 -58.9534
       6 -58.9527       7 -58.9550       8 -58.9542       9 -58.9552      10 -58.9537
      11 -58.9538      12 -58.9538      13 -58.9530      14 -58.9534      15 -58.9530
      16 -58.9542      17 -58.9540      18 -58.9543      19 -69.8192      20 -69.8193
      21 -69.8192      22 -69.8187      23 -69.8186      24 -69.8186      25 -69.8196
      26 -69.8196      27 -69.8197      28 -69.8226      29 -69.8196      30 -69.8226
      31 -69.8158      32 -69.8188      33 -69.8159      34 -69.8192      35 -69.8192
      36 -69.8193      37 -85.5582      38 -85.5583      39 -85.5583      40 -85.5557
      41 -85.5575      42 -85.5576      43 -85.5609      44 -85.5590      45 -85.5590
      46 -85.5561      47 -85.5580      48 -85.5562      49 -85.5582      50 -85.5582
      51 -85.5583      52 -85.5605      53 -85.5586      54 -85.5605      55 -85.6456
      56 -85.6457      57 -85.6456      58 -85.6452      59 -85.6455      60 -85.6455
      61 -85.6468      62 -85.6464      63 -85.6465      64 -78.5668      65 -78.5668
      66 -78.5663      67 -78.5662      68 -78.5662      69 -78.5658      70 -78.5674
      71 -78.5673      72 -78.5678      73 -78.5719      74 -78.5670      75 -78.5715
      76 -78.5621      77 -78.5666      78 -78.5626      79 -78.5669      80 -78.5669
      81 -78.5669      82 -78.5855      83 -78.5839      84 -78.5839      85 -78.5804
      86 -78.5820      87 -78.5819      88 -78.5830      89 -78.5830      90 -78.5830
      91 -78.5825      92 -78.5825      93 -78.5824      94 -78.5827      95 -78.5828
      96 -78.5827      97 -78.5837      98 -78.5837      99 -78.5838
 
 
 
 E-fermi :   5.3077     XC(G=0): -10.4947     alpha+bet :-11.8267


 spin component 1

 k-point     1 :       0.0000    0.0000    0.0000
  band No.  band energies     occupation 
      1     -51.0544      1.00000
      2     -51.0533      1.00000
      3     -51.0504      1.00000
      4     -51.0503      1.00000
      5     -51.0502      1.00000
      6     -51.0498      1.00000
      7     -51.0498      1.00000
      8     -51.0497      1.00000
      9     -51.0494      1.00000
     10     -51.0491      1.00000
     11     -51.0490      1.00000
     12     -51.0488      1.00000
     13     -51.0479      1.00000
     14     -51.0474      1.00000
     15     -51.0470      1.00000
     16     -51.0467      1.00000
     17     -51.0458      1.00000
     18     -51.0436      1.00000
     19     -51.0392      1.00000
     20     -51.0379      1.00000
     21     -51.0374      1.00000
     22     -51.0373      1.00000
     23     -51.0373      1.00000
     24     -51.0372      1.00000
     25     -51.0371      1.00000
     26     -51.0362      1.00000
     27     -51.0362      1.00000
     28     -51.0362      1.00000
     29     -51.0360      1.00000
     30     -51.0360      1.00000
     31     -51.0357      1.00000
     32     -51.0357      1.00000
     33     -51.0356      1.00000
     34     -51.0355      1.00000
     35     -51.0347      1.00000
     36     -51.0333      1.00000
     37     -49.6922      1.00000
     38     -49.6903      1.00000
     39     -49.6903      1.00000
     40     -49.6902      1.00000
     41     -49.6902      1.00000
     42     -49.6896      1.00000
     43     -49.6894      1.00000
     44     -49.6893      1.00000
     45     -49.6893      1.00000
     46     -49.6892      1.00000
     47     -49.6892      1.00000
     48     -49.6890      1.00000
     49     -49.6889      1.00000
     50     -49.6885      1.00000
     51     -49.6882      1.00000
     52     -49.6882      1.00000
     53     -49.6881      1.00000
     54     -49.6862      1.00000
     55     -49.5963      1.00000
     56     -49.5959      1.00000
     57     -49.5912      1.00000
     58     -49.5910      1.00000
     59     -49.5910      1.00000
     60     -49.5907      1.00000
     61     -49.5901      1.00000
     62     -49.5896      1.00000
     63     -49.5893      1.00000
     64     -49.5890      1.00000
     65     -49.5888      1.00000
     66     -49.5887      1.00000
     67     -49.5882      1.00000
     68     -49.5881      1.00000
     69     -49.5881      1.00000
     70     -49.5876      1.00000
     71     -49.5860      1.00000
     72     -49.5855      1.00000
     73     -49.5641      1.00000
     74     -49.5630      1.00000
     75     -49.5618      1.00000
     76     -49.5616      1.00000
     77     -49.5616      1.00000
     78     -49.5611      1.00000
     79     -49.5610      1.00000
     80     -49.5607      1.00000
     81     -49.5595      1.00000
     82     -49.5595      1.00000
     83     -49.5591      1.00000
     84     -49.5591      1.00000
     85     -49.5588      1.00000
     86     -49.5588      1.00000
     87     -49.5587      1.00000
     88     -49.5576      1.00000
     89     -49.5556      1.00000
     90     -49.5538      1.00000
     91     -49.5500      1.00000
     92     -49.5488      1.00000
     93     -49.5487      1.00000
     94     -49.5487      1.00000
     95     -49.5485      1.00000
     96     -49.5485      1.00000
     97     -49.5477      1.00000
     98     -49.5473      1.00000
     99     -49.5472      1.00000
    100     -49.5472      1.00000
    101     -49.5471      1.00000
    102     -49.5469      1.00000
    103     -49.5469      1.00000
    104     -49.5467      1.00000
    105     -49.5466      1.00000
    106     -49.5466      1.00000
    107     -49.5457      1.00000
    108     -49.5446      1.00000
    109     -39.8733      1.00000
    110     -39.8730      1.00000
    111     -39.8727      1.00000
    112     -39.8724      1.00000
    113     -39.8722      1.00000
    114     -39.8720      1.00000
    115     -39.8719      1.00000
    116     -39.8718      1.00000
    117     -39.8717      1.00000
    118     -39.8716      1.00000
    119     -39.8715      1.00000
    120     -39.8715      1.00000
    121     -39.8714      1.00000
    122     -39.8712      1.00000
    123     -39.8710      1.00000
    124     -39.8708      1.00000
    125     -39.8707      1.00000
    126     -39.8705      1.00000
    127     -13.2362      1.00000
    128     -13.2348      1.00000
    129     -13.2348      1.00000
    130     -13.2338      1.00000
    131     -13.2258      1.00000
    132     -13.1987      1.00000
    133     -13.0561      1.00000
    134     -13.0555      1.00000
    135     -13.0542      1.00000
    136     -13.0538      1.00000
    137     -13.0428      1.00000
    138     -13.0423      1.00000
    139     -13.0411      1.00000
    140     -13.0406      1.00000
    141     -13.0189      1.00000
    142     -13.0186      1.00000
    143     -13.0185      1.00000
    144     -13.0183      1.00000
    145      -7.6147      1.00000
    146      -7.4114      1.00000
    147      -7.3753      1.00000
    148      -7.3749      1.00000
    149      -7.3749      1.00000
    150      -7.3746      1.00000
    151      -7.1813      1.00000
    152      -7.1810      1.00000
    153      -7.1716      1.00000
    154      -7.1715      1.00000
    155      -7.1516      1.00000
    156      -7.1511      1.00000
    157      -7.1511      1.00000
    158      -7.1505      1.00000
    159      -6.9844      1.00000
    160      -6.9655      1.00000
    161      -6.9643      1.00000
    162      -6.9307      1.00000
    163      -6.9297      1.00000
    164      -6.8717      1.00000
    165      -6.8713      1.00000
    166      -6.8712      1.00000
    167      -6.8706      1.00000
    168      -6.8074      1.00000
    169      -6.8067      1.00000
    170      -6.7806      1.00000
    171      -6.7800      1.00000
    172      -1.8369      1.00000
    173      -1.8368      1.00000
    174      -1.8367      1.00000
    175      -1.8365      1.00000
    176      -1.8163      1.00000
    177      -1.8161      1.00000
    178      -1.8036      1.00000
    179      -1.8034      1.00000
    180      -1.7665      1.00000
    181      -1.7662      1.00000
    182      -1.7537      1.00000
    183      -1.7533      1.00000
    184      -1.2808      1.00000
    185      -1.1981      1.00000
    186      -1.1973      1.00000
    187      -1.1972      1.00000
    188      -1.1967      1.00000
    189      -1.0051      1.00000
    190      -1.0048      1.00000
    191      -0.9742      1.00000
    192      -0.9741      1.00000
    193      -0.9589      1.00000
    194      -0.9587      1.00000
    195      -0.9469      1.00000
    196      -0.9385      1.00000
    197      -0.9312      1.00000
    198      -0.9284      1.00000
    199      -0.9281      1.00000
    200      -0.8854      1.00000
    201      -0.8845      1.00000
    202      -0.8845      1.00000
    203      -0.8834      1.00000
    204      -0.8717      1.00000
    205      -0.8712      1.00000
    206      -0.8677      1.00000
    207      -0.8672      1.00000
    208      -0.8671      1.00000
    209      -0.8667      1.00000
    210      -0.8596      1.00000
    211      -0.8592      1.00000
    212      -0.7005      1.00000
    213      -0.7003      1.00000
    214      -0.7003      1.00000
    215      -0.6998      1.00000
    216      -0.6714      1.00000
    217      -0.6712      1.00000
    218      -0.6235      1.00000
    219      -0.6227      1.00000
    220      -0.6227      1.00000
    221      -0.6223      1.00000
    222      -0.6219      1.00000
    223      -0.6217      1.00000
    224      -0.3525      1.00000
    225      -0.3521      1.00000
    226      -0.3520      1.00000
    227      -0.3516      1.00000
    228      -0.3219      1.00000
    229      -0.3216      1.00000
    230      -0.2916      1.00000
    231      -0.2913      1.00000
    232      -0.2647      1.00000
    233      -0.2642      1.00000
    234      -0.2641      1.00000
    235      -0.2634      1.00000
    236      -0.2607      1.00000
    237      -0.2606      1.00000
    238      -0.2579      1.00000
    239      -0.2487      1.00000
    240      -0.2485      1.00000
    241      -0.2427      1.00000
    242      -0.2203      1.00000
    243      -0.1405      1.00000
    244      -0.1404      1.00000
    245      -0.1401      1.00000
    246      -0.1399      1.00000
    247      -0.1394      1.00000
    248      -0.1393      1.00000
    249      -0.1235      1.00000
    250      -0.1229      1.00000
    251      -0.1229      1.00000
    252      -0.1222      1.00000
    253      -0.1202      1.00000
    254      -0.1198      1.00000
    255      -0.0777      1.00000
    256      -0.0775      1.00000
    257      -0.0595      1.00000
    258      -0.0119      1.00000
    259      -0.0114      1.00000
    260       0.0158      1.00000
    261       0.0159      1.00000
    262       0.0261      1.00000
    263       0.0262      1.00000
    264       0.0428      1.00000
    265       0.0430      1.00000
    266       0.0431      1.00000
    267       0.0438      1.00000
    268       0.0606      1.00000
    269       0.0608      1.00000
    270       0.1496      1.00000
    271       0.1497      1.00000
    272       0.1499      1.00000
    273       0.1506      1.00000
    274       0.1583      1.00000
    275       0.1639      1.00000
    276       0.1656      1.00000
    277       0.1825      1.00000
    278       0.1826      1.00000
    279       0.1923      1.00000
    280       0.1965      1.00000
    281       0.1967      1.00000
    282       0.2076      1.00000
    283       0.2080      1.00000
    284       0.2580      1.00000
    285       0.2582      1.00000
    286       0.2584      1.00000
    287       0.2588      1.00000
    288       0.2783      1.00000
    289       0.2786      1.00000
    290       0.3392      1.00000
    291       0.3394      1.00000
    292       0.3594      1.00000
    293       0.3599      1.00000
    294       0.3599      1.00000
    295       0.3606      1.00000
    296       0.3801      1.00000
    297       0.3831      1.00000
    298       0.4895      1.00000
    299       0.4899      1.00000
    300       0.4899      1.00000
    301       0.4902      1.00000
    302       0.5164      1.00000
    303       0.5169      1.00000
    304       0.5170      1.00000
    305       0.5179      1.00000
    306       0.5587      1.00000
    307       0.5589      1.00000
    308       0.6088      1.00000
    309       0.6089      1.00000
    310       0.6148      1.00000
    311       0.6302      1.00000
    312       0.6308      1.00000
    313       0.6309      1.00000
    314       0.6320      1.00000
    315       0.7521      1.00000
    316       0.7524      1.00000
    317       0.7608      1.00000
    318       0.7617      1.00000
    319       0.7620      1.00000
    320       0.7625      1.00000
    321       0.7905      1.00000
    322       0.7909      1.00000
    323       0.7932      1.00000
    324       0.8459      1.00000
    325       0.8464      1.00000
    326       0.8548      1.00000
    327       0.8553      1.00000
    328       0.9685      1.00000
    329       0.9690      1.00000
    330       0.9691      1.00000
    331       0.9696      1.00000
    332       0.9793      1.00000
    333       1.2399      1.00000
    334       1.2400      1.00000
    335       1.2400      1.00000
    336       1.2402      1.00000
    337       1.2640      1.00000
    338       1.2926      1.00000
    339       1.2928      1.00000
    340       1.3305      1.00000
    341       1.3308      1.00000
    342       1.3584      1.00000
    343       1.3588      1.00000
    344       1.3590      1.00000
    345       1.3590      1.00000
    346       1.4364      1.00000
    347       1.4369      1.00000
    348       1.4641      1.00000
    349       1.4754      1.00000
    350       1.4872      1.00000
    351       1.4876      1.00000
    352       1.5475      1.00000
    353       1.6787      1.00000
    354       1.6801      1.00000
    355       1.6802      1.00000
    356       1.7234      1.00000
    357       1.7238      1.00000
    358       1.7239      1.00000
    359       1.7240      1.00000
    360       1.7656      1.00000
    361       1.7658      1.00000
    362       1.8136      1.00000
    363       1.8148      1.00000
    364       1.8148      1.00000
    365       1.8151      1.00000
    366       1.8264      1.00000
    367       1.8270      1.00000
    368       1.8277      1.00000
    369       1.8280      1.00000
    370       1.8395      1.00000
    371       1.8760      1.00000
    372       1.8865      1.00000
    373       1.9030      1.00000
    374       1.9030      1.00000
    375       1.9175      1.00000
    376       1.9177      1.00000
    377       1.9634      1.00000
    378       1.9635      1.00000
    379       1.9899      1.00000
    380       1.9901      1.00000
    381       1.9983      1.00000
    382       1.9993      1.00000
    383       1.9994      1.00000
    384       1.9997      1.00000
    385       2.0714      1.00000
    386       2.0716      1.00000
    387       2.0807      1.00000
    388       2.0816      1.00000
    389       2.0816      1.00000
    390       2.0825      1.00000
    391       2.0943      1.00000
    392       2.0946      1.00000
    393       2.1160      1.00000
    394       2.1163      1.00000
    395       2.1166      1.00000
    396       2.1167      1.00000
    397       2.1954      1.00000
    398       2.1958      1.00000
    399       2.2884      1.00000
    400       2.2887      1.00000
    401       2.4161      1.00000
    402       2.4166      1.00000
    403       2.4405      1.00000
    404       2.4408      1.00000
    405       2.4408      1.00000
    406       2.4413      1.00000
    407       2.4996      1.00000
    408       2.5159      1.00000
    409       2.5164      1.00000
    410       2.5165      1.00000
    411       2.5171      1.00000
    412       2.5593      1.00000
    413       2.5596      1.00000
    414       2.5653      1.00000
    415       2.7184      1.00000
    416       2.7187      1.00000
    417       2.7188      1.00000
    418       2.7190      1.00000
    419       2.7331      1.00000
    420       2.7334      1.00000
    421       2.8001      1.00000
    422       2.8006      1.00000
    423       3.0023      1.00000
    424       3.0028      1.00000
    425       3.0064      1.00000
    426       3.0068      1.00000
    427       3.1702      1.00000
    428       3.2184      1.00000
    429       3.2197      1.00000
    430       3.2214      1.00000
    431       3.2226      1.00000
    432       3.3593      1.00000
    433       3.3598      1.00000
    434       3.3599      1.00000
    435       3.3608      1.00000
    436       3.3930      1.00000
    437       3.4017      1.00000
    438       3.5014      1.00000
    439       3.5023      1.00000
    440       3.5873      1.00000
    441       3.5875      1.00000
    442       3.8155      1.00000
    443       3.8164      1.00000
    444       3.8300      1.00000
    445       3.8304      1.00000
    446       4.0028      1.00000
    447       4.0030      1.00000
    448       4.0031      1.00000
    449       4.0034      1.00000
    450       4.0313      1.00000
    451       4.0316      1.00000
    452       4.0318      1.00000
    453       4.0321      1.00000
    454       4.1064      1.00000
    455       4.1168      1.00000
    456       4.1220      1.00000
    457       4.1596      1.00000
    458       4.1603      1.00000
    459       4.2590      1.00000
    460       4.2591      1.00000
    461       4.2769      1.00000
    462       4.2771      1.00000
    463       4.3298      1.00000
    464       4.3312      1.00000
    465       4.3570      1.00000
    466       4.3588      1.00000
    467       4.3588      1.00000
    468       4.3605      1.00000
    469       4.4114      1.00000
    470       4.4124      1.00000
    471       4.4337      1.00000
    472       4.4343      1.00000
    473       4.5231      1.00000
    474       4.5234      1.00000
    475       4.5235      1.00000
    476       4.5244      1.00000
    477       4.5507      1.00000
    478       4.5513      1.00000
    479       4.8116      1.00000
    480       4.8120      1.00000
    481       4.8121      1.00000
    482       4.8127      1.00000
    483       4.8746      1.00000
    484       4.8749      1.00000
    485       4.8752      1.00000
    486       4.8756      1.00000
    487       7.3646      0.00000
    488       8.4303      0.00000
    489       8.6649      0.00000
    490       8.6657      0.00000
    491       8.8402      0.00000
    492       8.8418      0.00000
    493       8.8419      0.00000
    494       8.8432      0.00000
    495       8.9860      0.00000
    496       8.9868      0.00000
    497       9.3092      0.00000
    498       9.3111      0.00000
    499       9.3113      0.00000
    500       9.3128      0.00000
    501       9.3214      0.00000
    502       9.3224      0.00000
    503       9.4441      0.00000
    504       9.4458      0.00000
    505       9.5150      0.00000
    506       9.5155      0.00000
    507       9.5160      0.00000
    508       9.5170      0.00000
    509       9.8733      0.00000
    510       9.8787      0.00000
    511       9.9186      0.00000
    512       9.9191      0.00000
    513       9.9192      0.00000
    514       9.9197      0.00000
    515       9.9657      0.00000
    516       9.9670      0.00000
    517      10.0693      0.00000
    518      10.0696      0.00000
    519      10.4888      0.00000
    520      10.5025      0.00000
    521      10.5026      0.00000
    522      10.5190      0.00000
    523      10.5200      0.00000
    524      10.8001      0.00000
    525      10.8012      0.00000
    526      10.8016      0.00000
    527      10.8030      0.00000
    528      10.8748      0.00000
[...]
   -.211E+01 0.670E+01 -.124E+03   0.220E+01 -.699E+01 0.129E+03   -.920E-01 0.294E+00 -.456E+01   -.215E-03 -.376E-03 0.472E-03
   -.227E+01 0.674E+01 -.124E+03   0.235E+01 -.702E+01 0.129E+03   -.767E-01 0.284E+00 -.454E+01   -.333E-03 -.400E-03 0.932E-03
   -.244E+01 0.670E+01 -.124E+03   0.250E+01 -.699E+01 0.129E+03   -.614E-01 0.294E+00 -.456E+01   0.194E-03 -.331E-03 0.436E-03
   -.243E+01 0.669E+01 -.125E+03   0.250E+01 -.698E+01 0.129E+03   -.620E-01 0.295E+00 -.453E+01   0.634E-03 -.266E-03 0.156E-02
   -.227E+01 0.673E+01 -.124E+03   0.235E+01 -.702E+01 0.129E+03   -.768E-01 0.284E+00 -.454E+01   -.356E-03 -.273E-03 0.107E-02
   -.211E+01 0.669E+01 -.125E+03   0.220E+01 -.698E+01 0.129E+03   -.917E-01 0.295E+00 -.453E+01   -.784E-03 -.173E-03 0.143E-02
   -.227E+01 0.665E+01 -.124E+03   0.235E+01 -.694E+01 0.129E+03   -.769E-01 0.289E+00 -.454E+01   0.148E-03 0.103E-02 0.121E-02
   -.227E+01 0.670E+01 -.124E+03   0.235E+01 -.698E+01 0.129E+03   -.766E-01 0.288E+00 -.454E+01   -.400E-03 0.624E-03 0.117E-02
   -.227E+01 0.665E+01 -.124E+03   0.235E+01 -.694E+01 0.129E+03   -.767E-01 0.290E+00 -.454E+01   -.274E-03 0.105E-02 0.127E-02
   0.466E+01 -.898E+01 -.319E+02   -.475E+01 0.913E+01 0.324E+02   0.843E-01 -.183E+00 -.498E+00   0.207E-03 -.630E-02 0.618E-03
   0.468E+01 -.112E+02 -.319E+02   -.476E+01 0.113E+02 0.324E+02   0.833E-01 -.138E+00 -.499E+00   0.499E-05 -.819E-03 0.510E-03
   0.468E+01 -.112E+02 -.319E+02   -.476E+01 0.113E+02 0.324E+02   0.834E-01 -.138E+00 -.499E+00   -.228E-03 -.660E-03 0.515E-03
   0.468E+01 -.115E+02 -.319E+02   -.476E+01 0.116E+02 0.324E+02   0.831E-01 -.120E+00 -.500E+00   0.457E-04 0.706E-03 0.643E-03
   0.464E+01 -.113E+02 -.319E+02   -.473E+01 0.115E+02 0.324E+02   0.847E-01 -.133E+00 -.499E+00   0.325E-03 0.488E-03 0.677E-03
   0.471E+01 -.113E+02 -.319E+02   -.479E+01 0.115E+02 0.324E+02   0.820E-01 -.133E+00 -.499E+00   -.511E-03 0.415E-03 0.505E-03
   0.468E+01 -.115E+02 -.319E+02   -.476E+01 0.116E+02 0.324E+02   0.837E-01 -.119E+00 -.498E+00   0.160E-03 0.709E-03 0.600E-03
   0.471E+01 -.113E+02 -.319E+02   -.479E+01 0.115E+02 0.324E+02   0.820E-01 -.133E+00 -.499E+00   -.123E-03 0.381E-03 0.658E-03
   0.464E+01 -.113E+02 -.319E+02   -.473E+01 0.115E+02 0.324E+02   0.848E-01 -.133E+00 -.499E+00   0.665E-05 0.232E-03 0.627E-03
   0.112E+02 -.463E+01 0.320E+02   -.114E+02 0.471E+01 -.325E+02   0.140E+00 -.797E-01 0.491E+00   0.310E-03 -.336E-03 -.901E-03
   0.113E+02 -.463E+01 0.319E+02   -.114E+02 0.471E+01 -.324E+02   0.135E+00 -.835E-01 0.499E+00   -.745E-04 -.678E-04 -.585E-03
   0.114E+02 -.463E+01 0.320E+02   -.115E+02 0.471E+01 -.325E+02   0.130E+00 -.797E-01 0.491E+00   -.281E-03 -.292E-03 -.877E-03
   0.113E+02 -.469E+01 0.319E+02   -.114E+02 0.478E+01 -.324E+02   0.135E+00 -.807E-01 0.499E+00   0.178E-03 0.962E-03 -.621E-03
   0.113E+02 -.466E+01 0.319E+02   -.114E+02 0.474E+01 -.324E+02   0.135E+00 -.815E-01 0.499E+00   0.102E-03 0.501E-03 -.597E-03
   0.113E+02 -.469E+01 0.319E+02   -.114E+02 0.477E+01 -.324E+02   0.135E+00 -.807E-01 0.499E+00   -.226E-03 0.787E-03 -.621E-03
   0.114E+02 -.464E+01 0.318E+02   -.115E+02 0.472E+01 -.323E+02   0.130E+00 -.797E-01 0.506E+00   0.742E-04 -.282E-03 -.577E-03
   0.113E+02 -.463E+01 0.319E+02   -.114E+02 0.471E+01 -.324E+02   0.135E+00 -.834E-01 0.499E+00   -.162E-03 -.303E-03 -.590E-03
   0.112E+02 -.464E+01 0.318E+02   -.114E+02 0.472E+01 -.323E+02   0.139E+00 -.796E-01 0.507E+00   -.482E-04 -.374E-03 -.548E-03
   -.172E-01 0.106E+00 0.982E-02   0.205E-01 -.106E+00 -.914E-02   -.334E-02 -.455E-04 -.997E-03   0.954E-04 -.760E-03 -.958E-04
   -.151E-01 0.440E-01 0.454E-02   0.179E-01 -.460E-01 -.421E-02   -.309E-02 0.185E-02 -.377E-03   0.330E-03 -.485E-03 -.961E-04
   -.116E-01 0.456E-01 0.104E-01   0.152E-01 -.474E-01 -.942E-02   -.320E-02 0.179E-02 -.110E-02   -.360E-03 -.553E-03 -.272E-03
   -.142E-01 -.298E-01 -.405E-01   0.173E-01 0.251E-01 0.396E-01   -.321E-02 0.457E-02 0.127E-02   0.117E-03 0.697E-03 0.416E-03
   -.248E-01 -.404E-02 -.137E-01   0.274E-01 -.958E-04 0.130E-01   -.272E-02 0.428E-02 0.730E-03   0.333E-03 0.346E-03 0.278E-03
   -.421E-02 -.796E-02 -.134E-01   0.810E-02 0.330E-02 0.128E-01   -.372E-02 0.452E-02 0.685E-03   -.376E-03 0.602E-03 0.273E-03
   -.121E-01 -.165E-01 0.304E-01   0.156E-01 0.123E-01 -.303E-01   -.336E-02 0.427E-02 -.414E-03   -.336E-04 0.179E-03 -.126E-03
   -.474E-02 0.411E-02 0.932E-02   0.801E-02 -.796E-02 -.880E-02   -.359E-02 0.402E-02 -.514E-03   0.833E-04 0.936E-04 -.228E-03
   -.269E-01 0.590E-02 0.306E-02   0.300E-01 -.983E-02 -.333E-02   -.275E-02 0.401E-02 0.405E-03   -.185E-04 0.141E-03 -.107E-03
   -.272E+01 0.436E+01 -.185E+03   0.203E+01 -.396E+01 0.183E+03   0.689E+00 -.395E+00 0.230E+01   -.741E-03 -.744E-03 -.116E-02
   -.271E+01 0.434E+01 -.185E+03   0.202E+01 -.395E+01 0.183E+03   0.688E+00 -.394E+00 0.230E+01   -.164E-05 -.402E-03 -.102E-02
   -.272E+01 0.511E+01 -.185E+03   0.203E+01 -.468E+01 0.183E+03   0.687E+00 -.421E+00 0.229E+01   0.187E-02 -.313E-02 -.189E-02
   -.276E+01 0.418E+01 -.185E+03   0.207E+01 -.379E+01 0.183E+03   0.691E+00 -.386E+00 0.230E+01   0.160E-03 0.494E-03 -.119E-02
   -.267E+01 0.418E+01 -.185E+03   0.198E+01 -.379E+01 0.183E+03   0.687E+00 -.387E+00 0.230E+01   -.621E-03 0.485E-03 -.179E-02
   -.271E+01 0.403E+01 -.185E+03   0.202E+01 -.365E+01 0.183E+03   0.687E+00 -.385E+00 0.229E+01   0.157E-02 0.765E-03 -.213E-02
   -.266E+01 0.416E+01 -.185E+03   0.198E+01 -.378E+01 0.183E+03   0.687E+00 -.386E+00 0.230E+01   -.130E-02 0.168E-02 -.486E-03
   -.276E+01 0.417E+01 -.185E+03   0.207E+01 -.379E+01 0.183E+03   0.690E+00 -.387E+00 0.230E+01   0.380E-03 0.112E-02 -.661E-03
   -.272E+01 0.402E+01 -.186E+03   0.203E+01 -.363E+01 0.183E+03   0.688E+00 -.386E+00 0.230E+01   0.172E-02 0.169E-02 -.228E-03
   -.328E+01 0.235E+01 0.185E+03   0.294E+01 -.169E+01 -.183E+03   0.350E+00 -.655E+00 -.229E+01   -.341E-02 -.566E-03 0.142E-02
   -.424E+01 0.274E+01 0.185E+03   0.384E+01 -.205E+01 -.183E+03   0.391E+00 -.689E+00 -.230E+01   0.362E-03 -.281E-02 0.921E-03
   -.512E+01 0.241E+01 0.185E+03   0.469E+01 -.175E+01 -.183E+03   0.430E+00 -.660E+00 -.229E+01   0.135E-02 -.968E-03 0.135E-02
   -.508E+01 0.231E+01 0.185E+03   0.465E+01 -.166E+01 -.183E+03   0.424E+00 -.658E+00 -.230E+01   0.313E-02 0.917E-03 0.436E-03
   -.424E+01 0.273E+01 0.185E+03   0.385E+01 -.204E+01 -.183E+03   0.391E+00 -.690E+00 -.230E+01   0.792E-03 -.123E-02 0.565E-03
   -.345E+01 0.238E+01 0.185E+03   0.310E+01 -.172E+01 -.183E+03   0.364E+00 -.663E+00 -.230E+01   -.493E-02 0.964E-03 0.161E-03
   -.423E+01 0.249E+01 0.185E+03   0.384E+01 -.182E+01 -.183E+03   0.391E+00 -.680E+00 -.230E+01   -.725E-04 0.430E-02 0.124E-02
   -.424E+01 0.263E+01 0.185E+03   0.385E+01 -.195E+01 -.183E+03   0.391E+00 -.682E+00 -.230E+01   0.727E-03 0.314E-02 0.123E-02
   -.424E+01 0.250E+01 0.185E+03   0.385E+01 -.183E+01 -.183E+03   0.393E+00 -.680E+00 -.230E+01   -.187E-02 0.401E-02 0.902E-03
   0.377E+01 0.488E+01 -.201E+03   -.385E+01 -.490E+01 0.203E+03   0.804E-01 0.198E-01 -.200E+01   0.129E-03 -.736E-03 -.117E-02
   0.387E+01 0.511E+01 -.201E+03   -.394E+01 -.512E+01 0.203E+03   0.720E-01 0.101E-01 -.198E+01   -.288E-03 -.883E-03 0.598E-03
   0.369E+01 0.511E+01 -.201E+03   -.378E+01 -.512E+01 0.203E+03   0.891E-01 0.949E-02 -.198E+01   -.400E-03 -.138E-02 0.762E-03
   0.379E+01 0.487E+01 -.202E+03   -.387E+01 -.489E+01 0.204E+03   0.803E-01 0.208E-01 -.197E+01   0.286E-03 0.185E-02 0.312E-02
   0.368E+01 0.510E+01 -.202E+03   -.378E+01 -.511E+01 0.204E+03   0.878E-01 0.103E-01 -.198E+01   0.261E-02 0.114E-02 0.189E-02
   0.388E+01 0.510E+01 -.202E+03   -.394E+01 -.511E+01 0.204E+03   0.733E-01 0.107E-01 -.198E+01   -.335E-02 0.105E-02 0.123E-02
   0.378E+01 0.488E+01 -.202E+03   -.386E+01 -.490E+01 0.203E+03   0.803E-01 0.187E-01 -.198E+01   0.207E-03 0.211E-02 0.173E-02
   0.378E+01 0.499E+01 -.201E+03   -.386E+01 -.500E+01 0.203E+03   0.799E-01 0.155E-01 -.198E+01   0.143E-02 0.507E-03 0.136E-02
   0.378E+01 0.499E+01 -.201E+03   -.386E+01 -.500E+01 0.203E+03   0.812E-01 0.157E-01 -.198E+01   -.188E-02 0.794E-03 0.135E-02
   -.508E+01 -.373E+01 0.202E+03   0.508E+01 0.382E+01 -.203E+03   -.104E-01 -.826E-01 0.198E+01   0.181E-02 0.403E-05 -.123E-02
   -.504E+01 -.376E+01 0.202E+03   0.505E+01 0.384E+01 -.203E+03   -.138E-01 -.826E-01 0.198E+01   -.247E-02 0.140E-02 -.219E-02
   -.506E+01 -.373E+01 0.202E+03   0.507E+01 0.381E+01 -.204E+03   -.121E-01 -.825E-01 0.198E+01   -.335E-03 0.145E-03 -.181E-02
   -.507E+01 -.385E+01 0.201E+03   0.508E+01 0.393E+01 -.203E+03   -.121E-01 -.774E-01 0.198E+01   0.146E-02 0.641E-03 -.201E-03
   -.505E+01 -.384E+01 0.201E+03   0.507E+01 0.392E+01 -.203E+03   -.116E-01 -.776E-01 0.198E+01   -.181E-02 -.720E-05 -.717E-03
   -.504E+01 -.388E+01 0.201E+03   0.506E+01 0.395E+01 -.203E+03   -.129E-01 -.773E-01 0.198E+01   -.643E-03 0.113E-02 -.331E-03
   -.503E+01 -.380E+01 0.201E+03   0.504E+01 0.388E+01 -.203E+03   -.157E-01 -.816E-01 0.198E+01   0.210E-03 -.292E-03 -.848E-03
   -.507E+01 -.379E+01 0.201E+03   0.508E+01 0.387E+01 -.203E+03   -.938E-02 -.817E-01 0.198E+01   -.129E-02 -.737E-03 -.114E-02
   -.507E+01 -.379E+01 0.201E+03   0.508E+01 0.387E+01 -.203E+03   -.114E-01 -.819E-01 0.198E+01   -.810E-04 -.518E-03 -.760E-03
 -----------------------------------------------------------------------------------------------
   -.944E+01 0.923E+01 0.231E-02   -.142E-13 0.106E-12 0.654E-12   0.945E+01 -.925E+01 -.265E-02   -.666E-02 0.139E-01 0.259E-03
 
 
 POSITION                                       TOTAL-FORCE (eV/Angst)
 -----------------------------------------------------------------------------------
      0.69431      1.16678      8.50361         0.000004      0.002672      0.000187
      4.62006      1.16961      8.52669         0.000070      0.000717      0.000222
      8.54582      1.17244      8.54977        -0.000029      0.002766      0.000177
      0.68421      5.09252      8.52669        -0.000120     -0.001422     -0.000391
      4.60997      5.09535      8.54977         0.000051     -0.000691     -0.000196
      8.53573      5.09818      8.57285         0.000108     -0.001409     -0.000380
      0.67412      9.01827      8.54977         0.000288     -0.000415      0.000322
      4.59988      9.02110      8.57285         0.000003      0.000316      0.000121
      8.52563      9.02393      8.59592        -0.000270     -0.000415      0.000277
      0.73117      1.20377      1.72829        -0.000416      0.000940      0.000115
      4.65693      1.20660      1.75137         0.000630      0.000339      0.000184
      8.58269      1.20942      1.77444        -0.000533      0.000840      0.000027
      0.72108      5.12951      1.75137        -0.000355     -0.000301      0.000220
      4.64684      5.13234      1.77444         0.000545     -0.000023      0.000104
      8.57259      5.13517      1.79752        -0.000494     -0.000415      0.000244
      0.71099      9.05525      1.77444        -0.000413     -0.000857     -0.000368
      4.63674      9.05808      1.79752         0.000596     -0.000311      0.000102
      8.56250      9.06091      1.82060        -0.000479     -0.000703     -0.000406
      2.69694      1.20483      2.03281        -0.000188     -0.001413     -0.000125
      6.62270      1.20766      2.05588        -0.000124     -0.001318     -0.000072
     10.54845      1.21049      2.07896        -0.000342     -0.001589     -0.000297
      2.68685      5.13057      2.05588         0.000260      0.000562     -0.000289
      6.61260      5.13340      2.07896        -0.000577      0.000588     -0.000324
     10.53836      5.13623      2.10204        -0.000333      0.000413     -0.000363
      2.67675      9.05632      2.07896        -0.000652      0.001177      0.000370
      6.60251      9.05915      2.10204         0.000323      0.001147      0.000374
     10.52827      9.06198      2.12512        -0.000361      0.001059      0.000422
      0.69972     -0.79898      8.19910        -0.006036      0.003844     -0.005492
      4.62547     -0.79615      8.22217         0.000125     -0.000034      0.000267
      8.55123     -0.79332      8.24525         0.006227      0.003814     -0.005339
      0.68962      3.12676      8.22217         0.006071      0.003627      0.005395
      4.61538      3.12959      8.24525         0.000089     -0.000136     -0.000318
      8.54114      3.13242      8.26833        -0.005885      0.003593      0.005093
      0.67953      7.05251      8.24525         0.000034      0.001318      0.000049
      4.60529      7.05534      8.26833         0.000153      0.000952      0.000064
      8.53104      7.05817      8.29141         0.000089      0.001336      0.000055
     -1.24737      1.16770      6.42344         0.000832     -0.032431      0.000448
      2.67842      1.16053      6.44646        -0.000046     -0.001912     -0.000111
      6.60417      1.16336      6.46954         0.000067     -0.001915     -0.000141
     -1.25744      5.08344      6.44646        -0.000034      0.005870     -0.000412
      2.66832      5.08627      6.46954         0.000818      0.000975     -0.000115
      6.59408      5.08910      6.49262        -0.000763      0.000965     -0.000131
     -1.26753      9.00919      6.46954         0.000010      0.005792      0.000385
      2.65823      9.01202      6.49262        -0.000792      0.000969      0.000035
      6.58398      9.01484      6.51569         0.000843      0.000995      0.000086
      0.73386      3.14543      3.80852         0.002815      0.001581     -0.003873
      4.65962      3.14826      3.83160         0.000030     -0.000314      0.000248
      8.58538      3.15109      3.85467        -0.002615      0.001609     -0.003958
      0.72377      7.07118      3.83160         0.000014      0.001015      0.000254
      4.64953      7.07401      3.85467         0.000032      0.000710      0.000195
      8.57528      7.07684      3.87775         0.000027      0.001023      0.000215
      0.71368     10.99692      3.85467        -0.002680      0.001548      0.003891
      4.63943     10.99975      3.87775         0.000019     -0.000229     -0.000111
      8.56519     11.00258      3.90083         0.002595      0.001613      0.004121
      0.73979      3.17832      0.02308         0.000021     -0.001520     -0.000410
      4.66555      3.18115      0.04616         0.000009     -0.000596     -0.000143
      8.59130      3.18398      0.06923         0.000044     -0.000593     -0.000411
      0.72970      7.10407      0.04616         0.000003      0.000573      0.000793
      4.65545      7.10690      0.06923         0.000252      0.000493      0.000366
      8.58121      7.10973      0.09231        -0.000205      0.000465      0.000350
      0.71960     11.02981      0.06923         0.000045      0.000321     -0.000406
      4.64536     11.03264      0.09231        -0.000235      0.000276     -0.000219
      8.57112     11.03547      0.11539         0.000244      0.000233      0.000027
      2.61849      1.23237      4.04033         0.000020      0.001250     -0.000046
      6.54425      1.23520      4.06340         0.000148      0.001111     -0.000057
     10.47001      1.23803      4.08648        -0.000011      0.003150     -0.000470
      2.60840      5.15812      4.06340        -0.000493     -0.000915     -0.000022
      6.53415      5.16095      4.08648         0.000641     -0.000836      0.000055
     10.45991      5.16378      4.10956         0.000044     -0.001032      0.000923
      2.59830      9.08386      4.08648         0.000642     -0.000789     -0.000168
      6.52406      9.08669      4.10956        -0.000476     -0.000729     -0.000201
     10.44982      9.08952      4.13264         0.000055     -0.000897     -0.001180
      0.67192     -0.72062      6.19157         0.000059      0.001606      0.000616
      4.59767     -0.71779      6.21465         0.000023      0.000437      0.000122
      8.52343     -0.71497      6.23773        -0.002299     -0.000225      0.000215
      0.66182      3.20512      6.21465        -0.002519     -0.000919     -0.000125
      4.58758      3.20795      6.23773        -0.000015      0.000425      0.000167
      8.51333      3.21078      6.26081         0.003320     -0.002051      0.000197
      0.65173      7.13086      6.23773        -0.000135     -0.002080     -0.000038
      4.57748      7.13369      6.26081        -0.000032     -0.001602     -0.000001
      8.50324      7.13652      6.28389        -0.000094     -0.002034     -0.000020
     -1.26712     -0.80254      8.61927         0.000144      0.000309      0.002597
      2.65864     -0.79971      8.64235         0.002044      0.000491      0.000326
      6.58440     -0.79688      8.66542        -0.001754      0.000591      0.000348
     -1.27721      3.12320      8.64235         0.000074     -0.000070     -0.002677
      2.64854      3.12603      8.66542        -0.001762      0.000352     -0.000315
      6.57430      3.12886      8.68850         0.002061      0.000308     -0.000207
     -1.28731      7.04895      8.66542         0.000124     -0.001498     -0.000092
      2.63845      7.05177      8.68850         0.000128     -0.000719     -0.000082
      6.56421      7.05460      8.71158         0.000168     -0.000743     -0.000056
      2.69403      3.17166      1.61263        -0.000556      0.000267      0.000519
      6.61978      3.17449      1.63571         0.000647      0.000196      0.000467
     10.54554      3.17732      1.65879         0.000041      0.000186      0.000567
      2.68393      7.09741      1.63571        -0.000020     -0.000742     -0.000387
      6.60969      7.10024      1.65879         0.000009     -0.000702     -0.000349
     10.53545      7.10307      1.68187         0.000196     -0.000873     -0.000396
      2.67384     11.02315      1.65879         0.000873      0.000219     -0.000367
      6.59960     11.02598      1.68187        -0.000658      0.000259     -0.000462
     10.52535     11.02881      1.70494        -0.000047      0.000218     -0.000400
 -----------------------------------------------------------------------------------
    total drift:                                0.000249     -0.000559     -0.000085


--------------------------------------------------------------------------------------------------------



  FREE ENERGIE OF THE ION-ELECTRON SYSTEM (eV)
  ---------------------------------------------------
  free  energy   TOTEN  =      -550.33913419 eV

  energy  without entropy=     -550.33913419  energy(sigma->0) =     -550.33913419
 


--------------------------------------------------------------------------------------------------------


    POTLOK:  cpu time    3.6799: real time    3.7278


--------------------------------------------------------------------------------------------------------


     LOOP+:  cpu time 8102.4311: real time 8183.2571
    4ORBIT:  cpu time    0.0000: real time    0.0000

 total amount of memory used by VASP MPI-rank0  1508757. kBytes
=======================================================================

   base      :      30000. kBytes
   nonl-proj :      85790. kBytes
   fftplans  :      89726. kBytes
   grid      :      70158. kBytes
   one-center:        528. kBytes
   wavefun   :    1232555. kBytes
 
  
  
 General timing and accounting informations for this job:
 ========================================================
  
                  Total CPU time used (sec):     8224.988
                            User time (sec):     8133.563
                          System time (sec):       91.425
                         Elapsed time (sec):     8310.585
  
                   Maximum memory used (kb):     1705348.
                   Average memory used (kb):           0.
  
                          Minor page faults:      1122200
                          Major page faults:           24
                 Voluntary context switches:        79709
