   20   20   60    2
  0.1495838E+02  0.6424095E-09  0.6053486E-09  0.9785777E-09  0.5000000E-15
   1.0000000000000000E-004
  CAR 
 unknown system                          
    128     24    100

  0.1262379E-14  0.1262379E-14  0.1262379E-14  0.1666667E-01
    1      -57.271514    -51.023421   1.000000   1.000000
    2      -57.260755    -51.020130   1.000000   1.000000
    3      -57.077858    -50.984128   1.000000   1.000000
    4      -57.076144    -50.982931   1.000000   1.000000
    5      -56.886100    -50.836927   1.000000   1.000000
    6      -56.885752    -50.834644   1.000000   1.000000
    7      -55.906742    -50.689235   1.000000   1.000000
    8      -55.905606    -50.686740   1.000000   1.000000
    9      -55.655001    -50.660224   1.000000   1.000000
   10      -55.651194    -50.639607   1.000000   1.000000
   11      -55.449333    -50.634833   1.000000   1.000000
   12      -55.448632    -50.631436   1.000000   1.000000
   13      -45.462394    -45.452505   1.000000   1.000000
   14      -45.455716    -45.445997   1.000000   1.000000
   15      -45.388933    -45.383486   1.000000   1.000000
   16      -45.387263    -45.381841   1.000000   1.000000
   17      -44.656535    -44.649682   1.000000   1.000000
   18      -44.656200    -44.649319   1.000000   1.000000
   19      -44.650581    -44.643691   1.000000   1.000000
   20      -44.650101    -44.643200   1.000000   1.000000
   21      -16.887671    -16.542142   1.000000   1.000000
   22      -16.665720    -16.326912   1.000000   1.000000
   23      -10.848587    -10.635427   1.000000   1.000000
   24      -10.182542     -9.953565   1.000000   1.000000
   25      -10.020754     -9.822596   1.000000   1.000000
   26       -9.941612     -9.743525   1.000000   1.000000
   27       -9.890668     -9.666813   1.000000   1.000000
   28       -9.650928     -9.438366   1.000000   1.000000
   29       -3.709394     -2.350401   1.000000   1.000000
   30       -3.312486     -1.871811   1.000000   1.000000
   31       -2.841720     -1.437704   1.000000   1.000000
   32       -2.699350     -1.402735   1.000000   1.000000
   33       -2.621297     -1.274537   1.000000   1.000000
   34       -2.521319     -1.107871   1.000000   1.000000
   35       -2.433378     -0.924182   1.000000   1.000000
   36       -2.310335     -0.895370   1.000000   1.000000
   37       -2.237781     -0.894834   1.000000   1.000000
   38       -2.077812     -0.848783   1.000000   1.000000
   39       -2.035850     -0.526978   1.000000   1.000000
   40       -1.945385     -0.312559   1.000000   1.000000
   41       -1.896063     -0.133936   1.000000   1.000000
   42       -1.887810      0.105449   1.000000   1.000000
   43       -1.842990      0.372349   1.000000   1.000000
   44       -1.693790      0.745798   1.000000   1.000000
   45       -1.628058      0.781883   1.000000   1.000000
   46       -1.380036      0.852028   1.000000   1.000000
   47       -1.334617      1.028929   1.000000   1.000000
   48       -1.246622      1.183650   1.000000   1.000000
   49       -1.116048      1.245693   1.000000   1.000000
   50       -1.035289      1.332060   1.000000   1.000000
   51       -0.940613      1.427941   1.000000   1.000000
   52       -0.808261      1.443044   1.000000   1.000000
   53       -0.726790      2.389694   1.000000   1.000000
   54       -0.325245      2.430455   1.000000   1.000000
   55       -0.297926      2.661802   1.000000   1.000000
   56       -0.049762      2.886673   1.000000   1.000000
   57       -0.022624      5.422459   1.000000   0.000000
   58        0.430598      5.780748   1.000000   0.000000
   59        0.608894      6.003190   1.000000   0.000000
   60        0.816702      6.074579   1.000000   0.000000
   61        0.865858      6.300313   1.000000   0.000000
   62        0.935469      6.331780   1.000000   0.000000
   63        1.095159      6.716023   1.000000   0.000000
   64        1.184512      6.830239   1.000000   0.000000
   65        1.557451      6.993623   1.000000   0.000000
   66        1.567336      7.043941   1.000000   0.000000
   67        1.690788      7.317000   1.000000   0.000000
   68        2.135466      7.322003   1.000000   0.000000
   69        2.388415      7.332937   1.000000   0.000000
   70        2.651123      7.800585   1.000000   0.000000
   71        2.667149      7.905637   1.000000   0.000000
   72        2.720221      8.170921   1.000000   0.000000
   73        6.624476      8.174404   0.000000   0.000000
   74        7.245930      8.208912   0.000000   0.000000
   75        8.173373      9.026793   0.000000   0.000000
   76        8.207525      9.352396   0.000000   0.000000
   77        9.060431      9.738926   0.000000   0.000000
   78        9.122883     10.007294   0.000000   0.000000
   79        9.627111     10.247492   0.000000   0.000000
   80        9.875094     10.354251   0.000000   0.000000
   81        9.900676     10.509659   0.000000   0.000000
   82       10.293811     10.769315   0.000000   0.000000
   83       10.323226     10.873233   0.000000   0.000000
   84       10.614543     11.056591   0.000000   0.000000
   85       10.631665     11.480977   0.000000   0.000000
   86       11.268477     11.537668   0.000000   0.000000
   87       11.434878     12.155354   0.000000   0.000000
   88       11.513348     12.167911   0.000000   0.000000
   89       11.739740     12.272045   0.000000   0.000000
   90       11.787506     12.305533   0.000000   0.000000
   91       12.309721     12.744872   0.000000   0.000000
   92       12.425233     12.962424   0.000000   0.000000
   93       12.632601     12.976460   0.000000   0.000000
   94       12.696326     13.091080   0.000000   0.000000
   95       12.727270     13.206228   0.000000   0.000000
   96       13.015030     13.499218   0.000000   0.000000
   97       13.125461     13.649316   0.000000   0.000000
   98       13.474422     13.880948   0.000000   0.000000
   99       13.806052     14.097520   0.000000   0.000000
  100       13.951995     14.538181   0.000000   0.000000

  0.2500000E+00  0.1262379E-14  0.1262379E-14  0.3333333E-01
    1      -57.271507    -51.023415   1.000000   1.000000
    2      -57.260750    -51.020149   1.000000   1.000000
    3      -57.077860    -50.984136   1.000000   1.000000
    4      -57.076137    -50.982940   1.000000   1.000000
    5      -56.886099    -50.836926   1.000000   1.000000
    6      -56.885755    -50.834648   1.000000   1.000000
    7      -55.906742    -50.689238   1.000000   1.000000
    8      -55.905606    -50.686746   1.000000   1.000000
    9      -55.654996    -50.660235   1.000000   1.000000
   10      -55.651197    -50.639593   1.000000   1.000000
   11      -55.449339    -50.634848   1.000000   1.000000
   12      -55.448634    -50.631432   1.000000   1.000000
   13      -45.462396    -45.452510   1.000000   1.000000
   14      -45.455721    -45.445998   1.000000   1.000000
   15      -45.388937    -45.383475   1.000000   1.000000
   16      -45.387262    -45.381850   1.000000   1.000000
   17      -44.656523    -44.649665   1.000000   1.000000
   18      -44.656211    -44.649339   1.000000   1.000000
   19      -44.650580    -44.643690   1.000000   1.000000
   20      -44.650120    -44.643220   1.000000   1.000000
   21      -16.887423    -16.541840   1.000000   1.000000
   22      -16.665377    -16.326577   1.000000   1.000000
   23      -10.768709    -10.555258   1.000000   1.000000
   24      -10.291106    -10.075241   1.000000   1.000000
   25      -10.013472     -9.803402   1.000000   1.000000
   26       -9.930920     -9.729208   1.000000   1.000000
   27       -9.890479     -9.668324   1.000000   1.000000
   28       -9.662106     -9.453562   1.000000   1.000000
   29       -3.718902     -2.345013   1.000000   1.000000
   30       -3.297813     -1.727978   1.000000   1.000000
   31       -2.846874     -1.548791   1.000000   1.000000
   32       -2.816910     -1.403135   1.000000   1.000000
   33       -2.583521     -1.358376   1.000000   1.000000
   34       -2.533250     -1.179226   1.000000   1.000000
   35       -2.430341     -0.982448   1.000000   1.000000
   36       -2.323156     -0.885441   1.000000   1.000000
   37       -2.149151     -0.860455   1.000000   1.000000
   38       -2.077056     -0.579027   1.000000   1.000000
   39       -2.047810     -0.431521   1.000000   1.000000
   40       -1.959525     -0.193988   1.000000   1.000000
   41       -1.893853     -0.088193   1.000000   1.000000
   42       -1.875187     -0.000023   1.000000   1.000000
   43       -1.837088      0.316596   1.000000   1.000000
   44       -1.673294      0.535226   1.000000   1.000000
   45       -1.622562      0.779396   1.000000   1.000000
   46       -1.566312      0.793559   1.000000   1.000000
   47       -1.386999      0.947923   1.000000   1.000000
   48       -1.320459      1.085024   1.000000   1.000000
   49       -1.046277      1.278117   1.000000   1.000000
   50       -1.023691      1.336732   1.000000   1.000000
   51       -0.887571      1.388930   1.000000   1.000000
   52       -0.759025      1.675931   1.000000   1.000000
   53       -0.661096      2.370215   1.000000   1.000000
   54       -0.354243      2.477269   1.000000   1.000000
   55       -0.121942      2.664731   1.000000   1.000000
   56       -0.082572      2.852604   1.000000   1.000000
   57        0.172532      5.558324   1.000000   0.000000
   58        0.545154      5.883896   1.000000   0.000000
   59        0.547012      5.937012   1.000000   0.000000
   60        0.743508      6.179720   1.000000   0.000000
   61        0.789120      6.266443   1.000000   0.000000
   62        0.989627      6.369081   1.000000   0.000000
   63        1.097023      6.737831   1.000000   0.000000
   64        1.463043      6.780945   1.000000   0.000000
   65        1.498507      6.946333   1.000000   0.000000
   66        1.700461      7.206443   1.000000   0.000000
   67        1.892364      7.268305   1.000000   0.000000
   68        1.931073      7.359737   1.000000   0.000000
   69        2.261954      7.522872   1.000000   0.000000
   70        2.302078      7.841427   1.000000   0.000000
   71        2.593242      7.848368   1.000000   0.000000
   72        2.669044      8.019922   1.000000   0.000000
   73        7.179752      8.148687   0.000000   0.000000
   74        7.449716      8.620417   0.000000   0.000000
   75        8.106317      8.863616   0.000000   0.000000
   76        8.411342      9.489316   0.000000   0.000000
   77        8.856659      9.694903   0.000000   0.000000
   78        9.136320      9.855529   0.000000   0.000000
   79        9.232769      9.886131   0.000000   0.000000
   80        9.670789     10.313316   0.000000   0.000000
   81        9.777487     10.357009   0.000000   0.000000
   82       10.068469     10.584460   0.000000   0.000000
   83       10.121016     10.605250   0.000000   0.000000
   84       10.703284     11.230019   0.000000   0.000000
   85       10.797942     11.525811   0.000000   0.000000
   86       11.049582     11.630889   0.000000   0.000000
   87       11.340539     11.699128   0.000000   0.000000
   88       11.427753     11.885645   0.000000   0.000000
   89       11.541095     11.956575   0.000000   0.000000
   90       11.604369     12.113414   0.000000   0.000000
   91       12.256601     12.637576   0.000000   0.000000
   92       12.270626     12.692843   0.000000   0.000000
   93       12.287587     12.929672   0.000000   0.000000
   94       12.639088     13.229525   0.000000   0.000000
   95       12.707984     13.241460   0.000000   0.000000
   96       12.973980     13.368798   0.000000   0.000000
   97       13.142104     13.714482   0.000000   0.000000
   98       13.254298     13.905369   0.000000   0.000000
   99       13.650469     14.076949   0.000000   0.000000
  100       13.665369     14.385282   0.000000   0.000000

  0.5000000E+00  0.1262379E-14  0.1262379E-14  0.1666667E-01
    1      -57.271506    -51.023408   1.000000   1.000000
    2      -57.260744    -51.020165   1.000000   1.000000
    3      -57.077864    -50.984145   1.000000   1.000000
    4      -57.076132    -50.982950   1.000000   1.000000
    5      -56.886103    -50.836922   1.000000   1.000000
    6      -56.885761    -50.834647   1.000000   1.000000
    7      -55.906744    -50.689241   1.000000   1.000000
    8      -55.905611    -50.686754   1.000000   1.000000
    9      -55.654992    -50.660249   1.000000   1.000000
   10      -55.651195    -50.639574   1.000000   1.000000
   11      -55.449343    -50.634860   1.000000   1.000000
   12      -55.448633    -50.631427   1.000000   1.000000
   13      -45.462399    -45.452516   1.000000   1.000000
   14      -45.455708    -45.445981   1.000000   1.000000
   15      -45.388932    -45.383456   1.000000   1.000000
   16      -45.387255    -45.381854   1.000000   1.000000
   17      -44.656502    -44.649638   1.000000   1.000000
   18      -44.656226    -44.649363   1.000000   1.000000
   19      -44.650569    -44.643679   1.000000   1.000000
   20      -44.650121    -44.643222   1.000000   1.000000
   21      -16.887167    -16.541529   1.000000   1.000000
   22      -16.665028    -16.326237   1.000000   1.000000
   23      -10.602951    -10.380029   1.000000   1.000000
   24      -10.491423    -10.291303   1.000000   1.000000
   25       -9.945228     -9.731122   1.000000   1.000000
   26       -9.945110     -9.723310   1.000000   1.000000
   27       -9.919230     -9.713086   1.000000   1.000000
   28       -9.674261     -9.470546   1.000000   1.000000
   29       -3.727471     -2.349115   1.000000   1.000000
   30       -3.286466     -1.772857   1.000000   1.000000
   31       -2.882561     -1.554015   1.000000   1.000000
   32       -2.852224     -1.485742   1.000000   1.000000
   33       -2.545554     -1.135359   1.000000   1.000000
   34       -2.518536     -1.124305   1.000000   1.000000
   35       -2.453552     -1.030471   1.000000   1.000000
   36       -2.335767     -0.904837   1.000000   1.000000
   37       -2.230534     -0.645944   1.000000   1.000000
   38       -2.056206     -0.636793   1.000000   1.000000
   39       -2.047189     -0.263262   1.000000   1.000000
   40       -1.974878     -0.158413   1.000000   1.000000
   41       -1.953744     -0.093364   1.000000   1.000000
   42       -1.889199      0.030088   1.000000   1.000000
   43       -1.851573      0.230939   1.000000   1.000000
   44       -1.617816      0.305459   1.000000   1.000000
   45       -1.613697      0.332388   1.000000   1.000000
   46       -1.610561      0.783366   1.000000   1.000000
   47       -1.447112      1.025864   1.000000   1.000000
   48       -1.083390      1.178665   1.000000   1.000000
   49       -1.006383      1.180570   1.000000   1.000000
   50       -0.996256      1.336056   1.000000   1.000000
   51       -0.856902      1.443493   1.000000   1.000000
   52       -0.841641      1.918065   1.000000   1.000000
   53       -0.586932      2.356264   1.000000   1.000000
   54       -0.406795      2.517375   1.000000   1.000000
   55       -0.096318      2.674426   1.000000   1.000000
   56        0.049085      2.816465   1.000000   1.000000
   57        0.322300      5.798185   1.000000   0.000000
   58        0.483798      5.835062   1.000000   0.000000
   59        0.631637      5.861814   1.000000   0.000000
   60        0.699239      6.230814   1.000000   0.000000
   61        0.714232      6.370200   1.000000   0.000000
   62        1.106075      6.394620   1.000000   0.000000
   63        1.229757      6.727996   1.000000   0.000000
   64        1.292837      6.814922   1.000000   0.000000
   65        1.416300      6.937831   1.000000   0.000000
   66        1.528965      7.166940   1.000000   0.000000
   67        2.051233      7.243455   1.000000   0.000000
   68        2.100592      7.328474   1.000000   0.000000
   69        2.252649      7.668832   1.000000   0.000000
   70        2.331298      7.789705   1.000000   0.000000
   71        2.368226      7.792784   1.000000   0.000000
   72        2.574682      8.079953   1.000000   0.000000
   73        7.437474      8.392742   0.000000   0.000000
   74        7.474539      8.577593   0.000000   0.000000
   75        8.079103      8.916642   0.000000   0.000000
   76        8.563359      9.212381   0.000000   0.000000
   77        8.882617      9.676497   0.000000   0.000000
   78        8.954010      9.720324   0.000000   0.000000
   79        9.383225     10.167821   0.000000   0.000000
   80        9.740051     10.202175   0.000000   0.000000
   81        9.820637     10.407753   0.000000   0.000000
   82       10.015459     10.471123   0.000000   0.000000
   83       10.145540     10.642173   0.000000   0.000000
   84       10.391926     11.047581   0.000000   0.000000
   85       10.537030     11.186855   0.000000   0.000000
   86       10.853670     11.310197   0.000000   0.000000
   87       11.126930     11.425906   0.000000   0.000000
   88       11.136606     11.562549   0.000000   0.000000
   89       11.183890     11.899685   0.000000   0.000000
   90       11.855426     12.229054   0.000000   0.000000
   91       11.965365     12.474706   0.000000   0.000000
   92       11.999722     12.731313   0.000000   0.000000
   93       12.288635     12.752417   0.000000   0.000000
   94       12.401926     13.006661   0.000000   0.000000
   95       12.842351     13.283187   0.000000   0.000000
   96       12.972069     13.520837   0.000000   0.000000
   97       13.043019     13.613490   0.000000   0.000000
   98       13.313573     13.987903   0.000000   0.000000
   99       13.349753     14.096162   0.000000   0.000000
  100       13.607116     14.224540   0.000000   0.000000

  0.1262379E-14  0.2000000E+00  0.1218878E-14  0.3333333E-01
    1      -57.270486    -51.023099   1.000000   1.000000
    2      -57.261785    -51.020437   1.000000   1.000000
    3      -57.077698    -50.984018   1.000000   1.000000
    4      -57.076314    -50.983057   1.000000   1.000000
    5      -56.886068    -50.836706   1.000000   1.000000
    6      -56.885796    -50.834862   1.000000   1.000000
    7      -55.906637    -50.689007   1.000000   1.000000
    8      -55.905721    -50.686988   1.000000   1.000000
    9      -55.654641    -50.658240   1.000000   1.000000
   10      -55.651565    -50.641529   1.000000   1.000000
   11      -55.449275    -50.634528   1.000000   1.000000
   12      -55.448711    -50.631817   1.000000   1.000000
   13      -45.461756    -45.451883   1.000000   1.000000
   14      -45.456344    -45.446608   1.000000   1.000000
   15      -45.388764    -45.383320   1.000000   1.000000
   16      -45.387417    -45.381993   1.000000   1.000000
   17      -44.656515    -44.649659   1.000000   1.000000
   18      -44.656236    -44.649357   1.000000   1.000000
   19      -44.650524    -44.643635   1.000000   1.000000
   20      -44.650149    -44.643252   1.000000   1.000000
   21      -16.866421    -16.521453   1.000000   1.000000
   22      -16.686892    -16.347360   1.000000   1.000000
   23      -10.762505    -10.548661   1.000000   1.000000
   24      -10.205058     -9.974412   1.000000   1.000000
   25      -10.052523     -9.850144   1.000000   1.000000
   26      -10.028443     -9.832828   1.000000   1.000000
   27       -9.796861     -9.579653   1.000000   1.000000
   28       -9.714769     -9.505159   1.000000   1.000000
   29       -3.615555     -2.223462   1.000000   1.000000
   30       -3.292890     -1.936297   1.000000   1.000000
   31       -2.823913     -1.474527   1.000000   1.000000
   32       -2.687050     -1.464389   1.000000   1.000000
   33       -2.624987     -1.226740   1.000000   1.000000
   34       -2.566557     -1.195044   1.000000   1.000000
   35       -2.421371     -1.064660   1.000000   1.000000
   36       -2.412812     -0.918639   1.000000   1.000000
   37       -2.331921     -0.786425   1.000000   1.000000
   38       -2.167464     -0.666049   1.000000   1.000000
   39       -2.068986     -0.524496   1.000000   1.000000
   40       -2.056896     -0.138585   1.000000   1.000000
   41       -2.045014     -0.097267   1.000000   1.000000
   42       -2.038009      0.115677   1.000000   1.000000
   43       -1.903960      0.303347   1.000000   1.000000
   44       -1.804811      0.677838   1.000000   1.000000
   45       -1.564275      0.805479   1.000000   1.000000
   46       -1.428695      0.916854   1.000000   1.000000
   47       -1.418542      0.924104   1.000000   1.000000
   48       -1.105186      1.011225   1.000000   1.000000
   49       -0.959039      1.128429   1.000000   1.000000
   50       -0.918284      1.277036   1.000000   1.000000
   51       -0.760326      1.326239   1.000000   1.000000
   52       -0.616901      1.626328   1.000000   1.000000
   53       -0.532565      2.458925   1.000000   1.000000
   54       -0.293045      2.487341   1.000000   1.000000
   55       -0.270045      2.675906   1.000000   1.000000
   56        0.167392      2.844347   1.000000   1.000000
   57        0.247933      5.610692   1.000000   0.000000
   58        0.369592      5.851061   1.000000   0.000000
   59        0.568877      6.043755   1.000000   0.000000
   60        0.659048      6.227483   1.000000   0.000000
   61        0.856811      6.388650   1.000000   0.000000
   62        0.946653      6.398077   1.000000   0.000000
   63        1.148521      6.721013   1.000000   0.000000
   64        1.204011      6.920180   1.000000   0.000000
   65        1.570896      6.937116   1.000000   0.000000
   66        1.722258      6.951170   1.000000   0.000000
   67        1.733516      7.226931   1.000000   0.000000
   68        2.118724      7.228682   1.000000   0.000000
   69        2.146423      7.641877   1.000000   0.000000
   70        2.305932      7.661080   1.000000   0.000000
   71        2.584472      7.878556   1.000000   0.000000
   72        2.612962      7.960921   1.000000   0.000000
   73        7.237006      8.241555   0.000000   0.000000
   74        7.684707      8.654909   0.000000   0.000000
   75        8.196769      9.204711   0.000000   0.000000
   76        8.451605      9.420844   0.000000   0.000000
   77        8.939544      9.651241   0.000000   0.000000
   78        9.106099      9.708335   0.000000   0.000000
   79        9.391928     10.127070   0.000000   0.000000
   80        9.458833     10.186001   0.000000   0.000000
   81        9.932233     10.535987   0.000000   0.000000
   82       10.296849     10.835683   0.000000   0.000000
   83       10.301247     10.917623   0.000000   0.000000
   84       10.533131     11.140222   0.000000   0.000000
   85       10.771916     11.305938   0.000000   0.000000
   86       11.030979     11.596533   0.000000   0.000000
   87       11.081392     11.656507   0.000000   0.000000
   88       11.436647     11.981928   0.000000   0.000000
   89       11.456779     12.030918   0.000000   0.000000
   90       11.649669     12.241185   0.000000   0.000000
   91       11.901593     12.381943   0.000000   0.000000
   92       12.231331     12.736283   0.000000   0.000000
   93       12.273416     12.737798   0.000000   0.000000
   94       12.477466     13.085374   0.000000   0.000000
   95       12.702488     13.178523   0.000000   0.000000
   96       13.026919     13.486898   0.000000   0.000000
   97       13.099579     13.558361   0.000000   0.000000
   98       13.402505     13.854365   0.000000   0.000000
   99       13.760990     14.221214   0.000000   0.000000
  100       13.800227     14.358313   0.000000   0.000000

  0.2500000E+00  0.2000000E+00  0.1218878E-14  0.6666667E-01
    1      -57.270486    -51.023097   1.000000   1.000000
    2      -57.261786    -51.020452   1.000000   1.000000
    3      -57.077704    -50.984022   1.000000   1.000000
    4      -57.076311    -50.983059   1.000000   1.000000
    5      -56.886066    -50.836705   1.000000   1.000000
    6      -56.885793    -50.834861   1.000000   1.000000
    7      -55.906635    -50.689005   1.000000   1.000000
    8      -55.905719    -50.686990   1.000000   1.000000
    9      -55.654638    -50.658253   1.000000   1.000000
   10      -55.651566    -50.641521   1.000000   1.000000
   11      -55.449281    -50.634540   1.000000   1.000000
   12      -55.448710    -50.631810   1.000000   1.000000
   13      -45.461751    -45.451880   1.000000   1.000000
   14      -45.456350    -45.446611   1.000000   1.000000
   15      -45.388762    -45.383305   1.000000   1.000000
   16      -45.387418    -45.382002   1.000000   1.000000
   17      -44.656500    -44.649639   1.000000   1.000000
   18      -44.656251    -44.649378   1.000000   1.000000
   19      -44.650515    -44.643627   1.000000   1.000000
   20      -44.650160    -44.643264   1.000000   1.000000
   21      -16.866161    -16.521142   1.000000   1.000000
   22      -16.686558    -16.347026   1.000000   1.000000
   23      -10.686736    -10.472273   1.000000   1.000000
   24      -10.260922    -10.039725   1.000000   1.000000
   25      -10.075460     -9.871016   1.000000   1.000000
   26      -10.012778     -9.810486   1.000000   1.000000
   27       -9.832263     -9.616918   1.000000   1.000000
   28       -9.714517     -9.506157   1.000000   1.000000
   29       -3.625372     -2.253325   1.000000   1.000000
   30       -3.281679     -1.845658   1.000000   1.000000
   31       -2.831861     -1.581085   1.000000   1.000000
   32       -2.777676     -1.459949   1.000000   1.000000
   33       -2.602978     -1.241056   1.000000   1.000000
   34       -2.579812     -1.175616   1.000000   1.000000
   35       -2.439845     -1.088820   1.000000   1.000000
   36       -2.429763     -0.884845   1.000000   1.000000
   37       -2.340085     -0.768692   1.000000   1.000000
   38       -2.215968     -0.467085   1.000000   1.000000
   39       -2.140653     -0.347204   1.000000   1.000000
   40       -2.103129     -0.199569   1.000000   1.000000
   41       -2.055729     -0.107298   1.000000   1.000000
   42       -2.005514      0.008730   1.000000   1.000000
   43       -1.872535      0.354176   1.000000   1.000000
   44       -1.715373      0.556773   1.000000   1.000000
   45       -1.531059      0.600137   1.000000   1.000000
   46       -1.456231      0.798206   1.000000   1.000000
   47       -1.324284      0.962765   1.000000   1.000000
   48       -1.155994      1.090337   1.000000   1.000000
   49       -0.901066      1.126829   1.000000   1.000000
   50       -0.838064      1.306375   1.000000   1.000000
   51       -0.809877      1.415580   1.000000   1.000000
   52       -0.550113      1.648912   1.000000   1.000000
   53       -0.513955      2.455160   1.000000   1.000000
   54       -0.334151      2.539204   1.000000   1.000000
   55       -0.049338      2.675605   1.000000   1.000000
   56        0.127049      2.845037   1.000000   1.000000
   57        0.220652      5.702041   1.000000   0.000000
   58        0.458444      5.954949   1.000000   0.000000
   59        0.515649      5.983693   1.000000   0.000000
   60        0.725038      6.237043   1.000000   0.000000
   61        0.807323      6.344116   1.000000   0.000000
   62        1.022738      6.403989   1.000000   0.000000
   63        1.223325      6.724364   1.000000   0.000000
   64        1.274035      6.863170   1.000000   0.000000
   65        1.549517      6.894709   1.000000   0.000000
   66        1.754167      7.153521   1.000000   0.000000
   67        1.826264      7.185368   1.000000   0.000000
   68        1.919018      7.241133   1.000000   0.000000
   69        2.089114      7.620120   1.000000   0.000000
   70        2.277564      7.719217   1.000000   0.000000
   71        2.457458      7.823306   1.000000   0.000000
   72        2.558330      7.938233   1.000000   0.000000
   73        7.463720      8.344557   0.000000   0.000000
   74        7.846914      8.805024   0.000000   0.000000
   75        8.232973      9.125472   0.000000   0.000000
   76        8.501736      9.368738   0.000000   0.000000
   77        8.641266      9.479705   0.000000   0.000000
   78        8.880896      9.770685   0.000000   0.000000
   79        9.233372      9.973907   0.000000   0.000000
   80        9.600364     10.228782   0.000000   0.000000
   81        9.860853     10.485584   0.000000   0.000000
   82       10.103890     10.605480   0.000000   0.000000
   83       10.241448     10.808429   0.000000   0.000000
   84       10.314923     10.898157   0.000000   0.000000
   85       10.618652     11.164237   0.000000   0.000000
   86       10.933587     11.447705   0.000000   0.000000
   87       11.054837     11.495263   0.000000   0.000000
   88       11.285071     11.757072   0.000000   0.000000
   89       11.390114     11.999360   0.000000   0.000000
   90       11.589487     12.129684   0.000000   0.000000
   91       11.876580     12.434386   0.000000   0.000000
   92       12.208592     12.660518   0.000000   0.000000
   93       12.374890     12.979139   0.000000   0.000000
   94       12.559414     13.109718   0.000000   0.000000
   95       12.772934     13.351978   0.000000   0.000000
   96       13.080763     13.651831   0.000000   0.000000
   97       13.324180     13.688539   0.000000   0.000000
   98       13.405349     13.865497   0.000000   0.000000
   99       13.512434     14.003004   0.000000   0.000000
  100       13.762038     14.052594   0.000000   0.000000

  0.5000000E+00  0.2000000E+00  0.1218878E-14  0.3333333E-01
    1      -57.270488    -51.023096   1.000000   1.000000
    2      -57.261784    -51.020468   1.000000   1.000000
    3      -57.077712    -50.984028   1.000000   1.000000
    4      -57.076306    -50.983065   1.000000   1.000000
    5      -56.886066    -50.836706   1.000000   1.000000
    6      -56.885795    -50.834861   1.000000   1.000000
    7      -55.906635    -50.689004   1.000000   1.000000