  224  224    1    2
  0.1357572E+02  0.1537960E-08  0.1537962E-08  0.1395899E-08  0.5000000E-15
  1.000000000000000E-004
  CAR 
 unknown system                          
   1664      8   1208
 
  0.0000000E+00  0.0000000E+00  0.0000000E+00  0.1250000E+00
    1      -51.145681    -46.394465   1.000000   1.000000
    2      -51.145570    -46.394275   1.000000   1.000000
    3      -51.142032    -46.391331   1.000000   1.000000
    4      -51.141878    -46.390996   1.000000   1.000000
    5      -51.141680    -46.390900   1.000000   1.000000
    6      -51.141612    -46.390813   1.000000   1.000000
    7      -51.141543    -46.390629   1.000000   1.000000
    8      -51.141388    -46.390556   1.000000   1.000000
    9      -51.141294    -46.390526   1.000000   1.000000
   10      -51.141198    -46.390386   1.000000   1.000000
   11      -51.141138    -46.390285   1.000000   1.000000
   12      -51.141112    -46.390211   1.000000   1.000000
   13      -51.141027    -46.390166   1.000000   1.000000
   14      -51.141006    -46.390063   1.000000   1.000000
   15      -51.140962    -46.390017   1.000000   1.000000
   16      -51.140915    -46.389990   1.000000   1.000000
   17      -51.140876    -46.389966   1.000000   1.000000
   18      -51.140836    -46.389940   1.000000   1.000000
   19      -51.140786    -46.389871   1.000000   1.000000
   20      -51.140772    -46.389800   1.000000   1.000000
   21      -51.140690    -46.389696   1.000000   1.000000
   22      -51.140671    -46.389680   1.000000   1.000000
   23      -51.140616    -46.389582   1.000000   1.000000
   24      -51.140537    -46.389578   1.000000   1.000000
   25      -51.140517    -46.389548   1.000000   1.000000
   26      -51.140503    -46.389511   1.000000   1.000000
   27      -51.140474    -46.389465   1.000000   1.000000
   28      -51.140453    -46.389435   1.000000   1.000000
   29      -51.140443    -46.389373   1.000000   1.000000
   30      -51.140423    -46.389336   1.000000   1.000000
   31      -51.140395    -46.389262   1.000000   1.000000
   32      -51.140371    -46.389210   1.000000   1.000000
   33      -51.140318    -46.389166   1.000000   1.000000
   34      -51.140296    -46.389153   1.000000   1.000000
   35      -51.140253    -46.389111   1.000000   1.000000
   36      -51.140182    -46.389061   1.000000   1.000000
   37      -51.140166    -46.389041   1.000000   1.000000
   38      -51.140142    -46.388944   1.000000   1.000000
   39      -51.140115    -46.388898   1.000000   1.000000
   40      -51.140103    -46.388857   1.000000   1.000000
   41      -51.140062    -46.388843   1.000000   1.000000
   42      -51.140035    -46.388827   1.000000   1.000000
   43      -51.139955    -46.388728   1.000000   1.000000
   44      -51.139912    -46.388672   1.000000   1.000000
   45      -51.139895    -46.388616   1.000000   1.000000
   46      -51.139864    -46.388592   1.000000   1.000000
   47      -51.139824    -46.388543   1.000000   1.000000
   48      -51.139792    -46.388479   1.000000   1.000000
   49      -51.139743    -46.388467   1.000000   1.000000
   50      -51.139677    -46.388416   1.000000   1.000000
   51      -51.139617    -46.388334   1.000000   1.000000
   52      -51.139600    -46.388290   1.000000   1.000000
   53      -51.139556    -46.388234   1.000000   1.000000
   54      -51.139510    -46.388151   1.000000   1.000000
   55      -51.139478    -46.388134   1.000000   1.000000
   56      -51.139379    -46.388107   1.000000   1.000000
   57      -51.139361    -46.388063   1.000000   1.000000
   58      -51.139171    -46.387925   1.000000   1.000000
   59      -51.139134    -46.387725   1.000000   1.000000
   60      -51.139058    -46.387664   1.000000   1.000000
   61      -51.138958    -46.387605   1.000000   1.000000
   62      -51.138784    -46.387317   1.000000   1.000000
   63      -51.135111    -46.384202   1.000000   1.000000
   64      -51.135085    -46.384140   1.000000   1.000000
   65      -49.652852    -45.933320   1.000000   1.000000
   66      -49.652322    -45.932974   1.000000   1.000000
   67      -49.650039    -45.932136   1.000000   1.000000
   68      -49.649201    -45.931753   1.000000   1.000000
   69      -49.648075    -45.929470   1.000000   1.000000
   70      -49.648042    -45.929438   1.000000   1.000000
   71      -49.647817    -45.929366   1.000000   1.000000
   72      -49.647724    -45.929309   1.000000   1.000000
   73      -49.647681    -45.928995   1.000000   1.000000
   74      -49.647652    -45.928924   1.000000   1.000000
   75      -49.647619    -45.928896   1.000000   1.000000
   76      -49.647566    -45.928846   1.000000   1.000000
   77      -49.647488    -45.928786   1.000000   1.000000
   78      -49.647461    -45.928750   1.000000   1.000000
   79      -49.647417    -45.928702   1.000000   1.000000
   80      -49.647379    -45.928691   1.000000   1.000000
   81      -49.647354    -45.928682   1.000000   1.000000
   82      -49.647325    -45.928658   1.000000   1.000000
   83      -49.647295    -45.928595   1.000000   1.000000
   84      -49.647293    -45.928552   1.000000   1.000000
   85      -49.647159    -45.928503   1.000000   1.000000
   86      -49.647115    -45.928485   1.000000   1.000000
   87      -49.647101    -45.928461   1.000000   1.000000
   88      -49.647038    -45.928395   1.000000   1.000000
   89      -49.647011    -45.928355   1.000000   1.000000
   90      -49.646989    -45.928346   1.000000   1.000000
   91      -49.646941    -45.928304   1.000000   1.000000
   92      -49.646887    -45.928295   1.000000   1.000000
   93      -49.646872    -45.928274   1.000000   1.000000
   94      -49.646836    -45.928231   1.000000   1.000000
   95      -49.646809    -45.928224   1.000000   1.000000
   96      -49.646702    -45.928151   1.000000   1.000000
   97      -49.646682    -45.928136   1.000000   1.000000
   98      -49.646671    -45.928076   1.000000   1.000000
   99      -49.646649    -45.928061   1.000000   1.000000
  100      -49.646588    -45.928037   1.000000   1.000000
  101      -49.646546    -45.928017   1.000000   1.000000
  102      -49.646536    -45.927986   1.000000   1.000000
  103      -49.646507    -45.927961   1.000000   1.000000
  104      -49.646450    -45.927896   1.000000   1.000000
  105      -49.646407    -45.927881   1.000000   1.000000
  106      -49.646397    -45.927850   1.000000   1.000000
  107      -49.646362    -45.927837   1.000000   1.000000
  108      -49.646330    -45.927777   1.000000   1.000000
  109      -49.646227    -45.927740   1.000000   1.000000
  110      -49.646211    -45.927690   1.000000   1.000000
  111      -49.646128    -45.927652   1.000000   1.000000
  112      -49.646101    -45.927602   1.000000   1.000000
  113      -49.646098    -45.927593   1.000000   1.000000
  114      -49.646066    -45.927548   1.000000   1.000000
  115      -49.646053    -45.927502   1.000000   1.000000
  116      -49.645982    -45.927459   1.000000   1.000000
  117      -49.645970    -45.927426   1.000000   1.000000
  118      -49.645934    -45.927388   1.000000   1.000000
  119      -49.645925    -45.927380   1.000000   1.000000
  120      -49.645869    -45.927334   1.000000   1.000000
  121      -49.645839    -45.927282   1.000000   1.000000
  122      -49.645730    -45.927275   1.000000   1.000000
  123      -49.645697    -45.927256   1.000000   1.000000
  124      -49.645690    -45.927239   1.000000   1.000000
  125      -49.645646    -45.927230   1.000000   1.000000
  126      -49.645637    -45.927216   1.000000   1.000000
  127      -49.645600    -45.927203   1.000000   1.000000
  128      -49.645570    -45.927194   1.000000   1.000000
  129      -49.645505    -45.927119   1.000000   1.000000
  130      -49.645464    -45.927113   1.000000   1.000000
  131      -49.645438    -45.927109   1.000000   1.000000
  132      -49.645432    -45.927050   1.000000   1.000000
  133      -49.645374    -45.927048   1.000000   1.000000
  134      -49.645335    -45.927005   1.000000   1.000000
  135      -49.645322    -45.926959   1.000000   1.000000
  136      -49.645311    -45.926932   1.000000   1.000000
  137      -49.645265    -45.926907   1.000000   1.000000
  138      -49.645244    -45.926898   1.000000   1.000000
  139      -49.645236    -45.926889   1.000000   1.000000
  140      -49.645209    -45.926849   1.000000   1.000000
  141      -49.645198    -45.926832   1.000000   1.000000
  142      -49.645153    -45.926807   1.000000   1.000000
  143      -49.645136    -45.926791   1.000000   1.000000
  144      -49.645119    -45.926704   1.000000   1.000000
  145      -49.645094    -45.926695   1.000000   1.000000
  146      -49.645056    -45.926679   1.000000   1.000000
  147      -49.645045    -45.926655   1.000000   1.000000
  148      -49.645008    -45.926635   1.000000   1.000000
  149      -49.644989    -45.926620   1.000000   1.000000
  150      -49.644958    -45.926593   1.000000   1.000000
  151      -49.644954    -45.926557   1.000000   1.000000
  152      -49.644908    -45.926537   1.000000   1.000000
  153      -49.644842    -45.926532   1.000000   1.000000
  154      -49.644830    -45.926508   1.000000   1.000000
  155      -49.644802    -45.926488   1.000000   1.000000
  156      -49.644776    -45.926478   1.000000   1.000000
  157      -49.644760    -45.926446   1.000000   1.000000
  158      -49.644751    -45.926430   1.000000   1.000000
  159      -49.644596    -45.926418   1.000000   1.000000
  160      -49.644584    -45.926365   1.000000   1.000000
  161      -49.644547    -45.926352   1.000000   1.000000
  162      -49.644536    -45.926328   1.000000   1.000000
  163      -49.644486    -45.926277   1.000000   1.000000
  164      -49.644454    -45.926238   1.000000   1.000000
  165      -49.644420    -45.926235   1.000000   1.000000
  166      -49.644404    -45.926151   1.000000   1.000000
  167      -49.644345    -45.926136   1.000000   1.000000
  168      -49.644321    -45.926105   1.000000   1.000000
  169      -49.644292    -45.926095   1.000000   1.000000
  170      -49.644231    -45.926061   1.000000   1.000000
  171      -49.644183    -45.926056   1.000000   1.000000
  172      -49.644169    -45.926007   1.000000   1.000000
  173      -49.644114    -45.925958   1.000000   1.000000
  174      -49.644084    -45.925950   1.000000   1.000000
  175      -49.644054    -45.925896   1.000000   1.000000
  176      -49.644008    -45.925871   1.000000   1.000000
  177      -49.643999    -45.925820   1.000000   1.000000
  178      -49.643932    -45.925770   1.000000   1.000000
  179      -49.643786    -45.925661   1.000000   1.000000
  180      -49.643772    -45.925622   1.000000   1.000000
  181      -49.643741    -45.925541   1.000000   1.000000
  182      -49.643726    -45.925486   1.000000   1.000000
  183      -49.643666    -45.925443   1.000000   1.000000
  184      -49.643524    -45.925427   1.000000   1.000000
  185      -49.643420    -45.925374   1.000000   1.000000
  186      -49.643354    -45.925322   1.000000   1.000000
  187      -49.643143    -45.925242   1.000000   1.000000
  188      -49.642924    -45.925165   1.000000   1.000000
  189      -49.641265    -45.922944   1.000000   1.000000
  190      -49.640943    -45.922419   1.000000   1.000000
  191      -49.639606    -45.921389   1.000000   1.000000
  192      -49.639101    -45.921086   1.000000   1.000000
  193      -39.641210    -39.640294   1.000000   1.000000
  194      -39.641077    -39.640159   1.000000   1.000000
  195      -39.634288    -39.633419   1.000000   1.000000
  196      -39.633625    -39.632753   1.000000   1.000000
  197      -39.633497    -39.632624   1.000000   1.000000
  198      -39.633462    -39.632590   1.000000   1.000000
  199      -39.633419    -39.632545   1.000000   1.000000
  200      -39.633387    -39.632514   1.000000   1.000000
  201      -39.633188    -39.632314   1.000000   1.000000
  202      -39.632796    -39.631923   1.000000   1.000000
  203      -39.628262    -39.627426   1.000000   1.000000
  204      -39.627892    -39.627055   1.000000   1.000000
  205      -39.627869    -39.627030   1.000000   1.000000
  206      -39.627802    -39.626964   1.000000   1.000000
  207      -39.627723    -39.626885   1.000000   1.000000
  208      -39.627618    -39.626780   1.000000   1.000000
  209      -39.627601    -39.626762   1.000000   1.000000
  210      -39.627259    -39.626418   1.000000   1.000000
  211      -39.617405    -39.616639   1.000000   1.000000
  212      -39.616255    -39.615480   1.000000   1.000000
  213      -39.616180    -39.615406   1.000000   1.000000
  214      -39.616091    -39.615315   1.000000   1.000000
  215      -39.616041    -39.615264   1.000000   1.000000
  216      -39.615839    -39.615062   1.000000   1.000000
  217      -39.615717    -39.614948   1.000000   1.000000
  218      -39.615541    -39.614761   1.000000   1.000000
  219      -39.615496    -39.614716   1.000000   1.000000
  220      -39.615383    -39.614616   1.000000   1.000000
  221      -39.615353    -39.614581   1.000000   1.000000
  222      -39.615261    -39.614493   1.000000   1.000000
  223      -39.615245    -39.614477   1.000000   1.000000
  224      -39.615231    -39.614464   1.000000   1.000000
  225      -39.615133    -39.614365   1.000000   1.000000
  226      -39.615092    -39.614325   1.000000   1.000000
  227      -39.615005    -39.614236   1.000000   1.000000
  228      -39.614933    -39.614164   1.000000   1.000000
  229      -39.614925    -39.614156   1.000000   1.000000
  230      -39.614901    -39.614132   1.000000   1.000000
  231      -39.614840    -39.614074   1.000000   1.000000
  232      -39.614818    -39.614049   1.000000   1.000000
  233      -39.614787    -39.614018   1.000000   1.000000
  234      -39.614512    -39.613747   1.000000   1.000000
  235      -39.614100    -39.613340   1.000000   1.000000
  236      -39.614085    -39.613322   1.000000   1.000000
  237      -39.613778    -39.613015   1.000000   1.000000
  238      -39.613012    -39.612242   1.000000   1.000000
  239      -39.604353    -39.603635   1.000000   1.000000
  240      -39.603986    -39.603266   1.000000   1.000000
  241      -39.603973    -39.603255   1.000000   1.000000
  242      -39.603837    -39.603117   1.000000   1.000000
  243      -39.603792    -39.603072   1.000000   1.000000
  244      -39.603712    -39.602992   1.000000   1.000000
  245      -39.603696    -39.602977   1.000000   1.000000
  246      -39.603328    -39.602606   1.000000   1.000000
  247      -39.600150    -39.599444   1.000000   1.000000
  248      -39.599765    -39.599059   1.000000   1.000000
  249      -39.599580    -39.598874   1.000000   1.000000
  250      -39.599535    -39.598829   1.000000   1.000000
  251      -39.599487    -39.598781   1.000000   1.000000
  252      -39.599417    -39.598711   1.000000   1.000000
  253      -39.599340    -39.598634   1.000000   1.000000
  254      -39.598624    -39.597913   1.000000   1.000000
  255      -39.593267    -39.592584   1.000000   1.000000
  256      -39.593080    -39.592395   1.000000   1.000000
  257      -12.747253    -12.467789   1.000000   1.000000
  258      -12.747200    -12.467730   1.000000   1.000000
  259      -12.720369    -12.440679   1.000000   1.000000
  260      -12.719507    -12.439751   1.000000   1.000000
  261      -12.719393    -12.439647   1.000000   1.000000
  262      -12.719348    -12.439595   1.000000   1.000000
  263      -12.719335    -12.439584   1.000000   1.000000
  264      -12.719308    -12.439558   1.000000   1.000000
  265      -12.719152    -12.439404   1.000000   1.000000
  266      -12.718368    -12.438566   1.000000   1.000000
  267      -12.697299    -12.417166   1.000000   1.000000
  268      -12.697247    -12.417108   1.000000   1.000000
  269      -12.694921    -12.415304   1.000000   1.000000
  270      -12.694768    -12.415159   1.000000   1.000000
  271      -12.694757    -12.415149   1.000000   1.000000
  272      -12.694749    -12.415142   1.000000   1.000000
  273      -12.692520    -12.413359   1.000000   1.000000
  274      -12.692304    -12.413222   1.000000   1.000000
  275      -12.691255    -12.411221   1.000000   1.000000
  276      -12.691227    -12.411199   1.000000   1.000000
  277      -12.691100    -12.411101   1.000000   1.000000
  278      -12.690936    -12.410951   1.000000   1.000000
  279      -12.673234    -12.393255   1.000000   1.000000
  280      -12.672676    -12.392658   1.000000   1.000000
  281      -12.672585    -12.392570   1.000000   1.000000
  282      -12.672182    -12.392159   1.000000   1.000000
  283      -12.668104    -12.389221   1.000000   1.000000
  284      -12.667608    -12.388714   1.000000   1.000000
  285      -12.667516    -12.388626   1.000000   1.000000
  286      -12.667022    -12.388082   1.000000   1.000000
  287      -12.654490    -12.374533   1.000000   1.000000
  288      -12.643723    -12.365994   1.000000   1.000000
  289       -7.800027     -7.599027   1.000000   1.000000
  290       -7.748234     -7.551512   1.000000   1.000000
  291       -7.505565     -7.319322   1.000000   1.000000
  292       -7.505383     -7.319131   1.000000   1.000000
  293       -7.505312     -7.319057   1.000000   1.000000
  294       -7.505154     -7.318887   1.000000   1.000000
  295       -7.501146     -7.309009   1.000000   1.000000
  296       -7.500974     -7.308837   1.000000   1.000000
  297       -7.500900     -7.308760   1.000000   1.000000
  298       -7.500757     -7.308603   1.000000   1.000000
  299       -7.315281     -7.117838   1.000000   1.000000
  300       -7.315026     -7.117563   1.000000   1.000000
  301       -7.297084     -7.093823   1.000000   1.000000
  302       -7.296829     -7.093546   1.000000   1.000000
  303       -7.296794     -7.093510   1.000000   1.000000
  304       -7.296549     -7.093243   1.000000   1.000000
  305       -7.269379     -7.062092   1.000000   1.000000
  306       -7.269091     -7.061781   1.000000   1.000000
  307       -7.088644     -6.894029   1.000000   1.000000
  308       -7.084815     -6.893846   1.000000   1.000000
  309       -7.084655     -6.893837   1.000000   1.000000
  310       -7.084637     -6.893657   1.000000   1.000000
  311       -7.084475     -6.796734   1.000000   1.000000
  312       -7.046572     -6.783804   1.000000   1.000000
  313       -7.000377     -6.768128   1.000000   1.000000
  314       -7.000155     -6.767996   1.000000   1.000000
  315       -6.999905     -6.767974   1.000000   1.000000
  316       -6.999773     -6.767747   1.000000   1.000000
  317       -6.999759     -6.766683   1.000000   1.000000
  318       -6.999662     -6.766438   1.000000   1.000000
  319       -6.999389     -6.766201   1.000000   1.000000
  320       -6.999192     -6.766086   1.000000   1.000000
  321       -6.994484     -6.766058   1.000000   1.000000
  322       -6.994190     -6.765944   1.000000   1.000000
  323       -6.994114     -6.765654   1.000000   1.000000
  324       -6.993813     -6.765400   1.000000   1.000000
  325       -6.955938     -6.745227   1.000000   1.000000
  326       -6.955771     -6.744902   1.000000   1.000000
  327       -6.955747     -6.744825   1.000000   1.000000
  328       -6.955591     -6.744485   1.000000   1.000000
  329       -6.948342     -6.697484   1.000000   1.000000
  330       -6.948280     -6.697427   1.000000   1.000000
  331       -6.928920     -6.689409   1.000000   1.000000
  332       -6.928670     -6.689128   1.000000   1.000000
  333       -6.928585     -6.689042   1.000000   1.000000
  334       -6.928276     -6.688703   1.000000   1.000000
  335       -6.911321     -6.639878   1.000000   1.000000
  336       -6.911298     -6.639482   1.000000   1.000000
  337       -6.885746     -6.639330   1.000000   1.000000
  338       -6.885643     -6.639095   1.000000   1.000000
  339       -6.885640     -6.639022   1.000000   1.000000
  340       -6.885590     -6.638955   1.000000   1.000000
  341       -6.877383     -6.638815   1.000000   1.000000
  342       -6.877182     -6.638596   1.000000   1.000000
  343       -6.876926     -6.638346   1.000000   1.000000
  344       -6.876811     -6.638299   1.000000   1.000000
  345       -6.876801     -6.638102   1.000000   1.000000
  346       -6.876666     -6.637786   1.000000   1.000000
  347       -6.876414     -6.628056   1.000000   1.000000
  348       -6.876182     -6.628037   1.000000   1.000000
  349       -6.832629     -6.586668   1.000000   1.000000
  350       -6.832555     -6.586590   1.000000   1.000000
  351       -6.794267     -6.499089   1.000000   1.000000
  352       -6.794248     -6.499069   1.000000   1.000000
  353       -1.525525     -0.414641   1.000000   1.000000
  354       -1.468217     -0.414577   1.000000   1.000000
  355       -1.467706     -0.414508   1.000000   1.000000
  356       -1.467600     -0.414332   1.000000   1.000000
  357       -1.467255      0.025894   1.000000   1.000000
  358       -1.460319      0.026288   1.000000   1.000000
  359       -1.460286      0.026459   1.000000   1.000000
  360       -1.460200      0.026689   1.000000   1.000000
  361       -1.460166      0.037743   1.000000   1.000000
  362       -1.421391      0.037777   1.000000   1.000000
  363       -1.421335      0.037920   1.000000   1.000000
  364       -1.382807      0.037980   1.000000   1.000000
  365       -1.382784      0.038096   1.000000   1.000000
  366       -1.382771      0.038236   1.000000   1.000000
  367       -1.382741      0.038313   1.000000   1.000000
  368       -1.333352      0.038381   1.000000   1.000000
  369       -1.332730      0.102898   1.000000   1.000000
  370       -1.332557      0.102905   1.000000   1.000000
  371       -1.332543      0.207418   1.000000   1.000000
  372       -1.332483      0.207534   1.000000   1.000000
  373       -1.332433      0.207548   1.000000   1.000000
  374       -1.332290      0.207687   1.000000   1.000000
  375       -1.331618      0.304165   1.000000   1.000000
  376       -1.292986      0.392183   1.000000   1.000000
  377       -1.292504      0.392499   1.000000   1.000000
  378       -1.292392      0.392694   1.000000   1.000000
  379       -1.291978      0.393168   1.000000   1.000000
  380       -1.256796      0.490788   1.000000   1.000000
  381       -1.256775      0.491001   1.000000   1.000000
  382       -1.232176      0.497527   1.000000   1.000000
  383       -1.232147      0.497677   1.000000   1.000000
  384       -1.220369      0.497728   1.000000   1.000000
  385       -0.822808      0.497984   1.000000   1.000000
  386       -0.822741      0.510668   1.000000   1.000000
  387       -0.822674      0.510702   1.000000   1.000000
  388       -0.822563      0.531033   1.000000   1.000000
  389       -0.722723      0.531262   1.000000   1.000000
  390       -0.722580      0.531292   1.000000   1.000000
  391       -0.699312      0.531408   1.000000   1.000000
  392       -0.698975      0.574143   1.000000   1.000000
  393       -0.698957      0.574208   1.000000   1.000000
  394       -0.698868      0.574268   1.000000   1.000000
  395       -0.688469      0.574381   1.000000   1.000000
  396       -0.688431      0.574411   1.000000   1.000000
  397       -0.688203      0.574438   1.000000   1.000000
  398       -0.688138      0.574531   1.000000   1.000000
  399       -0.666820      0.574687   1.000000   1.000000
  400       -0.666686      0.638614   1.000000   1.000000
  401       -0.666523      0.666261   1.000000   1.000000
  402       -0.666219      0.666378   1.000000   1.000000
  403       -0.651970      0.733082   1.000000   1.000000
  404       -0.651891      0.733101   1.000000   1.000000
  405       -0.651816      0.931372   1.000000   1.000000
  406       -0.651571      0.932549   1.000000   1.000000
  407       -0.589436      0.935470   1.000000   1.000000
  408       -0.589387      0.935764   1.000000   1.000000
  409       -0.576640      0.948723   1.000000   1.000000
  410       -0.576536      0.948957   1.000000   1.000000
  411       -0.576527      0.948962   1.000000   1.000000
  412       -0.576461      0.949058   1.000000   1.000000
  413       -0.553539      0.986110   1.000000   1.000000
  414       -0.553323      0.986189   1.000000   1.000000
  415       -0.553029      0.986204   1.000000   1.000000
  416       -0.552983      0.986324   1.000000   1.000000
  417       -0.497629      0.992779   1.000000   1.000000
  418       -0.496878      0.992977   1.000000   1.000000
  419       -0.472914      1.008768   1.000000   1.000000
  420       -0.472688      1.008947   1.000000   1.000000
  421       -0.461664      1.008957   1.000000   1.000000
  422       -0.461452      1.009111   1.000000   1.000000
  423       -0.461253      1.018463   1.000000   1.000000
  424       -0.461153      1.049093   1.000000   1.000000
  425       -0.459833      1.049149   1.000000   1.000000
  426       -0.459679      1.051614   1.000000   1.000000
  427       -0.459419      1.051660   1.000000   1.000000
  428       -0.459318      1.051786   1.000000   1.000000
  429       -0.410018      1.051858   1.000000   1.000000
  430       -0.409999      1.078528   1.000000   1.000000
  431       -0.407585      1.078716   1.000000   1.000000
  432       -0.407561      1.078737   1.000000   1.000000
  433       -0.407471      1.078936   1.000000   1.000000
  434       -0.407413      1.079799   1.000000   1.000000
  435       -0.407390      1.079878   1.000000   1.000000
  436       -0.407347      1.079972   1.000000   1.000000
  437       -0.383302      1.080108   1.000000   1.000000
  438       -0.383263      1.192786   1.000000   1.000000
  439       -0.378170      1.192939   1.000000   1.000000
  440       -0.368999      1.376460   1.000000   1.000000
  441       -0.368882      1.390362   1.000000   1.000000
  442       -0.368779      1.390895   1.000000   1.000000
  443       -0.368740      1.391083   1.000000   1.000000
  444       -0.368708      1.391315   1.000000   1.000000
  445       -0.368641      1.391544   1.000000   1.000000
  446       -0.368469      1.437311   1.000000   1.000000
  447       -0.368369      1.450202   1.000000   1.000000
  448       -0.353557      1.526229   1.000000   1.000000
  449       -0.353519      1.526362   1.000000   1.000000
  450       -0.349054      1.526422   1.000000   1.000000
  451       -0.341793      1.526623   1.000000   1.000000
  452       -0.335796      1.528807   1.000000   1.000000
  453       -0.335769      1.528943   1.000000   1.000000
  454       -0.335437      1.528990   1.000000   1.000000
  455       -0.335390      1.529213   1.000000   1.000000
  456       -0.334180      1.558186   1.000000   1.000000
  457       -0.334154      1.558323   1.000000   1.000000
  458       -0.334119      1.558348   1.000000   1.000000
  459       -0.333987      1.558481   1.000000   1.000000
  460       -0.324258      1.566504   1.000000   1.000000
  461       -0.324248      1.566644   1.000000   1.000000
  462       -0.324073      1.566863   1.000000   1.000000
  463       -0.323655      1.567109   1.000000   1.000000
  464       -0.321654      1.568095   1.000000   1.000000
  465       -0.321634      1.568263   1.000000   1.000000
  466       -0.321375      1.568482   1.000000   1.000000
  467       -0.320910      1.568765   1.000000   1.000000
  468       -0.303825      1.586355   1.000000   1.000000
  469       -0.295898      1.586879   1.000000   1.000000
  470       -0.288205      1.695641   1.000000   1.000000
  471       -0.287926      1.695799   1.000000   1.000000
  472       -0.287784      1.740945   1.000000   1.000000
  473       -0.287599      1.741121   1.000000   1.000000
  474       -0.280410      1.741309   1.000000   1.000000
  475       -0.280361      1.741384   1.000000   1.000000
  476       -0.275152      1.746855   1.000000   1.000000
  477       -0.274999      1.746858   1.000000   1.000000
  478       -0.274823      1.746896   1.000000   1.000000
  479       -0.274772      1.746910   1.000000   1.000000
  480       -0.241825      1.779027   1.000000   1.000000
  481       -0.241703      1.780629   1.000000   1.000000
  482       -0.241551      1.780642   1.000000   1.000000
  483       -0.241484      1.836518   1.000000   1.000000
  484       -0.241398      1.836900   1.000000   1.000000
  485       -0.241338      1.837385   1.000000   1.000000
  486       -0.241277      1.837452   1.000000   1.000000
  487       -0.241065      1.837829   1.000000   1.000000
  488       -0.207397      1.838004   1.000000   1.000000
  489       -0.207391      1.838419   1.000000   1.000000
  490       -0.199711      1.838460   1.000000   1.000000
  491       -0.199582      1.866213   1.000000   1.000000
  492       -0.199550      1.866416   1.000000   1.000000
  493       -0.199400      1.913103   1.000000   1.000000
  494       -0.194084      1.913280   1.000000   1.000000
  495       -0.193918      1.913380   1.000000   1.000000
  496       -0.164124      1.913527   1.000000   1.000000
  497       -0.163930      1.913684   1.000000   1.000000
  498       -0.163761      1.913733   1.000000   1.000000
  499       -0.163612      1.913895   1.000000   1.000000
  500       -0.156815      1.913928   1.000000   1.000000
  501       -0.156448      1.926715   1.000000   1.000000
  502       -0.156190      1.926964   1.000000   1.000000
  503       -0.156155      1.927089   1.000000   1.000000
  504       -0.139046      1.927357   1.000000   1.000000
  505       -0.139020      2.133193   1.000000   1.000000
  506       -0.138860      2.133308   1.000000   1.000000
  507       -0.138790      2.191257   1.000000   1.000000
  508       -0.090986      2.193189   1.000000   1.000000
  509       -0.090934      2.300598   1.000000   1.000000
  510       -0.082541      2.300859   1.000000   1.000000
  511       -0.082521      2.301164   1.000000   1.000000
  512       -0.082492      2.301243   1.000000   1.000000