# epsilon and Z* of atoms 1 3 5 7 9
   5.57365782    0.00000000    0.00000000    0.00000000    6.43147163   -0.01529084    0.00000000   -0.01529084    6.43033082 
   1.23863050    0.00000000    0.00000000    0.00000000    1.25832336   -0.15197841    0.00000000   -0.16905917    1.04661998 
  -3.23166142    0.00366397   -0.00352983    0.00314176   -2.22080389    0.26822880   -0.00302675    0.26822880   -2.20079208 
  -1.73865939   -0.00043931   -0.00045601   -0.00213585   -2.49416367   -0.03217054   -0.00221701   -0.03217054   -2.49656383 
   2.59331949    0.00054397   -0.00052406    0.00126526    2.36668437   -0.06994422   -0.00121894   -0.06994422    2.36146602 
   2.27674163    0.00000000    0.00000000    0.00000000    2.37936963   -0.00375030    0.00000000   -0.00375030    2.37908983 