 108  108
1 1
     1.950757202199535     0.000000000000000    -0.000000000000000
    -0.000000000000000     3.716488546430056     2.603351766405126
    -0.000000000000000     2.604517960774611     3.236414512079107
1 2
    -0.116259741659280     0.000000000000000     0.000000000000000
    -0.000000000000000     0.086218818303187    -0.040541252115365
    -0.000000000000000    -0.040258484411722     0.084185537165793
1 3
    -0.116269562790188    -0.000000000000000    -0.000000000000000
    -0.000000000000000     0.086308371870773    -0.040631164153566
    -0.000000000000000    -0.040234129321463     0.084322227985524
1 4
     0.022808875026005     0.000000000000000    -0.000000000000000
    -0.000000000000000    -0.028670159386692    -0.004733582221878
    -0.000000000000000    -0.005010014108624     0.028507747417144
1 5
    -0.011285180923398     0.000000000000000     0.000000000000000
    -0.000000000000000    -0.036897216481377     0.008368899259569
    -0.000000000000000     0.007699762691503     0.030467767423633
1 6
    -0.011254314511971     0.000000000000000     0.000000000000000
    -0.000000000000000    -0.036958773312529     0.007976686999841
    -0.000000000000000     0.008108289901022     0.030350449321680
1 7
     0.028033716669411     0.000000000000000    -0.000000000000000
    -0.000000000000000     0.039243492044299     0.003213859154774
    -0.000000000000000     0.003673626468964    -0.049368735064080
1 8
    -0.018215391798156     0.000000000000000     0.000000000000000
    -0.000000000000000     0.036807598659330     0.011469085529009
    -0.000000000000000     0.011842599799703    -0.025692278562259
1 9
    -0.018253273303090    -0.000000000000000    -0.000000000000000
    -0.000000000000000     0.036854654273578     0.011670803163014
    -0.000000000000000     0.011584744330871    -0.025947080106596
1 10
     0.036854495244086    -0.000000000000000     0.000000000000000
    -0.000000000000000    -0.023548234228094     0.004043428702086
    -0.000000000000000     0.003754214194398    -0.015245278331892
1 11
    -0.018197854064391     0.000000000000000     0.000000000000000
    -0.000000000000000    -0.018944089314245     0.004438602432133
    -0.000000000000000     0.004174008706482    -0.010955449773727
1 12
    -0.018181719349327    -0.000000000000000     0.000000000000000
    -0.000000000000000    -0.018975332732927     0.004445984035695
    -0.000000000000000     0.004227208250144    -0.010978264175361
1 13
     0.117258340219885    -0.000366187881023     0.000366889390373
     0.000390590288684    -0.053645385249563     0.072432429662927
    -0.000411906138428     0.053676670124727    -0.048887716243442
1 14
    -0.077561329087093     0.036402021712937    -0.041729985230884
     0.041964021015972    -0.047033476452315     0.034722802945810
    -0.033886481061593     0.025501758036407    -0.044945032730573
1 15
    -0.077565538143197    -0.035542322003755     0.040514971035613
    -0.043197855217832    -0.047109658756831     0.034713144815096
     0.034836475005623     0.025332203474523    -0.044909773711191
1 16
     0.041550398837125     0.000725711423215    -0.000177832620382
     0.000211145737729    -0.059943446761016    -0.082935910722644
    -0.000719714135745    -0.084528829000931    -0.066336092770655
1 17
    -0.007859360009653    -0.005738346488058    -0.007608921171482
    -0.007756717379983    -0.000068960370523    -0.006879071122165
    -0.006289422454636    -0.005936845816943    -0.000570460067803
1 18
    -0.007856904726926     0.005923895711297     0.007685385690699
     0.007707642887794    -0.000121562115449    -0.006891460046000
     0.005989533488336    -0.005789673691910    -0.000481754254328
1 19
     0.041550398837125    -0.000725711423215     0.000177832620382
    -0.000211145737730    -0.059943446761016    -0.082935910722644
     0.000719714135745    -0.084528829000931    -0.066336092770655
1 20
    -0.007859360009653     0.005738346488058     0.007608921171482
     0.007756717379983    -0.000068960370523    -0.006879071122165
     0.006289422454636    -0.005936845816943    -0.000570460067803
1 21
    -0.007856904726926    -0.005923895711297    -0.007685385690699
    -0.007707642887795    -0.000121562115449    -0.006891460046000
    -0.005989533488336    -0.005789673691910    -0.000481754254328
1 22
     0.117258340219885     0.000366187881023    -0.000366889390373
    -0.000390590288685    -0.053645385249563     0.072432429662927
     0.000411906138428     0.053676670124727    -0.048887716243442
1 23
    -0.077561329087093    -0.036402021712937     0.041729985230884
    -0.041964021015973    -0.047033476452315     0.034722802945810
     0.033886481061593     0.025501758036407    -0.044945032730573
1 24
    -0.077565538143197     0.035542322003755    -0.040514971035613
     0.043197855217831    -0.047109658756831     0.034713144815096
    -0.034836475005623     0.025332203474523    -0.044909773711191
1 25
    -0.164399417826763     0.000173974318953    -0.000238513179210
    -0.001066252710437    -0.016009501416810    -0.059358802038427
     0.000494729031769    -0.034980036831436     0.089163637929731
1 26
     0.089180428461385    -0.003893727650607     0.051407306722664
    -0.056373910957729    -0.005379788032402    -0.053869865980955
     0.014422689931643    -0.012289196012553     0.059074641347118
1 27
     0.089269169394238     0.003387939408811    -0.051432911813962
     0.057262908873547    -0.005494035665185    -0.054879753784389
    -0.014200317622048    -0.012529772455025     0.059211224417482
1 28
    -0.067805438548044     0.000089793196879    -0.000000350754675
    -0.000024465827729     0.024035809637829     0.011922861625604
     0.000181421180239     0.015552692630859     0.023143382817714
1 29
     0.033480936776962     0.001846372610828    -0.004459845696556
     0.012640231185400     0.016094147873044     0.002631398068230
     0.011188575976170     0.006685038387425     0.011408372730899
1 30
     0.033442003008003    -0.002024205231209     0.004564721344474
    -0.012754976298300     0.016198285241186     0.002510172725614
    -0.010966006409344     0.006840820774673     0.011443708188370
1 31
    -0.641609220942435     0.007563323063692     0.006430385462443
     0.000395559267013    -0.865253274813614    -0.484774317743989
    -0.001761239292473    -0.385123977171429    -1.024509697389714
1 32
     0.139756797358241    -0.054163536961244    -0.047628275850883
    -0.063334220024741    -0.041451253609546     0.039253735899052
    -0.089102753981990     0.070383951323501    -0.062175217769883
1 33
     0.140785210066248     0.054606890870834     0.048227364836311
     0.063869877083953    -0.041670565740094     0.040210529255309
     0.090750356519465     0.072226837161450    -0.062313192643608
1 34
    -0.147178064778433     0.000665381619062    -0.000472115792966
     0.000242717282059     0.163089987644371    -0.029442459304876
    -0.000480804769953    -0.042171253372931    -0.042629670710662
1 35
     0.092129924526060     0.072849992288340     0.003002460020647
     0.026286249255283     0.074227818872234    -0.007750347209557
    -0.049423648272960    -0.062592374779961    -0.012751974784513
1 36
     0.092176925652551    -0.073023966607293    -0.003081730577266
    -0.027078015760613     0.074761813923274    -0.007719582176942
     0.050816878688253    -0.063883324902109    -0.012697649939976
1 37
    -0.641609220942435    -0.007563323063692    -0.006430385462443
    -0.000395559267013    -0.865253274813615    -0.484774317743989
     0.001761239292473    -0.385123977171429    -1.024509697389714
1 38
     0.139756797358241     0.054163536961244     0.047628275850883
     0.063334220024741    -0.041451253609547     0.039253735899052
     0.089102753981990     0.070383951323501    -0.062175217769882
1 39
     0.140785210066248    -0.054606890870834    -0.048227364836311
    -0.063869877083953    -0.041670565740094     0.040210529255309
    -0.090750356519465     0.072226837161450    -0.062313192643608
1 40
    -0.147178064778433    -0.000665381619061     0.000472115792966
    -0.000242717282059     0.163089987644371    -0.029442459304876
     0.000480804769953    -0.042171253372931    -0.042629670710662
1 41
     0.092129924526060    -0.072849992288340    -0.003002460020647
    -0.026286249255283     0.074227818872234    -0.007750347209557
     0.049423648272960    -0.062592374779961    -0.012751974784513
1 42
     0.092176925652551     0.073023966607293     0.003081730577266
     0.027078015760613     0.074761813923274    -0.007719582176942
    -0.050816878688253    -0.063883324902109    -0.012697649939976
1 43
    -0.164399417826763    -0.000173974318953     0.000238513179210
     0.001066252710437    -0.016009501416810    -0.059358802038427
    -0.000494729031769    -0.034980036831436     0.089163637929731
1 44
     0.089180428461385     0.003893727650607    -0.051407306722664
     0.056373910957729    -0.005379788032402    -0.053869865980955
    -0.014422689931643    -0.012289196012553     0.059074641347118
1 45
     0.089269169394238    -0.003387939408811     0.051432911813962
    -0.057262908873547    -0.005494035665185    -0.054879753784389
     0.014200317622048    -0.012529772455025     0.059211224417482
1 46
    -0.067805438548043    -0.000089793196879     0.000000350754675
     0.000024465827729     0.024035809637829     0.011922861625604
    -0.000181421180239     0.015552692630859     0.023143382817714
1 47
     0.033480936776962    -0.001846372610828     0.004459845696556
    -0.012640231185400     0.016094147873043     0.002631398068230
    -0.011188575976170     0.006685038387425     0.011408372730899
1 48
     0.033442003008003     0.002024205231209    -0.004564721344474
     0.012754976298300     0.016198285241186     0.002510172725614
     0.010966006409344     0.006840820774673     0.011443708188370
1 49
     0.008250802227298    -0.185410324387134     0.155710523010004
    -0.110503839916986    -0.103757378944522    -0.154912507857241
     0.103919963616365    -0.166851730978956    -0.148449917854577
1 50
     0.086990667023430     0.000238513179210    -0.000252543366223
     0.000475705348850    -0.030617632249930     0.003093072780839
    -0.000405173409606     0.013381268517242    -0.013693649314185
1 51
    -0.007202747257474     0.178651632548601    -0.149719282401048
     0.101030109233190    -0.112528356912115    -0.151611001851953
    -0.096436650337497    -0.164277187943442    -0.157503011653667
1 52
    -0.019322724308107     0.003871980860738     0.014043164935354
     0.037270602170377     0.108384505773878     0.026185181875410
     0.037002872787319     0.045032650556208    -0.037888335457401
1 53
     0.038124577923381     0.000026306600648    -0.000139249606098
    -0.000120352010435     0.031359769560311     0.013292000142282
     0.000020853369712    -0.010455816404372    -0.026181177474513
1 54
    -0.020065622710412    -0.002699758735855    -0.014318156600796
    -0.037485659275484     0.107842823589803     0.026367792143222
    -0.036830949260701     0.044765364136384    -0.038220164156363
1 55
    -0.011407945059756    -0.035377467306359    -0.029524774794150
    -0.035103805757310    -0.035154357508636     0.044047852857346
    -0.036615459443351     0.024603238533028     0.097885876173686
1 56
     0.033501982057481     0.000188706015316    -0.000131533003241
    -0.000024425259404    -0.023590743012908    -0.009172737263924
     0.000209932034027     0.004373813035327     0.017925286531459
1 57
    -0.010859364747572     0.036178941739441     0.029024247872484
     0.035026487522274    -0.035070846447362     0.044102336088973
     0.037738819105060     0.025398199909410     0.098727092767931
1 58
    -0.014656634862469     0.036023908172954    -0.035393251266748
     0.003388182885018     0.050979703673804    -0.019567316499418
    -0.000629429745589    -0.013442206952052     0.041766586604992
1 59
     0.027439187494762     0.000181690921810    -0.000186250732589
    -0.000094457763154     0.025167410026119    -0.005362957720192
     0.000193091068258    -0.004288467601232     0.020358956487526
1 60
    -0.014702934479610    -0.036239622298269     0.035138252617798
    -0.003203718144610     0.051440073081112    -0.019975306611255
     0.000902357317557    -0.013589193573735     0.042269067889588
1 61
    -0.011407945059756     0.035377467306359     0.029524774794150
     0.035103805757309    -0.035154357508636     0.044047852857346
     0.036615459443350     0.024603238533028     0.097885876173686
1 62
     0.033501982057481    -0.000188706015316     0.000131533003241
     0.000024425259404    -0.023590743012908    -0.009172737263924
    -0.000209932034027     0.004373813035327     0.017925286531459
1 63
    -0.010859364747572    -0.036178941739441    -0.029024247872484
    -0.035026487522274    -0.035070846447362     0.044102336088973
    -0.037738819105060     0.025398199909410     0.098727092767931
1 64
    -0.014656634862469    -0.036023908172954     0.035393251266748
    -0.003388182885018     0.050979703673804    -0.019567316499417
     0.000629429745589    -0.013442206952052     0.041766586604992
1 65
     0.027439187494762    -0.000181690921810     0.000186250732589
     0.000094457763154     0.025167410026119    -0.005362957720192
    -0.000193091068258    -0.004288467601232     0.020358956487526
1 66
    -0.014702934479610     0.036239622298269    -0.035138252617798
     0.003203718144609     0.051440073081112    -0.019975306611255
    -0.000902357317557    -0.013589193573735     0.042269067889588
1 67
     0.008250802227298     0.185410324387134    -0.155710523010004
     0.110503839916985    -0.103757378944521    -0.154912507857241
    -0.103919963616365    -0.166851730978956    -0.148449917854577
1 68
     0.086990667023430    -0.000238513179210     0.000252543366223
    -0.000475705348851    -0.030617632249930     0.003093072780839
     0.000405173409605     0.013381268517242    -0.013693649314185
1 69
    -0.007202747257474    -0.178651632548601     0.149719282401048
    -0.101030109233190    -0.112528356912115    -0.151611001851952
     0.096436650337497    -0.164277187943442    -0.157503011653666
1 70
    -0.019322724308107    -0.003871980860738    -0.014043164935354
    -0.037270602170378     0.108384505773878     0.026185181875410
    -0.037002872787319     0.045032650556208    -0.037888335457401
1 71
     0.038124577923381    -0.000026306600648     0.000139249606098
     0.000120352010434     0.031359769560311     0.013292000142282
    -0.000020853369712    -0.010455816404372    -0.026181177474513
1 72
    -0.020065622710412     0.002699758735855     0.014318156600796
     0.037485659275483     0.107842823589803     0.026367792143222
     0.036830949260701     0.044765364136384    -0.038220164156363
1 73
    -0.322478236404455    -0.445756579116671    -0.571006163104125
    -0.544214027672682     0.168715105009090    -0.335744252555693
    -0.809101326836746    -0.335015412215257    -0.345462718824034
1 74
    -0.112672222840217    -0.000368993918425    -0.000115398288177
     0.000164287159680     0.048482174942180    -0.013611847935092
     0.000871604411296    -0.012643379687308     0.001065171044451
1 75
    -0.325063298361484     0.456617697637620     0.588882375131257
     0.555775155730089     0.168046107046474    -0.351928664188748
     0.829151168194873    -0.351169990650369    -0.363979685665647
1 76
     0.042608625692533     0.088000138978970     0.005402674263787
     0.032810501062884    -0.099714072297105     0.011146526527701
     0.014766360982242     0.054253650964811    -0.007677544822667
1 77
    -0.078546949724712    -0.000256050912976    -0.000193616580771
    -0.000326316732413    -0.032356753459331     0.005229853202181
     0.000594653165163     0.016827378727225    -0.009921360155270
1 78
     0.042733143602268    -0.089404209944232    -0.006178192850896
    -0.032763902189167    -0.100622394754340     0.011040553515414
    -0.014629092733250     0.055646827044723    -0.007603296319218
1 79
     0.053930635856838     0.016726438201469     0.142276268190987
     0.012180806509775     0.069063886256522     0.112455982691974
     0.024151488378843     0.029660485672360    -0.113274020460008
1 80
    -0.074535368503201    -0.000237811669860    -0.000118555080254
     0.000409118353070     0.027919070415286     0.011871254598521
     0.000457377898969     0.000415254174986    -0.020167842725570
1 81
     0.054311906188899    -0.017573510742341    -0.142604223812401
    -0.013623474456857     0.069815624869742     0.115041097247447
    -0.023752155964476     0.030239383571491    -0.114289126833131
1 82
     0.012733797732424    -0.012146985160632    -0.001614173015773
     0.007188250388841    -0.031363445906584    -0.020592744422738
     0.007249355576900    -0.006006433115542    -0.012384880216537
1 83
    -0.026828172850373    -0.000327604866739    -0.000180638657784
    -0.000062867638555    -0.017804466802349    -0.003901226722653
     0.000365978248739     0.001046298137035    -0.000774996711281
1 84
     0.012847793001900     0.011813417464413     0.001601195092786
    -0.007205606749663    -0.031526739741708    -0.020487239059381
    -0.006680114916744    -0.005841655600605    -0.012159538094343
1 85
     0.053930635856838    -0.016726438201469    -0.142276268190987
    -0.012180806509775     0.069063886256522     0.112455982691974
    -0.024151488378843     0.029660485672360    -0.113274020460008
1 86
    -0.074535368503201     0.000237811669860     0.000118555080254
    -0.000409118353070     0.027919070415286     0.011871254598521
    -0.000457377898968     0.000415254174986    -0.020167842725570
1 87
     0.054311906188899     0.017573510742341     0.142604223812401
     0.013623474456858     0.069815624869742     0.115041097247448
     0.023752155964476     0.030239383571491    -0.114289126833131
1 88
     0.012733797732424     0.012146985160632     0.001614173015773
    -0.007188250388840    -0.031363445906584    -0.020592744422738
    -0.007249355576900    -0.006006433115542    -0.012384880216536
1 89
    -0.026828172850373     0.000327604866739     0.000180638657784
     0.000062867638555    -0.017804466802350    -0.003901226722652
    -0.000365978248739     0.001046298137035    -0.000774996711281
1 90
     0.012847793001900    -0.011813417464413    -0.001601195092786
     0.007205606749664    -0.031526739741708    -0.020487239059380
     0.006680114916745    -0.005841655600605    -0.012159538094343
1 91
    -0.322478236404455     0.445756579116671     0.571006163104125
     0.544214027672683     0.168715105009090    -0.335744252555693
     0.809101326836746    -0.335015412215258    -0.345462718824034
1 92
    -0.112672222840217     0.000368993918425     0.000115398288177
    -0.000164287159680     0.048482174942180    -0.013611847935092
    -0.000871604411296    -0.012643379687308     0.001065171044451
1 93
    -0.325063298361484    -0.456617697637620    -0.588882375131257
    -0.555775155730088     0.168046107046474    -0.351928664188748
    -0.829151168194873    -0.351169990650369    -0.363979685665647
1 94
     0.042608625692533    -0.088000138978970    -0.005402674263787
    -0.032810501062884    -0.099714072297105     0.011146526527701
    -0.014766360982242     0.054253650964811    -0.007677544822667
1 95
    -0.078546949724712     0.000256050912976     0.000193616580771
     0.000326316732413    -0.032356753459331     0.005229853202181
    -0.000594653165162     0.016827378727225    -0.009921360155270
1 96
     0.042733143602268     0.089404209944232     0.006178192850896
     0.032763902189168    -0.100622394754341     0.011040553515414
     0.014629092733251     0.055646827044723    -0.007603296319218
1 97
     0.302245303713920     0.012141022331152     0.000309365623623
     0.010670750786599    -1.216623241379520     0.012861033371881
     0.002224888127669    -0.164895903750005     0.468249317966808
1 98
    -0.106749028638271     0.063634614703942     0.056817346834633
     0.051739140694183    -0.046901718423308    -0.050450543138647
    -0.055125120141739     0.032011946336153     0.139604898077615
1 99
    -0.107433000255124    -0.065172323200497    -0.057312612436169
    -0.052596274311040    -0.047849006212575    -0.051496074963097
     0.055597821517588     0.032771883884364     0.142347442000398
1 100
     0.302245303713920    -0.012141022331152    -0.000309365623623
    -0.010670750786598    -1.216623241379520     0.012861033371881
    -0.002224888127669    -0.164895903750005     0.468249317966808
1 101
    -0.106749028638271    -0.063634614703942    -0.056817346834633
    -0.051739140694182    -0.046901718423308    -0.050450543138647
     0.055125120141739     0.032011946336153     0.139604898077615
1 102
    -0.107433000255124     0.065172323200497     0.057312612436169
     0.052596274311040    -0.047849006212575    -0.051496074963097
    -0.055597821517587     0.032771883884364     0.142347442000398
1 103
     0.070357529565593     0.000054016219998    -0.000153630547785
     0.000173900552321    -0.022715991216267     0.010949428092113
     0.000036069402565     0.003533447082005    -0.069707510995961
1 104
    -0.032956909292051     0.015478803821394    -0.016783260458869
     0.013828364350434    -0.021412570409559     0.015171340362649
     0.015007021944544    -0.009359824718981    -0.039387965127588
1 105
    -0.033061083430617    -0.015392518171268     0.017122790984568
    -0.013763517717223    -0.021797687176044     0.015526706570245
    -0.015229899192990    -0.009538477948136    -0.039741274180989
1 106
     0.070357529565593    -0.000054016219998     0.000153630547785
    -0.000173900552320    -0.022715991216267     0.010949428092113
    -0.000036069402565     0.003533447082005    -0.069707510995961
1 107
    -0.032956909292051    -0.015478803821394     0.016783260458869
    -0.013828364350433    -0.021412570409559     0.015171340362649
    -0.015007021944544    -0.009359824718981    -0.039387965127588
1 108
    -0.033061083430617     0.015392518171268    -0.017122790984568
     0.013763517717224    -0.021797687176044     0.015526706570245
     0.015229899192990    -0.009538477948136    -0.039741274180989
2 1
    -0.116269562790188    -0.000000000000000    -0.000000000000000
    -0.000000000000000     0.086308371870773    -0.040631164153566
    -0.000000000000000    -0.040234129321463     0.084322227985524
2 2
     1.950757202199535     0.000000000000000    -0.000000000000000
    -0.000000000000000     3.716488546430056     2.603351766405126
    -0.000000000000000     2.604517960774611     3.236414512079106
2 3
    -0.116259741659280     0.000000000000000     0.000000000000000
    -0.000000000000000     0.086218818303187    -0.040541252115365
    -0.000000000000000    -0.040258484411722     0.084185537165793
2 4
    -0.011254314511971     0.000000000000000     0.000000000000000
    -0.000000000000000    -0.036958773312529     0.007976686999841
    -0.000000000000000     0.008108289901022     0.030350449321680
2 5
     0.022808875026005     0.000000000000000    -0.000000000000000
    -0.000000000000000    -0.028670159386692    -0.004733582221878
    -0.000000000000000    -0.005010014108624     0.028507747417144
2 6
    -0.011285180923398     0.000000000000000     0.000000000000000
    -0.000000000000000    -0.036897216481377     0.008368899259569
    -0.000000000000000     0.007699762691503     0.030467767423633
2 7
    -0.018253273303090    -0.000000000000000    -0.000000000000000
    -0.000000000000000     0.036854654273578     0.011670803163014
    -0.000000000000000     0.011584744330871    -0.025947080106596
2 8
     0.028033716669411     0.000000000000000    -0.000000000000000
    -0.000000000000000     0.039243492044299     0.003213859154774
    -0.000000000000000     0.003673626468964    -0.049368735064080
2 9
    -0.018215391798156     0.000000000000000     0.000000000000000
    -0.000000000000000     0.036807598659330     0.011469085529009
    -0.000000000000000     0.011842599799703    -0.025692278562259
2 10
    -0.018181719349327    -0.000000000000000     0.000000000000000
    -0.000000000000000    -0.018975332732927     0.004445984035695
    -0.000000000000000     0.004227208250144    -0.010978264175361
2 11
     0.036854495244086    -0.000000000000000     0.000000000000000
    -0.000000000000000    -0.023548234228094     0.004043428702086
    -0.000000000000000     0.003754214194398    -0.015245278331892
2 12
    -0.018197854064391     0.000000000000000     0.000000000000000
    -0.000000000000000    -0.018944089314245     0.004438602432133
    -0.000000000000000     0.004174008706482    -0.010955449773727
2 13
    -0.077565538143197    -0.035542322003755     0.040514971035613
    -0.043197855217832    -0.047109658756831     0.034713144815096
     0.034836475005623     0.025332203474523    -0.044909773711191
2 14
     0.117258340219885    -0.000366187881023     0.000366889390373
     0.000390590288684    -0.053645385249563     0.072432429662927
    -0.000411906138428     0.053676670124727    -0.048887716243442
2 15
    -0.077561329087093     0.036402021712937    -0.041729985230884
     0.041964021015972    -0.047033476452315     0.034722802945810
    -0.033886481061593     0.025501758036407    -0.044945032730573
2 16
    -0.007856904726926     0.005923895711297     0.007685385690699
     0.007707642887794    -0.000121562115449    -0.006891460046000
     0.005989533488336    -0.005789673691910    -0.000481754254328
2 17
     0.041550398837125     0.000725711423215    -0.000177832620382
     0.000211145737729    -0.059943446761016    -0.082935910722644
    -0.000719714135745    -0.084528829000931    -0.066336092770655
2 18
    -0.007859360009653    -0.005738346488058    -0.007608921171482
    -0.007756717379983    -0.000068960370523    -0.006879071122165
    -0.006289422454636    -0.005936845816943    -0.000570460067803
2 19
    -0.007856904726926    -0.005923895711297    -0.007685385690699
    -0.007707642887795    -0.000121562115449    -0.006891460046000
    -0.005989533488336    -0.005789673691910    -0.000481754254328
2 20
     0.041550398837125    -0.000725711423215     0.000177832620382
    -0.000211145737730    -0.059943446761016    -0.082935910722644
     0.000719714135745    -0.084528829000931    -0.066336092770655
2 21
    -0.007859360009653     0.005738346488058     0.007608921171482
     0.007756717379983    -0.000068960370523    -0.006879071122165
     0.006289422454636    -0.005936845816943    -0.000570460067803
2 22
    -0.077565538143197     0.035542322003755    -0.040514971035613
     0.043197855217831    -0.047109658756831     0.034713144815096
    -0.034836475005623     0.025332203474523    -0.044909773711191
2 23
     0.117258340219885     0.000366187881023    -0.000366889390373
    -0.000390590288685    -0.053645385249563     0.072432429662927
     0.000411906138428     0.053676670124727    -0.048887716243442
2 24
    -0.077561329087093    -0.036402021712937     0.041729985230884
    -0.041964021015973    -0.047033476452315     0.034722802945810
     0.033886481061593     0.025501758036407    -0.044945032730573
2 25
     0.089269169394238     0.003387939408811    -0.051432911813962
     0.057262908873547    -0.005494035665185    -0.054879753784389
    -0.014200317622048    -0.012529772455025     0.059211224417482
2 26
    -0.164399417826763     0.000173974318953    -0.000238513179210
    -0.001066252710437    -0.016009501416810    -0.059358802038427
     0.000494729031769    -0.034980036831436     0.089163637929731
2 27
     0.089180428461385    -0.003893727650607     0.051407306722664
    -0.056373910957729    -0.005379788032402    -0.053869865980955
     0.014422689931643    -0.012289196012553     0.059074641347118
2 28
     0.033442003008003    -0.002024205231209     0.004564721344474
    -0.012754976298300     0.016198285241186     0.002510172725614
    -0.010966006409344     0.006840820774673     0.011443708188370
2 29
    -0.067805438548044     0.000089793196879    -0.000000350754675
    -0.000024465827729     0.024035809637829     0.011922861625604
     0.000181421180239     0.015552692630859     0.023143382817714
2 30
     0.033480936776962     0.001846372610828    -0.004459845696556
     0.012640231185400     0.016094147873044     0.002631398068230
     0.011188575976170     0.006685038387425     0.011408372730899
2 31
     0.140785210066248     0.054606890870834     0.048227364836311
     0.063869877083953    -0.041670565740094     0.040210529255309
     0.090750356519465     0.072226837161450    -0.062313192643608
2 32
    -0.641609220942435     0.007563323063692     0.006430385462443
     0.000395559267013    -0.865253274813614    -0.484774317743989
    -0.001761239292473    -0.385123977171429    -1.024509697389714
2 33
     0.139756797358241    -0.054163536961244    -0.047628275850883
    -0.063334220024741    -0.041451253609546     0.039253735899052
    -0.089102753981990     0.070383951323501    -0.062175217769882
2 34
     0.092176925652551    -0.073023966607293    -0.003081730577266
    -0.027078015760613     0.074761813923274    -0.007719582176942
     0.050816878688253    -0.063883324902109    -0.012697649939976
2 35
    -0.147178064778433     0.000665381619062    -0.000472115792966
     0.000242717282059     0.163089987644371    -0.029442459304876
    -0.000480804769953    -0.042171253372931    -0.042629670710662
2 36
     0.092129924526060     0.072849992288340     0.003002460020647
     0.026286249255283     0.074227818872234    -0.007750347209557
    -0.049423648272960    -0.062592374779961    -0.012751974784513
2 37
     0.140785210066248    -0.054606890870834    -0.048227364836311
    -0.063869877083953    -0.041670565740094     0.040210529255309
    -0.090750356519465     0.072226837161450    -0.062313192643608
2 38
    -0.641609220942435    -0.007563323063692    -0.006430385462443