108  
17   

1    
  0.0071274887435109   0.0070137626131896   0.0000777059646927
   0.0043019800   -0.0262752400   -0.0185172600
   0.0190536700   -0.0006038800    0.0002800200
   0.0190506400   -0.0006000000    0.0002779000
   0.0180589200    0.0002005600    0.0000319400
   0.0183029200    0.0002588700   -0.0000622000
   0.0183047500    0.0002580400   -0.0000587700
   0.0180232300   -0.0002751900   -0.0000181900
   0.0183561000   -0.0002598100   -0.0000794600
   0.0183548900   -0.0002573100   -0.0000773100
   0.0179635200    0.0001645500   -0.0000277500
   0.0183533000    0.0001324100   -0.0000302700
   0.0183522600    0.0001315100   -0.0000301000
   0.0173941100    0.0003750600   -0.0005056200
   0.0184865300    0.0000678500    0.0000562500
   0.0190783200    0.0005827300   -0.0005273000
   0.0179274900    0.0004219700    0.0005890400
   0.0183382100    0.0000418400    0.0001026500
   0.0182312200   -0.0000415400   -0.0000064700
   0.0179330000    0.0004315500    0.0005848600
   0.0182297100   -0.0000382000   -0.0000061300
   0.0183382100    0.0000442100    0.0001018800
   0.0173930300    0.0003703400   -0.0005031100
   0.0190734100    0.0005890900   -0.0005369300
   0.0184821200    0.0000735800    0.0000502400
   0.0025252300   -0.0021642800    0.0030442500
   0.0011088800   -0.0022134900    0.0026403800
   0.0003194800   -0.0022583900    0.0033837500
   0.0018400300   -0.0024505500    0.0025499100
   0.0010289100   -0.0024061400    0.0026451900
   0.0012058900   -0.0023789500    0.0025804600
   0.0059385000    0.0036853100    0.0059777700
   0.0008130800   -0.0016042100    0.0027008100
  -0.0001037700   -0.0023814600    0.0020149600
   0.0024041100   -0.0034247100    0.0028472600
   0.0005148400   -0.0033150300    0.0026672700
   0.0008831100   -0.0022791900    0.0027074600
   0.0059258300    0.0085182900    0.0009867200
  -0.0000862600    0.0021800900   -0.0032439900
   0.0008074400    0.0029517800   -0.0025661400
   0.0024076800    0.0011451800   -0.0024252000
   0.0008808900    0.0022775100   -0.0025581700
   0.0005167500    0.0012423800   -0.0025985300
   0.0025181600    0.0023950400   -0.0022239400
   0.0003208000    0.0022924600   -0.0018929000
   0.0011202200    0.0023443600   -0.0026198800
   0.0018424200    0.0021060700   -0.0027234600
   0.0012110400    0.0021786900   -0.0026842300
   0.0010283600    0.0021497500   -0.0026193100
   0.0170325900    0.0059268000    0.0050004600
   0.0157003100    0.0040780100    0.0049960800
   0.0156299800    0.0033601100    0.0071742300
   0.0161990100    0.0030784800    0.0047356300
   0.0160525700    0.0036473100    0.0049245200
   0.0167328400    0.0031228800    0.0049298300
   0.0166518500    0.0043662900    0.0049086500
   0.0160838700    0.0040308300    0.0050765800
   0.0161508200    0.0038512000    0.0044866000
   0.0164033800    0.0032506100    0.0053977500
   0.0161284700    0.0036899700    0.0050503400
   0.0164517100    0.0037682600    0.0049034500
   0.0161571000   -0.0038773300   -0.0055431700
   0.0160861300   -0.0037011500   -0.0049504400
   0.0166501200   -0.0033622700   -0.0051218000
   0.0164538500   -0.0039654600   -0.0051280700
   0.0161310600   -0.0040407400   -0.0049769500
   0.0164088500   -0.0044870900   -0.0046312700
   0.0155360400   -0.0044090500   -0.0028155500
   0.0157033800   -0.0036525200   -0.0050375400
   0.0170747500   -0.0017941300   -0.0050081200
   0.0167267100   -0.0046056300   -0.0050977200
   0.0160518200   -0.0040844200   -0.0051076400
   0.0162006600   -0.0046438100   -0.0052931900
  -0.0153279000   -0.0037333100    0.0123591900
  -0.0207255000   -0.0060976500    0.0059565900
  -0.0231416300   -0.0101671100    0.0041440100
  -0.0220587100   -0.0056917000    0.0057449900
  -0.0209618500   -0.0055326000    0.0058268000
  -0.0216032300   -0.0044260000    0.0058261900
  -0.0219904600   -0.0063696000    0.0040606300
  -0.0209976500   -0.0059573100    0.0057790900
  -0.0218154600   -0.0061280400    0.0060826500
  -0.0216649900   -0.0054551600    0.0060173600
  -0.0213341800   -0.0056351300    0.0058906400
  -0.0215631400   -0.0056235200    0.0059924700
  -0.0218128700    0.0053923300   -0.0056308300
  -0.0209839700    0.0055642700   -0.0059434200
  -0.0220027700    0.0051462100   -0.0076698900
  -0.0215615300    0.0058968800   -0.0057265100
  -0.0213282800    0.0058851400   -0.0058332100
  -0.0216578400    0.0060647900   -0.0057063600
  -0.0231319500    0.0014254300   -0.0075339000
  -0.0207141400    0.0054188800   -0.0057673400
  -0.0152617100    0.0078555800    0.0007840700
  -0.0215918400    0.0070860200   -0.0058993300
  -0.0209608400    0.0059841400   -0.0058968600
  -0.0220577900    0.0058246300   -0.0059823900
  -0.0309749700    0.0084204800   -0.0001362700
  -0.0283654000   -0.0001258300   -0.0000602000
  -0.0276368400    0.0007965300    0.0007600100
  -0.0308651900    0.0086748200   -0.0001165700
  -0.0276450300    0.0007820200    0.0007485300
  -0.0283603700   -0.0001339700   -0.0000610800
  -0.0292661100    0.0001598200   -0.0000712000
  -0.0286278200    0.0000414100    0.0000161400
  -0.0284341600    0.0002619200   -0.0002262200
  -0.0292659800    0.0001573700   -0.0000702500
  -0.0284315500    0.0002624900   -0.0002248900
  -0.0286273400    0.0000451000    0.0000163500

1    
 -0.0071274887435109  -0.0070137626131896  -0.0000777059646927
   0.0321099800    0.0262626700    0.0185043000
   0.0173963900    0.0005993000   -0.0002755900
   0.0173932200    0.0006044400   -0.0002789500
   0.0183840600   -0.0002023900   -0.0000300300
   0.0181420500   -0.0002575100    0.0000599300
   0.0181443200   -0.0002591400    0.0000578400
   0.0184228500    0.0002758700    0.0000192200
   0.0180964400    0.0002583500    0.0000774300
   0.0180946900    0.0002614700    0.0000823700
   0.0184888800   -0.0001651900    0.0000266000
   0.0180938900   -0.0001326800    0.0000302900
   0.0180930800   -0.0001340100    0.0000305600
   0.0190710400   -0.0003743300    0.0005080600
   0.0179642800   -0.0000690400   -0.0000585200
   0.0173720800   -0.0005808200    0.0005302000
   0.0185226400   -0.0004216800   -0.0005871900
   0.0181163900   -0.0000418500   -0.0001024000
   0.0182282700    0.0000403000    0.0000063400
   0.0185224500   -0.0004327900   -0.0005863000
   0.0182274600    0.0000417100    0.0000057500
   0.0181171600   -0.0000428400   -0.0001044200
   0.0190591300   -0.0003686100    0.0005001100
   0.0173843900   -0.0005856200    0.0005380200
   0.0179769700   -0.0000766600   -0.0000473400
   0.0001668400   -0.0023918100    0.0022220500
   0.0015916000   -0.0023463700    0.0026267100
   0.0023930600   -0.0022891100    0.0018899500
   0.0008731500   -0.0021096900    0.0027207500
   0.0016852300   -0.0021530200    0.0026203000
   0.0015019800   -0.0021795200    0.0026825200
  -0.0032023500   -0.0084040900   -0.0008899700
   0.0019030400   -0.0029468300    0.0025628400
   0.0028131600   -0.0021763500    0.0032568100
   0.0003094200   -0.0011340300    0.0024209000
   0.0021892000   -0.0012450500    0.0025993700
   0.0018251500   -0.0022813500    0.0025532700
  -0.0032255700   -0.0037867400   -0.0060643500
   0.0028082400    0.0023816700   -0.0020240800
   0.0019042900    0.0016000500   -0.0026992500
   0.0003063300    0.0034168900   -0.0028381000
   0.0018331500    0.0022705400   -0.0027116700
   0.0022026700    0.0033221300   -0.0026648600
   0.0001895300    0.0021625500   -0.0030393400
   0.0023806100    0.0022705900   -0.0033721900
   0.0015917000    0.0022170500   -0.0026473300
   0.0008761700    0.0024443700   -0.0025526100
   0.0015092600    0.0023791700   -0.0025819700
   0.0016857000    0.0024068900   -0.0026473900
   0.0156162600    0.0018023900    0.0050240000
   0.0169469700    0.0036540000    0.0050337400
   0.0169295200    0.0043027600    0.0028887800
   0.0164521300    0.0046610400    0.0052972400
   0.0165943500    0.0040859600    0.0051049200
   0.0159152500    0.0046041200    0.0050896600
   0.0159911200    0.0033726800    0.0051208700
   0.0165611300    0.0037032800    0.0049488200
   0.0164932200    0.0038789200    0.0055343300
   0.0162418800    0.0044771600    0.0046252300
   0.0165183200    0.0040449300    0.0049756200
   0.0161973200    0.0039711300    0.0051307100
   0.0164925900   -0.0038623300   -0.0044892000
   0.0165640100   -0.0040340800   -0.0050744500
   0.0159981200   -0.0043660100   -0.0049015500
   0.0161974900   -0.0037659500   -0.0048915300
   0.0165235000   -0.0036909600   -0.0050463600
   0.0162440600   -0.0032510300   -0.0054058000
   0.0171876000   -0.0032474200   -0.0072313100
   0.0169368200   -0.0040833300   -0.0049926800
   0.0155698600   -0.0059448300   -0.0050250800
   0.0159227000   -0.0031334600   -0.0049364800
   0.0165969700   -0.0036465200   -0.0049232700
   0.0164461800   -0.0030856000   -0.0047251500
  -0.0276845400   -0.0077729700   -0.0005438400
  -0.0223292000   -0.0054247900    0.0057641700
  -0.0198503900   -0.0013553400    0.0075452600
  -0.0209887800   -0.0058275700    0.0059771700
  -0.0220860200   -0.0059875200    0.0058958600
  -0.0214559400   -0.0071032900    0.0058918100
  -0.0210470600   -0.0051577600    0.0076486500
  -0.0220543400   -0.0055690000    0.0059407900
  -0.0212360400   -0.0053945100    0.0056458100
  -0.0213815100   -0.0060692000    0.0057035600
  -0.0217174400   -0.0058893900    0.0058332200
  -0.0214821100   -0.0058982700    0.0057260200
  -0.0212187100    0.0061273000   -0.0060991000
  -0.0220522800    0.0059593600   -0.0057783400
  -0.0210337600    0.0063807600   -0.0040410900
  -0.0214819700    0.0056291500   -0.0059942900
  -0.0217098900    0.0056402200   -0.0058854800
  -0.0213725800    0.0054532400   -0.0060184600
  -0.0199691500    0.0100942700   -0.0041575700
  -0.0223227200    0.0061022600   -0.0059564700
  -0.0278204900    0.0036492000   -0.0126036900
  -0.0214470000    0.0044412700   -0.0058211800
  -0.0220760400    0.0055365200   -0.0058222800
  -0.0209867600    0.0056962500   -0.0057406300
  -0.0265164400   -0.0084982900    0.0001213200
  -0.0291699000    0.0001283400    0.0000637300
  -0.0298974500   -0.0007986100   -0.0007572200
  -0.0267067200   -0.0085900900    0.0001322000
  -0.0298839400   -0.0007780300   -0.0007474000
  -0.0291626700    0.0001289500    0.0000556700
  -0.0282607200   -0.0001575100    0.0000693700
  -0.0289013100   -0.0000397600   -0.0000164100
  -0.0291008800   -0.0002647500    0.0002294900
  -0.0282654800   -0.0001615000    0.0000747000
  -0.0290976600   -0.0002599800    0.0002210500
  -0.0289031900   -0.0000427300   -0.0000161100

1    
  0.0000000000000000  -0.0002620472546777   0.0099965659721884
   0.0182194900   -0.0250623400   -0.0316708300
   0.0182242400    0.0004250400   -0.0008521900
   0.0182231400    0.0004248200   -0.0008535800
   0.0182215300    0.0000425700   -0.0002862200
   0.0182223000   -0.0000866400   -0.0003023800
   0.0182250800   -0.0000907400   -0.0003013100
   0.0182231400   -0.0000264400    0.0004943600
   0.0182266300   -0.0001087400    0.0002598400
   0.0182247600   -0.0001061500    0.0002624400
   0.0182266800   -0.0000437000    0.0001534600
   0.0182233000   -0.0000466900    0.0001106800
   0.0182228200   -0.0000472300    0.0001109100
   0.0182338500   -0.0005520400    0.0005080600
   0.0185761900   -0.0002681600    0.0004582900
   0.0178686000   -0.0002637600    0.0004591300
   0.0182338800    0.0008323500    0.0006413100
   0.0182885200    0.0000581800    0.0000039000
   0.0181716600    0.0000568200    0.0000036900
   0.0182193800    0.0008262300    0.0006414900
   0.0181668400    0.0000604800    0.0000039000
   0.0182873700    0.0000588700    0.0000023300
   0.0182254100   -0.0005492400    0.0005073200
   0.0178767000   -0.0002663500    0.0004585000
   0.0185877300   -0.0002674000    0.0004569500
   0.0013449900   -0.0019314000    0.0017257900
   0.0011935600   -0.0021595500    0.0020300400
   0.0015119200   -0.0021535400    0.0020310800
   0.0013566600   -0.0024273800    0.0024088300
   0.0012509400   -0.0023420000    0.0025198300
   0.0014619000   -0.0023433700    0.0025190200
   0.0013785300    0.0011169400    0.0125408100
   0.0022337900   -0.0029925300    0.0032670100
   0.0004657100   -0.0030099900    0.0032703500
   0.0013622700   -0.0018128600    0.0030530000
   0.0018555000   -0.0016337500    0.0027607900
   0.0008428200   -0.0016249800    0.0027571300
   0.0013431100    0.0061294200    0.0076882800
   0.0004855400    0.0015636100   -0.0020033600
   0.0022466200    0.0015441100   -0.0020034400
   0.0013525300    0.0027414700   -0.0022161300
   0.0008535900    0.0029240700   -0.0025099000
   0.0018730000    0.0029413900   -0.0025073100
   0.0013554400    0.0026223700   -0.0035395600
   0.0015114600    0.0024024300   -0.0032393600
   0.0011980000    0.0024011700   -0.0032436600
   0.0013603000    0.0021290300   -0.0028652900
   0.0014680100    0.0022167800   -0.0027465400
   0.0012493400    0.0022150900   -0.0027465000
   0.0152641400    0.0055018300    0.0064705200
   0.0163264700    0.0037248100    0.0051515700
   0.0173035800    0.0054785300    0.0065678000
   0.0159658500    0.0034480400    0.0054013700
   0.0163240700    0.0039791500    0.0052792500
   0.0166820800    0.0034450300    0.0053976700
   0.0166786600    0.0036149500    0.0040487900
   0.0163222000    0.0038179300    0.0048306400
   0.0159570700    0.0036018800    0.0040361700
   0.0163317600    0.0040135400    0.0045868900
   0.0163238200    0.0039165900    0.0048070500
   0.0163159100    0.0040196000    0.0045887900
   0.0159650000   -0.0041252700   -0.0059827500
   0.0163264100   -0.0039177400   -0.0051938300
   0.0166932300   -0.0041280500   -0.0059869200
   0.0163174000   -0.0037180700   -0.0054321900
   0.0163277300   -0.0038176600   -0.0052169000
   0.0163356300   -0.0037209500   -0.0054443500
   0.0173997400   -0.0022203200   -0.0035837300
   0.0163181200   -0.0040083900   -0.0048761700
   0.0153225600   -0.0022530900   -0.0034982800
   0.0166861200   -0.0042915800   -0.0046301400
   0.0163245500   -0.0037536700   -0.0047488400
   0.0159653600   -0.0042835100   -0.0046197100
  -0.0135521800   -0.0023495800    0.0092331900
  -0.0215326900   -0.0056228900    0.0058465700
  -0.0296969100   -0.0021870300    0.0094152400
  -0.0216629000   -0.0063305200    0.0059402700
  -0.0215281400   -0.0059380400    0.0059606300
  -0.0213892000   -0.0063465000    0.0059388900
  -0.0217540400   -0.0060394600    0.0070213800
  -0.0215278600   -0.0057605700    0.0060639800
  -0.0212915700   -0.0060453300    0.0070328500
  -0.0215948100   -0.0057122400    0.0059781000
  -0.0215271200   -0.0057790300    0.0058662300
  -0.0214545000   -0.0057113700    0.0059762300
  -0.0212775600    0.0054826500   -0.0046977400
  -0.0215189300    0.0057669000   -0.0056545400
  -0.0217593100    0.0054773400   -0.0046875600
  -0.0214536400    0.0058158900   -0.0057412800
  -0.0215197700    0.0057487800   -0.0058527800
  -0.0215842800    0.0058116400   -0.0057438600
  -0.0294434300    0.0091360100   -0.0025022700
  -0.0215153500    0.0059010800   -0.0058750000
  -0.0134108600    0.0092960900   -0.0023225900
  -0.0213848700    0.0051935600   -0.0057809300
  -0.0215160800    0.0055846500   -0.0057595300
  -0.0216645100    0.0051812100   -0.0057810900
  -0.0287864700    0.0013576800   -0.0046781100
  -0.0282010100   -0.0003336600   -0.0014106200
  -0.0293356100   -0.0003403500   -0.0014368000
  -0.0287475800    0.0013014800   -0.0046769200
  -0.0293302500   -0.0003309400   -0.0014069600
  -0.0281964700   -0.0003399400   -0.0014361600
  -0.0287652900   -0.0000401500    0.0006978000
  -0.0289116900    0.0000874400    0.0003982100
  -0.0286182700    0.0000882300    0.0004016300
  -0.0287646600   -0.0000424000    0.0007016100
  -0.0286189000    0.0000884700    0.0003972300
  -0.0289155500    0.0000910500    0.0004010600

25   
  0.0000000000000000   0.0099993863275691   0.0001107838978550
   0.0182226700    0.0001641200    0.0003397200
   0.0181949200    0.0000602300    0.0001161500
   0.0182579200    0.0000584300    0.0001149900
   0.0182214100   -0.0002388500   -0.0001546500
   0.0182424000   -0.0001575000   -0.0000673600
   0.0182069800   -0.0001564100   -0.0000651700
   0.0181447000    0.0089156100    0.0042293500
   0.0176712000    0.0004063900   -0.0007179900
   0.0187751000    0.0004050500   -0.0007024900
   0.0182197400   -0.0016350200    0.0004273400
   0.0189539900   -0.0007399600    0.0006398800
   0.0174950800   -0.0007346900    0.0006290200
   0.0182907600    0.0097733000    0.0047676500
   0.0187053100    0.0006465400   -0.0003942600
   0.0177562200    0.0006451000   -0.0003838000
   0.0182252400   -0.0009226700    0.0005552800
   0.0177132400   -0.0006186500    0.0005255000
   0.0187459000   -0.0006130000    0.0005151000
   0.0182227600    0.0004007800    0.0003361900
   0.0182194300    0.0001065100    0.0001057900
   0.0182371100    0.0001068300    0.0001059900
   0.0182294300   -0.0002206000   -0.0001195600
   0.0182751600   -0.0001088900   -0.0000218400
   0.0181837300   -0.0001095500   -0.0000233100
   0.0016807500   -0.0861858100    0.0190816200
   0.0018258600   -0.0043567300    0.0027652500
   0.0008592100   -0.0043522600    0.0027710600
   0.0013507700    0.0000686900    0.0025446700
   0.0011325900    0.0001078700    0.0023989200
   0.0015443500    0.0001088500    0.0023986700
   0.0013556900   -0.0023719100    0.0024876400
   0.0013451800   -0.0023385600    0.0023364500
   0.0013368700   -0.0023416600    0.0023362800
   0.0013487600   -0.0021069600    0.0026140800
   0.0013235200   -0.0021606000    0.0026311600
   0.0013623500   -0.0021627000    0.0026295000
   0.0013555700    0.0031554000   -0.0038987200
   0.0018674200    0.0024704000   -0.0032428700
   0.0008285700    0.0024664000   -0.0032449600
   0.0013409100    0.0025802600   -0.0007780600
   0.0006786400    0.0019650400   -0.0019351700
   0.0020123000    0.0019693800   -0.0019335300
   0.0013587900    0.0032204500   -0.0007445700
   0.0015745200    0.0020492600   -0.0019283100
   0.0011108800    0.0020480600   -0.0019263700
   0.0013495300    0.0034053500   -0.0054282900
   0.0007712700    0.0022642100   -0.0032663900
   0.0019215600    0.0022634400   -0.0032659700
   0.0166311600    0.0021135800    0.0042578300
   0.0163192800    0.0035281100    0.0049447600
   0.0160003500    0.0021122100    0.0042377600
   0.0163533300    0.0048227800    0.0050594700
   0.0163213700    0.0042052300    0.0050174300
   0.0162977000    0.0048158300    0.0050512900
   0.0155548500    0.0013890200    0.0047038100
   0.0163221300    0.0034888500    0.0050326000
   0.0170999400    0.0013837700    0.0047208900
   0.0162361300    0.0049842500    0.0050358600
   0.0163214400    0.0042964900    0.0051153800
   0.0164100100    0.0049861700    0.0050454300
   0.0207561100    0.0031688400   -0.0044723300
   0.0163229100   -0.0038626200   -0.0050507100
   0.0119110500    0.0031791000   -0.0044436200
   0.0101739800    0.0041970800   -0.0042140900
   0.0163236700   -0.0040101500   -0.0049426500
   0.0224586800    0.0041763800   -0.0042126900
   0.0163916700   -0.0038737000   -0.0051130200
   0.0163203300   -0.0038535500   -0.0050632600
   0.0162550600   -0.0038737300   -0.0051149500
   0.0161865400   -0.0040139700   -0.0052235300
   0.0163210900   -0.0038828200   -0.0050469200
   0.0164601300   -0.0040134100   -0.0052202800
  -0.0222384000   -0.0059956300    0.0075023700
  -0.0215156700   -0.0056801000    0.0060800200
  -0.0207982000   -0.0060080400    0.0074960000
  -0.0209488500   -0.0060264800    0.0042290600
  -0.0215115700   -0.0058857200    0.0056692300
  -0.0220903600   -0.0060239500    0.0042256700
  -0.0221263300   -0.0053172500    0.0049017000
  -0.0215142600   -0.0055375700    0.0057256600
  -0.0209004700   -0.0053201600    0.0048986700
  -0.0202732600   -0.0062037800    0.0069097600
  -0.0215145200   -0.0060258600    0.0060478800
  -0.0227667300   -0.0062108600    0.0069138000
  -0.0152201500    0.0140114200   -0.0069855700
  -0.0215066500    0.0060639400   -0.0057932500
  -0.0279003900    0.0139920800   -0.0070291600
  -0.0218723800    0.0023221500   -0.0061618500
  -0.0215086000    0.0053402200   -0.0058214300
  -0.0211364800    0.0023184200   -0.0061610600
  -0.0214966900    0.0057003300   -0.0055699000
  -0.0215070300    0.0058420700   -0.0057816700
  -0.0215356100    0.0057009700   -0.0055737100
  -0.0215037700    0.0056350600   -0.0058113000
  -0.0215099800    0.0056510500   -0.0058971300
  -0.0215216800    0.0056353900   -0.0058124700
  -0.0287668200    0.0008139800   -0.0001619600
  -0.0288895200    0.0005754700   -0.0000044200
  -0.0286289400    0.0005821200   -0.0000040300
  -0.0287690500   -0.0006309000    0.0004111000
  -0.0287259900   -0.0003536100    0.0001541100
  -0.0287971100   -0.0003555900    0.0001544000
  -0.0289783000    0.0308517300   -0.0224018800
  -0.0279653700    0.0012812200    0.0003063900
  -0.0295688200    0.0012883100    0.0003152000
  -0.0287644200   -0.0021452600   -0.0009891800
  -0.0298399200   -0.0012679300   -0.0011144400
  -0.0276829000   -0.0012799400   -0.0011306400

25   
  0.0000000000000000  -0.0099993863275691  -0.0001107838978550
   0.0182267500   -0.0001610000   -0.0003375300
   0.0182563600   -0.0000562700   -0.0001143700
   0.0181861900   -0.0000542700   -0.0001155500
   0.0182226600    0.0002388900    0.0001566100
   0.0182039200    0.0001568600    0.0000656700
   0.0182425800    0.0001553800    0.0000653800
   0.0182970200   -0.0085371000   -0.0037158700
   0.0187861800   -0.0004024800    0.0007204500
   0.0176697500   -0.0003988900    0.0007086300
   0.0182331600    0.0016471300   -0.0004300700
   0.0174893500    0.0007410500   -0.0006451500
   0.0189544700    0.0007344000   -0.0006335900
   0.0181654100   -0.0101741400   -0.0052721600
   0.0177466700   -0.0006531100    0.0003985700
   0.0186997700   -0.0006458800    0.0003907300
   0.0182285400    0.0009232700   -0.0005537700
   0.0187412100    0.0006197200   -0.0005203100
   0.0177160200    0.0006120900   -0.0005103200
   0.0182304500   -0.0004096900   -0.0003393300
   0.0182401900   -0.0001083100   -0.0001062900
   0.0182162800   -0.0001105700   -0.0001082800
   0.0182285200    0.0002227600    0.0001180800
   0.0181807200    0.0001107600    0.0000207600
   0.0182722400    0.0001098400    0.0000213000
   0.0009859400    0.0830690300   -0.0153632600
   0.0008502400   -0.0001952800    0.0025069900
   0.0018520800   -0.0001903700    0.0025122500
   0.0013507400   -0.0046366200    0.0027251200
   0.0015816200   -0.0046684400    0.0028674800
   0.0011422400   -0.0046685700    0.0028662100
   0.0013541900   -0.0021862800    0.0027795500
   0.0013514300   -0.0022137800    0.0029339700
   0.0013681600   -0.0022167600    0.0029347100
   0.0013521200   -0.0024482600    0.0026560900
   0.0013702900   -0.0024000800    0.0026367200
   0.0013405300   -0.0024018500    0.0026341400
   0.0013462900    0.0014091600   -0.0013733500
   0.0008433100    0.0020880100   -0.0020239300
   0.0018748900    0.0020832100   -0.0020265200
   0.0013638500    0.0019806800   -0.0044978200
   0.0020240100    0.0025930800   -0.0033407800
   0.0006936700    0.0025985900   -0.0033372100
   0.0013339100    0.0013401100   -0.0045114600
   0.0011231400    0.0025086400   -0.0033385100
   0.0015939000    0.0025075600   -0.0033364500
   0.0013577200    0.0011427700    0.0001790800
   0.0019412600    0.0022962100   -0.0019961200
   0.0007771200    0.0022954600   -0.0019964600
   0.0159878400    0.0056178400    0.0058017600
   0.0163249000    0.0042041000    0.0050817500
   0.0166689600    0.0056300000    0.0058308300
   0.0162960300    0.0029171700    0.0049685400
   0.0163249400    0.0035298400    0.0050082700
   0.0163495500    0.0029109000    0.0049633500
   0.0170674400    0.0063562200    0.0052937500
   0.0163223100    0.0042468000    0.0049945600
   0.0155622800    0.0063529900    0.0052678400
   0.0164091800    0.0027444800    0.0049885500
   0.0163249200    0.0034394400    0.0049122300
   0.0162367300    0.0027497100    0.0049917300
   0.0119479600   -0.0108699200   -0.0055585000
   0.0163261300   -0.0038804400   -0.0049746800
   0.0206816300   -0.0108688000   -0.0055790400
   0.0225509400   -0.0120027700   -0.0058121700
   0.0163278300   -0.0037171500   -0.0050809500
   0.0101171700   -0.0119918500   -0.0058277400
   0.0162545400   -0.0038619600   -0.0049063200
   0.0163229500   -0.0038856100   -0.0049644800
   0.0163904300   -0.0038718100   -0.0049145100
   0.0164617300   -0.0037177200   -0.0048066100
   0.0163259500   -0.0038477400   -0.0049812100
   0.0161851100   -0.0037105000   -0.0047966500
  -0.0208073100   -0.0055237800    0.0042210000
  -0.0215291800   -0.0058426000    0.0056402900
  -0.0222322400   -0.0055133600    0.0042279100
  -0.0220931600   -0.0055009500    0.0075065900
  -0.0215257500   -0.0056366900    0.0060556800
  -0.0209564500   -0.0055090600    0.0075067200
  -0.0209049900   -0.0062032800    0.0068131600
  -0.0215307400   -0.0059875800    0.0059906500
  -0.0221349700   -0.0062008300    0.0068167200
  -0.0227777800   -0.0053217600    0.0048036900
  -0.0215267900   -0.0054992800    0.0056730200
  -0.0202570300   -0.0053124800    0.0047970400
  -0.0279108000   -0.0026122800   -0.0047075000
  -0.0215200700    0.0054622800   -0.0059278900
  -0.0150262900   -0.0025926500   -0.0046630300
  -0.0211555100    0.0092132700   -0.0055522500
  -0.0215218200    0.0061860500   -0.0058930100
  -0.0218943000    0.0092112300   -0.0055569000
  -0.0215465400    0.0058271300   -0.0061511200
  -0.0215215800    0.0056809600   -0.0059427300
  -0.0214965200    0.0058259600   -0.0061472400
  -0.0215274400    0.0058890800   -0.0059092600
  -0.0215207300    0.0058711200   -0.0058214900
  -0.0215137100    0.0058897300   -0.0059091400
  -0.0287620300   -0.0008256500    0.0001605100
  -0.0286335800   -0.0005855900    0.0000014900
  -0.0289045200   -0.0005918500    0.0000045100
  -0.0287610500    0.0006355300   -0.0004103800
  -0.0288032100    0.0003567100   -0.0001514800
  -0.0287278200    0.0003549500   -0.0001530300
  -0.0285322200   -0.0319645200    0.0238322000
  -0.0295628000   -0.0012931200   -0.0003077600
  -0.0279601200   -0.0013019700   -0.0003164600
  -0.0287628500    0.0021371100    0.0009909000
  -0.0276913300    0.0012723100    0.0011032900
  -0.0298412800    0.0012860100    0.0011209400

25   
  0.0100000000000000   0.0000000000000000   0.0000000000000000
   0.0198696500    0.0000083000   -0.0000043400
   0.0173365200   -0.0005716900    0.0001469900
   0.0173360600    0.0005611600   -0.0001430400
   0.0189045400   -0.0000006300   -0.0000005900
   0.0178906700    0.0001256000    0.0001076100
   0.0178921200   -0.0001263700   -0.0001090300
   0.0246370000   -0.0000002600    0.0000037500
   0.0168185600   -0.0006379500   -0.0009104600
   0.0168308600    0.0006264700    0.0008844300
   0.0197029700   -0.0000084200    0.0000054700
   0.0173045300    0.0002690800   -0.0005051200
   0.0173016900   -0.0002661200    0.0004982100
   0.0246214900   -0.0000018500    0.0000010500
   0.0168058700    0.0008930800    0.0006755800
   0.0168191200   -0.0008653400   -0.0006599900
   0.0198755500    0.0000068100   -0.0000083100
   0.0173422300   -0.0001647500    0.0005681400
   0.0173428600    0.0001618200   -0.0005574600
   0.0197024100   -0.0000070100    0.0000071900
   0.0173098800    0.0005155700   -0.0002511300
   0.0173068500   -0.0005061300    0.0002460700
   0.0189124900    0.0000019300    0.0000012800
   0.0178953700   -0.0001031500   -0.0001292200
   0.0178948400    0.0001037600    0.0001298700
  -0.1448267700   -0.0028636900    0.0031978500
   0.0120112800   -0.0027930100    0.0031475400
   0.0119314800   -0.0017860400    0.0021470700
  -0.0030716900   -0.0022705200    0.0026289000
   0.0038063600   -0.0020761500    0.0026456800
   0.0038035900   -0.0024934200    0.0026275200
  -0.0030700600   -0.0022733200    0.0026238600
   0.0037998800   -0.0022842000    0.0024302400
   0.0037960500   -0.0022823900    0.0028462600
  -0.0002277900   -0.0022752100    0.0026329400
   0.0021125300   -0.0022617300    0.0026148400
   0.0021168400   -0.0023046800    0.0026524700
  -0.0030220100    0.0022761400   -0.0026271800
   0.0022102000    0.0028064400   -0.0031312500
   0.0022040900    0.0017590500   -0.0021398700
  -0.0014351700    0.0022878400   -0.0026072800
   0.0030827700    0.0016117500   -0.0028898700
   0.0030928600    0.0029486200   -0.0023811600
  -0.0014422200    0.0022539600   -0.0026420600
   0.0030798900    0.0025121700   -0.0019594800
   0.0030894100    0.0020546400   -0.0033082300
  -0.0019501900    0.0022882000   -0.0026487600
   0.0028029000    0.0016987200   -0.0020735100
   0.0028082900    0.0028629800   -0.0031972900
   0.0183250300    0.0033482200   -0.0031818800
   0.0179015000    0.0038663600    0.0050080900
   0.0183511400    0.0043951100    0.0131936600
   0.0159915200    0.0037960700    0.0042916300
   0.0169316500    0.0038691100    0.0050138500
   0.0159920600    0.0039410000    0.0057312700
   0.0185232100    0.0032117700    0.0128382000
   0.0179208300    0.0038681400    0.0050156100
   0.0185128400    0.0045302100   -0.0027692900
   0.0159550200    0.0038020400    0.0056722800
   0.0170545400    0.0038686400    0.0050120000
   0.0159522600    0.0039322700    0.0043545700
   0.0183368600    0.0042983900   -0.0041940600
   0.0179046400   -0.0038632800   -0.0050111500
   0.0183633300   -0.0120203500   -0.0058392800
   0.0185308600   -0.0117157100   -0.0046392600
   0.0179246100   -0.0038708100   -0.0050112700
   0.0185203000    0.0039349300   -0.0053958400
   0.0159885900   -0.0031439700   -0.0049103700
   0.0169293300   -0.0038688500   -0.0050148300
   0.0159907000   -0.0045906600   -0.0051167200
   0.0159568500   -0.0045324800   -0.0049775000
   0.0170547200   -0.0038669900   -0.0050141500
   0.0159522300   -0.0032030000   -0.0050454400
  -0.0192317800   -0.0077500300    0.0077798600
  -0.0224931800   -0.0057630200    0.0058615000
  -0.0192354700   -0.0037938700    0.0039588900
  -0.0209280700   -0.0049250300    0.0069895100