phonopy:
  version: 2.9.3
  frequency_unit_conversion_factor: 15.633302
  symmetry_tolerance: 1.00000e-05
  nac_unit_conversion_factor: 14.399652

physical_unit:
  atomic_mass: "AMU"

primitive_matrix:
- [  1.000000000000000,  0.000000000000000,  0.000000000000000 ]
- [  0.000000000000000,  1.000000000000000,  0.000000000000000 ]
- [  0.000000000000000,  0.000000000000000,  1.000000000000000 ]

supercell_matrix:
- [   3,   0,   0 ]
- [   0,   2,   0 ]
- [   0,   0,   2 ]

primitive_cell:
  lattice:
  - [     3.836789490000000,     0.000000000000000,     0.000000000000000 ] # a
  - [     0.000000000000000,     5.663354580000000,     0.062744700000000 ] # b
  - [     0.000000000000000,    -0.148415760000000,     5.661757220000000 ] # c
  points:
  - symbol: Li # 1
    coordinates: [  0.315398840000002,  0.500000000000000,  0.000000000000000 ]
    mass: 6.941000
  - symbol: Li # 2
    coordinates: [  0.315398840000002,  0.000000000000000,  0.500000000000000 ]
    mass: 6.941000
  - symbol: O  # 3
    coordinates: [  0.318447169999989,  0.250553249999999,  0.749446749999998 ]
    mass: 15.999400
  - symbol: O  # 4
    coordinates: [  0.318447169999989,  0.749446750000001,  0.250553250000002 ]
    mass: 15.999400
  - symbol: S  # 5
    coordinates: [  0.818396530000008,  0.236189430000005,  0.236189429999999 ]
    mass: 32.065000
  - symbol: S  # 6
    coordinates: [  0.818396530000008,  0.763810569999995,  0.763810570000001 ]
    mass: 32.065000
  - symbol: Fe # 7
    coordinates: [  0.818614530000003,  0.678148539999999,  0.321851460000004 ]
    mass: 55.845000
  - symbol: Fe # 8
    coordinates: [  0.818614530000003,  0.321851460000001,  0.678148539999996 ]
    mass: 55.845000
  - symbol: Fe # 9
    coordinates: [  0.321933869999993,  0.000000000000000,  0.000000000000000 ]
    mass: 55.845000
  reciprocal_lattice: # without 2pi
  - [     0.260634575497651,     0.000000000000000,     0.000000000000000 ] # a*
  - [     0.000000000000000,     0.176522526797147,     0.004627313385882 ] # b*
  - [     0.000000000000000,    -0.001956257140098,     0.176572329360636 ] # c*

unit_cell:
  lattice:
  - [     3.836789490000000,     0.000000000000000,     0.000000000000000 ] # a
  - [     0.000000000000000,     5.663354580000000,     0.062744700000000 ] # b
  - [     0.000000000000000,    -0.148415760000000,     5.661757220000000 ] # c
  points:
  - symbol: Li # 1
    coordinates: [  0.315398840000002,  0.500000000000000,  0.000000000000000 ]
    mass: 6.941000
    reduced_to: 1
  - symbol: Li # 2
    coordinates: [  0.315398840000002, -0.000000000000000,  0.500000000000000 ]
    mass: 6.941000
    reduced_to: 2
  - symbol: O  # 3
    coordinates: [  0.318447169999989,  0.250553249999999,  0.749446749999998 ]
    mass: 15.999400
    reduced_to: 3
  - symbol: O  # 4
    coordinates: [  0.318447169999989,  0.749446750000001,  0.250553250000002 ]
    mass: 15.999400
    reduced_to: 4
  - symbol: S  # 5
    coordinates: [  0.818396530000008,  0.236189430000005,  0.236189429999999 ]
    mass: 32.065000
    reduced_to: 5
  - symbol: S  # 6
    coordinates: [  0.818396530000008,  0.763810569999995,  0.763810570000001 ]
    mass: 32.065000
    reduced_to: 6
  - symbol: Fe # 7
    coordinates: [  0.818614530000003,  0.678148539999999,  0.321851460000004 ]
    mass: 55.845000
    reduced_to: 7
  - symbol: Fe # 8
    coordinates: [  0.818614530000003,  0.321851460000001,  0.678148539999996 ]
    mass: 55.845000
    reduced_to: 8
  - symbol: Fe # 9
    coordinates: [  0.321933869999993,  0.000000000000000,  0.000000000000000 ]
    mass: 55.845000
    reduced_to: 9

supercell:
  lattice:
  - [    11.510368470000000,     0.000000000000000,     0.000000000000000 ] # a
  - [     0.000000000000000,    11.326709160000000,     0.125489400000000 ] # b
  - [     0.000000000000000,    -0.296831520000000,    11.323514440000000 ] # c
  points:
  - symbol: Li # 1
    coordinates: [  0.105132946666667,  0.250000000000000,  0.000000000000000 ]
    mass: 6.941000
    reduced_to: 1
  - symbol: Li # 2
    coordinates: [  0.438466280000001,  0.250000000000000,  0.000000000000000 ]
    mass: 6.941000
    reduced_to: 1
  - symbol: Li # 3
    coordinates: [  0.771799613333334,  0.250000000000000,  0.000000000000000 ]
    mass: 6.941000
    reduced_to: 1
  - symbol: Li # 4
    coordinates: [  0.105132946666667,  0.750000000000000,  0.000000000000000 ]
    mass: 6.941000
    reduced_to: 1
  - symbol: Li # 5
    coordinates: [  0.438466280000001,  0.750000000000000,  0.000000000000000 ]
    mass: 6.941000
    reduced_to: 1
  - symbol: Li # 6
    coordinates: [  0.771799613333334,  0.750000000000000,  0.000000000000000 ]
    mass: 6.941000
    reduced_to: 1
  - symbol: Li # 7
    coordinates: [  0.105132946666667,  0.250000000000000,  0.500000000000000 ]
    mass: 6.941000
    reduced_to: 1
  - symbol: Li # 8
    coordinates: [  0.438466280000001,  0.250000000000000,  0.500000000000000 ]
    mass: 6.941000
    reduced_to: 1
  - symbol: Li # 9
    coordinates: [  0.771799613333334,  0.250000000000000,  0.500000000000000 ]
    mass: 6.941000
    reduced_to: 1
  - symbol: Li # 10
    coordinates: [  0.105132946666667,  0.750000000000000,  0.500000000000000 ]
    mass: 6.941000
    reduced_to: 1
  - symbol: Li # 11
    coordinates: [  0.438466280000001,  0.750000000000000,  0.500000000000000 ]
    mass: 6.941000
    reduced_to: 1
  - symbol: Li # 12
    coordinates: [  0.771799613333334,  0.750000000000000,  0.500000000000000 ]
    mass: 6.941000
    reduced_to: 1
  - symbol: Li # 13
    coordinates: [  0.105132946666667,  1.000000000000000,  0.250000000000000 ]
    mass: 6.941000
    reduced_to: 13
  - symbol: Li # 14
    coordinates: [  0.438466280000001,  1.000000000000000,  0.250000000000000 ]
    mass: 6.941000
    reduced_to: 13
  - symbol: Li # 15
    coordinates: [  0.771799613333334,  1.000000000000000,  0.250000000000000 ]
    mass: 6.941000
    reduced_to: 13
  - symbol: Li # 16
    coordinates: [  0.105132946666667,  0.500000000000000,  0.250000000000000 ]
    mass: 6.941000
    reduced_to: 13
  - symbol: Li # 17
    coordinates: [  0.438466280000001,  0.500000000000000,  0.250000000000000 ]
    mass: 6.941000
    reduced_to: 13
  - symbol: Li # 18
    coordinates: [  0.771799613333334,  0.500000000000000,  0.250000000000000 ]
    mass: 6.941000
    reduced_to: 13
  - symbol: Li # 19
    coordinates: [  0.105132946666667,  1.000000000000000,  0.750000000000000 ]
    mass: 6.941000
    reduced_to: 13
  - symbol: Li # 20
    coordinates: [  0.438466280000001,  1.000000000000000,  0.750000000000000 ]
    mass: 6.941000
    reduced_to: 13
  - symbol: Li # 21
    coordinates: [  0.771799613333334,  1.000000000000000,  0.750000000000000 ]
    mass: 6.941000
    reduced_to: 13
  - symbol: Li # 22
    coordinates: [  0.105132946666667,  0.500000000000000,  0.750000000000000 ]
    mass: 6.941000
    reduced_to: 13
  - symbol: Li # 23
    coordinates: [  0.438466280000001,  0.500000000000000,  0.750000000000000 ]
    mass: 6.941000
    reduced_to: 13
  - symbol: Li # 24
    coordinates: [  0.771799613333334,  0.500000000000000,  0.750000000000000 ]
    mass: 6.941000
    reduced_to: 13
  - symbol: O  # 25
    coordinates: [  0.106149056666663,  0.125276625000000,  0.374723374999999 ]
    mass: 15.999400
    reduced_to: 25
  - symbol: O  # 26
    coordinates: [  0.439482389999996,  0.125276625000000,  0.374723374999999 ]
    mass: 15.999400
    reduced_to: 25
  - symbol: O  # 27
    coordinates: [  0.772815723333329,  0.125276625000000,  0.374723374999999 ]
    mass: 15.999400
    reduced_to: 25
  - symbol: O  # 28
    coordinates: [  0.106149056666663,  0.625276625000000,  0.374723374999999 ]
    mass: 15.999400
    reduced_to: 25
  - symbol: O  # 29
    coordinates: [  0.439482389999996,  0.625276625000000,  0.374723374999999 ]
    mass: 15.999400
    reduced_to: 25
  - symbol: O  # 30
    coordinates: [  0.772815723333329,  0.625276625000000,  0.374723374999999 ]
    mass: 15.999400
    reduced_to: 25
  - symbol: O  # 31
    coordinates: [  0.106149056666663,  0.125276625000000,  0.874723374999999 ]
    mass: 15.999400
    reduced_to: 25
  - symbol: O  # 32
    coordinates: [  0.439482389999996,  0.125276625000000,  0.874723374999999 ]
    mass: 15.999400
    reduced_to: 25
  - symbol: O  # 33
    coordinates: [  0.772815723333329,  0.125276625000000,  0.874723374999999 ]
    mass: 15.999400
    reduced_to: 25
  - symbol: O  # 34
    coordinates: [  0.106149056666663,  0.625276625000000,  0.874723374999999 ]
    mass: 15.999400
    reduced_to: 25
  - symbol: O  # 35
    coordinates: [  0.439482389999996,  0.625276625000000,  0.874723374999999 ]
    mass: 15.999400
    reduced_to: 25
  - symbol: O  # 36
    coordinates: [  0.772815723333329,  0.625276625000000,  0.874723374999999 ]
    mass: 15.999400
    reduced_to: 25
  - symbol: O  # 37
    coordinates: [  0.106149056666663,  0.374723375000001,  0.125276625000001 ]
    mass: 15.999400
    reduced_to: 37
  - symbol: O  # 38
    coordinates: [  0.439482389999996,  0.374723375000001,  0.125276625000001 ]
    mass: 15.999400
    reduced_to: 37
  - symbol: O  # 39
    coordinates: [  0.772815723333329,  0.374723375000001,  0.125276625000001 ]
    mass: 15.999400
    reduced_to: 37
  - symbol: O  # 40
    coordinates: [  0.106149056666663,  0.874723375000001,  0.125276625000001 ]
    mass: 15.999400
    reduced_to: 37
  - symbol: O  # 41
    coordinates: [  0.439482389999996,  0.874723375000001,  0.125276625000001 ]
    mass: 15.999400
    reduced_to: 37
  - symbol: O  # 42
    coordinates: [  0.772815723333329,  0.874723375000001,  0.125276625000001 ]
    mass: 15.999400
    reduced_to: 37
  - symbol: O  # 43
    coordinates: [  0.106149056666663,  0.374723375000001,  0.625276625000001 ]
    mass: 15.999400
    reduced_to: 37
  - symbol: O  # 44
    coordinates: [  0.439482389999996,  0.374723375000001,  0.625276625000001 ]
    mass: 15.999400
    reduced_to: 37
  - symbol: O  # 45
    coordinates: [  0.772815723333329,  0.374723375000001,  0.625276625000001 ]
    mass: 15.999400
    reduced_to: 37
  - symbol: O  # 46
    coordinates: [  0.106149056666663,  0.874723375000001,  0.625276625000001 ]
    mass: 15.999400
    reduced_to: 37
  - symbol: O  # 47
    coordinates: [  0.439482389999996,  0.874723375000001,  0.625276625000001 ]
    mass: 15.999400
    reduced_to: 37
  - symbol: O  # 48
    coordinates: [  0.772815723333329,  0.874723375000001,  0.625276625000001 ]
    mass: 15.999400
    reduced_to: 37
  - symbol: S  # 49
    coordinates: [  0.272798843333336,  0.118094715000002,  0.118094714999999 ]
    mass: 32.065000
    reduced_to: 49
  - symbol: S  # 50
    coordinates: [  0.606132176666669,  0.118094715000002,  0.118094714999999 ]
    mass: 32.065000
    reduced_to: 49
  - symbol: S  # 51
    coordinates: [  0.939465510000003,  0.118094715000002,  0.118094714999999 ]
    mass: 32.065000
    reduced_to: 49
  - symbol: S  # 52
    coordinates: [  0.272798843333336,  0.618094715000002,  0.118094714999999 ]
    mass: 32.065000
    reduced_to: 49
  - symbol: S  # 53
    coordinates: [  0.606132176666669,  0.618094715000002,  0.118094714999999 ]
    mass: 32.065000
    reduced_to: 49
  - symbol: S  # 54
    coordinates: [  0.939465510000003,  0.618094715000002,  0.118094714999999 ]
    mass: 32.065000
    reduced_to: 49
  - symbol: S  # 55
    coordinates: [  0.272798843333336,  0.118094715000002,  0.618094714999999 ]
    mass: 32.065000
    reduced_to: 49
  - symbol: S  # 56
    coordinates: [  0.606132176666669,  0.118094715000002,  0.618094714999999 ]
    mass: 32.065000
    reduced_to: 49
  - symbol: S  # 57
    coordinates: [  0.939465510000003,  0.118094715000002,  0.618094714999999 ]
    mass: 32.065000
    reduced_to: 49
  - symbol: S  # 58
    coordinates: [  0.272798843333336,  0.618094715000002,  0.618094714999999 ]
    mass: 32.065000
    reduced_to: 49
  - symbol: S  # 59
    coordinates: [  0.606132176666669,  0.618094715000002,  0.618094714999999 ]
    mass: 32.065000
    reduced_to: 49
  - symbol: S  # 60
    coordinates: [  0.939465510000003,  0.618094715000002,  0.618094714999999 ]
    mass: 32.065000
    reduced_to: 49
  - symbol: S  # 61
    coordinates: [  0.272798843333336,  0.381905284999998,  0.381905285000000 ]
    mass: 32.065000
    reduced_to: 61
  - symbol: S  # 62
    coordinates: [  0.606132176666669,  0.381905284999998,  0.381905285000000 ]
    mass: 32.065000
    reduced_to: 61
  - symbol: S  # 63
    coordinates: [  0.939465510000003,  0.381905284999998,  0.381905285000000 ]
    mass: 32.065000
    reduced_to: 61
  - symbol: S  # 64
    coordinates: [  0.272798843333336,  0.881905284999998,  0.381905285000000 ]
    mass: 32.065000
    reduced_to: 61
  - symbol: S  # 65
    coordinates: [  0.606132176666669,  0.881905284999998,  0.381905285000000 ]
    mass: 32.065000
    reduced_to: 61
  - symbol: S  # 66
    coordinates: [  0.939465510000003,  0.881905284999998,  0.381905285000000 ]
    mass: 32.065000
    reduced_to: 61
  - symbol: S  # 67
    coordinates: [  0.272798843333336,  0.381905284999998,  0.881905285000000 ]
    mass: 32.065000
    reduced_to: 61
  - symbol: S  # 68
    coordinates: [  0.606132176666669,  0.381905284999998,  0.881905285000000 ]
    mass: 32.065000
    reduced_to: 61
  - symbol: S  # 69
    coordinates: [  0.939465510000003,  0.381905284999998,  0.881905285000000 ]
    mass: 32.065000
    reduced_to: 61
  - symbol: S  # 70
    coordinates: [  0.272798843333336,  0.881905284999998,  0.881905285000000 ]
    mass: 32.065000
    reduced_to: 61
  - symbol: S  # 71
    coordinates: [  0.606132176666669,  0.881905284999998,  0.881905285000000 ]
    mass: 32.065000
    reduced_to: 61
  - symbol: S  # 72
    coordinates: [  0.939465510000003,  0.881905284999998,  0.881905285000000 ]
    mass: 32.065000
    reduced_to: 61
  - symbol: Fe # 73
    coordinates: [  0.272871510000001,  0.339074270000000,  0.160925730000002 ]
    mass: 55.845000
    reduced_to: 73
  - symbol: Fe # 74
    coordinates: [  0.606204843333334,  0.339074270000000,  0.160925730000002 ]
    mass: 55.845000
    reduced_to: 73
  - symbol: Fe # 75
    coordinates: [  0.939538176666668,  0.339074270000000,  0.160925730000002 ]
    mass: 55.845000
    reduced_to: 73
  - symbol: Fe # 76
    coordinates: [  0.272871510000001,  0.839074270000000,  0.160925730000002 ]
    mass: 55.845000
    reduced_to: 73
  - symbol: Fe # 77
    coordinates: [  0.606204843333334,  0.839074270000000,  0.160925730000002 ]
    mass: 55.845000
    reduced_to: 73
  - symbol: Fe # 78
    coordinates: [  0.939538176666668,  0.839074270000000,  0.160925730000002 ]
    mass: 55.845000
    reduced_to: 73
  - symbol: Fe # 79
    coordinates: [  0.272871510000001,  0.339074270000000,  0.660925730000002 ]
    mass: 55.845000
    reduced_to: 73
  - symbol: Fe # 80
    coordinates: [  0.606204843333334,  0.339074270000000,  0.660925730000002 ]
    mass: 55.845000
    reduced_to: 73
  - symbol: Fe # 81
    coordinates: [  0.939538176666668,  0.339074270000000,  0.660925730000002 ]
    mass: 55.845000
    reduced_to: 73
  - symbol: Fe # 82
    coordinates: [  0.272871510000001,  0.839074270000000,  0.660925730000002 ]
    mass: 55.845000
    reduced_to: 73
  - symbol: Fe # 83
    coordinates: [  0.606204843333334,  0.839074270000000,  0.660925730000002 ]
    mass: 55.845000
    reduced_to: 73
  - symbol: Fe # 84
    coordinates: [  0.939538176666668,  0.839074270000000,  0.660925730000002 ]
    mass: 55.845000
    reduced_to: 73
  - symbol: Fe # 85
    coordinates: [  0.272871510000001,  0.160925730000000,  0.339074269999998 ]
    mass: 55.845000
    reduced_to: 85
  - symbol: Fe # 86
    coordinates: [  0.606204843333334,  0.160925730000000,  0.339074269999998 ]
    mass: 55.845000
    reduced_to: 85
  - symbol: Fe # 87
    coordinates: [  0.939538176666668,  0.160925730000000,  0.339074269999998 ]
    mass: 55.845000
    reduced_to: 85
  - symbol: Fe # 88
    coordinates: [  0.272871510000001,  0.660925730000000,  0.339074269999998 ]
    mass: 55.845000
    reduced_to: 85
  - symbol: Fe # 89
    coordinates: [  0.606204843333334,  0.660925730000000,  0.339074269999998 ]
    mass: 55.845000
    reduced_to: 85
  - symbol: Fe # 90
    coordinates: [  0.939538176666668,  0.660925730000000,  0.339074269999998 ]
    mass: 55.845000
    reduced_to: 85
  - symbol: Fe # 91
    coordinates: [  0.272871510000001,  0.160925730000000,  0.839074269999998 ]
    mass: 55.845000
    reduced_to: 85
  - symbol: Fe # 92
    coordinates: [  0.606204843333334,  0.160925730000000,  0.839074269999998 ]
    mass: 55.845000
    reduced_to: 85
  - symbol: Fe # 93
    coordinates: [  0.939538176666668,  0.160925730000000,  0.839074269999998 ]
    mass: 55.845000
    reduced_to: 85
  - symbol: Fe # 94
    coordinates: [  0.272871510000001,  0.660925730000000,  0.839074269999998 ]
    mass: 55.845000
    reduced_to: 85
  - symbol: Fe # 95
    coordinates: [  0.606204843333334,  0.660925730000000,  0.839074269999998 ]
    mass: 55.845000
    reduced_to: 85
  - symbol: Fe # 96
    coordinates: [  0.939538176666668,  0.660925730000000,  0.839074269999998 ]
    mass: 55.845000
    reduced_to: 85
  - symbol: Fe # 97
    coordinates: [  0.107311289999998,  0.000000000000000,  0.000000000000000 ]
    mass: 55.845000
    reduced_to: 97
  - symbol: Fe # 98
    coordinates: [  0.440644623333331,  0.000000000000000,  0.000000000000000 ]
    mass: 55.845000
    reduced_to: 97
  - symbol: Fe # 99
    coordinates: [  0.773977956666664,  0.000000000000000,  0.000000000000000 ]
    mass: 55.845000
    reduced_to: 97
  - symbol: Fe # 100
    coordinates: [  0.107311289999998,  0.500000000000000,  0.000000000000000 ]
    mass: 55.845000
    reduced_to: 97
  - symbol: Fe # 101
    coordinates: [  0.440644623333331,  0.500000000000000,  0.000000000000000 ]
    mass: 55.845000
    reduced_to: 97
  - symbol: Fe # 102
    coordinates: [  0.773977956666664,  0.500000000000000,  0.000000000000000 ]
    mass: 55.845000
    reduced_to: 97
  - symbol: Fe # 103
    coordinates: [  0.107311289999998,  0.000000000000000,  0.500000000000000 ]
    mass: 55.845000
    reduced_to: 97
  - symbol: Fe # 104
    coordinates: [  0.440644623333331,  0.000000000000000,  0.500000000000000 ]
    mass: 55.845000
    reduced_to: 97
  - symbol: Fe # 105
    coordinates: [  0.773977956666664,  0.000000000000000,  0.500000000000000 ]
    mass: 55.845000
    reduced_to: 97
  - symbol: Fe # 106
    coordinates: [  0.107311289999998,  0.500000000000000,  0.500000000000000 ]
    mass: 55.845000
    reduced_to: 97
  - symbol: Fe # 107
    coordinates: [  0.440644623333331,  0.500000000000000,  0.500000000000000 ]
    mass: 55.845000
    reduced_to: 97
  - symbol: Fe # 108
    coordinates: [  0.773977956666664,  0.500000000000000,  0.500000000000000 ]
    mass: 55.845000
    reduced_to: 97

born_effective_charge:
- # 1 (Li)
  - [  1.238630500000000,  0.000000000000000,  0.000000000000000 ]
  - [  0.000000000000000,  1.258323358608597, -0.151978410735010 ]
  - [  0.000000000000000, -0.169059171042392,  1.046619982502515 ]
- # 2 (Li)
  - [  1.238630500000000,  0.000000000000000,  0.000000000000000 ]
  - [  0.000000000000000,  1.058873396716743, -0.176499378478217 ]
  - [  0.000000000000000, -0.159418618784238,  1.246069944394368 ]
- # 3 (O)
  - [ -3.231661415000000,  0.003663965592692, -0.003529834798672 ]
  - [  0.003141760454697, -2.220803892741902,  0.268228803756794 ]
  - [ -0.003026746600708,  0.268228804257687, -2.200792076146987 ]
- # 4 (O)
  - [ -3.231661415000000, -0.003663965592692,  0.003529834798672 ]
  - [ -0.003141760454697, -2.220803892741902,  0.268228803756794 ]
  - [  0.003026746600708,  0.268228804257687, -2.200792076146987 ]
- # 5 (S)
  - [ -1.738659385000000, -0.000439313595662, -0.000456007146993 ]
  - [ -0.002135851259955, -2.494163668850209, -0.032170543848906 ]
  - [ -0.002217011835944, -0.032170543908982, -2.496563825038680 ]
- # 6 (S)
  - [ -1.738659385000000,  0.000439313595662,  0.000456007146993 ]
  - [  0.002135851259955, -2.494163668850209, -0.032170543848906 ]
  - [  0.002217011835944, -0.032170543908982, -2.496563825038680 ]
- # 7 (Fe)
  - [  2.593319485000000,  0.000543969208755, -0.000524055533245 ]
  - [  0.001265261205187,  2.366684368757596, -0.069944215554658 ]
  - [ -0.001218942407300, -0.069944215685273,  2.361466022353516 ]
- # 8 (Fe)
  - [  2.593319485000000, -0.000543969208755,  0.000524055533245 ]
  - [ -0.001265261205187,  2.366684368757596, -0.069944215554658 ]
  - [  0.001218942407300, -0.069944215685273,  2.361466022353516 ]
- # 9 (Fe)
  - [  2.276741630000000,  0.000000000000000,  0.000000000000000 ]
  - [  0.000000000000000,  2.379369630343691, -0.003750299493232 ]
  - [  0.000000000000000, -0.003750299500235,  2.379089830767421 ]

dielectric_constant:
  - [  5.573657820000000,  0.000000000000000,  0.000000000000000 ]
  - [  0.000000000000000,  6.431471628898446, -0.015290841249971 ]
  - [  0.000000000000000, -0.015290841278526,  6.430330821101555 ]

displacements:
- atom:    1
  displacement:
    [   0.0071274887435109,  0.0070137626131896,  0.0000777059646927 ]
  forces:
  - [   0.0043019800000000, -0.0262752400000000, -0.0185172600000000 ]
  - [   0.0190536700000000, -0.0006038800000000,  0.0002800200000000 ]
  - [   0.0190506400000000, -0.0006000000000000,  0.0002779000000000 ]
  - [   0.0180589200000000,  0.0002005600000000,  0.0000319400000000 ]
  - [   0.0183029200000000,  0.0002588700000000, -0.0000622000000000 ]
  - [   0.0183047500000000,  0.0002580400000000, -0.0000587700000000 ]
  - [   0.0180232300000000, -0.0002751900000000, -0.0000181900000000 ]
  - [   0.0183561000000000, -0.0002598100000000, -0.0000794600000000 ]
  - [   0.0183548900000000, -0.0002573100000000, -0.0000773100000000 ]
  - [   0.0179635200000000,  0.0001645500000000, -0.0000277500000000 ]
  - [   0.0183533000000000,  0.0001324100000000, -0.0000302700000000 ]
  - [   0.0183522600000000,  0.0001315100000000, -0.0000301000000000 ]
  - [   0.0173941100000000,  0.0003750600000000, -0.0005056200000000 ]
  - [   0.0184865300000000,  0.0000678500000000,  0.0000562500000000 ]
  - [   0.0190783200000000,  0.0005827300000000, -0.0005273000000000 ]
  - [   0.0179274900000000,  0.0004219700000000,  0.0005890400000000 ]
  - [   0.0183382100000000,  0.0000418400000000,  0.0001026500000000 ]
  - [   0.0182312200000000, -0.0000415400000000, -0.0000064700000000 ]
  - [   0.0179330000000000,  0.0004315500000000,  0.0005848600000000 ]
  - [   0.0182297100000000, -0.0000382000000000, -0.0000061300000000 ]
  - [   0.0183382100000000,  0.0000442100000000,  0.0001018800000000 ]
  - [   0.0173930300000000,  0.0003703400000000, -0.0005031100000000 ]
  - [   0.0190734100000000,  0.0005890900000000, -0.0005369300000000 ]
  - [   0.0184821200000000,  0.0000735800000000,  0.0000502400000000 ]
  - [   0.0025252300000000, -0.0021642800000000,  0.0030442500000000 ]
  - [   0.0011088800000000, -0.0022134900000000,  0.0026403800000000 ]
  - [   0.0003194800000000, -0.0022583900000000,  0.0033837500000000 ]
  - [   0.0018400300000000, -0.0024505500000000,  0.0025499100000000 ]
  - [   0.0010289100000000, -0.0024061400000000,  0.0026451900000000 ]
  - [   0.0012058900000000, -0.0023789500000000,  0.0025804600000000 ]
  - [   0.0059385000000000,  0.0036853100000000,  0.0059777700000000 ]
  - [   0.0008130800000000, -0.0016042100000000,  0.0027008100000000 ]
  - [  -0.0001037700000000, -0.0023814600000000,  0.0020149600000000 ]
  - [   0.0024041100000000, -0.0034247100000000,  0.0028472600000000 ]
  - [   0.0005148400000000, -0.0033150300000000,  0.0026672700000000 ]
  - [   0.0008831100000000, -0.0022791900000000,  0.0027074600000000 ]
  - [   0.0059258300000000,  0.0085182900000000,  0.0009867200000000 ]
  - [  -0.0000862600000000,  0.0021800900000000, -0.0032439900000000 ]
  - [   0.0008074400000000,  0.0029517800000000, -0.0025661400000000 ]
  - [   0.0024076800000000,  0.0011451800000000, -0.0024252000000000 ]
  - [   0.0008808900000000,  0.0022775100000000, -0.0025581700000000 ]
  - [   0.0005167500000000,  0.0012423800000000, -0.0025985300000000 ]
  - [   0.0025181600000000,  0.0023950400000000, -0.0022239400000000 ]
  - [   0.0003208000000000,  0.0022924600000000, -0.0018929000000000 ]
  - [   0.0011202200000000,  0.0023443600000000, -0.0026198800000000 ]
  - [   0.0018424200000000,  0.0021060700000000, -0.0027234600000000 ]
  - [   0.0012110400000000,  0.0021786900000000, -0.0026842300000000 ]
  - [   0.0010283600000000,  0.0021497500000000, -0.0026193100000000 ]
  - [   0.0170325900000000,  0.0059268000000000,  0.0050004600000000 ]
  - [   0.0157003100000000,  0.0040780100000000,  0.0049960800000000 ]
  - [   0.0156299800000000,  0.0033601100000000,  0.0071742300000000 ]
  - [   0.0161990100000000,  0.0030784800000000,  0.0047356300000000 ]
  - [   0.0160525700000000,  0.0036473100000000,  0.0049245200000000 ]
  - [   0.0167328400000000,  0.0031228800000000,  0.0049298300000000 ]
  - [   0.0166518500000000,  0.0043662900000000,  0.0049086500000000 ]
  - [   0.0160838700000000,  0.0040308300000000,  0.0050765800000000 ]
  - [   0.0161508200000000,  0.0038512000000000,  0.0044866000000000 ]
  - [   0.0164033800000000,  0.0032506100000000,  0.0053977500000000 ]
  - [   0.0161284700000000,  0.0036899700000000,  0.0050503400000000 ]
  - [   0.0164517100000000,  0.0037682600000000,  0.0049034500000000 ]
  - [   0.0161571000000000, -0.0038773300000000, -0.0055431700000000 ]
  - [   0.0160861300000000, -0.0037011500000000, -0.0049504400000000 ]
  - [   0.0166501200000000, -0.0033622700000000, -0.0051218000000000 ]
  - [   0.0164538500000000, -0.0039654600000000, -0.0051280700000000 ]
  - [   0.0161310600000000, -0.0040407400000000, -0.0049769500000000 ]
  - [   0.0164088500000000, -0.0044870900000000, -0.0046312700000000 ]
  - [   0.0155360400000000, -0.0044090500000000, -0.0028155500000000 ]
  - [   0.0157033800000000, -0.0036525200000000, -0.0050375400000000 ]
  - [   0.0170747500000000, -0.0017941300000000, -0.0050081200000000 ]
  - [   0.0167267100000000, -0.0046056300000000, -0.0050977200000000 ]
  - [   0.0160518200000000, -0.0040844200000000, -0.0051076400000000 ]
  - [   0.0162006600000000, -0.0046438100000000, -0.0052931900000000 ]
  - [  -0.0153279000000000, -0.0037333100000000,  0.0123591900000000 ]
  - [  -0.0207255000000000, -0.0060976500000000,  0.0059565900000000 ]
  - [  -0.0231416300000000, -0.0101671100000000,  0.0041440100000000 ]
  - [  -0.0220587100000000, -0.0056917000000000,  0.0057449900000000 ]
  - [  -0.0209618500000000, -0.0055326000000000,  0.0058268000000000 ]
  - [  -0.0216032300000000, -0.0044260000000000,  0.0058261900000000 ]
  - [  -0.0219904600000000, -0.0063696000000000,  0.0040606300000000 ]
  - [  -0.0209976500000000, -0.0059573100000000,  0.0057790900000000 ]
  - [  -0.0218154600000000, -0.0061280400000000,  0.0060826500000000 ]
  - [  -0.0216649900000000, -0.0054551600000000,  0.0060173600000000 ]
  - [  -0.0213341800000000, -0.0056351300000000,  0.0058906400000000 ]
  - [  -0.0215631400000000, -0.0056235200000000,  0.0059924700000000 ]
  - [  -0.0218128700000000,  0.0053923300000000, -0.0056308300000000 ]
  - [  -0.0209839700000000,  0.0055642700000000, -0.0059434200000000 ]
  - [  -0.0220027700000000,  0.0051462100000000, -0.0076698900000000 ]
  - [  -0.0215615300000000,  0.0058968800000000, -0.0057265100000000 ]
  - [  -0.0213282800000000,  0.0058851400000000, -0.0058332100000000 ]
  - [  -0.0216578400000000,  0.0060647900000000, -0.0057063600000000 ]
  - [  -0.0231319500000000,  0.0014254300000000, -0.0075339000000000 ]
  - [  -0.0207141400000000,  0.0054188800000000, -0.0057673400000000 ]
  - [  -0.0152617100000000,  0.0078555800000000,  0.0007840700000000 ]
  - [  -0.0215918400000000,  0.0070860200000000, -0.0058993300000000 ]
  - [  -0.0209608400000000,  0.0059841400000000, -0.0058968600000000 ]
  - [  -0.0220577900000000,  0.0058246300000000, -0.0059823900000000 ]
  - [  -0.0309749700000000,  0.0084204800000000, -0.0001362700000000 ]
  - [  -0.0283654000000000, -0.0001258300000000, -0.0000602000000000 ]
  - [  -0.0276368400000000,  0.0007965300000000,  0.0007600100000000 ]
  - [  -0.0308651900000000,  0.0086748200000000, -0.0001165700000000 ]
  - [  -0.0276450300000000,  0.0007820200000000,  0.0007485300000000 ]
  - [  -0.0283603700000000, -0.0001339700000000, -0.0000610800000000 ]
  - [  -0.0292661100000000,  0.0001598200000000, -0.0000712000000000 ]
  - [  -0.0286278200000000,  0.0000414100000000,  0.0000161400000000 ]
  - [  -0.0284341600000000,  0.0002619200000000, -0.0002262200000000 ]
  - [  -0.0292659800000000,  0.0001573700000000, -0.0000702500000000 ]
  - [  -0.0284315500000000,  0.0002624900000000, -0.0002248900000000 ]
  - [  -0.0286273400000000,  0.0000451000000000,  0.0000163500000000 ]
- atom:    1
  displacement:
    [  -0.0071274887435109, -0.0070137626131896, -0.0000777059646927 ]
  forces:
  - [   0.0321099800000000,  0.0262626700000000,  0.0185043000000000 ]
  - [   0.0173963900000000,  0.0005993000000000, -0.0002755900000000 ]
  - [   0.0173932200000000,  0.0006044400000000, -0.0002789500000000 ]
  - [   0.0183840600000000, -0.0002023900000000, -0.0000300300000000 ]
  - [   0.0181420500000000, -0.0002575100000000,  0.0000599300000000 ]
  - [   0.0181443200000000, -0.0002591400000000,  0.0000578400000000 ]
  - [   0.0184228500000000,  0.0002758700000000,  0.0000192200000000 ]
  - [   0.0180964400000000,  0.0002583500000000,  0.0000774300000000 ]
  - [   0.0180946900000000,  0.0002614700000000,  0.0000823700000000 ]
  - [   0.0184888800000000, -0.0001651900000000,  0.0000266000000000 ]
  - [   0.0180938900000000, -0.0001326800000000,  0.0000302900000000 ]
  - [   0.0180930800000000, -0.0001340100000000,  0.0000305600000000 ]
  - [   0.0190710400000000, -0.0003743300000000,  0.0005080600000000 ]
  - [   0.0179642800000000, -0.0000690400000000, -0.0000585200000000 ]
  - [   0.0173720800000000, -0.0005808200000000,  0.0005302000000000 ]