# epsilon and Z* of atoms 1 3 5 6 9 11 12 15 16 17 18 21 22
   6.02717416    0.02888814    0.08796132    0.02888824    5.66742996    0.04589773    0.08796183    0.04589775    5.88987510 
   1.15940717   -0.00561413   -0.01403390   -0.01030000    1.23955659   -0.04223815   -0.03937137   -0.04310424    1.02192335 
   1.32599653   -0.03022205   -0.17465295   -0.02077236    1.26148116   -0.01630249   -0.12355645   -0.01455590    1.20933628 
   0.96652186    0.01574792    0.14752504    0.00858446    1.29759963   -0.03609374    0.10879068   -0.03741776    1.08154771 
   0.92087846   -0.02739321   -0.07986173   -0.02425045    1.28588732   -0.01876123   -0.06286813   -0.01818035    1.20350084 
   1.91196786    0.03644543    0.27931797    0.06003813    2.36272075    0.01999977    0.40688872    0.02436041    2.41348638 
   2.52832490   -0.01297333   -0.02835285   -0.03905687    2.73684536   -0.08802953   -0.16939212   -0.09285055    2.28370656 
   2.23667764    0.00366290    0.10070263    0.01103463    2.66540135   -0.05046947    0.14056313   -0.04910695    2.38284587 
  -2.53204619   -0.05008498   -0.14471380   -0.04825944   -1.87431555   -0.12383395   -0.13484269   -0.12349654   -2.49261329 
  -2.55941477   -0.01660960    0.03804984    0.00520053   -1.88998443   -0.12179843    0.15598183   -0.11776726   -2.53325973 
  -2.32400426   -0.00322246    0.00344720   -0.00936220   -2.20289291    0.04600223   -0.02975168    0.04486742   -1.96297378 
  -2.17288372   -0.01969608   -0.04700772   -0.03774111   -1.87783327   -0.13809756   -0.14458102   -0.14143283   -2.58903805 
  -2.15904054    0.06689595    0.09706094    0.04793346   -3.53510837    0.29307269   -0.00547323    0.28956785   -2.02418075 
  -1.84811541    0.00971636   -0.23081267    0.03542176   -3.35150764    0.15373368   -0.09181810    0.15848481   -2.50721789 