144  
72   

1    
  0.0098366589242626   0.0000033429161892  -0.0018000361198142
  -0.0200558500   -0.0003510600    0.0022894800
   0.0004170200   -0.0001103300   -0.0001800900
  -0.0012935200   -0.0003785200    0.0001469600
   0.0003784200   -0.0000878400   -0.0001626400
  -0.0013050800    0.0001534200    0.0000427700
   0.0003855200   -0.0001233200   -0.0001524600
   0.0007100700   -0.0004516300    0.0000775400
   0.0004519300    0.0005209100   -0.0000486200
   0.0006692500    0.0006502600   -0.0001263500
   0.0004810700   -0.0003053100    0.0001063300
   0.0034253400    0.0001250900   -0.0004198500
   0.0004744400    0.0001051000    0.0000210800
  -0.0003685500    0.0004362800    0.0002052800
  -0.0005065500    0.0004765800    0.0000946900
  -0.0003697800    0.0004523900    0.0002287500
  -0.0004991500    0.0003548400    0.0000530000
  -0.0003312500    0.0004626500    0.0002923300
  -0.0004878400    0.0004128100    0.0000708200
   0.0006223700   -0.0004206400   -0.0001161400
   0.0003627000   -0.0004108000   -0.0000483300
   0.0006058200   -0.0004300600   -0.0001296700
   0.0002374100   -0.0004136800   -0.0001373100
   0.0006055600   -0.0004089100   -0.0001259900
   0.0002453900   -0.0004730300   -0.0001937400
  -0.0000887800    0.0000692000   -0.0001768400
  -0.0007393300    0.0004912400   -0.0009188400
  -0.0000905300    0.0001485900   -0.0001964800
  -0.0007088700   -0.0005504200   -0.0007261700
   0.0000237400    0.0001087100   -0.0002084200
   0.0021713200   -0.0005949000   -0.0044095000
  -0.0013710900   -0.0004547000    0.0006971600
  -0.0011644900   -0.0002192000   -0.0000873600
  -0.0013909500    0.0002019600    0.0005815200
  -0.0011639500   -0.0002712200   -0.0000836600
  -0.0000326400    0.0004624300    0.0035285600
  -0.0011349000   -0.0002622600   -0.0001164800
   0.0005812200   -0.0001051000    0.0001407100
   0.0051757800    0.0007402800    0.0038293000
   0.0004655200   -0.0001460600    0.0001689600
   0.0001080600    0.0005304500    0.0007780600
   0.0004571600   -0.0000560800    0.0001572400
   0.0001470800   -0.0004938700    0.0009664800
   0.0014098700   -0.0006115500   -0.0047015200
   0.0015371300    0.0002615700    0.0000621300
   0.0010323600   -0.0001983200   -0.0005084400
   0.0015050100    0.0002779000    0.0000342300
   0.0010002800    0.0004326600   -0.0006311300
   0.0015106600    0.0002263500    0.0000386900
  -0.0003877900    0.0004563900   -0.0002913200
   0.0003051700    0.0004727400   -0.0000936600
  -0.0003602500    0.0003982700   -0.0002007100
   0.0002927300    0.0004828200   -0.0001371400
  -0.0003012700    0.0003138200   -0.0008224500
   0.0003212100    0.0004628800   -0.0001010000
  -0.0000538100   -0.0005179400   -0.0002372600
   0.0001765300   -0.0003744500    0.0004738500
  -0.0000778300   -0.0005179100   -0.0000545600
   0.0001294900   -0.0002998400    0.0004229800
  -0.0000536300   -0.0004797800   -0.0000318500
   0.0001277600   -0.0005123700    0.0004290700
   0.0011825600   -0.0002788100    0.0010102200
   0.0006134400   -0.0003317700   -0.0007610500
   0.0002538300   -0.0001614900    0.0003422300
   0.0000652300   -0.0002132000    0.0000806300
   0.0011504700    0.0002197600    0.0009251700
   0.0006203300   -0.0004095000   -0.0007602100
  -0.0035611000    0.0016079500   -0.0010805600
   0.0002260100    0.0000408700   -0.0001877000
  -0.0007757400    0.0000054000   -0.0000323600
   0.0000837400    0.0000188300   -0.0001625100
  -0.0034121300   -0.0020307200   -0.0004085300
   0.0002158700    0.0000044500   -0.0001834100
   0.0003877400    0.0002283600   -0.0002700200
  -0.0026857200    0.0021192900    0.0009788400
   0.0002560000    0.0002083700   -0.0002450400
  -0.0005889300    0.0001697200   -0.0001748300
   0.0003933700    0.0001863100   -0.0002611500
  -0.0025591200   -0.0013175000    0.0015996400
   0.0010805800   -0.0004503100   -0.0009564100
   0.0012618300    0.0001693600    0.0008551700
   0.0003299900   -0.0000172300   -0.0000210400
   0.0003654500    0.0000135800    0.0001942700
   0.0010324200    0.0000660400   -0.0010515300
   0.0012684000    0.0001352600    0.0008470900
  -0.0006926100    0.0000390400    0.0000661600
  -0.0014311000   -0.0032395000    0.0009507100
  -0.0003586500   -0.0000053000    0.0000325600
   0.0003881600    0.0000061400   -0.0000375500
  -0.0006904500   -0.0000640800    0.0000794600
  -0.0016555400    0.0032612900   -0.0002412500
   0.0032828500   -0.0004499000   -0.0004723100
  -0.0007357200   -0.0000076900    0.0001238400
   0.0003313100    0.0000043600   -0.0000317400
  -0.0003336400   -0.0000068700    0.0000399000
   0.0032582900    0.0004674900   -0.0006387100
  -0.0007338500    0.0000043400    0.0001283800
  -0.0002125900   -0.0003062000    0.0003229200
   0.0000898400   -0.0005500900   -0.0001619900
  -0.0001622100   -0.0003854400    0.0002744700
   0.0001864400   -0.0003776200    0.0000927000
  -0.0002133300   -0.0004328000    0.0003231300
   0.0000715700   -0.0003681200   -0.0001773200
   0.0006802700   -0.0002894100    0.0003149700
  -0.0002624000   -0.0003828600   -0.0001526200
   0.0004186700   -0.0002706600    0.0000965500
  -0.0002118600   -0.0003433800   -0.0001122200
   0.0007309300   -0.0001481600    0.0003632300
  -0.0002696500   -0.0003198400   -0.0001549600
  -0.0004487300    0.0003969400   -0.0002635300
   0.0004143700    0.0003756200    0.0001366600
  -0.0003702700    0.0003619400   -0.0002171300
   0.0003417900    0.0004085000   -0.0001315600
  -0.0004371400    0.0003133500   -0.0002418000
   0.0003802600    0.0005439400    0.0001390400
   0.0002804700    0.0001517000   -0.0002578300
  -0.0003909800    0.0002918000    0.0000865800
   0.0000856700    0.0003086100   -0.0000721700
  -0.0003376100    0.0002888600    0.0000572600
   0.0002713800    0.0003566000   -0.0003414700
  -0.0003709200    0.0003721800    0.0000992300
  -0.0007210400    0.0005435500   -0.0005475300
  -0.0003090300   -0.0004106500    0.0007741400
  -0.0007068000   -0.0005709900   -0.0003528000
  -0.0003519200    0.0008127700    0.0005667400
  -0.0011030200   -0.0000683200   -0.0006265600
  -0.0004520800    0.0002155300    0.0007047200
   0.0005823900   -0.0001953800   -0.0004376600
  -0.0007514100   -0.0001473600   -0.0002323200
   0.0005810700   -0.0000858400   -0.0004650300
  -0.0007361100   -0.0001350800   -0.0002286100
   0.0046413900   -0.0004522300   -0.0028762400
  -0.0007945800   -0.0001399300   -0.0002632200
  -0.0003583100   -0.0000810600    0.0001081900
   0.0071709400    0.0005263800    0.0020860200
  -0.0003199100   -0.0000963000    0.0000406000
   0.0011319400   -0.0001838700   -0.0000958900
  -0.0003237400   -0.0000950900    0.0000308500
   0.0011191700    0.0000490400   -0.0001404200
  -0.0002388600    0.0003221300    0.0013815400
  -0.0002727100   -0.0000088900   -0.0003717900
   0.0000521400    0.0007776300    0.0008746400
  -0.0001011000   -0.0005704600   -0.0002273700
   0.0000949600   -0.0002456100    0.0010711600
  -0.0001435900    0.0005947600   -0.0004336800

1    
 -0.0098366589242626  -0.0000033429161892   0.0018000361198142
   0.0206961400    0.0001366500   -0.0026172600
  -0.0001645400   -0.0001160500   -0.0001006900
   0.0015660900    0.0001704200   -0.0004157700
  -0.0001017800   -0.0001314400   -0.0000986700
   0.0015879500   -0.0003668400   -0.0003237100
  -0.0000934900   -0.0000931900   -0.0001027400
  -0.0009893600    0.0006532400    0.0001950600
  -0.0007250300   -0.0003138400    0.0003148200
  -0.0009511200   -0.0004448500    0.0003953800
  -0.0007533700    0.0005266500    0.0001691900
  -0.0037834400    0.0000781700    0.0006989300
  -0.0007689600    0.0001060200    0.0002555500
  -0.0005074300    0.0004166200    0.0000452700
  -0.0003762400    0.0003742400    0.0001683200
  -0.0005061800    0.0003986600    0.0000366600
  -0.0003848100    0.0005036100    0.0002193700
  -0.0005494800    0.0003954600   -0.0000305000
  -0.0003956500    0.0004447000    0.0001943600
   0.0002607000   -0.0004339900   -0.0001328600
   0.0005115900   -0.0004499800   -0.0002202400
   0.0002661200   -0.0004232900   -0.0001300400
   0.0006403600   -0.0004401400   -0.0001204300
   0.0002681300   -0.0004438100   -0.0001423400
   0.0006346500   -0.0003793600   -0.0000640600
  -0.0005094000    0.0001249800   -0.0002425200
   0.0001520900   -0.0002925000    0.0004852700
  -0.0005038200    0.0000449300   -0.0002325200
   0.0001019800    0.0007394000    0.0003009400
  -0.0005877600    0.0000866700   -0.0002264200
  -0.0027359400    0.0007801000    0.0039160100
  -0.0012804700   -0.0000371800   -0.0007639800
  -0.0014936100   -0.0002685200    0.0000302300
  -0.0012501800   -0.0006878200   -0.0006457900
  -0.0014916500   -0.0002153800    0.0000231800
  -0.0026219400   -0.0009640900   -0.0036217600
  -0.0015370700   -0.0002334100    0.0000448900
   0.0000525300   -0.0000940300    0.0002766400
  -0.0045160500   -0.0009221800   -0.0033324200
   0.0001325700   -0.0000530700    0.0002544800
   0.0004934100   -0.0007209900   -0.0003508100
   0.0001291400   -0.0001395900    0.0002720900
   0.0004559500    0.0003007100   -0.0005367600
   0.0012547100    0.0011150200    0.0047969700
   0.0010837500    0.0002380900    0.0000170800
   0.0016110500    0.0006855600    0.0005731400
   0.0011494600    0.0002115400    0.0000240300
   0.0016403500    0.0000596600    0.0006927300
   0.0011442800    0.0002622700    0.0000125000
   0.0003700900    0.0004408500   -0.0001073800
  -0.0003167400    0.0004242500   -0.0002923100
   0.0003403200    0.0005110500   -0.0001844400
  -0.0003086200    0.0004292000   -0.0002640900
   0.0002840600    0.0005653100    0.0004438000
  -0.0003285200    0.0004125800   -0.0002973600
   0.0000666700   -0.0003683300    0.0006296200
  -0.0001717000   -0.0005016400   -0.0000906400
   0.0001004400   -0.0003859400    0.0004520400
  -0.0001185600   -0.0006110400   -0.0000289600
   0.0000766100   -0.0004186500    0.0004150300
  -0.0001192100   -0.0003865500   -0.0000433900
  -0.0010442000   -0.0001358100   -0.0006191700
  -0.0004860200   -0.0000728800    0.0011443200
  -0.0001220800   -0.0002237000    0.0000386400
   0.0000653600   -0.0001866500    0.0003035400
  -0.0010137600   -0.0006512700   -0.0005338100
  -0.0004913200   -0.0000243000    0.0011444800
   0.0030599800   -0.0016276500    0.0008200100
  -0.0007087400    0.0000177900   -0.0001214000
   0.0002912000    0.0000112400   -0.0002703900
  -0.0005661800   -0.0000081100   -0.0001362200
   0.0029128200    0.0020769200    0.0001363100
  -0.0006975500   -0.0000031200   -0.0001057300
  -0.0005136200    0.0002217700   -0.0001276700
   0.0025358800   -0.0017508300   -0.0013696700
  -0.0003843400    0.0002001700   -0.0001416800
   0.0004609900    0.0002249500   -0.0002036300
  -0.0005194100    0.0001879600   -0.0001253900
   0.0024061100    0.0017781100   -0.0020094400
  -0.0005973700    0.0004483000    0.0012403700
  -0.0007773400   -0.0001798000   -0.0005462000
   0.0001547400    0.0000389000    0.0003162900
   0.0001155200   -0.0000075700    0.0000958500
  -0.0005499800   -0.0000917900    0.0013489600
  -0.0007840600   -0.0001752100   -0.0005432900
   0.0006941900   -0.0000491400   -0.0000728900
   0.0014399700    0.0032072800   -0.0009477600
   0.0003584200    0.0000044200   -0.0000408200
  -0.0003870800   -0.0000101600    0.0000326600
   0.0006810200    0.0000620400   -0.0000942000
   0.0016615100   -0.0032328300    0.0002368300
  -0.0034001800    0.0005873900    0.0004647200
   0.0007127300    0.0000237000   -0.0001237600
  -0.0003332800   -0.0000127800    0.0000330800
   0.0003407700    0.0000033700   -0.0000360500
  -0.0033587500   -0.0006009000    0.0006829100
   0.0007173000   -0.0000210600   -0.0001205600
   0.0002398100   -0.0004929200   -0.0000091300
  -0.0000473300   -0.0002322000    0.0004760800
   0.0001972800   -0.0004027100    0.0000465700
  -0.0001515400   -0.0004079100    0.0002179700
   0.0002475000   -0.0003508100   -0.0000081300
  -0.0000301900   -0.0004109300    0.0004886700
  -0.0004789100   -0.0003142400   -0.0003435300
   0.0004691900   -0.0002563500    0.0001099300
  -0.0002145900   -0.0003406600   -0.0001266500
   0.0004170300   -0.0002869200    0.0000785500
  -0.0005297700   -0.0004590400   -0.0003874600
   0.0004792000   -0.0002961800    0.0001195200
   0.0004066400    0.0003705800   -0.0000599500
  -0.0004518800    0.0004099100   -0.0004563000
   0.0003358300    0.0004099400   -0.0000977200
  -0.0003794000    0.0003652700   -0.0001822000
   0.0003935400    0.0004649700   -0.0000699100
  -0.0004151400    0.0002424000   -0.0004522200
  -0.0004879900    0.0004588600    0.0002838900
   0.0001839600    0.0003303500   -0.0000565800
  -0.0002898900    0.0002972100    0.0000998300
   0.0001311900    0.0003357300   -0.0000354500
  -0.0004806700    0.0002554000    0.0003571000
   0.0001655900    0.0002651100   -0.0000728100
   0.0006740100   -0.0003465000    0.0006094000
   0.0002593100    0.0005945400   -0.0007214100
   0.0006100100    0.0007540500    0.0004110900
   0.0002920400   -0.0006180600   -0.0005072300
   0.0010197600    0.0002646500    0.0006986600
   0.0004147400   -0.0000126200   -0.0006365700
  -0.0014472800   -0.0000725700   -0.0000097300
  -0.0001022700   -0.0001041900   -0.0002049600
  -0.0014290300   -0.0001826200    0.0000200300
  -0.0000880600   -0.0001083300   -0.0002089900
  -0.0055205100    0.0001861300    0.0024231800
  -0.0000335200   -0.0001307800   -0.0002575100
   0.0004258600   -0.0000872900   -0.0000280200
  -0.0071545000   -0.0007172000   -0.0021474200
   0.0003508800   -0.0000988500   -0.0000876000
  -0.0010715300   -0.0000065400    0.0000589700
   0.0003520600   -0.0000868600   -0.0000959500
  -0.0010596100   -0.0002364400    0.0000770600
   0.0011078200   -0.0000347300   -0.0009354100
   0.0011491600    0.0002668900    0.0007944200
   0.0008068600   -0.0005211500   -0.0004424800
   0.0009664000    0.0008256900    0.0006665900
   0.0007652500    0.0005175700   -0.0006186200
   0.0010003700   -0.0003273300    0.0008804200

1    
 -0.0003359322443999   0.0098277046393250  -0.0018175178264221
   0.0012281300   -0.0255623000    0.0045627400
   0.0001309900   -0.0004267500   -0.0000975800
   0.0003562800    0.0010956400   -0.0003904000
   0.0001086700    0.0000407500   -0.0001576900
  -0.0001687900    0.0010854200   -0.0003222100
   0.0001577100    0.0000417800   -0.0001639600
  -0.0007105000    0.0011073300    0.0000724200
   0.0002681200    0.0005614400   -0.0000169100
   0.0003768500    0.0011055400   -0.0001501700
  -0.0005680400    0.0005671100    0.0001369700
  -0.0000732500   -0.0017230100    0.0004631600
  -0.0001202400   -0.0005479700    0.0002562400
  -0.0005183400    0.0004869300    0.0000325500
  -0.0004507200    0.0005026900    0.0001139800
  -0.0003690500    0.0005611600    0.0002316100
  -0.0004429900    0.0005705900    0.0001987100
  -0.0004411900    0.0002418700    0.0000982100
  -0.0004419900    0.0002218500    0.0000562100
   0.0004428800   -0.0005704700   -0.0001376200
   0.0004506600   -0.0007514100   -0.0001760800
   0.0004363900   -0.0003313000   -0.0001113500
   0.0004816600   -0.0003142100   -0.0000158800
   0.0004474900   -0.0003748800   -0.0001088700
   0.0004026600   -0.0003727300   -0.0001393500
  -0.0004496700    0.0002096100   -0.0002241700
  -0.0003527000    0.0005503000   -0.0006221900
  -0.0001612000    0.0002303600   -0.0002299000
  -0.0002810700    0.0007032200    0.0000146300
  -0.0002790000   -0.0001483100   -0.0001675700
  -0.0002719300   -0.0013308100    0.0000658500
  -0.0014340000    0.0001678800   -0.0006252200
  -0.0012550300   -0.0002015300   -0.0000807100
  -0.0012466700    0.0004173800    0.0003773400
  -0.0013901500   -0.0001519600   -0.0000008100
  -0.0012503900   -0.0017256400    0.0002345200
  -0.0013328200   -0.0003904600   -0.0000200800
   0.0003251900   -0.0003618000    0.0002425600
   0.0003373500   -0.0016949400    0.0004913000
   0.0001839700    0.0000456600    0.0002279200
   0.0003868900    0.0004885100    0.0004180200
   0.0004205900    0.0000108000    0.0001437500
   0.0001956900    0.0003558100   -0.0001944900
   0.0013938000   -0.0014208200    0.0003057100
   0.0013029500    0.0001076900    0.0000649400
   0.0013600100    0.0008988900    0.0004413900
   0.0013910800    0.0003276600    0.0000423000
   0.0012243900    0.0006484500   -0.0005546800
   0.0012465900    0.0002954100   -0.0000006700
   0.0000931800    0.0005483900   -0.0001957200
  -0.0000095600    0.0005488100   -0.0001685500
  -0.0000257800    0.0006969500    0.0000640500
  -0.0000046600    0.0006193200   -0.0001691600
  -0.0001021900   -0.0002293800   -0.0003811900
  -0.0000261400    0.0001671800   -0.0002467100
  -0.0000756500   -0.0008922700   -0.0000439300
  -0.0000034500   -0.0008119000    0.0001656200
  -0.0000025500   -0.0001283700    0.0004651800
   0.0000683200   -0.0001920200    0.0003543000
   0.0001271000   -0.0002828300    0.0001488700
  -0.0000279400   -0.0003093000    0.0000469200
  -0.0013217000   -0.0010097600   -0.0008070700
   0.0005821600   -0.0007232600   -0.0006692100
   0.0000208300    0.0007143800    0.0000626300
   0.0000571400    0.0003885600    0.0001184900
   0.0015039700   -0.0005095700    0.0013692800
  -0.0004480700   -0.0004108500    0.0011613500
  -0.0002108100    0.0020471900   -0.0082789600
  -0.0003411900   -0.0001061900   -0.0003818700
  -0.0002653600    0.0009801800   -0.0002868600
  -0.0002292100    0.0001734400   -0.0001571900
  -0.0005207900    0.0048098700    0.0065656500
  -0.0001475500   -0.0000293400    0.0000835900
  -0.0000945000    0.0001784000    0.0000078400
   0.0023648700    0.0043136700    0.0056789800
  -0.0000502200    0.0003814700   -0.0002020100
  -0.0001127000    0.0013095300   -0.0003562300
  -0.0000440400    0.0000570500   -0.0004046800
  -0.0026455400    0.0017600100   -0.0070815000
  -0.0007758300   -0.0002098400    0.0018218300
   0.0011177800   -0.0001754500    0.0009639900
   0.0002271400    0.0008333800    0.0000412500
   0.0002226000    0.0005289300    0.0000748900
   0.0012742500   -0.0008116200   -0.0013822600
  -0.0006185900   -0.0005363400   -0.0005525300
   0.0006550200    0.0001545400   -0.0001110700
  -0.0026309200   -0.0010071300    0.0006037700
   0.0000024800   -0.0002722400    0.0000272100
   0.0000194500   -0.0007217000    0.0001078700
  -0.0006583100    0.0001523100    0.0000642900
   0.0026940300   -0.0009977100   -0.0002073100
  -0.0016271400    0.0041796900   -0.0006163100
  -0.0003946100    0.0001268200    0.0000685600
   0.0000399500   -0.0011405000    0.0001769300
   0.0000068300   -0.0002083800    0.0000246200
   0.0011511100    0.0039790200   -0.0008278100
   0.0003715800    0.0001090200   -0.0000932300
   0.0001279300   -0.0003797700    0.0000254800
  -0.0001272200   -0.0003086100   -0.0001751100
  -0.0000060300   -0.0007009000    0.0001592100
   0.0000438500   -0.0007294900    0.0001741200
  -0.0000605100   -0.0001248600    0.0002816800
   0.0001503400   -0.0000642500    0.0004449000
   0.0000033000   -0.0003134100   -0.0005856500
   0.0000391000   -0.0003051700   -0.0001263100
   0.0001090300   -0.0007008600   -0.0000378100
   0.0000990000   -0.0004877800   -0.0000079500
   0.0001919200    0.0001573800    0.0005790300
   0.0001753300   -0.0001597200    0.0000914300
   0.0001113200    0.0005664700   -0.0000676400
   0.0000058200    0.0008211800    0.0001464100
  -0.0000120100    0.0001473600   -0.0001326100
  -0.0000351700   -0.0000065000   -0.0001465100
  -0.0001674800    0.0004288600   -0.0002610200
  -0.0000388100    0.0004653800   -0.0004792700
   0.0000008300    0.0006998700    0.0006059900
  -0.0001327500    0.0004787000    0.0001246700
  -0.0000843100   -0.0000930500   -0.0000089400
  -0.0001297800    0.0001329200   -0.0000111900
  -0.0002256100    0.0002759200   -0.0005640400
  -0.0000479000    0.0003220900   -0.0000809500
   0.0006826300   -0.0008673200    0.0007057000
  -0.0002435600   -0.0005159300    0.0005899500
  -0.0006798400   -0.0011684000   -0.0002564900
   0.0002452600   -0.0007481500   -0.0002952200
  -0.0001003100    0.0018981400   -0.0002896600
  -0.0000527000    0.0012485600   -0.0001692900
  -0.0004491700   -0.0011615100    0.0008636500
  -0.0003904900   -0.0003159400   -0.0001170300
  -0.0003390200   -0.0015834500   -0.0009167800
  -0.0004393400   -0.0004028300   -0.0002607900
  -0.0006389300    0.0060204000   -0.0012878000
  -0.0004306300    0.0003394200   -0.0003297100
   0.0000157700    0.0004133900   -0.0000526700
  -0.0002331000    0.0068984600   -0.0013306600
   0.0000324300   -0.0003882000   -0.0000362600
  -0.0002464100   -0.0016453300   -0.0004306700
   0.0000151600   -0.0002903300    0.0000782200
   0.0003961100   -0.0012931200    0.0008763400
   0.0003798700    0.0018649000   -0.0000344000
   0.0004107400    0.0012168800    0.0000302700
   0.0008759900   -0.0010949200   -0.0003645400
   0.0000783100   -0.0006695600   -0.0000597700
   0.0000577200   -0.0007263100    0.0011520100
   0.0008312600   -0.0004391600    0.0007566400

1    
  0.0003359322443999  -0.0098277046393250   0.0018175178264221
  -0.0005080300    0.0253160000   -0.0048302300
   0.0001259200    0.0002007300   -0.0002015800
  -0.0000927500   -0.0013038600    0.0001099700
   0.0001626000   -0.0002645000   -0.0001157500
   0.0004416000   -0.0013045100    0.0000327000
   0.0001236000   -0.0002615200   -0.0001019200
   0.0004435700   -0.0009069700    0.0002098400
  -0.0005403900   -0.0003511700    0.0002946700
  -0.0006437400   -0.0008985900    0.0004284200
   0.0002987400   -0.0003459500    0.0001513000
  -0.0001987800    0.0019294200   -0.0001874400
  -0.0001623800    0.0007636500    0.0000262300
  -0.0003646000    0.0003633400    0.0002006100
  -0.0004364300    0.0003480800    0.0001341400
  -0.0005144300    0.0002861200    0.0000169200
  -0.0004478700    0.0002827000    0.0000576200
  -0.0004448800    0.0006138800    0.0001487100
  -0.0004476700    0.0006319300    0.0001919800
   0.0004467400   -0.0002782900   -0.0000894700
   0.0004314200   -0.0001012900   -0.0000726600
   0.0004433900   -0.0005195200   -0.0001323300
   0.0004028200   -0.0005384900   -0.0002229700
   0.0004328500   -0.0004747400   -0.0001432500
   0.0004865100   -0.0004738300   -0.0001010700
  -0.0001580000   -0.0000126600   -0.0001867000
  -0.0002402600   -0.0003516900    0.0002024300
  -0.0004399900   -0.0000311300   -0.0001894100
  -0.0003332600   -0.0005085300   -0.0004273100
  -0.0002932100    0.0003430600   -0.0002538700
  -0.0003555700    0.0015326500   -0.0004554600
  -0.0012051200   -0.0006587200    0.0005558800
  -0.0013929700   -0.0002878000    0.0000171000
  -0.0013830000   -0.0009031300   -0.0004402500
  -0.0012543700   -0.0003346200   -0.0000686500
  -0.0013725800    0.0012344800   -0.0002823600
  -0.0013344300   -0.0001053000   -0.0000560700
   0.0003205800    0.0001563400    0.0001576600
   0.0002257900    0.0014924300   -0.0000906500
   0.0004248300   -0.0002449600    0.0001862600
   0.0002293700   -0.0006836400   -0.0000059100
   0.0001767200   -0.0002043600    0.0002764000
   0.0004180300   -0.0005508400    0.0006079900
   0.0012695500    0.0019110500   -0.0002782100
   0.0013003800    0.0003917500    0.0000227100
   0.0012692400   -0.0004098300   -0.0003749500
   0.0012501700    0.0001622600    0.0000203300
   0.0014040700   -0.0001565700    0.0006188600
   0.0013971700    0.0001943900    0.0000566000
  -0.0001142400    0.0003496500   -0.0001960900
  -0.0000110400    0.0003477000   -0.0002141900
  -0.0000093300    0.0002075200   -0.0004398400
  -0.0000231900    0.0002885900   -0.0002262300
   0.0000816900    0.0011066800    0.0000045800
   0.0000106400    0.0007092300   -0.0001500200
   0.0000954000    0.0000026600    0.0004323700
   0.0000178600   -0.0000674100    0.0002118400
   0.0000330600   -0.0007667600   -0.0000744300
  -0.0000462000   -0.0007107600    0.0000319300
  -0.0000976500   -0.0006163800    0.0002306600
   0.0000498900   -0.0005862500    0.0003345000
   0.0014548600    0.0005926000    0.0012021000
  -0.0004571700    0.0003199200    0.0010604000
   0.0001084300   -0.0011039400    0.0003214300
   0.0000690500   -0.0007941600    0.0002679100
  -0.0013722800    0.0000839500   -0.0009748600
   0.0005724800   -0.0000173600   -0.0007686200
  -0.0002794700   -0.0020216200    0.0078870400
  -0.0001395200    0.0001653400    0.0000701100
  -0.0002145700   -0.0009600400   -0.0000170700
  -0.0002520100   -0.0001599400   -0.0001432600
   0.0000357000   -0.0048502300   -0.0069418800
  -0.0003294300    0.0000295200   -0.0003749400
  -0.0000320300    0.0002722000   -0.0004178200
  -0.0024639700   -0.0038705300   -0.0059893700
  -0.0000766000    0.0000315400   -0.0001886800
  -0.0000128900   -0.0009077200   -0.0000319700
  -0.0000819300    0.0003122400    0.0000102600
   0.0025486500   -0.0013390700    0.0067765300
   0.0012554100    0.0002082100   -0.0015330300
  -0.0006390700    0.0001637500   -0.0006547400
   0.0002543300   -0.0008149000    0.0002561400
   0.0002546100   -0.0005275400    0.0002165100
  -0.0007942000    0.0007880100    0.0016813500
   0.0010957800    0.0005006400    0.0008577300
  -0.0006520800   -0.0001653400    0.0001054800
   0.0026204800    0.0010213900   -0.0006067100
  -0.0000023900    0.0002725800   -0.0000339900
  -0.0000181700    0.0007191100   -0.0001103600
   0.0006533000   -0.0001527400   -0.0000781000
  -0.0027055000    0.0009808500    0.0002128200
   0.0014182300   -0.0039280600    0.0006001100
   0.0003751500   -0.0001145100   -0.0000687300
  -0.0000401900    0.0011336900   -0.0001752800
  -0.0000000700    0.0002042400   -0.0000210900
  -0.0013345900   -0.0042254600    0.0009052200
  -0.0003880400   -0.0001202600    0.0000995600
  -0.0000934900   -0.0004184100    0.0002816600
   0.0001746600   -0.0004735700    0.0004829000
   0.0000485100   -0.0000880500    0.0001525200
  -0.0000018900   -0.0000564200    0.0001299900
   0.0001026500   -0.0006617400    0.0000252600
  -0.0001030600   -0.0007148700   -0.0001409200
   0.0001995000   -0.0002903800    0.0005606500
   0.0001690700   -0.0003321100    0.0000912800
   0.0000955700    0.0000909900    0.0000137000
   0.0001079500   -0.0001406500   -0.0000184200
   0.0000110000   -0.0007631200   -0.0005995200
   0.0000342300   -0.0004546800   -0.0001206200
  -0.0001593000    0.0002035600   -0.0002473300
  -0.0000495200   -0.0000341600   -0.0004577500
  -0.0000284500    0.0006256500   -0.0001764200
  -0.0000081700    0.0007820100   -0.0001612600
   0.0001188900    0.0003509100   -0.0000444600
  -0.0000044400    0.0003230100    0.0001757500
  -0.0002075700   -0.0000909500   -0.0005838000
  -0.0000745000    0.0001442400   -0.0000997400
  -0.0001213900    0.0006976200    0.0000296900
  -0.0000771000    0.0004903500    0.0000261600
   0.0000169300    0.0003369700    0.0005768000
  -0.0001572600    0.0003145500    0.0001014400
  -0.0007306700    0.0010589500   -0.0006565200
   0.0002016400    0.0006975200   -0.0005539200
   0.0005859800    0.0013548600    0.0003092100
  -0.0003007900    0.0009405700    0.0003459500
   0.0000178700   -0.0017020000    0.0003589900
   0.0000250400   -0.0010470700    0.0002262000
  -0.0004258400    0.0008883800   -0.0013195200
  -0.0004655600    0.0000614000   -0.0003309900
  -0.0005135800    0.0013157600    0.0004594800
  -0.0003882400    0.0001576000   -0.0001905100
  -0.0002379600   -0.0062832200    0.0008657700
  -0.0004012800   -0.0006099000   -0.0001880400
   0.0000486900   -0.0005811600    0.0001245700
   0.0002402600   -0.0071011900    0.0012184600
  -0.0000003200    0.0001955900   -0.0000027000
   0.0003099100    0.0014505300    0.0004000500
   0.0000146400    0.0001097300   -0.0001283500
  -0.0003372200    0.0011115200   -0.0009328500
   0.0004887400   -0.0015781200    0.0004912700
   0.0004790800   -0.0009580700    0.0004042500
  -0.0000113500    0.0013558200    0.0008123000
   0.0007907500    0.0009303200    0.0005136600
   0.0008082600    0.0010045900   -0.0006904400
   0.0000310200    0.0007087400   -0.0002960800

1    
 -0.0000585628323579  -0.0001059078864582   0.0099992676688972
  -0.0068827000   -0.0048004700   -0.0514953900
   0.0000791800   -0.0000589200   -0.0001613900
   0.0002808900   -0.0003359200   -0.0003757600
   0.0001154900   -0.0001394300   -0.0001136800
   0.0003888900   -0.0004114400   -0.0003833000
   0.0001133500   -0.0001293300   -0.0001093500
  -0.0001412000    0.0000768200    0.0004327400
  -0.0003144600   -0.0000534300    0.0002143900
  -0.0003385300   -0.0001399500    0.0005306400
  -0.0001639500    0.0001028000    0.0001619600
  -0.0008173100    0.0003383700   -0.0003618300
  -0.0002843300    0.0002092100    0.0000436400
  -0.0003025700    0.0003111800    0.0000874900
  -0.0006189400    0.0002750500    0.0003588800
  -0.0003398600    0.0004883200   -0.0000039800
  -0.0006348600    0.0005873000    0.0001546700
  -0.0002870700    0.0004597900    0.0001255300
  -0.0006886800    0.0004953900    0.0004191700
   0.0004783300   -0.0004093100   -0.0001048700
   0.0008582200   -0.0000961900    0.0013431500
   0.0004609800   -0.0004201600   -0.0001572800
   0.0004262700   -0.0002887000   -0.0000138700
   0.0004741200   -0.0004487800   -0.0001331100
   0.0004504000   -0.0004883700    0.0002468100
  -0.0003212800    0.0000786400   -0.0001910500
  -0.0003990500   -0.0000966200   -0.0001276700
  -0.0003719400    0.0000765700   -0.0001955800
  -0.0004429300    0.0000990600   -0.0002945300
  -0.0002759200    0.0001346600   -0.0002462200
  -0.0040331200    0.0005876100    0.0017275600
  -0.0011863700   -0.0003576800   -0.0003250900
  -0.0013673700   -0.0002557600    0.0000149000
  -0.0011971100   -0.0004566200   -0.0005105800
  -0.0013488300   -0.0002397900   -0.0000124400
   0.0024908700    0.0004922700    0.0017993400
  -0.0014041100   -0.0002226000    0.0000060700
   0.0002453600   -0.0000606000    0.0002196500
   0.0035852100    0.0001992000   -0.0004316800
   0.0003315000   -0.0001079400    0.0002427200
   0.0004797500   -0.0003147800   -0.0001189200
   0.0002957400   -0.0001103500    0.0002606400