phonopy:
  version: 2.9.3
  frequency_unit_conversion_factor: 15.633302
  symmetry_tolerance: 1.00000e-05
  nac_unit_conversion_factor: 14.399652

physical_unit:
  atomic_mass: "AMU"

primitive_matrix:
- [  1.000000000000000,  0.000000000000000,  0.000000000000000 ]
- [  0.000000000000000,  1.000000000000000,  0.000000000000000 ]
- [  0.000000000000000,  0.000000000000000,  1.000000000000000 ]

supercell_matrix:
- [   2,   0,   0 ]
- [   0,   3,   0 ]
- [   0,   0,   1 ]

primitive_cell:
  lattice:
  - [     7.605814150000000,     0.002584780000000,    -1.391807960000000 ] # a
  - [    -0.135995550000000,     3.978552580000000,    -0.735786280000000 ] # b
  - [    -0.061755670000000,    -0.111681970000000,    10.544426380000001 ] # c
  points:
  - symbol: Li # 1
    coordinates: [  0.950550320000002,  0.002231010000000,  0.004462000000003 ]
    mass: 6.941000
  - symbol: Li # 2
    coordinates: [  0.549449679999998,  0.997768989999999,  0.995537999999997 ]
    mass: 6.941000
  - symbol: Li # 3
    coordinates: [  0.355776110000000,  0.803915379999993,  0.607830739999999 ]
    mass: 6.941000
  - symbol: Li # 4
    coordinates: [  0.144223890000000,  0.196084620000000,  0.392169260000000 ]
    mass: 6.941000
  - symbol: Li # 5
    coordinates: [  0.214677499999996,  0.922967139999990,  0.845934280000002 ]
    mass: 6.941000
  - symbol: Li # 6
    coordinates: [  0.689288319999995,  0.886179359999990,  0.772358719999996 ]
    mass: 6.941000
  - symbol: Li # 7
    coordinates: [  0.285322500000004,  0.077032860000000,  0.154065719999997 ]
    mass: 6.941000
  - symbol: Li # 8
    coordinates: [  0.810711680000005,  0.113820640000000,  0.227641280000003 ]
    mass: 6.941000
  - symbol: Fe # 9
    coordinates: [  0.930344979999998,  0.800742489999995,  0.601484980000000 ]
    mass: 55.845000
  - symbol: Fe # 10
    coordinates: [  0.569655020000001,  0.199257509999999,  0.398515020000000 ]
    mass: 55.845000
  - symbol: Fe # 11
    coordinates: [  0.448948310000006,  0.400611340000000,  0.801222679999997 ]
    mass: 55.845000
  - symbol: Fe # 12
    coordinates: [  0.955929589999999,  0.407475630000004,  0.814951259999996 ]
    mass: 55.845000
  - symbol: Fe # 13
    coordinates: [  0.051051690000001,  0.599388660000000,  0.198777320000003 ]
    mass: 55.845000
  - symbol: Fe # 14
    coordinates: [  0.544070410000001,  0.592524369999996,  0.185048739999999 ]
    mass: 55.845000
  - symbol: S  # 15
    coordinates: [  0.250000000000000,  0.500000000000000,  0.000000000000000 ]
    mass: 32.065000
  - symbol: S  # 16
    coordinates: [  0.750000000000000,  0.500000000000000,  0.000000000000000 ]
    mass: 32.065000
  - symbol: S  # 17
    coordinates: [  0.352294749999998,  0.684294150000010,  0.368588300000002 ]
    mass: 32.065000
  - symbol: S  # 18
    coordinates: [  0.830842130000006,  0.683809280000005,  0.367618550000000 ]
    mass: 32.065000
  - symbol: S  # 19
    coordinates: [  0.147705250000002,  0.315705849999990,  0.631411699999998 ]
    mass: 32.065000
  - symbol: S  # 20
    coordinates: [  0.669157869999994,  0.316190719999995,  0.632381450000000 ]
    mass: 32.065000
  - symbol: O  # 21
    coordinates: [  0.450540059999994,  0.902800269999990,  0.805600529999998 ]
    mass: 15.999400
  - symbol: O  # 22
    coordinates: [  0.952366480000001,  0.904300580000004,  0.808601160000002 ]
    mass: 15.999400
  - symbol: O  # 23
    coordinates: [  0.049459939999999,  0.097199730000000,  0.194399470000001 ]
    mass: 15.999400
  - symbol: O  # 24
    coordinates: [  0.547633519999999,  0.095699419999999,  0.191398839999998 ]
    mass: 15.999400
  reciprocal_lattice: # without 2pi
  - [     0.131626866780742,     0.004650970802883,     0.000820161725073 ] # a*
  - [     0.000402981070429,     0.251855231274068,     0.002669901020210 ] # b*
  - [     0.017402163215446,     0.018188270749998,     0.095131394350640 ] # c*

unit_cell:
  lattice:
  - [     7.605814150000000,     0.002584780000000,    -1.391807960000000 ] # a
  - [    -0.135995550000000,     3.978552580000000,    -0.735786280000000 ] # b
  - [    -0.061755670000000,    -0.111681970000000,    10.544426380000001 ] # c
  points:
  - symbol: Li # 1
    coordinates: [  0.950550320000002,  0.002231010000000,  0.004462000000003 ]
    mass: 6.941000
    reduced_to: 1
  - symbol: Li # 2
    coordinates: [  0.549449679999998,  0.997768989999999,  0.995537999999997 ]
    mass: 6.941000
    reduced_to: 2
  - symbol: Li # 3
    coordinates: [  0.355776110000000,  0.803915379999993,  0.607830739999999 ]
    mass: 6.941000
    reduced_to: 3
  - symbol: Li # 4
    coordinates: [  0.144223890000000,  0.196084620000000,  0.392169260000000 ]
    mass: 6.941000
    reduced_to: 4
  - symbol: Li # 5
    coordinates: [  0.214677499999996,  0.922967139999990,  0.845934280000002 ]
    mass: 6.941000
    reduced_to: 5
  - symbol: Li # 6
    coordinates: [  0.689288319999995,  0.886179359999990,  0.772358719999996 ]
    mass: 6.941000
    reduced_to: 6
  - symbol: Li # 7
    coordinates: [  0.285322500000004,  0.077032860000000,  0.154065719999997 ]
    mass: 6.941000
    reduced_to: 7
  - symbol: Li # 8
    coordinates: [  0.810711680000005,  0.113820640000000,  0.227641280000003 ]
    mass: 6.941000
    reduced_to: 8
  - symbol: Fe # 9
    coordinates: [  0.930344979999998,  0.800742489999995,  0.601484980000000 ]
    mass: 55.845000
    reduced_to: 9
  - symbol: Fe # 10
    coordinates: [  0.569655020000001,  0.199257509999999,  0.398515020000000 ]
    mass: 55.845000
    reduced_to: 10
  - symbol: Fe # 11
    coordinates: [  0.448948310000006,  0.400611340000000,  0.801222679999997 ]
    mass: 55.845000
    reduced_to: 11
  - symbol: Fe # 12
    coordinates: [  0.955929589999999,  0.407475630000004,  0.814951259999996 ]
    mass: 55.845000
    reduced_to: 12
  - symbol: Fe # 13
    coordinates: [  0.051051690000001,  0.599388660000000,  0.198777320000003 ]
    mass: 55.845000
    reduced_to: 13
  - symbol: Fe # 14
    coordinates: [  0.544070410000001,  0.592524369999996,  0.185048739999999 ]
    mass: 55.845000
    reduced_to: 14
  - symbol: S  # 15
    coordinates: [  0.250000000000000,  0.500000000000000, -0.000000000000000 ]
    mass: 32.065000
    reduced_to: 15
  - symbol: S  # 16
    coordinates: [  0.750000000000000,  0.500000000000000,  0.000000000000000 ]
    mass: 32.065000
    reduced_to: 16
  - symbol: S  # 17
    coordinates: [  0.352294749999998,  0.684294150000010,  0.368588300000002 ]
    mass: 32.065000
    reduced_to: 17
  - symbol: S  # 18
    coordinates: [  0.830842130000006,  0.683809280000005,  0.367618550000000 ]
    mass: 32.065000
    reduced_to: 18
  - symbol: S  # 19
    coordinates: [  0.147705250000002,  0.315705849999990,  0.631411699999998 ]
    mass: 32.065000
    reduced_to: 19
  - symbol: S  # 20
    coordinates: [  0.669157869999994,  0.316190719999995,  0.632381450000000 ]
    mass: 32.065000
    reduced_to: 20
  - symbol: O  # 21
    coordinates: [  0.450540059999994,  0.902800269999990,  0.805600529999998 ]
    mass: 15.999400
    reduced_to: 21
  - symbol: O  # 22
    coordinates: [  0.952366480000001,  0.904300580000004,  0.808601160000002 ]
    mass: 15.999400
    reduced_to: 22
  - symbol: O  # 23
    coordinates: [  0.049459939999999,  0.097199730000000,  0.194399470000001 ]
    mass: 15.999400
    reduced_to: 23
  - symbol: O  # 24
    coordinates: [  0.547633519999999,  0.095699419999999,  0.191398839999998 ]
    mass: 15.999400
    reduced_to: 24

supercell:
  lattice:
  - [    15.211628299999999,     0.005169560000000,    -2.783615920000000 ] # a
  - [    -0.407986650000000,    11.935657740000000,    -2.207358840000000 ] # b
  - [    -0.061755670000000,    -0.111681970000000,    10.544426380000001 ] # c
  points:
  - symbol: Li # 1
    coordinates: [  0.475275160000001,  0.000743670000000,  0.004462000000003 ]
    mass: 6.941000
    reduced_to: 1
  - symbol: Li # 2
    coordinates: [  0.975275160000001,  0.000743670000000,  0.004462000000003 ]
    mass: 6.941000
    reduced_to: 1
  - symbol: Li # 3
    coordinates: [  0.475275160000001,  0.334077003333333,  0.004462000000003 ]
    mass: 6.941000
    reduced_to: 1
  - symbol: Li # 4
    coordinates: [  0.975275160000001,  0.334077003333333,  0.004462000000003 ]
    mass: 6.941000
    reduced_to: 1
  - symbol: Li # 5
    coordinates: [  0.475275160000001,  0.667410336666667,  0.004462000000003 ]
    mass: 6.941000
    reduced_to: 1
  - symbol: Li # 6
    coordinates: [  0.975275160000001,  0.667410336666667,  0.004462000000003 ]
    mass: 6.941000
    reduced_to: 1
  - symbol: Li # 7
    coordinates: [  0.274724839999999,  0.332589663333333,  0.995537999999997 ]
    mass: 6.941000
    reduced_to: 7
  - symbol: Li # 8
    coordinates: [  0.774724839999999,  0.332589663333333,  0.995537999999997 ]
    mass: 6.941000
    reduced_to: 7
  - symbol: Li # 9
    coordinates: [  0.274724839999999,  0.665922996666666,  0.995537999999997 ]
    mass: 6.941000
    reduced_to: 7
  - symbol: Li # 10
    coordinates: [  0.774724839999999,  0.665922996666666,  0.995537999999997 ]
    mass: 6.941000
    reduced_to: 7
  - symbol: Li # 11
    coordinates: [  0.274724839999999,  0.999256329999999,  0.995537999999997 ]
    mass: 6.941000
    reduced_to: 7
  - symbol: Li # 12
    coordinates: [  0.774724839999999,  0.999256329999999,  0.995537999999997 ]
    mass: 6.941000
    reduced_to: 7
  - symbol: Li # 13
    coordinates: [  0.177888055000000,  0.267971793333331,  0.607830739999999 ]
    mass: 6.941000
    reduced_to: 13
  - symbol: Li # 14
    coordinates: [  0.677888055000000,  0.267971793333331,  0.607830739999999 ]
    mass: 6.941000
    reduced_to: 13
  - symbol: Li # 15
    coordinates: [  0.177888055000000,  0.601305126666664,  0.607830739999999 ]
    mass: 6.941000
    reduced_to: 13
  - symbol: Li # 16
    coordinates: [  0.677888055000000,  0.601305126666664,  0.607830739999999 ]
    mass: 6.941000
    reduced_to: 13
  - symbol: Li # 17
    coordinates: [  0.177888055000000,  0.934638459999998,  0.607830739999999 ]
    mass: 6.941000
    reduced_to: 13
  - symbol: Li # 18
    coordinates: [  0.677888055000000,  0.934638459999998,  0.607830739999999 ]
    mass: 6.941000
    reduced_to: 13
  - symbol: Li # 19
    coordinates: [  0.072111945000000,  0.065361540000000,  0.392169260000000 ]
    mass: 6.941000
    reduced_to: 19
  - symbol: Li # 20
    coordinates: [  0.572111945000000,  0.065361540000000,  0.392169260000000 ]
    mass: 6.941000
    reduced_to: 19
  - symbol: Li # 21
    coordinates: [  0.072111945000000,  0.398694873333333,  0.392169260000000 ]
    mass: 6.941000
    reduced_to: 19
  - symbol: Li # 22
    coordinates: [  0.572111945000000,  0.398694873333333,  0.392169260000000 ]
    mass: 6.941000
    reduced_to: 19
  - symbol: Li # 23
    coordinates: [  0.072111945000000,  0.732028206666667,  0.392169260000000 ]
    mass: 6.941000
    reduced_to: 19
  - symbol: Li # 24
    coordinates: [  0.572111945000000,  0.732028206666667,  0.392169260000000 ]
    mass: 6.941000
    reduced_to: 19
  - symbol: Li # 25
    coordinates: [  0.107338749999998,  0.307655713333330,  0.845934280000002 ]
    mass: 6.941000
    reduced_to: 25
  - symbol: Li # 26
    coordinates: [  0.607338749999998,  0.307655713333330,  0.845934280000002 ]
    mass: 6.941000
    reduced_to: 25
  - symbol: Li # 27
    coordinates: [  0.107338749999998,  0.640989046666663,  0.845934280000002 ]
    mass: 6.941000
    reduced_to: 25
  - symbol: Li # 28
    coordinates: [  0.607338749999998,  0.640989046666663,  0.845934280000002 ]
    mass: 6.941000
    reduced_to: 25
  - symbol: Li # 29
    coordinates: [  0.107338749999998,  0.974322379999997,  0.845934280000002 ]
    mass: 6.941000
    reduced_to: 25
  - symbol: Li # 30
    coordinates: [  0.607338749999998,  0.974322379999997,  0.845934280000002 ]
    mass: 6.941000
    reduced_to: 25
  - symbol: Li # 31
    coordinates: [  0.344644159999997,  0.295393119999997,  0.772358719999996 ]
    mass: 6.941000
    reduced_to: 31
  - symbol: Li # 32
    coordinates: [  0.844644159999997,  0.295393119999997,  0.772358719999996 ]
    mass: 6.941000
    reduced_to: 31
  - symbol: Li # 33
    coordinates: [  0.344644159999997,  0.628726453333330,  0.772358719999996 ]
    mass: 6.941000
    reduced_to: 31
  - symbol: Li # 34
    coordinates: [  0.844644159999997,  0.628726453333330,  0.772358719999996 ]
    mass: 6.941000
    reduced_to: 31
  - symbol: Li # 35
    coordinates: [  0.344644159999997,  0.962059786666663,  0.772358719999996 ]
    mass: 6.941000
    reduced_to: 31
  - symbol: Li # 36
    coordinates: [  0.844644159999997,  0.962059786666663,  0.772358719999996 ]
    mass: 6.941000
    reduced_to: 31
  - symbol: Li # 37
    coordinates: [  0.142661250000002,  0.025677620000000,  0.154065719999997 ]
    mass: 6.941000
    reduced_to: 37
  - symbol: Li # 38
    coordinates: [  0.642661250000002,  0.025677620000000,  0.154065719999997 ]
    mass: 6.941000
    reduced_to: 37
  - symbol: Li # 39
    coordinates: [  0.142661250000002,  0.359010953333333,  0.154065719999997 ]
    mass: 6.941000
    reduced_to: 37
  - symbol: Li # 40
    coordinates: [  0.642661250000002,  0.359010953333333,  0.154065719999997 ]
    mass: 6.941000
    reduced_to: 37
  - symbol: Li # 41
    coordinates: [  0.142661250000002,  0.692344286666666,  0.154065719999997 ]
    mass: 6.941000
    reduced_to: 37
  - symbol: Li # 42
    coordinates: [  0.642661250000002,  0.692344286666666,  0.154065719999997 ]
    mass: 6.941000
    reduced_to: 37
  - symbol: Li # 43
    coordinates: [  0.405355840000003,  0.037940213333333,  0.227641280000003 ]
    mass: 6.941000
    reduced_to: 43
  - symbol: Li # 44
    coordinates: [  0.905355840000003,  0.037940213333333,  0.227641280000003 ]
    mass: 6.941000
    reduced_to: 43
  - symbol: Li # 45
    coordinates: [  0.405355840000003,  0.371273546666667,  0.227641280000003 ]
    mass: 6.941000
    reduced_to: 43
  - symbol: Li # 46
    coordinates: [  0.905355840000003,  0.371273546666667,  0.227641280000003 ]
    mass: 6.941000
    reduced_to: 43
  - symbol: Li # 47
    coordinates: [  0.405355840000003,  0.704606880000000,  0.227641280000003 ]
    mass: 6.941000
    reduced_to: 43
  - symbol: Li # 48
    coordinates: [  0.905355840000003,  0.704606880000000,  0.227641280000003 ]
    mass: 6.941000
    reduced_to: 43
  - symbol: Fe # 49
    coordinates: [  0.465172489999999,  0.266914163333332,  0.601484980000000 ]
    mass: 55.845000
    reduced_to: 49
  - symbol: Fe # 50
    coordinates: [  0.965172489999999,  0.266914163333332,  0.601484980000000 ]
    mass: 55.845000
    reduced_to: 49
  - symbol: Fe # 51
    coordinates: [  0.465172489999999,  0.600247496666665,  0.601484980000000 ]
    mass: 55.845000
    reduced_to: 49
  - symbol: Fe # 52
    coordinates: [  0.965172489999999,  0.600247496666665,  0.601484980000000 ]
    mass: 55.845000
    reduced_to: 49
  - symbol: Fe # 53
    coordinates: [  0.465172489999999,  0.933580829999998,  0.601484980000000 ]
    mass: 55.845000
    reduced_to: 49
  - symbol: Fe # 54
    coordinates: [  0.965172489999999,  0.933580829999998,  0.601484980000000 ]
    mass: 55.845000
    reduced_to: 49
  - symbol: Fe # 55
    coordinates: [  0.284827510000001,  0.066419170000000,  0.398515020000000 ]
    mass: 55.845000
    reduced_to: 55
  - symbol: Fe # 56
    coordinates: [  0.784827510000001,  0.066419170000000,  0.398515020000000 ]
    mass: 55.845000
    reduced_to: 55
  - symbol: Fe # 57
    coordinates: [  0.284827510000001,  0.399752503333333,  0.398515020000000 ]
    mass: 55.845000
    reduced_to: 55
  - symbol: Fe # 58
    coordinates: [  0.784827510000001,  0.399752503333333,  0.398515020000000 ]
    mass: 55.845000
    reduced_to: 55
  - symbol: Fe # 59
    coordinates: [  0.284827510000001,  0.733085836666666,  0.398515020000000 ]
    mass: 55.845000
    reduced_to: 55
  - symbol: Fe # 60
    coordinates: [  0.784827510000001,  0.733085836666666,  0.398515020000000 ]
    mass: 55.845000
    reduced_to: 55
  - symbol: Fe # 61
    coordinates: [  0.224474155000003,  0.133537113333333,  0.801222679999997 ]
    mass: 55.845000
    reduced_to: 61
  - symbol: Fe # 62
    coordinates: [  0.724474155000003,  0.133537113333333,  0.801222679999997 ]
    mass: 55.845000
    reduced_to: 61
  - symbol: Fe # 63
    coordinates: [  0.224474155000003,  0.466870446666667,  0.801222679999997 ]
    mass: 55.845000
    reduced_to: 61
  - symbol: Fe # 64
    coordinates: [  0.724474155000003,  0.466870446666667,  0.801222679999997 ]
    mass: 55.845000
    reduced_to: 61
  - symbol: Fe # 65
    coordinates: [  0.224474155000003,  0.800203780000000,  0.801222679999997 ]
    mass: 55.845000
    reduced_to: 61
  - symbol: Fe # 66
    coordinates: [  0.724474155000003,  0.800203780000000,  0.801222679999997 ]
    mass: 55.845000
    reduced_to: 61
  - symbol: Fe # 67
    coordinates: [  0.477964794999999,  0.135825210000001,  0.814951259999996 ]
    mass: 55.845000
    reduced_to: 67
  - symbol: Fe # 68
    coordinates: [  0.977964794999999,  0.135825210000001,  0.814951259999996 ]
    mass: 55.845000
    reduced_to: 67
  - symbol: Fe # 69
    coordinates: [  0.477964794999999,  0.469158543333335,  0.814951259999996 ]
    mass: 55.845000
    reduced_to: 67
  - symbol: Fe # 70
    coordinates: [  0.977964794999999,  0.469158543333335,  0.814951259999996 ]
    mass: 55.845000
    reduced_to: 67
  - symbol: Fe # 71
    coordinates: [  0.477964794999999,  0.802491876666668,  0.814951259999996 ]
    mass: 55.845000
    reduced_to: 67
  - symbol: Fe # 72
    coordinates: [  0.977964794999999,  0.802491876666668,  0.814951259999996 ]
    mass: 55.845000
    reduced_to: 67
  - symbol: Fe # 73
    coordinates: [  0.025525845000000,  0.199796220000000,  0.198777320000003 ]
    mass: 55.845000
    reduced_to: 73
  - symbol: Fe # 74
    coordinates: [  0.525525845000000,  0.199796220000000,  0.198777320000003 ]
    mass: 55.845000
    reduced_to: 73
  - symbol: Fe # 75
    coordinates: [  0.025525845000000,  0.533129553333333,  0.198777320000003 ]
    mass: 55.845000
    reduced_to: 73
  - symbol: Fe # 76
    coordinates: [  0.525525845000000,  0.533129553333333,  0.198777320000003 ]
    mass: 55.845000
    reduced_to: 73
  - symbol: Fe # 77
    coordinates: [  0.025525845000000,  0.866462886666667,  0.198777320000003 ]
    mass: 55.845000
    reduced_to: 73
  - symbol: Fe # 78
    coordinates: [  0.525525845000000,  0.866462886666667,  0.198777320000003 ]
    mass: 55.845000
    reduced_to: 73
  - symbol: Fe # 79
    coordinates: [  0.272035205000000,  0.197508123333332,  0.185048739999999 ]
    mass: 55.845000
    reduced_to: 79
  - symbol: Fe # 80
    coordinates: [  0.772035205000000,  0.197508123333332,  0.185048739999999 ]
    mass: 55.845000
    reduced_to: 79
  - symbol: Fe # 81
    coordinates: [  0.272035205000000,  0.530841456666665,  0.185048739999999 ]
    mass: 55.845000
    reduced_to: 79
  - symbol: Fe # 82
    coordinates: [  0.772035205000000,  0.530841456666665,  0.185048739999999 ]
    mass: 55.845000
    reduced_to: 79
  - symbol: Fe # 83
    coordinates: [  0.272035205000000,  0.864174789999999,  0.185048739999999 ]
    mass: 55.845000
    reduced_to: 79
  - symbol: Fe # 84
    coordinates: [  0.772035205000000,  0.864174789999999,  0.185048739999999 ]
    mass: 55.845000
    reduced_to: 79
  - symbol: S  # 85
    coordinates: [  0.125000000000000,  0.166666666666667,  1.000000000000000 ]
    mass: 32.065000
    reduced_to: 85
  - symbol: S  # 86
    coordinates: [  0.625000000000000,  0.166666666666667,  1.000000000000000 ]
    mass: 32.065000
    reduced_to: 85
  - symbol: S  # 87
    coordinates: [  0.125000000000000,  0.500000000000000,  1.000000000000000 ]
    mass: 32.065000
    reduced_to: 85
  - symbol: S  # 88
    coordinates: [  0.625000000000000,  0.500000000000000,  1.000000000000000 ]
    mass: 32.065000
    reduced_to: 85
  - symbol: S  # 89
    coordinates: [  0.125000000000000,  0.833333333333333,  1.000000000000000 ]
    mass: 32.065000
    reduced_to: 85
  - symbol: S  # 90
    coordinates: [  0.625000000000000,  0.833333333333333,  1.000000000000000 ]
    mass: 32.065000
    reduced_to: 85
  - symbol: S  # 91
    coordinates: [  0.375000000000000,  0.166666666666667,  0.000000000000000 ]
    mass: 32.065000
    reduced_to: 91
  - symbol: S  # 92
    coordinates: [  0.875000000000000,  0.166666666666667,  0.000000000000000 ]
    mass: 32.065000
    reduced_to: 91
  - symbol: S  # 93
    coordinates: [  0.375000000000000,  0.500000000000000,  0.000000000000000 ]
    mass: 32.065000
    reduced_to: 91
  - symbol: S  # 94
    coordinates: [  0.875000000000000,  0.500000000000000,  0.000000000000000 ]
    mass: 32.065000
    reduced_to: 91
  - symbol: S  # 95
    coordinates: [  0.375000000000000,  0.833333333333333,  0.000000000000000 ]
    mass: 32.065000
    reduced_to: 91
  - symbol: S  # 96
    coordinates: [  0.875000000000000,  0.833333333333333,  0.000000000000000 ]
    mass: 32.065000
    reduced_to: 91
  - symbol: S  # 97
    coordinates: [  0.176147374999999,  0.228098050000003,  0.368588300000002 ]
    mass: 32.065000
    reduced_to: 97
  - symbol: S  # 98
    coordinates: [  0.676147374999999,  0.228098050000003,  0.368588300000002 ]
    mass: 32.065000
    reduced_to: 97
  - symbol: S  # 99
    coordinates: [  0.176147374999999,  0.561431383333337,  0.368588300000002 ]
    mass: 32.065000
    reduced_to: 97
  - symbol: S  # 100
    coordinates: [  0.676147374999999,  0.561431383333337,  0.368588300000002 ]
    mass: 32.065000
    reduced_to: 97
  - symbol: S  # 101
    coordinates: [  0.176147374999999,  0.894764716666670,  0.368588300000002 ]
    mass: 32.065000
    reduced_to: 97
  - symbol: S  # 102
    coordinates: [  0.676147374999999,  0.894764716666670,  0.368588300000002 ]
    mass: 32.065000
    reduced_to: 97
  - symbol: S  # 103
    coordinates: [  0.415421065000003,  0.227936426666668,  0.367618550000000 ]
    mass: 32.065000
    reduced_to: 103
  - symbol: S  # 104
    coordinates: [  0.915421065000003,  0.227936426666668,  0.367618550000000 ]
    mass: 32.065000
    reduced_to: 103
  - symbol: S  # 105
    coordinates: [  0.415421065000003,  0.561269760000002,  0.367618550000000 ]
    mass: 32.065000
    reduced_to: 103
  - symbol: S  # 106
    coordinates: [  0.915421065000003,  0.561269760000002,  0.367618550000000 ]
    mass: 32.065000
    reduced_to: 103
  - symbol: S  # 107
    coordinates: [  0.415421065000003,  0.894603093333335,  0.367618550000000 ]
    mass: 32.065000
    reduced_to: 103
  - symbol: S  # 108
    coordinates: [  0.915421065000003,  0.894603093333335,  0.367618550000000 ]
    mass: 32.065000
    reduced_to: 103
  - symbol: S  # 109
    coordinates: [  0.073852625000001,  0.105235283333330,  0.631411699999998 ]
    mass: 32.065000
    reduced_to: 109
  - symbol: S  # 110
    coordinates: [  0.573852625000001,  0.105235283333330,  0.631411699999998 ]
    mass: 32.065000
    reduced_to: 109
  - symbol: S  # 111
    coordinates: [  0.073852625000001,  0.438568616666663,  0.631411699999998 ]
    mass: 32.065000
    reduced_to: 109
  - symbol: S  # 112
    coordinates: [  0.573852625000001,  0.438568616666663,  0.631411699999998 ]
    mass: 32.065000
    reduced_to: 109
  - symbol: S  # 113
    coordinates: [  0.073852625000001,  0.771901949999997,  0.631411699999998 ]
    mass: 32.065000
    reduced_to: 109
  - symbol: S  # 114
    coordinates: [  0.573852625000001,  0.771901949999997,  0.631411699999998 ]
    mass: 32.065000
    reduced_to: 109
  - symbol: S  # 115
    coordinates: [  0.334578934999997,  0.105396906666665,  0.632381450000000 ]
    mass: 32.065000
    reduced_to: 115
  - symbol: S  # 116
    coordinates: [  0.834578934999997,  0.105396906666665,  0.632381450000000 ]
    mass: 32.065000
    reduced_to: 115
  - symbol: S  # 117
    coordinates: [  0.334578934999997,  0.438730239999998,  0.632381450000000 ]
    mass: 32.065000
    reduced_to: 115
  - symbol: S  # 118
    coordinates: [  0.834578934999997,  0.438730239999998,  0.632381450000000 ]
    mass: 32.065000
    reduced_to: 115
  - symbol: S  # 119
    coordinates: [  0.334578934999997,  0.772063573333332,  0.632381450000000 ]
    mass: 32.065000
    reduced_to: 115
  - symbol: S  # 120
    coordinates: [  0.834578934999997,  0.772063573333332,  0.632381450000000 ]
    mass: 32.065000
    reduced_to: 115
  - symbol: O  # 121
    coordinates: [  0.225270029999997,  0.300933423333330,  0.805600529999998 ]
    mass: 15.999400
    reduced_to: 121
  - symbol: O  # 122
    coordinates: [  0.725270029999997,  0.300933423333330,  0.805600529999998 ]
    mass: 15.999400
    reduced_to: 121
  - symbol: O  # 123
    coordinates: [  0.225270029999997,  0.634266756666663,  0.805600529999998 ]
    mass: 15.999400
    reduced_to: 121
  - symbol: O  # 124
    coordinates: [  0.725270029999997,  0.634266756666663,  0.805600529999998 ]
    mass: 15.999400
    reduced_to: 121
  - symbol: O  # 125
    coordinates: [  0.225270029999997,  0.967600089999997,  0.805600529999998 ]
    mass: 15.999400
    reduced_to: 121
  - symbol: O  # 126
    coordinates: [  0.725270029999997,  0.967600089999997,  0.805600529999998 ]
    mass: 15.999400
    reduced_to: 121
  - symbol: O  # 127
    coordinates: [  0.476183240000000,  0.301433526666668,  0.808601160000002 ]
    mass: 15.999400
    reduced_to: 127
  - symbol: O  # 128
    coordinates: [  0.976183240000000,  0.301433526666668,  0.808601160000002 ]
    mass: 15.999400
    reduced_to: 127
  - symbol: O  # 129
    coordinates: [  0.476183240000000,  0.634766860000001,  0.808601160000002 ]
    mass: 15.999400
    reduced_to: 127
  - symbol: O  # 130
    coordinates: [  0.976183240000000,  0.634766860000001,  0.808601160000002 ]
    mass: 15.999400
    reduced_to: 127
  - symbol: O  # 131
    coordinates: [  0.476183240000000,  0.968100193333335,  0.808601160000002 ]
    mass: 15.999400
    reduced_to: 127
  - symbol: O  # 132
    coordinates: [  0.976183240000000,  0.968100193333335,  0.808601160000002 ]
    mass: 15.999400
    reduced_to: 127
  - symbol: O  # 133
    coordinates: [  0.024729970000000,  0.032399910000000,  0.194399470000001 ]
    mass: 15.999400
    reduced_to: 133
  - symbol: O  # 134
    coordinates: [  0.524729970000000,  0.032399910000000,  0.194399470000001 ]
    mass: 15.999400
    reduced_to: 133
  - symbol: O  # 135
    coordinates: [  0.024729970000000,  0.365733243333333,  0.194399470000001 ]
    mass: 15.999400
    reduced_to: 133
  - symbol: O  # 136
    coordinates: [  0.524729970000000,  0.365733243333333,  0.194399470000001 ]
    mass: 15.999400
    reduced_to: 133
  - symbol: O  # 137
    coordinates: [  0.024729970000000,  0.699066576666667,  0.194399470000001 ]
    mass: 15.999400
    reduced_to: 133
  - symbol: O  # 138
    coordinates: [  0.524729970000000,  0.699066576666667,  0.194399470000001 ]
    mass: 15.999400
    reduced_to: 133
  - symbol: O  # 139
    coordinates: [  0.273816760000000,  0.031899806666666,  0.191398839999998 ]
    mass: 15.999400
    reduced_to: 139
  - symbol: O  # 140
    coordinates: [  0.773816760000000,  0.031899806666666,  0.191398839999998 ]
    mass: 15.999400
    reduced_to: 139
  - symbol: O  # 141
    coordinates: [  0.273816760000000,  0.365233140000000,  0.191398839999998 ]
    mass: 15.999400
    reduced_to: 139
  - symbol: O  # 142
    coordinates: [  0.773816760000000,  0.365233140000000,  0.191398839999998 ]
    mass: 15.999400
    reduced_to: 139
  - symbol: O  # 143
    coordinates: [  0.273816760000000,  0.698566473333333,  0.191398839999998 ]
    mass: 15.999400
    reduced_to: 139
  - symbol: O  # 144
    coordinates: [  0.773816760000000,  0.698566473333333,  0.191398839999998 ]
    mass: 15.999400
    reduced_to: 139

born_effective_charge:
- # 1 (Li)
  - [  1.159407171900817, -0.005614131412006, -0.014033898520026 ]
  - [ -0.010299996624487,  1.239556590041527, -0.042238151715398 ]
  - [ -0.039371365558214, -0.043104240790925,  1.021923353474323 ]
- # 2 (Li)
  - [  1.159407171900817, -0.005614131412006, -0.014033898520026 ]
  - [ -0.010299996624487,  1.239556590041527, -0.042238151715398 ]
  - [ -0.039371365558214, -0.043104240790925,  1.021923353474323 ]
- # 3 (Li)
  - [  1.325996526919589, -0.030222052784963, -0.174652951443924 ]
  - [ -0.020772359737569,  1.261481162816006, -0.016302491481263 ]
  - [ -0.123556454365440, -0.014555902257179,  1.209336275681072 ]
- # 4 (Li)
  - [  1.325996526919589, -0.030222052784963, -0.174652951443924 ]
  - [ -0.020772359737569,  1.261481162816006, -0.016302491481263 ]
  - [ -0.123556454365440, -0.014555902257179,  1.209336275681072 ]
- # 5 (Li)
  - [  0.966521860526210,  0.015747918524301,  0.147525044961594 ]
  - [  0.008584455532896,  1.297599625587070, -0.036093738531694 ]
  - [  0.108790680034613, -0.037417762710647,  1.081547709303387 ]
- # 6 (Li)
  - [  0.920878461008041, -0.027393211929355, -0.079861726536696 ]
  - [ -0.024250446522660,  1.285887321857085, -0.018761229068248 ]
  - [ -0.062868125145157, -0.018180350722400,  1.203500837551541 ]
- # 7 (Li)
  - [  0.966521860526210,  0.015747918524301,  0.147525044961594 ]
  - [  0.008584455532896,  1.297599625587070, -0.036093738531694 ]
  - [  0.108790680034613, -0.037417762710647,  1.081547709303387 ]
- # 8 (Li)
  - [  0.920878461008041, -0.027393211929355, -0.079861726536696 ]
  - [ -0.024250446522660,  1.285887321857085, -0.018761229068248 ]
  - [ -0.062868125145157, -0.018180350722400,  1.203500837551541 ]
- # 9 (Fe)
  - [  1.911967861063904,  0.036445427812396,  0.279317974847871 ]
  - [  0.060038129847497,  2.362720749509422,  0.019999768405964 ]
  - [  0.406888719024453,  0.024360412657410,  2.413486379843341 ]
- # 10 (Fe)
  - [  1.911967861063904,  0.036445427812396,  0.279317974847871 ]
  - [  0.060038129847497,  2.362720749509422,  0.019999768405964 ]
  - [  0.406888719024453,  0.024360412657410,  2.413486379843341 ]
- # 11 (Fe)