  99  99   0   0
  0.1430410E+02  0.1177748E-08  0.1177748E-08  0.1058004E-08  0.5000000E-15
  1.000000000000000E-004
  CAR 
 unknown system                          
     17.97627304    -54.33866540  301      5.26089636      1.00000000
    -54.339  0.0000E+00  0.0000E+00  0.0000E+00  0.0000E+00
    -54.098  0.0000E+00  0.0000E+00  0.0000E+00  0.0000E+00
    -53.857  0.0000E+00  0.0000E+00  0.0000E+00  0.0000E+00
    -53.616  0.0000E+00  0.0000E+00  0.0000E+00  0.0000E+00
    -53.374  0.0000E+00  0.0000E+00  0.0000E+00  0.0000E+00
    -53.133  0.0000E+00  0.0000E+00  0.0000E+00  0.0000E+00
    -52.892  0.0000E+00  0.0000E+00  0.0000E+00  0.0000E+00
    -52.651  0.0000E+00  0.0000E+00  0.0000E+00  0.0000E+00
    -52.410  0.0000E+00  0.0000E+00  0.0000E+00  0.0000E+00
    -52.169  0.0000E+00  0.0000E+00  0.0000E+00  0.0000E+00
    -51.928  0.0000E+00  0.0000E+00  0.0000E+00  0.0000E+00
    -51.687  0.0000E+00  0.0000E+00  0.0000E+00  0.0000E+00
    -51.446  0.0000E+00  0.0000E+00  0.0000E+00  0.0000E+00
    -51.205  0.4545E-03  0.0000E+00  0.1096E-03  0.0000E+00
    -50.964  0.1472E+03  0.0000E+00  0.3548E+02  0.0000E+00
    -50.723  0.2141E+01  0.0000E+00  0.3600E+02  0.0000E+00
    -50.482  0.0000E+00  0.0000E+00  0.3600E+02  0.0000E+00
    -50.241  0.0000E+00  0.0000E+00  0.3600E+02  0.0000E+00
    -50.000  0.0000E+00  0.0000E+00  0.3600E+02  0.0000E+00
    -49.759  0.1855E+01  0.0000E+00  0.3645E+02  0.0000E+00
    -49.518  0.2715E+03  0.0000E+00  0.1019E+03  0.0000E+00
    -49.277  0.2533E+02  0.0000E+00  0.1080E+03  0.0000E+00
    -49.036  0.0000E+00  0.0000E+00  0.1080E+03  0.0000E+00
    -48.795  0.0000E+00  0.0000E+00  0.1080E+03  0.0000E+00
    -48.553  0.0000E+00  0.0000E+00  0.1080E+03  0.0000E+00
    -48.312  0.0000E+00  0.0000E+00  0.1080E+03  0.0000E+00
    -48.071  0.0000E+00  0.0000E+00  0.1080E+03  0.0000E+00
    -47.830  0.0000E+00  0.0000E+00  0.1080E+03  0.0000E+00
    -47.589  0.0000E+00  0.0000E+00  0.1080E+03  0.0000E+00
    -47.348  0.0000E+00  0.0000E+00  0.1080E+03  0.0000E+00
    -47.107  0.0000E+00  0.0000E+00  0.1080E+03  0.0000E+00
    -46.866  0.0000E+00  0.0000E+00  0.1080E+03  0.0000E+00
    -46.625  0.0000E+00  0.0000E+00  0.1080E+03  0.0000E+00
    -46.384  0.0000E+00  0.4369E+00  0.1080E+03  0.1053E+00
    -46.143  0.0000E+00  0.1489E+03  0.1080E+03  0.3599E+02
    -45.902  0.0000E+00  0.7290E+02  0.1080E+03  0.5357E+02
    -45.661  0.0000E+00  0.2258E+03  0.1080E+03  0.1080E+03
    -45.420  0.0000E+00  0.0000E+00  0.1080E+03  0.1080E+03
    -45.179  0.0000E+00  0.0000E+00  0.1080E+03  0.1080E+03
    -44.938  0.0000E+00  0.0000E+00  0.1080E+03  0.1080E+03
    -44.697  0.0000E+00  0.0000E+00  0.1080E+03  0.1080E+03
    -44.456  0.0000E+00  0.0000E+00  0.1080E+03  0.1080E+03
    -44.215  0.0000E+00  0.0000E+00  0.1080E+03  0.1080E+03
    -43.974  0.0000E+00  0.0000E+00  0.1080E+03  0.1080E+03
    -43.732  0.0000E+00  0.0000E+00  0.1080E+03  0.1080E+03
    -43.491  0.0000E+00  0.0000E+00  0.1080E+03  0.1080E+03
    -43.250  0.0000E+00  0.0000E+00  0.1080E+03  0.1080E+03
    -43.009  0.0000E+00  0.0000E+00  0.1080E+03  0.1080E+03
    -42.768  0.0000E+00  0.0000E+00  0.1080E+03  0.1080E+03
    -42.527  0.0000E+00  0.0000E+00  0.1080E+03  0.1080E+03
    -42.286  0.0000E+00  0.0000E+00  0.1080E+03  0.1080E+03
    -42.045  0.0000E+00  0.0000E+00  0.1080E+03  0.1080E+03
    -41.804  0.0000E+00  0.0000E+00  0.1080E+03  0.1080E+03
    -41.563  0.0000E+00  0.0000E+00  0.1080E+03  0.1080E+03
    -41.322  0.0000E+00  0.0000E+00  0.1080E+03  0.1080E+03
    -41.081  0.0000E+00  0.0000E+00  0.1080E+03  0.1080E+03
    -40.840  0.0000E+00  0.0000E+00  0.1080E+03  0.1080E+03
    -40.599  0.0000E+00  0.0000E+00  0.1080E+03  0.1080E+03
    -40.358  0.0000E+00  0.0000E+00  0.1080E+03  0.1080E+03
    -40.117  0.2552E-10  0.1659E-10  0.1080E+03  0.1080E+03
    -39.876  0.2636E+02  0.2476E+02  0.1144E+03  0.1140E+03
    -39.635  0.4831E+02  0.4992E+02  0.1260E+03  0.1260E+03
    -39.394  0.0000E+00  0.0000E+00  0.1260E+03  0.1260E+03
    -39.153  0.0000E+00  0.0000E+00  0.1260E+03  0.1260E+03
    -38.911  0.0000E+00  0.0000E+00  0.1260E+03  0.1260E+03
    -38.670  0.0000E+00  0.0000E+00  0.1260E+03  0.1260E+03
    -38.429  0.0000E+00  0.0000E+00  0.1260E+03  0.1260E+03
    -38.188  0.0000E+00  0.0000E+00  0.1260E+03  0.1260E+03
    -37.947  0.0000E+00  0.0000E+00  0.1260E+03  0.1260E+03
    -37.706  0.0000E+00  0.0000E+00  0.1260E+03  0.1260E+03
    -37.465  0.0000E+00  0.0000E+00  0.1260E+03  0.1260E+03
    -37.224  0.0000E+00  0.0000E+00  0.1260E+03  0.1260E+03
    -36.983  0.0000E+00  0.0000E+00  0.1260E+03  0.1260E+03
    -36.742  0.0000E+00  0.0000E+00  0.1260E+03  0.1260E+03
    -36.501  0.0000E+00  0.0000E+00  0.1260E+03  0.1260E+03
    -36.260  0.0000E+00  0.0000E+00  0.1260E+03  0.1260E+03
    -36.019  0.0000E+00  0.0000E+00  0.1260E+03  0.1260E+03
    -35.778  0.0000E+00  0.0000E+00  0.1260E+03  0.1260E+03
    -35.537  0.0000E+00  0.0000E+00  0.1260E+03  0.1260E+03
    -35.296  0.0000E+00  0.0000E+00  0.1260E+03  0.1260E+03
    -35.055  0.0000E+00  0.0000E+00  0.1260E+03  0.1260E+03
    -34.814  0.0000E+00  0.0000E+00  0.1260E+03  0.1260E+03
    -34.573  0.0000E+00  0.0000E+00  0.1260E+03  0.1260E+03
    -34.332  0.0000E+00  0.0000E+00  0.1260E+03  0.1260E+03
    -34.090  0.0000E+00  0.0000E+00  0.1260E+03  0.1260E+03
    -33.849  0.0000E+00  0.0000E+00  0.1260E+03  0.1260E+03
    -33.608  0.0000E+00  0.0000E+00  0.1260E+03  0.1260E+03
    -33.367  0.0000E+00  0.0000E+00  0.1260E+03  0.1260E+03
    -33.126  0.0000E+00  0.0000E+00  0.1260E+03  0.1260E+03
    -32.885  0.0000E+00  0.0000E+00  0.1260E+03  0.1260E+03
    -32.644  0.0000E+00  0.0000E+00  0.1260E+03  0.1260E+03
    -32.403  0.0000E+00  0.0000E+00  0.1260E+03  0.1260E+03
    -32.162  0.0000E+00  0.0000E+00  0.1260E+03  0.1260E+03
    -31.921  0.0000E+00  0.0000E+00  0.1260E+03  0.1260E+03
    -31.680  0.0000E+00  0.0000E+00  0.1260E+03  0.1260E+03
    -31.439  0.0000E+00  0.0000E+00  0.1260E+03  0.1260E+03
    -31.198  0.0000E+00  0.0000E+00  0.1260E+03  0.1260E+03
    -30.957  0.0000E+00  0.0000E+00  0.1260E+03  0.1260E+03
    -30.716  0.0000E+00  0.0000E+00  0.1260E+03  0.1260E+03
    -30.475  0.0000E+00  0.0000E+00  0.1260E+03  0.1260E+03
    -30.234  0.0000E+00  0.0000E+00  0.1260E+03  0.1260E+03
    -29.993  0.0000E+00  0.0000E+00  0.1260E+03  0.1260E+03
    -29.752  0.0000E+00  0.0000E+00  0.1260E+03  0.1260E+03
    -29.511  0.0000E+00  0.0000E+00  0.1260E+03  0.1260E+03
    -29.269  0.0000E+00  0.0000E+00  0.1260E+03  0.1260E+03
    -29.028  0.0000E+00  0.0000E+00  0.1260E+03  0.1260E+03
    -28.787  0.0000E+00  0.0000E+00  0.1260E+03  0.1260E+03
    -28.546  0.0000E+00  0.0000E+00  0.1260E+03  0.1260E+03
    -28.305  0.0000E+00  0.0000E+00  0.1260E+03  0.1260E+03
    -28.064  0.0000E+00  0.0000E+00  0.1260E+03  0.1260E+03
    -27.823  0.0000E+00  0.0000E+00  0.1260E+03  0.1260E+03
    -27.582  0.0000E+00  0.0000E+00  0.1260E+03  0.1260E+03
    -27.341  0.0000E+00  0.0000E+00  0.1260E+03  0.1260E+03
    -27.100  0.0000E+00  0.0000E+00  0.1260E+03  0.1260E+03
    -26.859  0.0000E+00  0.0000E+00  0.1260E+03  0.1260E+03
    -26.618  0.0000E+00  0.0000E+00  0.1260E+03  0.1260E+03
    -26.377  0.0000E+00  0.0000E+00  0.1260E+03  0.1260E+03
    -26.136  0.0000E+00  0.0000E+00  0.1260E+03  0.1260E+03
    -25.895  0.0000E+00  0.0000E+00  0.1260E+03  0.1260E+03
    -25.654  0.0000E+00  0.0000E+00  0.1260E+03  0.1260E+03
    -25.413  0.0000E+00  0.0000E+00  0.1260E+03  0.1260E+03
    -25.172  0.0000E+00  0.0000E+00  0.1260E+03  0.1260E+03
    -24.931  0.0000E+00  0.0000E+00  0.1260E+03  0.1260E+03
    -24.690  0.0000E+00  0.0000E+00  0.1260E+03  0.1260E+03
    -24.448  0.0000E+00  0.0000E+00  0.1260E+03  0.1260E+03
    -24.207  0.0000E+00  0.0000E+00  0.1260E+03  0.1260E+03
    -23.966  0.0000E+00  0.0000E+00  0.1260E+03  0.1260E+03
    -23.725  0.0000E+00  0.0000E+00  0.1260E+03  0.1260E+03
    -23.484  0.0000E+00  0.0000E+00  0.1260E+03  0.1260E+03
    -23.243  0.0000E+00  0.0000E+00  0.1260E+03  0.1260E+03
    -23.002  0.0000E+00  0.0000E+00  0.1260E+03  0.1260E+03
    -22.761  0.0000E+00  0.0000E+00  0.1260E+03  0.1260E+03
    -22.520  0.0000E+00  0.0000E+00  0.1260E+03  0.1260E+03
    -22.279  0.0000E+00  0.0000E+00  0.1260E+03  0.1260E+03
    -22.038  0.0000E+00  0.0000E+00  0.1260E+03  0.1260E+03
    -21.797  0.0000E+00  0.0000E+00  0.1260E+03  0.1260E+03
    -21.556  0.0000E+00  0.0000E+00  0.1260E+03  0.1260E+03
    -21.315  0.0000E+00  0.0000E+00  0.1260E+03  0.1260E+03
    -21.074  0.0000E+00  0.0000E+00  0.1260E+03  0.1260E+03
    -20.833  0.0000E+00  0.0000E+00  0.1260E+03  0.1260E+03
    -20.592  0.0000E+00  0.0000E+00  0.1260E+03  0.1260E+03
    -20.351  0.0000E+00  0.0000E+00  0.1260E+03  0.1260E+03
    -20.110  0.0000E+00  0.0000E+00  0.1260E+03  0.1260E+03
    -19.869  0.0000E+00  0.0000E+00  0.1260E+03  0.1260E+03
    -19.627  0.0000E+00  0.0000E+00  0.1260E+03  0.1260E+03
    -19.386  0.0000E+00  0.0000E+00  0.1260E+03  0.1260E+03
    -19.145  0.0000E+00  0.0000E+00  0.1260E+03  0.1260E+03
    -18.904  0.0000E+00  0.0000E+00  0.1260E+03  0.1260E+03
    -18.663  0.0000E+00  0.0000E+00  0.1260E+03  0.1260E+03
    -18.422  0.0000E+00  0.0000E+00  0.1260E+03  0.1260E+03
    -18.181  0.0000E+00  0.0000E+00  0.1260E+03  0.1260E+03
    -17.940  0.0000E+00  0.0000E+00  0.1260E+03  0.1260E+03
    -17.699  0.0000E+00  0.0000E+00  0.1260E+03  0.1260E+03
    -17.458  0.0000E+00  0.0000E+00  0.1260E+03  0.1260E+03
    -17.217  0.0000E+00  0.0000E+00  0.1260E+03  0.1260E+03
    -16.976  0.0000E+00  0.0000E+00  0.1260E+03  0.1260E+03
    -16.735  0.0000E+00  0.0000E+00  0.1260E+03  0.1260E+03
    -16.494  0.0000E+00  0.0000E+00  0.1260E+03  0.1260E+03
    -16.253  0.0000E+00  0.0000E+00  0.1260E+03  0.1260E+03
    -16.012  0.0000E+00  0.0000E+00  0.1260E+03  0.1260E+03
    -15.771  0.0000E+00  0.0000E+00  0.1260E+03  0.1260E+03
    -15.530  0.0000E+00  0.0000E+00  0.1260E+03  0.1260E+03
    -15.289  0.0000E+00  0.0000E+00  0.1260E+03  0.1260E+03
    -15.048  0.0000E+00  0.0000E+00  0.1260E+03  0.1260E+03
    -14.806  0.0000E+00  0.0000E+00  0.1260E+03  0.1260E+03
    -14.565  0.0000E+00  0.0000E+00  0.1260E+03  0.1260E+03
    -14.324  0.0000E+00  0.0000E+00  0.1260E+03  0.1260E+03
    -14.083  0.0000E+00  0.0000E+00  0.1260E+03  0.1260E+03
    -13.842  0.0000E+00  0.0000E+00  0.1260E+03  0.1260E+03
    -13.601  0.0000E+00  0.0000E+00  0.1260E+03  0.1260E+03
    -13.360  0.1383E-02  0.0000E+00  0.1260E+03  0.1260E+03
    -13.119  0.3415E+02  0.5118E-15  0.1342E+03  0.1260E+03
    -12.878  0.4047E+02  0.7294E+00  0.1440E+03  0.1262E+03
    -12.637  0.6152E-01  0.6309E+02  0.1440E+03  0.1414E+03
    -12.396  0.0000E+00  0.1085E+02  0.1440E+03  0.1440E+03
    -12.155  0.0000E+00  0.0000E+00  0.1440E+03  0.1440E+03
    -11.914  0.0000E+00  0.0000E+00  0.1440E+03  0.1440E+03
    -11.673  0.0000E+00  0.0000E+00  0.1440E+03  0.1440E+03
    -11.432  0.0000E+00  0.0000E+00  0.1440E+03  0.1440E+03
    -11.191  0.0000E+00  0.0000E+00  0.1440E+03  0.1440E+03
    -10.950  0.0000E+00  0.0000E+00  0.1440E+03  0.1440E+03
    -10.709  0.0000E+00  0.0000E+00  0.1440E+03  0.1440E+03
    -10.468  0.0000E+00  0.0000E+00  0.1440E+03  0.1440E+03
    -10.227  0.0000E+00  0.0000E+00  0.1440E+03  0.1440E+03
     -9.986  0.0000E+00  0.0000E+00  0.1440E+03  0.1440E+03
     -9.744  0.0000E+00  0.0000E+00  0.1440E+03  0.1440E+03
     -9.503  0.0000E+00  0.0000E+00  0.1440E+03  0.1440E+03
     -9.262  0.0000E+00  0.0000E+00  0.1440E+03  0.1440E+03
     -9.021  0.0000E+00  0.0000E+00  0.1440E+03  0.1440E+03
     -8.780  0.0000E+00  0.0000E+00  0.1440E+03  0.1440E+03
     -8.539  0.0000E+00  0.0000E+00  0.1440E+03  0.1440E+03
     -8.298  0.0000E+00  0.0000E+00  0.1440E+03  0.1440E+03
     -8.057  0.0000E+00  0.0000E+00  0.1440E+03  0.1440E+03
     -7.816  0.9895E-09  0.0000E+00  0.1440E+03  0.1440E+03
     -7.575  0.1013E+01  0.1516E-09  0.1442E+03  0.1440E+03
     -7.334  0.1980E+02  0.9008E+00  0.1490E+03  0.1442E+03
     -7.093  0.3131E+02  0.2180E+02  0.1566E+03  0.1495E+03
     -6.852  0.3745E+02  0.2961E+02  0.1656E+03  0.1566E+03
     -6.611  0.2243E+02  0.2797E+02  0.1710E+03  0.1634E+03
     -6.370  0.4745E-05  0.3170E+02  0.1710E+03  0.1710E+03
     -6.129  0.0000E+00  0.2865E-01  0.1710E+03  0.1710E+03
     -5.888  0.0000E+00  0.0000E+00  0.1710E+03  0.1710E+03
     -5.647  0.0000E+00  0.0000E+00  0.1710E+03  0.1710E+03
     -5.406  0.0000E+00  0.0000E+00  0.1710E+03  0.1710E+03
     -5.165  0.0000E+00  0.0000E+00  0.1710E+03  0.1710E+03
     -4.923  0.0000E+00  0.0000E+00  0.1710E+03  0.1710E+03
     -4.682  0.0000E+00  0.0000E+00  0.1710E+03  0.1710E+03
     -4.441  0.0000E+00  0.0000E+00  0.1710E+03  0.1710E+03
     -4.200  0.0000E+00  0.0000E+00  0.1710E+03  0.1710E+03
     -3.959  0.0000E+00  0.0000E+00  0.1710E+03  0.1710E+03
     -3.718  0.0000E+00  0.0000E+00  0.1710E+03  0.1710E+03
     -3.477  0.0000E+00  0.0000E+00  0.1710E+03  0.1710E+03
     -3.236  0.0000E+00  0.0000E+00  0.1710E+03  0.1710E+03
     -2.995  0.0000E+00  0.0000E+00  0.1710E+03  0.1710E+03
     -2.754  0.0000E+00  0.0000E+00  0.1710E+03  0.1710E+03
     -2.513  0.0000E+00  0.0000E+00  0.1710E+03  0.1710E+03
     -2.272  0.0000E+00  0.0000E+00  0.1710E+03  0.1710E+03
     -2.031  0.4911E-01  0.0000E+00  0.1710E+03  0.1710E+03
     -1.790  0.2682E+02  0.0000E+00  0.1775E+03  0.1710E+03
     -1.549  0.1846E+02  0.0000E+00  0.1819E+03  0.1710E+03
     -1.308  0.1488E+02  0.0000E+00  0.1855E+03  0.1710E+03
     -1.067  0.2435E+02  0.0000E+00  0.1914E+03  0.1710E+03
     -0.826  0.5731E+02  0.0000E+00  0.2052E+03  0.1710E+03
     -0.585  0.6232E+02  0.1605E-02  0.2202E+03  0.1710E+03
     -0.344  0.4170E+02  0.1148E+02  0.2303E+03  0.1738E+03
     -0.102  0.8211E+02  0.2015E+02  0.2501E+03  0.1786E+03
      0.139  0.9036E+02  0.1365E+02  0.2718E+03  0.1819E+03
      0.380  0.8263E+02  0.2402E+02  0.2918E+03  0.1877E+03
      0.621  0.7297E+02  0.3309E+02  0.3093E+03  0.1957E+03
      0.862  0.5803E+02  0.4716E+02  0.3233E+03  0.2070E+03
      1.103  0.3798E+02  0.4054E+02  0.3325E+03  0.2168E+03
      1.344  0.3743E+02  0.3271E+02  0.3415E+03  0.2247E+03
      1.585  0.4937E+02  0.2541E+02  0.3534E+03  0.2308E+03
      1.826  0.5659E+02  0.3265E+02  0.3671E+03  0.2387E+03
      2.067  0.7657E+02  0.4106E+02  0.3855E+03  0.2486E+03
      2.308  0.5899E+02  0.2614E+02  0.3997E+03  0.2549E+03
      2.549  0.3276E+02  0.2990E+02  0.4076E+03  0.2621E+03
      2.790  0.5088E+02  0.4160E+02  0.4199E+03  0.2721E+03
      3.031  0.2143E+02  0.4668E+02  0.4251E+03  0.2834E+03
      3.272  0.1131E+02  0.4667E+02  0.4278E+03  0.2946E+03
      3.513  0.3892E+02  0.3916E+02  0.4372E+03  0.3041E+03
      3.754  0.2566E+02  0.6855E+01  0.4434E+03  0.3057E+03
      3.995  0.3856E+02  0.2607E+02  0.4526E+03  0.3120E+03
      4.236  0.3851E+02  0.7549E+02  0.4619E+03  0.3302E+03
      4.477  0.3876E+02  0.3957E+02  0.4713E+03  0.3397E+03
      4.719  0.3514E+02  0.9376E+01  0.4797E+03  0.3420E+03
      4.960  0.2365E+02  0.0000E+00  0.4854E+03  0.3420E+03
      5.201  0.2295E+01  0.0000E+00  0.4860E+03  0.3420E+03
      5.442  0.0000E+00  0.0000E+00  0.4860E+03  0.3420E+03
      5.683  0.0000E+00  0.0000E+00  0.4860E+03  0.3420E+03
      5.924  0.0000E+00  0.0000E+00  0.4860E+03  0.3420E+03
      6.165  0.0000E+00  0.2408E-07  0.4860E+03  0.3420E+03
      6.406  0.0000E+00  0.1654E+01  0.4860E+03  0.3424E+03
      6.647  0.0000E+00  0.5090E+01  0.4860E+03  0.3436E+03
      6.888  0.0000E+00  0.1167E+02  0.4860E+03  0.3464E+03
      7.129  0.2092E-11  0.2223E+02  0.4860E+03  0.3518E+03
      7.370  0.8642E-01  0.6144E+02  0.4860E+03  0.3666E+03
      7.611  0.6724E-01  0.6245E+02  0.4860E+03  0.3817E+03
      7.852  0.6087E+00  0.6276E+02  0.4862E+03  0.3968E+03
      8.093  0.7923E+00  0.7558E+02  0.4864E+03  0.4150E+03
      8.334  0.2545E+01  0.8142E+02  0.4870E+03  0.4346E+03
      8.575  0.4675E+01  0.6813E+02  0.4881E+03  0.4511E+03
      8.816  0.1015E+02  0.6438E+02  0.4906E+03  0.4666E+03
      9.057  0.1464E+02  0.4400E+02  0.4941E+03  0.4772E+03
      9.298  0.1743E+02  0.3107E+02  0.4983E+03  0.4847E+03
      9.540  0.1907E+02  0.8109E+01  0.5029E+03  0.4866E+03
      9.781  0.1649E+02  0.6023E+01  0.5069E+03  0.4881E+03
     10.022  0.2472E+02  0.1184E+02  0.5128E+03  0.4909E+03
     10.263  0.1659E+02  0.1812E+02  0.5168E+03  0.4953E+03
     10.504  0.2183E+02  0.2255E+02  0.5221E+03  0.5007E+03
     10.745  0.1285E+02  0.2261E+02  0.5252E+03  0.5062E+03
     10.986  0.1578E+02  0.2357E+02  0.5290E+03  0.5119E+03
     11.227  0.2333E+02  0.3006E+02  0.5346E+03  0.5191E+03
     11.468  0.3271E+02  0.2001E+02  0.5425E+03  0.5239E+03
     11.709  0.2794E+02  0.1759E+02  0.5492E+03  0.5282E+03
     11.950  0.3372E+02  0.1137E+02  0.5574E+03  0.5309E+03
     12.191  0.3548E+02  0.2712E+02  0.5659E+03  0.5375E+03
     12.432  0.2203E+02  0.4580E+02  0.5712E+03  0.5485E+03
     12.673  0.1946E+02  0.3476E+02  0.5759E+03  0.5569E+03
     12.914  0.2472E+02  0.3071E+02  0.5819E+03  0.5643E+03
     13.155  0.2677E+02  0.2069E+02  0.5883E+03  0.5693E+03
     13.396  0.2845E+02  0.2512E+02  0.5952E+03  0.5753E+03
     13.637  0.2459E+02  0.3287E+02  0.6011E+03  0.5832E+03
     13.878  0.1739E+02  0.2600E+02  0.6053E+03  0.5895E+03
     14.119  0.2937E+01  0.2550E+02  0.6060E+03  0.5957E+03
     14.361  0.2304E-04  0.2336E+02  0.6060E+03  0.6013E+03
     14.602  0.0000E+00  0.1793E+02  0.6060E+03  0.6056E+03
     14.843  0.0000E+00  0.1607E+01  0.6060E+03  0.6060E+03
     15.084  0.0000E+00  0.2202E-05  0.6060E+03  0.6060E+03
     15.325  0.0000E+00  0.0000E+00  0.6060E+03  0.6060E+03
     15.566  0.0000E+00  0.0000E+00  0.6060E+03  0.6060E+03
     15.807  0.0000E+00  0.0000E+00  0.6060E+03  0.6060E+03
     16.048  0.0000E+00  0.0000E+00  0.6060E+03  0.6060E+03
     16.289  0.0000E+00  0.0000E+00  0.6060E+03  0.6060E+03
     16.530  0.0000E+00  0.0000E+00  0.6060E+03  0.6060E+03
     16.771  0.0000E+00  0.0000E+00  0.6060E+03  0.6060E+03
     17.012  0.0000E+00  0.0000E+00  0.6060E+03  0.6060E+03
     17.253  0.0000E+00  0.0000E+00  0.6060E+03  0.6060E+03
     17.494  0.0000E+00  0.0000E+00  0.6060E+03  0.6060E+03
     17.735  0.0000E+00  0.0000E+00  0.6060E+03  0.6060E+03
     17.976  0.0000E+00  0.0000E+00  0.6060E+03  0.6060E+03
