 vasp.5.4.4.18Apr17-6-g9f103f2a35 (build Oct 25 2017 14:42:18) complex          
  
 executed on             LinuxIFC date 2021.05.28  04:25:24
 running on   24 total cores
 distrk:  each k-point on   12 cores,    2 groups
 distr:  one band on NCORES_PER_BAND=   6 cores,    2 groups


--------------------------------------------------------------------------------------------------------


 INCAR:
 POTCAR:    PAW_PBE Li_sv 10Sep2004               
 POTCAR:    PAW_PBE O 08Apr2002                   
 POTCAR:    PAW_PBE S 06Sep2000                   
 POTCAR:    PAW_PBE Fe_pv 02Aug2007               

 ----------------------------------------------------------------------------- 
|                                                                             |
|           W    W    AA    RRRRR   N    N  II  N    N   GGGG   !!!           |
|           W    W   A  A   R    R  NN   N  II  NN   N  G    G  !!!           |
|           W    W  A    A  R    R  N N  N  II  N N  N  G       !!!           |
|           W WW W  AAAAAA  RRRRR   N  N N  II  N  N N  G  GGG   !            |
|           WW  WW  A    A  R   R   N   NN  II  N   NN  G    G                |
|           W    W  A    A  R    R  N    N  II  N    N   GGGG   !!!           |
|                                                                             |
|      You have enabled k-point parallelism (KPAR>1).                         |
|      This developmental code was originally  written by Paul Kent at ORNL,  |
|      and carefully double checked in Vienna.                                |
|      GW as well as linear response parallelism added by Martijn Marsman     |
|      and Georg Kresse.                                                      |
|      Carefully verify results versus KPAR=1.                                |
|      Report problems to Paul Kent and Vienna.                               |
|                                                                             |
 ----------------------------------------------------------------------------- 

 POTCAR:    PAW_PBE Li_sv 10Sep2004               
  local pseudopotential read in
  atomic valenz-charges read in
  non local Contribution for L=           0  read in
    real space projection operators read in
  non local Contribution for L=           0  read in
    real space projection operators read in
  non local Contribution for L=           1  read in
    real space projection operators read in
    PAW grid and wavefunctions read in
 
   number of l-projection  operators is LMAX  =           3
   number of lm-projection operators is LMMAX =           5
 
 POTCAR:    PAW_PBE O 08Apr2002                   
  local pseudopotential read in
  partial core-charges read in
  partial kinetic energy density read in
  kinetic energy density of atom read in
  atomic valenz-charges read in
  non local Contribution for L=           0  read in
    real space projection operators read in
  non local Contribution for L=           0  read in
    real space projection operators read in
  non local Contribution for L=           1  read in
    real space projection operators read in
  non local Contribution for L=           1  read in
    real space projection operators read in
    PAW grid and wavefunctions read in
 
   number of l-projection  operators is LMAX  =           4
   number of lm-projection operators is LMMAX =           8
 
 POTCAR:    PAW_PBE S 06Sep2000                   
  local pseudopotential read in
  partial core-charges read in
  partial kinetic energy density read in
  atomic valenz-charges read in
  non local Contribution for L=           0  read in
    real space projection operators read in
  non local Contribution for L=           0  read in
    real space projection operators read in
  non local Contribution for L=           1  read in
    real space projection operators read in
  non local Contribution for L=           1  read in
    real space projection operators read in
    PAW grid and wavefunctions read in
 
   number of l-projection  operators is LMAX  =           4
   number of lm-projection operators is LMMAX =           8
 
 POTCAR:    PAW_PBE Fe_pv 02Aug2007               
  local pseudopotential read in
  partial core-charges read in
  partial kinetic energy density read in
  atomic valenz-charges read in
  non local Contribution for L=           1  read in
    real space projection operators read in
  non local Contribution for L=           1  read in
    real space projection operators read in
  non local Contribution for L=           2  read in
    real space projection operators read in
  non local Contribution for L=           2  read in
    real space projection operators read in
  non local Contribution for L=           0  read in
    real space projection operators read in
  non local Contribution for L=           0  read in
    real space projection operators read in
    PAW grid and wavefunctions read in
 
   number of l-projection  operators is LMAX  =           6
   number of lm-projection operators is LMMAX =          18
 

 ----------------------------------------------------------------------------- 
|                                                                             |
|  ADVICE TO THIS USER RUNNING 'VASP/VAMP'   (HEAR YOUR MASTER'S VOICE ...):  |
|                                                                             |
|      You have a (more or less) 'large supercell' and for larger cells       |
|      it might be more efficient to use real space projection opertators     |
|      So try LREAL= Auto  in the INCAR   file.                               |
|      Mind:          For very  accurate calculation you might also keep the  |
|      reciprocal projection scheme          (i.e. LREAL=.FALSE.)             |
|                                                                             |
 ----------------------------------------------------------------------------- 

  PAW_PBE Li_sv 10Sep2004               :
 energy of atom  1       EATOM= -202.7858
 kinetic energy error for atom=    0.0072 (will be added to EATOM!!)
  PAW_PBE O 08Apr2002                   :
 energy of atom  2       EATOM= -432.3788
 kinetic energy error for atom=    0.0129 (will be added to EATOM!!)
  PAW_PBE S 06Sep2000                   :
 energy of atom  3       EATOM= -276.8230
 kinetic energy error for atom=    0.0008 (will be added to EATOM!!)
  PAW_PBE Fe_pv 02Aug2007               :
 energy of atom  4       EATOM=-2457.4239
 kinetic energy error for atom=    0.0041 (will be added to EATOM!!)
 
 
 POSCAR: # Compound: Li18O18S27Fe36. Old comment:
  positions in direct lattice
  No initial velocities read in
 exchange correlation table for  LEXCH =        8
   RHO(1)=    0.500       N(1)  =     2000
   RHO(2)=  100.500       N(2)  =     4000
 


--------------------------------------------------------------------------------------------------------


 ion  position               nearest neighbor table
   1  0.202  0.242  0.832-  31 1.98  28 1.99  56 2.61  55 2.62
   2  0.536  0.242  0.832-  32 1.98  29 1.99  57 2.61  56 2.61
   3  0.869  0.242  0.832-  33 1.98  30 1.99  55 2.60  57 2.61
   4  0.202  0.575  0.832-  34 1.98  31 1.99  59 2.61  58 2.61
   5  0.536  0.575  0.832-  35 1.98  32 1.99  60 2.61  59 2.61
   6  0.869  0.575  0.832-  36 1.98  33 1.99  58 2.61  60 2.61
   7  0.202  0.909  0.832-  28 1.98  34 1.99  62 2.61  61 2.61
   8  0.536  0.909  0.832-  29 1.98  35 1.99  63 2.61  62 2.61
   9  0.869  0.909  0.832-  30 1.98  36 1.99  61 2.61  63 2.61
  10  0.091  0.131  0.168-  21 1.98  19 1.99  61 2.61  55 2.61
  11  0.425  0.131  0.168-  19 1.98  20 1.99  62 2.61  56 2.61
  12  0.758  0.131  0.168-  20 1.98  21 1.99  63 2.61  57 2.61
  13  0.091  0.464  0.168-  24 1.98  22 1.99  55 2.61  58 2.61
  14  0.425  0.464  0.168-  22 1.98  23 1.99  56 2.61  59 2.61
  15  0.758  0.464  0.168-  23 1.98  24 1.99  57 2.61  60 2.61
  16  0.091  0.798  0.168-  27 1.98  25 1.99  58 2.61  61 2.61
  17  0.425  0.798  0.168-  25 1.98  26 1.99  59 2.61  62 2.61
  18  0.758  0.798  0.168-  26 1.98  27 1.99  60 2.61  63 2.61
  19  0.263  0.136  0.197-  11 1.98  10 1.99  97 2.01  64 2.01  91 2.01
  20  0.596  0.136  0.197-  12 1.98  11 1.99  98 2.01  65 2.01  92 2.01
  21  0.930  0.136  0.197-  10 1.98  12 1.99  99 2.01  66 2.01  93 2.01
  22  0.263  0.469  0.197-  14 1.98  13 1.99  91 2.01  67 2.01  94 2.01
  23  0.596  0.469  0.197-  15 1.98  14 1.99  92 2.01  68 2.01  95 2.01
  24  0.930  0.469  0.197-  13 1.98  15 1.99  93 2.01  69 2.01  96 2.01
  25  0.263  0.803  0.197-  17 1.98  16 1.99  94 2.01  70 2.01  97 2.01
  26  0.596  0.803  0.197-  18 1.98  17 1.99  95 2.01  71 2.01  98 2.01
  27  0.930  0.803  0.197-  16 1.98  18 1.99  96 2.01  72 2.01  99 2.01
  28  0.197  0.070  0.803-   7 1.98   1 1.99  83 2.01  73 2.01  82 2.01
  29  0.531  0.070  0.803-   8 1.98   2 1.99  84 2.01  74 2.01  83 2.01
  30  0.864  0.070  0.803-   9 1.98   3 1.99  82 2.01  75 2.01  84 2.01
  31  0.197  0.404  0.803-   1 1.98   4 1.99  86 2.01  76 2.01  85 2.01
  32  0.531  0.404  0.803-   2 1.98   5 1.99  87 2.01  77 2.01  86 2.01
  33  0.864  0.404  0.803-   3 1.98   6 1.99  85 2.01  78 2.01  87 2.01
  34  0.197  0.737  0.803-   4 1.98   7 1.99  89 2.01  79 2.01  88 2.01
  35  0.531  0.737  0.803-   5 1.98   8 1.99  90 2.01  80 2.01  89 2.01
  36  0.864  0.737  0.803-   6 1.98   9 1.99  88 2.01  81 2.01  90 2.01
  37  0.003  0.207  0.629-  66 2.41  73 2.70  75 2.76
  38  0.336  0.207  0.629-  64 2.41  74 2.70  73 2.76
  39  0.669  0.207  0.629-  65 2.41  75 2.70  74 2.76
  40  0.003  0.540  0.629-  69 2.41  76 2.70  78 2.76
  41  0.336  0.540  0.629-  67 2.41  77 2.70  76 2.76
  42  0.669  0.540  0.629-  68 2.41  78 2.70  77 2.76
  43  0.003  0.873  0.629-  72 2.41  79 2.70  81 2.76
  44  0.336  0.873  0.629-  70 2.41  80 2.70  79 2.76
  45  0.669  0.873  0.629-  71 2.41  81 2.70  80 2.76
  46  0.127  0.331  0.371-  76 2.41  64 2.70  67 2.76
  47  0.460  0.331  0.371-  77 2.41  65 2.70  68 2.76
  48  0.793  0.331  0.371-  78 2.41  66 2.70  69 2.76
  49  0.127  0.664  0.371-  79 2.41  67 2.70  70 2.76
  50  0.460  0.664  0.371-  80 2.41  68 2.70  71 2.76
  51  0.793  0.664  0.371-  81 2.41  69 2.70  72 2.76
  52  0.127  0.997  0.371-  73 2.41  70 2.70  64 2.76
  53  0.460  0.997  0.371-  74 2.41  71 2.70  65 2.76
  54  0.793  0.997  0.371-  75 2.41  72 2.70  66 2.76
  55  0.063  0.270  0.000-  93 2.51  85 2.52  82 2.52  91 2.53   3 2.60  13 2.61  10 2.61   1 2.62

  56  0.397  0.270  0.000-  86 2.52  91 2.52  83 2.52  92 2.52  14 2.61   1 2.61  11 2.61   2 2.61

  57  0.730  0.270  0.000-  87 2.52  92 2.52  84 2.52  93 2.52  15 2.61   2 2.61  12 2.61   3 2.61

  58  0.064  0.603  0.000-  88 2.52  96 2.52  85 2.52  94 2.52  16 2.61   6 2.61  13 2.61   4 2.61

  59  0.397  0.603  0.000-  89 2.52  94 2.52  86 2.52  95 2.52  17 2.61   4 2.61  14 2.61   5 2.61

  60  0.730  0.603  0.000-  90 2.52  95 2.52  87 2.52  96 2.52  18 2.61   5 2.61  15 2.61   6 2.61

  61  0.064  0.936  0.000-  82 2.52  99 2.52  88 2.52  97 2.52  10 2.61   9 2.61  16 2.61   7 2.61

  62  0.397  0.936  0.000-  83 2.52  97 2.52  89 2.52  98 2.52  11 2.61   7 2.61  17 2.61   8 2.61

  63  0.730  0.936  0.000-  84 2.52  98 2.52  90 2.52  99 2.52  12 2.61   8 2.61  18 2.61   9 2.61

  64  0.290  0.172  0.394-  19 2.01  38 2.41  46 2.70  52 2.76
  65  0.624  0.172  0.394-  20 2.01  39 2.41  47 2.70  53 2.76
  66  0.957  0.172  0.394-  21 2.01  37 2.41  48 2.70  54 2.76
  67  0.290  0.505  0.394-  22 2.01  41 2.41  49 2.70  46 2.76
  68  0.624  0.505  0.394-  23 2.01  42 2.41  50 2.70  47 2.76
  69  0.957  0.505  0.394-  24 2.01  40 2.41  51 2.70  48 2.76
  70  0.290  0.839  0.394-  25 2.01  44 2.41  52 2.70  49 2.76
  71  0.624  0.839  0.394-  26 2.01  45 2.41  53 2.70  50 2.76
  72  0.957  0.839  0.394-  27 2.01  43 2.41  54 2.70  51 2.76
  73  0.161  0.043  0.606-  28 2.01  52 2.41  37 2.70  38 2.76
  74  0.495  0.043  0.606-  29 2.01  53 2.41  38 2.70  39 2.76
  75  0.828  0.043  0.606-  30 2.01  54 2.41  39 2.70  37 2.76
  76  0.161  0.376  0.606-  31 2.01  46 2.41  40 2.70  41 2.76
  77  0.495  0.376  0.606-  32 2.01  47 2.41  41 2.70  42 2.76
  78  0.828  0.376  0.606-  33 2.01  48 2.41  42 2.70  40 2.76
  79  0.161  0.710  0.606-  34 2.01  49 2.41  43 2.70  44 2.76
  80  0.495  0.710  0.606-  35 2.01  50 2.41  44 2.70  45 2.76
  81  0.828  0.710  0.606-  36 2.01  51 2.41  45 2.70  43 2.76
  82  0.038  0.077  0.845-  30 2.01  28 2.01  61 2.52  55 2.52
  83  0.371  0.077  0.845-  28 2.01  29 2.01  62 2.52  56 2.52
  84  0.704  0.077  0.845-  29 2.01  30 2.01  63 2.52  57 2.52
  85  0.038  0.411  0.845-  33 2.01  31 2.01  55 2.52  58 2.52
  86  0.371  0.411  0.845-  31 2.01  32 2.01  56 2.52  59 2.52
  87  0.704  0.411  0.845-  32 2.01  33 2.01  57 2.52  60 2.52
  88  0.038  0.744  0.845-  36 2.01  34 2.01  58 2.52  61 2.52
  89  0.371  0.744  0.845-  34 2.01  35 2.01  59 2.52  62 2.52
  90  0.704  0.744  0.845-  35 2.01  36 2.01  60 2.52  63 2.52
  91  0.256  0.296  0.155-  22 2.01  19 2.01  56 2.52  55 2.53
  92  0.589  0.296  0.155-  23 2.01  20 2.01  57 2.52  56 2.52
  93  0.923  0.296  0.155-  24 2.01  21 2.01  55 2.51  57 2.52
  94  0.256  0.629  0.155-  25 2.01  22 2.01  59 2.52  58 2.52
  95  0.589  0.629  0.155-  26 2.01  23 2.01  60 2.52  59 2.52
  96  0.923  0.629  0.155-  27 2.01  24 2.01  58 2.52  60 2.52
  97  0.256  0.962  0.155-  19 2.01  25 2.01  62 2.52  61 2.52
  98  0.589  0.962  0.155-  20 2.01  26 2.01  63 2.52  62 2.52
  99  0.923  0.962  0.155-  21 2.01  27 2.01  61 2.52  63 2.52
 

IMPORTANT INFORMATION: All symmetrisations will be switched off!
NOSYMM: (Re-)initialisation of all symmetry stuff for point group C_1.

 
 
 KPOINTS: # No comment                            

Automatic generation of k-mesh.
Space group operators:
 irot       det(A)        alpha          n_x          n_y          n_z        tau_x        tau_y        tau_z
    1     1.000000     0.000001     1.000000     0.000000     0.000000     0.000000     0.000000     0.000000
 
 Subroutine IBZKPT returns following result:
 ===========================================
 
 Found     14 irreducible k-points:
 
 Following reciprocal coordinates:
            Coordinates               Weight
  0.000000  0.000000  0.000000      1.000000
  0.333333 -0.000000 -0.000000      2.000000
  0.000000  0.333333  0.000000      2.000000
  0.333333  0.333333  0.000000      2.000000
 -0.333333  0.333333  0.000000      2.000000
 -0.000000 -0.000000  0.333333      2.000000
  0.333333 -0.000000  0.333333      2.000000
 -0.333333 -0.000000  0.333333      2.000000
 -0.000000  0.333333  0.333333      2.000000
  0.333333  0.333333  0.333333      2.000000
 -0.333333  0.333333  0.333333      2.000000
 -0.000000 -0.333333  0.333333      2.000000
  0.333333 -0.333333  0.333333      2.000000
 -0.333333 -0.333333  0.333333      2.000000
 
 Following cartesian coordinates:
            Coordinates               Weight
  0.000000  0.000000  0.000000      1.000000
  0.028270  0.000040  0.005614      2.000000
 -0.000053  0.028270  0.005614      2.000000
  0.028217  0.028310  0.011229      2.000000
 -0.028323  0.028230 -0.000000      2.000000
 -0.000192 -0.000192  0.032649      2.000000
  0.028078 -0.000153  0.038263      2.000000
 -0.028462 -0.000232  0.027035      2.000000
 -0.000245  0.028078  0.038263      2.000000
  0.028025  0.028117  0.043878      2.000000
 -0.028515  0.028038  0.032649      2.000000
 -0.000138 -0.028462  0.027035      2.000000
  0.028132 -0.028423  0.032649      2.000000
 -0.028408 -0.028502  0.021421      2.000000
 


--------------------------------------------------------------------------------------------------------




 Dimension of arrays:
   k-points           NKPTS =     14   k-points in BZ     NKDIM =     14   number of bands    NBANDS=    606
   number of dos      NEDOS =    301   number of ions     NIONS =     99
   non local maximal  LDIM  =      6   non local SUM 2l+1 LMDIM =     18
   total plane-waves  NPLWV = 864360
   max r-space proj   IRMAX =      1   max aug-charges    IRDMAX= 154021
   dimension x,y,z NGX =    98 NGY =   98 NGZ =   90
   dimension x,y,z NGXF=   196 NGYF=  196 NGZF=  180
   support grid    NGXF=   392 NGYF=  392 NGZF=  360
   ions per type =              18  18  27  36
   NGX,Y,Z   is equivalent  to a cutoff of  13.83, 13.83, 14.14 a.u.
   NGXF,Y,Z  is equivalent  to a cutoff of  27.67, 27.67, 28.28 a.u.

 SYSTEM =  unknown system                          
 POSCAR =  # Compound: Li18O18S27Fe36. Old comment:

 Startparameter for this run:
   NWRITE =      1    write-flag & timer
   PREC   = accura    normal or accurate (medium, high low for compatibility)
   ISTART =      0    job   : 0-new  1-cont  2-samecut
   ICHARG =      1    charge: 1-file 2-atom 10-const
   ISPIN  =      2    spin polarized calculation?
   LNONCOLLINEAR =      F non collinear calculations
   LSORBIT =      F    spin-orbit coupling
   INIWAV =      1    electr: 0-lowe 1-rand  2-diag
   LASPH  =      T    aspherical Exc in radial PAW
   METAGGA=      F    non-selfconsistent MetaGGA calc.

 Electronic Relaxation 1
   ENCUT  =  650.0 eV  47.77 Ry    6.91 a.u.  24.48 24.48 21.99*2*pi/ulx,y,z
   ENINI  =  650.0     initial cutoff
   ENAUG  =  628.9 eV  augmentation charge cutoff
   NELM   =    200;   NELMIN=  8; NELMDL=  0     # of ELM steps 
   EDIFF  = 0.1E-05   stopping-criterion for ELM
   LREAL  =      F    real-space projection
   NLSPLINE    = F    spline interpolate recip. space projectors
   LCOMPAT=      F    compatible to vasp.4.4
   GGA_COMPAT  = T    GGA compatible to vasp.4.4-vasp.4.6
   LMAXPAW     = -100 max onsite density
   LMAXMIX     =    4 max onsite mixed and CHGCAR
   VOSKOWN=      0    Vosko Wilk Nusair interpolation
   ROPT   =    0.00000   0.00000   0.00000   0.00000
 Ionic relaxation
   EDIFFG = 0.1E-04   stopping-criterion for IOM
   NSW    =      0    number of steps for IOM
   NBLOCK =      1;   KBLOCK =      1    inner block; outer block 
   IBRION =     -1    ionic relax: 0-MD 1-quasi-New 2-CG
   NFREE  =      0    steps in history (QN), initial steepest desc. (CG)
   ISIF   =      2    stress and relaxation
   IWAVPR =     10    prediction:  0-non 1-charg 2-wave 3-comb
   ISYM   =      0    0-nonsym 1-usesym 2-fastsym
   LCORR  =      T    Harris-Foulkes like correction to forces

   POTIM  = 0.5000    time-step for ionic-motion
   TEIN   =    0.0    initial temperature
   TEBEG  =    0.0;   TEEND  =   0.0 temperature during run
   SMASS  =  -3.00    Nose mass-parameter (am)
   estimated Nose-frequenzy (Omega)   =  0.10E-29 period in steps =****** mass=  -0.317E-26a.u.
   SCALEE = 1.0000    scale energy and forces
   NPACO  =    256;   APACO  = 16.0  distance and # of slots for P.C.
   PSTRESS=    0.0 pullay stress

  Mass of Ions in am
   POMASS =   7.01 16.00 32.07 55.85
  Ionic Valenz
   ZVAL   =   3.00  6.00  6.00 14.00
  Atomic Wigner-Seitz radii
   RWIGS  =  -1.00 -1.00 -1.00 -1.00
  virtual crystal weights 
   VCA    =   1.00  1.00  1.00  1.00
   NELECT =     828.0000    total number of electrons
   NUPDOWN=      -1.0000    fix difference up-down

 DOS related values:
   EMIN   =  10.00;   EMAX   =-10.00  energy-range for DOS
   EFERMI =   0.00
   ISMEAR =     0;   SIGMA  =   0.05  broadening in eV -4-tet -1-fermi 0-gaus

 Electronic relaxation 2 (details)
   IALGO  =     38    algorithm
   LDIAG  =      T    sub-space diagonalisation (order eigenvalues)
   LSUBROT=      F    optimize rotation matrix (better conditioning)
   TURBO    =      0    0=normal 1=particle mesh
   IRESTART =      0    0=no restart 2=restart with 2 vectors
   NREBOOT  =      0    no. of reboots
   NMIN     =      0    reboot dimension
   EREF     =   0.00    reference energy to select bands
   IMIX   =      4    mixing-type and parameters
     AMIX     =   0.40;   BMIX     =  1.00
     AMIX_MAG =   1.60;   BMIX_MAG =  1.00
     AMIN     =   0.10
     WC   =   100.;   INIMIX=   1;  MIXPRE=   1;  MAXMIX= -45

 Intra band minimization:
   WEIMIN = 0.0000     energy-eigenvalue tresh-hold
   EBREAK =  0.41E-09  absolut break condition
   DEPER  =   0.30     relativ break condition  

   TIME   =   0.40     timestep for ELM

  volume/ion in A,a.u.               =      14.30        96.53
  Fermi-wavevector in a.u.,A,eV,Ry     =   1.368946  2.586933 25.497507  1.874014
  Thomas-Fermi vector in A             =   2.494865
 
 Write flags
   LWAVE        =      F    write WAVECAR
   LDOWNSAMPLE  =      F    k-point downsampling of WAVECAR
   LCHARG       =      T    write CHGCAR
   LVTOT        =      F    write LOCPOT, total local potential
   LVHAR        =      F    write LOCPOT, Hartree potential only
   LELF         =      F    write electronic localiz. function (ELF)
   LORBIT       =      0    0 simple, 1 ext, 2 COOP (PROOUT), +10 PAW based schemes


 Dipole corrections
   LMONO  =      F    monopole corrections only (constant potential shift)
   LDIPOL =      F    correct potential (dipole corrections)
   IDIPOL =      0    1-x, 2-y, 3-z, 4-all directions 
   EPSILON=  1.0000000 bulk dielectric constant

 LDA+U is selected, type is set to LDAUTYPE =  2
   angular momentum for each species LDAUL =    -1   -1   -1    2
   U (eV)           for each species LDAUU =   0.0  0.0  0.0  4.0
   J (eV)           for each species LDAUJ =   0.0  0.0  0.0  0.0
 Exchange correlation treatment:
   GGA     =    PE    GGA type
   LEXCH   =     8    internal setting for exchange type
   VOSKOWN=      0    Vosko Wilk Nusair interpolation
   LHFCALC =     F    Hartree Fock is set to
   LHFONE  =     F    Hartree Fock one center treatment
   AEXX    =    0.0000 exact exchange contribution

 Linear response parameters
   LEPSILON=     F    determine dielectric tensor
   LRPA    =     F    only Hartree local field effects (RPA)
   LNABLA  =     F    use nabla operator in PAW spheres
   LVEL    =     F    velocity operator in full k-point grid
   LINTERFAST=   F  fast interpolation
   KINTER  =     0    interpolate to denser k-point grid
   CSHIFT  =0.1000    complex shift for real part using Kramers Kronig
   OMEGAMAX=  -1.0    maximum frequency
   DEG_THRESHOLD= 0.2000000E-02 threshold for treating states as degnerate
   RTIME   =   -0.100 relaxation time in fs
  (WPLASMAI=    0.000 imaginary part of plasma frequency in eV, 0.658/RTIME)
   DFIELD  = 0.0000000 0.0000000 0.0000000 field for delta impulse in time
 
 Orbital magnetization related:
   ORBITALMAG=     F  switch on orbital magnetization
   LCHIMAG   =     F  perturbation theory with respect to B field
   DQ        =  0.001000  dq finite difference perturbation B field
   LLRAUG    =     F  two centre corrections for induced B field



--------------------------------------------------------------------------------------------------------


 Static calculation
 charge density and potential will be updated during run
 spin polarized calculation
 Variant of blocked Davidson
 Davidson routine will perform the subspace rotation
 perform sub-space diagonalisation
    after iterative eigenvector-optimisation
 modified Broyden-mixing scheme, WC =      100.0
 initial mixing is a Kerker type mixing with AMIX =  0.4000 and BMIX =      1.0000
 Hartree-type preconditioning will be used
 using additional bands          192
 reciprocal scheme for non local part
 use partial core corrections
 calculate Harris-corrections to forces 
   (improved forces if not selfconsistent)
 use gradient corrections 
 use of overlap-Matrix (Vanderbilt PP)
 Gauss-broadening in eV      SIGMA  =   0.05


--------------------------------------------------------------------------------------------------------


  energy-cutoff  :      650.00
  volume of cell :     1416.11
      direct lattice vectors                 reciprocal lattice vectors
    11.777269740  0.008488710  0.069233160     0.084810225  0.000119058  0.016842962
    -0.030282480 11.777233860  0.069233160    -0.000160141  0.084810158  0.016842962
    -2.020002310 -2.026663200 10.185746220    -0.000575372 -0.000577269  0.097947445

  length of vectors
    11.777476292 11.777476285 10.580037765     0.086466605  0.086466605  0.097950836


 
 k-points in units of 2pi/SCALE and weight: # No comment                            
   0.00000000  0.00000000  0.00000000       0.037
   0.02827008  0.00003969  0.00561432       0.074
  -0.00005338  0.02827005  0.00561432       0.074
   0.02821669  0.02830974  0.01122864       0.074
  -0.02832346  0.02823037 -0.00000000       0.074
  -0.00019179 -0.00019242  0.03264915       0.074
   0.02807828 -0.00015274  0.03826347       0.074
  -0.02846187 -0.00023211  0.02703483       0.074
  -0.00024517  0.02807763  0.03826347       0.074
   0.02802490  0.02811732  0.04387779       0.074
  -0.02851525  0.02803794  0.03264915       0.074
  -0.00013841 -0.02846248  0.02703483       0.074
   0.02813166 -0.02842279  0.03264915       0.074
  -0.02840849 -0.02850216  0.02142051       0.074
 
 k-points in reciprocal lattice and weights: # No comment                            
   0.00000000  0.00000000  0.00000000       0.037
   0.33333333 -0.00000000 -0.00000000       0.074
   0.00000000  0.33333333  0.00000000       0.074
   0.33333333  0.33333333  0.00000000       0.074
  -0.33333333  0.33333333  0.00000000       0.074
  -0.00000000 -0.00000000  0.33333333       0.074
   0.33333333 -0.00000000  0.33333333       0.074
  -0.33333333 -0.00000000  0.33333333       0.074
  -0.00000000  0.33333333  0.33333333       0.074
   0.33333333  0.33333333  0.33333333       0.074
  -0.33333333  0.33333333  0.33333333       0.074
  -0.00000000 -0.33333333  0.33333333       0.074
   0.33333333 -0.33333333  0.33333333       0.074
  -0.33333333 -0.33333333  0.33333333       0.074
 
 position of ions in fractional coordinates (direct lattice) 
   0.20224939  0.24206952  0.83183419
   0.53558272  0.24206952  0.83183419
   0.86891606  0.24206952  0.83183419
   0.20224939  0.57540285  0.83183419
   0.53558272  0.57540285  0.83183419
   0.86891606  0.57540285  0.83183419
   0.20224939  0.90873619  0.83183419
   0.53558272  0.90873619  0.83183419
   0.86891606  0.90873619  0.83183419
   0.09126381  0.13108394  0.16816581
   0.42459715  0.13108394  0.16816581
   0.75793048  0.13108394  0.16816581
   0.09126381  0.46441728  0.16816581
   0.42459715  0.46441728  0.16816581
   0.75793048  0.46441728  0.16816581
   0.09126381  0.79775061  0.16816581
   0.42459715  0.79775061  0.16816581
   0.75793048  0.79775061  0.16816581
   0.26311007  0.13598816  0.19686089
   0.59644341  0.13598816  0.19686089
   0.92977674  0.13598816  0.19686089
   0.26311007  0.46932149  0.19686089
   0.59644341  0.46932149  0.19686089
   0.92977674  0.46932149  0.19686089
   0.26311007  0.80265483  0.19686089
   0.59644341  0.80265483  0.19686089
   0.92977674  0.80265483  0.19686089
   0.19734517  0.07022326  0.80313911
   0.53067851  0.07022326  0.80313911
   0.86401184  0.07022326  0.80313911
   0.19734517  0.40355659  0.80313911
   0.53067851  0.40355659  0.80313911
   0.86401184  0.40355659  0.80313911
   0.19734517  0.73688993  0.80313911
   0.53067851  0.73688993  0.80313911
   0.86401184  0.73688993  0.80313911
   0.00253935  0.20657296  0.62920335
   0.33587268  0.20657296  0.62920335
   0.66920601  0.20657296  0.62920335
   0.00253935  0.53990630  0.62920335
   0.33587268  0.53990630  0.62920335
   0.66920601  0.53990630  0.62920335
   0.00253935  0.87323963  0.62920335
   0.33587268  0.87323963  0.62920335
   0.66920601  0.87323963  0.62920335
   0.12676037  0.33079399  0.37079665
   0.46009370  0.33079399  0.37079665
   0.79342704  0.33079399  0.37079665
   0.12676037  0.66412732  0.37079665
   0.46009370  0.66412732  0.37079665
   0.79342704  0.66412732  0.37079665
   0.12676037  0.99746065  0.37079665
   0.46009370  0.99746065  0.37079665
   0.79342704  0.99746065  0.37079665
   0.06265991  0.26982435  0.00000000
   0.39684232  0.26982435  0.00000000
   0.73017565  0.26982435  0.00000000
   0.06350899  0.60315768  0.00000000
   0.39684232  0.60315768  0.00000000
   0.73017565  0.60315768  0.00000000
   0.06350899  0.93649101  0.00000000
   0.39684232  0.93649101  0.00000000
   0.73017565  0.93649101  0.00000000
   0.29027274  0.17214940  0.39352170
   0.62360607  0.17214940  0.39352170
   0.95693941  0.17214940  0.39352170
   0.29027274  0.50548273  0.39352170
   0.62360607  0.50548273  0.39352170
   0.95693941  0.50548273  0.39352170
   0.29027274  0.83881607  0.39352170
   0.62360607  0.83881607  0.39352170
   0.95693941  0.83881607  0.39352170
   0.16118393  0.04306059  0.60647830
   0.49451727  0.04306059  0.60647830
   0.82785060  0.04306059  0.60647830
   0.16118393  0.37639393  0.60647830
   0.49451727  0.37639393  0.60647830
   0.82785060  0.37639393  0.60647830
   0.16118393  0.70972726  0.60647830
   0.49451727  0.70972726  0.60647830
   0.82785060  0.70972726  0.60647830
   0.03761391  0.07731307  0.84542777
   0.37094724  0.07731307  0.84542777
   0.70428057  0.07731307  0.84542777
   0.03761391  0.41064640  0.84542777
   0.37094724  0.41064640  0.84542777
   0.70428057  0.41064640  0.84542777
   0.03761391  0.74397973  0.84542777
   0.37094724  0.74397973  0.84542777
   0.70428057  0.74397973  0.84542777
   0.25602027  0.29571943  0.15457223
   0.58935360  0.29571943  0.15457223
   0.92268693  0.29571943  0.15457223
   0.25602027  0.62905276  0.15457223
   0.58935360  0.62905276  0.15457223
   0.92268693  0.62905276  0.15457223
   0.25602027  0.96238609  0.15457223
   0.58935360  0.96238609  0.15457223
   0.92268693  0.96238609  0.15457223
 
 position of ions in cartesian coordinates  (Angst):
   0.69430817  1.16677844  8.50361356
   4.62006475  1.16960801  8.52669128
   8.54582133  1.17243758  8.54976900
   0.68421401  5.09252306  8.52669128
   4.60997059  5.09535263  8.54976900
   8.53572717  5.09818220  8.57284672
   0.67411985  9.01826768  8.54976900
   4.59987643  9.02109725  8.57284672
   8.52563301  9.02392682  8.59592444
   0.73117368  1.20376551  1.72828810
   4.65693026  1.20659508  1.75136582
   8.58268684  1.20942465  1.77444354
   0.72107952  5.12951013  1.75136582
   4.64683610  5.13233970  1.77444354
   8.57259268  5.13516927  1.79752126
   0.71098536  9.05525475  1.77444354
   4.63674194  9.05808432  1.79752126
   8.56249852  9.06091389  1.82059898
   2.69694079  1.20482711  2.03280590
   6.62269737  1.20765668  2.05588362
  10.54845395  1.21048625  2.07896134
   2.68684663  5.13057173  2.05588362
   6.61260321  5.13340130  2.07896134
  10.53835979  5.13623087  2.10203906
   2.67675247  9.05631635  2.07896134
   6.60250905  9.05914592  2.10203906
  10.52826563  9.06197549  2.12511678
   0.69971795 -0.79898152  8.19909576
   4.62547453 -0.79615195  8.22217348
   8.55123111 -0.79332238  8.24525120
   0.68962379  3.12676310  8.22217348
   4.61538037  3.12959267  8.24525120
   8.54113695  3.13242224  8.26832892
   0.67952963  7.05250772  8.24525120
   4.60528621  7.05533729  8.26832892
   8.53104279  7.05816686  8.29140664
  -1.24734119  1.15769638  6.42338315
   2.67841539  1.16052595  6.44646087
   6.60417197  1.16335552  6.46953859
  -1.25743535  5.08344100  6.44646087
   2.66832123  5.08627057  6.46953859
   6.59407781  5.08910014  6.49261631
  -1.26752951  9.00918562  6.46953859
   2.65822707  9.01201519  6.49261631
   6.58398365  9.01484476  6.51569403
   0.73386372  3.14543425  3.80851851
   4.65962030  3.14826382  3.83159623
   8.58537688  3.15109339  3.85467395
   0.72376956  7.07117887  3.83159623
   4.64952614  7.07400844  3.85467395
   8.57528272  7.07683801  3.87775167
   0.71367540 10.99692349  3.85467395
   4.63943198 10.99975306  3.87775167
   8.56518856 11.00258263  3.90082939
   0.72979169  3.17831633  0.02301894
   4.66554810  3.18115311  0.04615544
   8.59130468  3.18398268  0.06923316
   0.72969736  7.10406816  0.04615544
   4.65545394  7.10689773  0.06923316
   8.58121052  7.10972730  0.09231088
   0.71960320 11.02981278  0.06923316
   4.64535978 11.03264235  0.09231088
   8.57111636 11.03547192  0.11538860
   2.61849250  1.23237184  4.04032711
   6.54424908  1.23520141  4.06340483
  10.47000566  1.23803098  4.08648255
   2.60839834  5.15811646  4.06340483
   6.53415492  5.16094603  4.08648255
  10.45991150  5.16377560  4.10956027
   2.59830418  9.08386108  4.08648255
   6.52406076  9.08669065  4.10956027
  10.44981734  9.08952022  4.13263799
   0.67191511 -0.72062433  6.19157455
   4.59767169 -0.71779476  6.21465227
   8.52342827 -0.71496519  6.23772999
   0.66182095  3.20512029  6.21465227
   4.58757753  3.20794986  6.23772999
   8.51333411  3.21077943  6.26080771
   0.65172679  7.13086491  6.23772999
   4.57748337  7.13369448  6.26080771
   8.50323995  7.13652405  6.28388543
  -1.26711815 -0.80254399  8.61926947
   2.65863843 -0.79971442  8.64234719
   6.58439500 -0.79688485  8.66542491
  -1.27721231  3.12320063  8.64234719
   2.64854427  3.12603020  8.66542491
   6.57430084  3.12885977  8.68850263
  -1.28730647  7.04894525  8.66542491
   2.63845011  7.05177482  8.68850263
   6.56420668  7.05460439  8.71158035
   2.69402836  3.17166428  1.61263219
   6.61978494  3.17449385  1.63570991
  10.54554152  3.17732342  1.65878763
   2.68393420  7.09740890  1.63570991
   6.60969078  7.10023847  1.65878763
  10.53544736  7.10306804  1.68186535
   2.67384004 11.02315352  1.65878763
   6.59959662 11.02598309  1.68186535
  10.52535320 11.02881266  1.70494307
 


--------------------------------------------------------------------------------------------------------


 k-point  1 :   0.0000 0.0000 0.0000  plane waves:   53279
 k-point  2 :   0.3333-0.0000-0.0000  plane waves:   53283
 k-point  3 :   0.0000 0.3333 0.0000  plane waves:   53283
 k-point  4 :   0.3333 0.3333 0.0000  plane waves:   53248
 k-point  5 :  -0.3333 0.3333 0.0000  plane waves:   53268
 k-point  6 :  -0.0000-0.0000 0.3333  plane waves:   53317
 k-point  7 :   0.3333-0.0000 0.3333  plane waves:   53290
 k-point  8 :  -0.3333-0.0000 0.3333  plane waves:   53280
 k-point  9 :  -0.0000 0.3333 0.3333  plane waves:   53290
 k-point 10 :   0.3333 0.3333 0.3333  plane waves:   53292
 k-point 11 :  -0.3333 0.3333 0.3333  plane waves:   53261
 k-point 12 :  -0.0000-0.3333 0.3333  plane waves:   53280
 k-point 13 :   0.3333-0.3333 0.3333  plane waves:   53261
 k-point 14 :  -0.3333-0.3333 0.3333  plane waves:   53313

 maximum and minimum number of plane-waves per node :      8936     8841

 maximum number of plane-waves:     53317
 maximum index in each direction: 
   IXMAX=   24   IYMAX=   24   IZMAX=   21
   IXMIN=  -24   IYMIN=  -24   IZMIN=  -22


 parallel 3D FFT for wavefunctions:
    minimum data exchange during FFTs selected (reduces bandwidth)
 parallel 3D FFT for charge:
    minimum data exchange during FFTs selected (reduces bandwidth)


 total amount of memory used by VASP MPI-rank0  1508757. kBytes
=======================================================================

   base      :      30000. kBytes
   nonl-proj :      85790. kBytes
   fftplans  :      89726. kBytes
   grid      :      70158. kBytes
   one-center:        528. kBytes
   wavefun   :    1232555. kBytes
 
     INWAV:  cpu time    0.0000: real time    0.0000
 Broyden mixing: mesh for mixing (old mesh)
   NGX = 49   NGY = 49   NGZ = 43
  (NGX  =196   NGY  =196   NGZ  =180)
  gives a total of 103243 points

 initial charge density was supplied:
 number of electron     828.0000017 magnetization     144.0000076
 keeping initial charge density in first step


--------------------------------------------------------------------------------------------------------


 Maximum index for augmentation-charges        13331 (set IRDMAX)


--------------------------------------------------------------------------------------------------------


 First call to EWALD:  gamma=   0.158
 Maximum number of real-space cells 3x 3x 3
 Maximum number of reciprocal cells 3x 3x 3

    FEWALD:  cpu time    0.0051: real time    0.0052


--------------------------------------- Iteration      1(   1)  ---------------------------------------


    POTLOK:  cpu time    1.1390: real time    1.1662
    SETDIJ:  cpu time    2.5577: real time    2.5837
     EDDAV:  cpu time  432.2708: real time  435.7634
       DOS:  cpu time    0.0094: real time    0.0165
    --------------------------------------------
      LOOP:  cpu time  435.9769: real time  439.5298

 eigenvalue-minimisations  : 34880
 total energy-change (2. order) : 0.1170599E+05  (-0.4628328E+05)
 number of electron     828.0000017 magnetization     144.0000076
 augmentation part      828.0000017 magnetization     144.0000076

 Free energy of the ion-electron system (eV)
  ---------------------------------------------------
  alpha Z        PSCENC =      2606.24521607
  Ewald energy   TEWEN  =    -65007.70343467
  -Hartree energ DENC   =    -34081.90988445
  -exchange      EXHF   =         0.00000000
  -V(xc)+E(xc)   XCENC  =      3632.83660070
  PAW double counting   =    104149.30743192  -107360.85880398
  entropy T*S    EENTRO =        -0.01712228
  eigenvalues    EBANDS =       394.17155931
  atomic energy  EATOM  =    107373.91467324
  Solvation  Ediel_sol  =         0.00000000
  ---------------------------------------------------
  free energy    TOTEN  =     11705.98623587 eV

  energy without entropy =    11706.00335814  energy(sigma->0) =    11705.99479701


--------------------------------------------------------------------------------------------------------




--------------------------------------- Iteration      1(   2)  ---------------------------------------


     EDDAV:  cpu time  423.4494: real time  427.2316
       DOS:  cpu time    0.0097: real time    0.0098
    --------------------------------------------
      LOOP:  cpu time  423.4591: real time  427.2414

 eigenvalue-minimisations  : 33936
 total energy-change (2. order) :-0.1037728E+05  (-0.9729359E+04)
 number of electron     828.0000017 magnetization     144.0000076
 augmentation part      828.0000017 magnetization     144.0000076

 Free energy of the ion-electron system (eV)
  ---------------------------------------------------
  alpha Z        PSCENC =      2606.24521607
  Ewald energy   TEWEN  =    -65007.70343467
  -Hartree energ DENC   =    -34081.90988445
  -exchange      EXHF   =         0.00000000
  -V(xc)+E(xc)   XCENC  =      3632.83660070
  PAW double counting   =    104149.30743192  -107360.85880398
  entropy T*S    EENTRO =        -0.06753013
  eigenvalues    EBANDS =     -9983.05882958
  atomic energy  EATOM  =    107373.91467324
  Solvation  Ediel_sol  =         0.00000000
  ---------------------------------------------------
  free energy    TOTEN  =      1328.70543912 eV

  energy without entropy =     1328.77296926  energy(sigma->0) =     1328.73920419


--------------------------------------------------------------------------------------------------------




--------------------------------------- Iteration      1(   3)  ---------------------------------------


     EDDAV:  cpu time  447.8707: real time  451.7005
       DOS:  cpu time    0.0034: real time    0.0034
    --------------------------------------------
      LOOP:  cpu time  447.8741: real time  451.7039

 eigenvalue-minimisations  : 36392
 total energy-change (2. order) :-0.1674198E+04  (-0.1441998E+04)
 number of electron     828.0000017 magnetization     144.0000076
 augmentation part      828.0000017 magnetization     144.0000076

 Free energy of the ion-electron system (eV)
  ---------------------------------------------------
  alpha Z        PSCENC =      2606.24521607
  Ewald energy   TEWEN  =    -65007.70343467
  -Hartree energ DENC   =    -34081.90988445
  -exchange      EXHF   =         0.00000000
  -V(xc)+E(xc)   XCENC  =      3632.83660070
  PAW double counting   =    104149.30743192  -107360.85880398
  entropy T*S    EENTRO =        -0.00000000
  eigenvalues    EBANDS =    -11657.32451500
  atomic energy  EATOM  =    107373.91467324
  Solvation  Ediel_sol  =         0.00000000
  ---------------------------------------------------
  free energy    TOTEN  =      -345.49271617 eV

  energy without entropy =     -345.49271617  energy(sigma->0) =     -345.49271617


--------------------------------------------------------------------------------------------------------




--------------------------------------- Iteration      1(   4)  ---------------------------------------


     EDDAV:  cpu time  479.5410: real time  483.7522
       DOS:  cpu time    0.0031: real time    0.0031
    --------------------------------------------
      LOOP:  cpu time  479.5441: real time  483.7553

 eigenvalue-minimisations  : 39784
 total energy-change (2. order) :-0.1903899E+03  (-0.1872490E+03)
 number of electron     828.0000017 magnetization     144.0000076
 augmentation part      828.0000017 magnetization     144.0000076

 Free energy of the ion-electron system (eV)
  ---------------------------------------------------
  alpha Z        PSCENC =      2606.24521607
  Ewald energy   TEWEN  =    -65007.70343467
  -Hartree energ DENC   =    -34081.90988445
  -exchange      EXHF   =         0.00000000
  -V(xc)+E(xc)   XCENC  =      3632.83660070
  PAW double counting   =    104149.30743192  -107360.85880398
  entropy T*S    EENTRO =        -0.00000000
  eigenvalues    EBANDS =    -11847.71442518
  atomic energy  EATOM  =    107373.91467324
  Solvation  Ediel_sol  =         0.00000000
  ---------------------------------------------------
  free energy    TOTEN  =      -535.88262635 eV

  energy without entropy =     -535.88262635  energy(sigma->0) =     -535.88262635


--------------------------------------------------------------------------------------------------------




--------------------------------------- Iteration      1(   5)  ---------------------------------------


     EDDAV:  cpu time  629.3480: real time  634.9044
       DOS:  cpu time    0.0033: real time    0.0033
    CHARGE:  cpu time   12.1995: real time   12.2783
    MIXING:  cpu time    0.0325: real time    0.0339
    --------------------------------------------
      LOOP:  cpu time  641.5833: real time  647.2199

 eigenvalue-minimisations  : 55312
 total energy-change (2. order) :-0.1391064E+02  (-0.1377009E+02)
 number of electron     828.0000017 magnetization     144.0000050
 augmentation part      313.2917832 magnetization      94.6599512

 Broyden mixing:
  rms(total) = 0.20582E+00    rms(broyden)= 0.20569E+00
  rms(prec ) = 0.20934E+00
  weight for this iteration     100.00

 Free energy of the ion-electron system (eV)
  ---------------------------------------------------
  alpha Z        PSCENC =      2606.24521607
  Ewald energy   TEWEN  =    -65007.70343467
  -Hartree energ DENC   =    -34081.90988445
  -exchange      EXHF   =         0.00000000
  -V(xc)+E(xc)   XCENC  =      3632.83660070
  PAW double counting   =    104149.30743192  -107360.85880398
  entropy T*S    EENTRO =        -0.00000000
  eigenvalues    EBANDS =    -11861.62506663
  atomic energy  EATOM  =    107373.91467324
  Solvation  Ediel_sol  =         0.00000000
  ---------------------------------------------------
  free energy    TOTEN  =      -549.79326779 eV

  energy without entropy =     -549.79326779  energy(sigma->0) =     -549.79326779


--------------------------------------------------------------------------------------------------------




--------------------------------------- Iteration      1(   6)  ---------------------------------------


    POTLOK:  cpu time    1.1342: real time    1.1389
    SETDIJ:  cpu time    2.5356: real time    2.5477
     EDDAV:  cpu time  555.4419: real time  560.6019
       DOS:  cpu time    0.0032: real time    0.0032
    CHARGE:  cpu time   12.1577: real time   12.2326
    MIXING:  cpu time    0.0297: real time    0.0310
    --------------------------------------------
      LOOP:  cpu time  571.3023: real time  576.5553

 eigenvalue-minimisations  : 48072
 total energy-change (2. order) :-0.5296167E+00  (-0.5446348E+00)
 number of electron     828.0000017 magnetization     144.0000039
 augmentation part      312.7280348 magnetization      94.7043648

 Broyden mixing:
  rms(total) = 0.10246E+00    rms(broyden)= 0.10234E+00
  rms(prec ) = 0.10319E+00
  weight for this iteration     100.00

 eigenvalues of (default mixing * dielectric matrix)
  average eigenvalue GAMMA=   0.6327
  0.6327

 Free energy of the ion-electron system (eV)
  ---------------------------------------------------
  alpha Z        PSCENC =      2606.24521607
  Ewald energy   TEWEN  =    -65007.70343467
  -Hartree energ DENC   =    -34079.99796485
  -exchange      EXHF   =         0.00000000
  -V(xc)+E(xc)   XCENC  =      3632.51564160
  PAW double counting   =    103985.87785382  -107195.62983061
  entropy T*S    EENTRO =        -0.00000000
  eigenvalues    EBANDS =    -11865.54503907
  atomic energy  EATOM  =    107373.91467324
  Solvation  Ediel_sol  =         0.00000000
  ---------------------------------------------------
  free energy    TOTEN  =      -550.32288448 eV

  energy without entropy =     -550.32288448  energy(sigma->0) =     -550.32288448


--------------------------------------------------------------------------------------------------------




--------------------------------------- Iteration      1(   7)  ---------------------------------------


    POTLOK:  cpu time    1.1296: real time    1.1375
    SETDIJ:  cpu time    2.5487: real time    2.5571
     EDDAV:  cpu time  597.1415: real time  602.4866
       DOS:  cpu time    0.0032: real time    0.0032
    CHARGE:  cpu time   12.1002: real time   12.2919
    MIXING:  cpu time    0.0319: real time    0.0319
    --------------------------------------------
      LOOP:  cpu time  612.9552: real time  618.5082

 eigenvalue-minimisations  : 52136
 total energy-change (2. order) :-0.1824368E-01  (-0.1926085E-01)
 number of electron     828.0000017 magnetization     144.0000034
 augmentation part      312.6392139 magnetization      94.6962142

 Broyden mixing:
  rms(total) = 0.61023E-01    rms(broyden)= 0.60992E-01
  rms(prec ) = 0.62422E-01
  weight for this iteration     100.00

 eigenvalues of (default mixing * dielectric matrix)
  average eigenvalue GAMMA=   0.5809
  0.5809  0.5809

 Free energy of the ion-electron system (eV)
  ---------------------------------------------------
  alpha Z        PSCENC =      2606.24521607
  Ewald energy   TEWEN  =    -65007.70343467
  -Hartree energ DENC   =    -34080.92913912
  -exchange      EXHF   =         0.00000000
  -V(xc)+E(xc)   XCENC  =      3632.60119072
  PAW double counting   =    104044.44488382  -107254.81585320
  entropy T*S    EENTRO =        -0.00000000
  eigenvalues    EBANDS =    -11864.09866501
  atomic energy  EATOM  =    107373.91467324
  Solvation  Ediel_sol  =         0.00000000
  ---------------------------------------------------
  free energy    TOTEN  =      -550.34112816 eV

  energy without entropy =     -550.34112816  energy(sigma->0) =     -550.34112816


--------------------------------------------------------------------------------------------------------




--------------------------------------- Iteration      1(   8)  ---------------------------------------


    POTLOK:  cpu time    1.1329: real time    1.1351
    SETDIJ:  cpu time    2.5441: real time    2.5456
     EDDAV:  cpu time  563.0210: real time  568.3099
       DOS:  cpu time    0.0038: real time    0.0049
    CHARGE:  cpu time   12.1395: real time   12.1568
    MIXING:  cpu time    0.0339: real time    0.0436
    --------------------------------------------
      LOOP:  cpu time  578.8753: real time  584.1958

 eigenvalue-minimisations  : 48496
 total energy-change (2. order) : 0.5012726E-03  (-0.3797794E-03)
 number of electron     828.0000017 magnetization     144.0000032
 augmentation part      312.6313488 magnetization      94.6989384

 Broyden mixing:
  rms(total) = 0.53210E-01    rms(broyden)= 0.53208E-01
  rms(prec ) = 0.54450E-01
  weight for this iteration     100.00

 eigenvalues of (default mixing * dielectric matrix)
  average eigenvalue GAMMA=   0.5493
  0.6155  0.6155  0.4168

 Free energy of the ion-electron system (eV)
  ---------------------------------------------------
  alpha Z        PSCENC =      2606.24521607
  Ewald energy   TEWEN  =    -65007.70343467
  -Hartree energ DENC   =    -34080.89528461
  -exchange      EXHF   =         0.00000000
  -V(xc)+E(xc)   XCENC  =      3632.63369604
  PAW double counting   =    104059.25725840  -107269.77475520
  entropy T*S    EENTRO =        -0.00000000
  eigenvalues    EBANDS =    -11864.01799615
  atomic energy  EATOM  =    107373.91467324
  Solvation  Ediel_sol  =         0.00000000
  ---------------------------------------------------
  free energy    TOTEN  =      -550.34062689 eV

  energy without entropy =     -550.34062689  energy(sigma->0) =     -550.34062689


--------------------------------------------------------------------------------------------------------




--------------------------------------- Iteration      1(   9)  ---------------------------------------


    POTLOK:  cpu time    1.1263: real time    1.1398
    SETDIJ:  cpu time    2.5016: real time    2.5581
     EDDAV:  cpu time  610.9743: real time  616.1899
       DOS:  cpu time    0.0034: real time    0.0035
    CHARGE:  cpu time   12.5240: real time   12.5362
    MIXING:  cpu time    0.0350: real time    0.0351
    --------------------------------------------
      LOOP:  cpu time  627.1647: real time  632.4627

 eigenvalue-minimisations  : 53584
 total energy-change (2. order) : 0.3888743E-03  (-0.2395402E-04)
 number of electron     828.0000017 magnetization     144.0000026
 augmentation part      312.6339508 magnetization      94.6989320

 Broyden mixing:
  rms(total) = 0.47643E-01    rms(broyden)= 0.47642E-01
  rms(prec ) = 0.48724E-01
  weight for this iteration     100.00

 eigenvalues of (default mixing * dielectric matrix)
  average eigenvalue GAMMA=   0.5423
  0.6466  0.6466  0.4379  0.4379

 Free energy of the ion-electron system (eV)
  ---------------------------------------------------
  alpha Z        PSCENC =      2606.24521607
  Ewald energy   TEWEN  =    -65007.70343467
  -Hartree energ DENC   =    -34080.96572126
  -exchange      EXHF   =         0.00000000
  -V(xc)+E(xc)   XCENC  =      3632.65545925
  PAW double counting   =    104066.56505894  -107277.18242015
  entropy T*S    EENTRO =        -0.00000000
  eigenvalues    EBANDS =    -11863.86906942
  atomic energy  EATOM  =    107373.91467324
  Solvation  Ediel_sol  =         0.00000000
  ---------------------------------------------------
  free energy    TOTEN  =      -550.34023801 eV

  energy without entropy =     -550.34023801  energy(sigma->0) =     -550.34023801


--------------------------------------------------------------------------------------------------------




--------------------------------------- Iteration      1(  10)  ---------------------------------------


    POTLOK:  cpu time    1.1407: real time    1.1509
    SETDIJ:  cpu time    2.5013: real time    2.5362
     EDDAV:  cpu time  607.0160: real time  612.3500
       DOS:  cpu time    0.0034: real time    0.0034
    CHARGE:  cpu time   12.2688: real time   12.3407
    MIXING:  cpu time    0.0310: real time    0.0335
    --------------------------------------------
      LOOP:  cpu time  622.9611: real time  628.4146

 eigenvalue-minimisations  : 53000
 total energy-change (2. order) : 0.6673407E-03  (-0.2475741E-04)
 number of electron     828.0000017 magnetization     144.0000015
 augmentation part      312.6408336 magnetization      94.6996316

 Broyden mixing:
  rms(total) = 0.35631E-01    rms(broyden)= 0.35631E-01
  rms(prec ) = 0.36342E-01
  weight for this iteration     100.00

 eigenvalues of (default mixing * dielectric matrix)
  average eigenvalue GAMMA=   0.8603
  1.3352  1.3352  0.5846  0.5846  0.4619

 Free energy of the ion-electron system (eV)
  ---------------------------------------------------
  alpha Z        PSCENC =      2606.24521607
  Ewald energy   TEWEN  =    -65007.70343467
  -Hartree energ DENC   =    -34081.21950297
  -exchange      EXHF   =         0.00000000
  -V(xc)+E(xc)   XCENC  =      3632.70793407
  PAW double counting   =    104085.01223341  -107295.88128690
  entropy T*S    EENTRO =        -0.00000000
  eigenvalues    EBANDS =    -11863.41540292
  atomic energy  EATOM  =    107373.91467324
  Solvation  Ediel_sol  =         0.00000000
  ---------------------------------------------------
  free energy    TOTEN  =      -550.33957067 eV

  energy without entropy =     -550.33957067  energy(sigma->0) =     -550.33957067


--------------------------------------------------------------------------------------------------------




--------------------------------------- Iteration      1(  11)  ---------------------------------------


    POTLOK:  cpu time    1.1251: real time    1.1359
    SETDIJ:  cpu time    2.5422: real time    2.5668
     EDDAV:  cpu time  549.0202: real time  554.3505
       DOS:  cpu time    0.0033: real time    0.0033
    CHARGE:  cpu time   12.1395: real time   12.2864
    MIXING:  cpu time    0.0319: real time    0.0319
    --------------------------------------------
      LOOP:  cpu time  564.8621: real time  570.3748

 eigenvalue-minimisations  : 46992
 total energy-change (2. order) : 0.5955489E-03  (-0.5070424E-04)
 number of electron     828.0000017 magnetization     144.0000012
 augmentation part      312.6495917 magnetization      94.7006506

 Broyden mixing:
  rms(total) = 0.15347E-01    rms(broyden)= 0.15346E-01
  rms(prec ) = 0.15506E-01
  weight for this iteration     100.00

 eigenvalues of (default mixing * dielectric matrix)
  average eigenvalue GAMMA=   0.8638
  1.4327  1.4327  0.6425  0.6425  0.5161  0.5161

 Free energy of the ion-electron system (eV)
  ---------------------------------------------------
  alpha Z        PSCENC =      2606.24521607
  Ewald energy   TEWEN  =    -65007.70343467
  -Hartree energ DENC   =    -34081.64478909
  -exchange      EXHF   =         0.00000000
  -V(xc)+E(xc)   XCENC  =      3632.79471252
  PAW double counting   =    104118.64679579  -107329.94454765
  entropy T*S    EENTRO =        -0.00000000
  eigenvalues    EBANDS =    -11862.64760133
  atomic energy  EATOM  =    107373.91467324
  Solvation  Ediel_sol  =         0.00000000
  ---------------------------------------------------
  free energy    TOTEN  =      -550.33897512 eV

  energy without entropy =     -550.33897512  energy(sigma->0) =     -550.33897512


--------------------------------------------------------------------------------------------------------




--------------------------------------- Iteration      1(  12)  ---------------------------------------


    POTLOK:  cpu time    1.1304: real time    1.1334
    SETDIJ:  cpu time    2.5471: real time    2.5487
     EDDAV:  cpu time  519.5684: real time  524.4752
       DOS:  cpu time    0.0032: real time    0.0032
    CHARGE:  cpu time   12.2431: real time   12.3731
    MIXING:  cpu time    0.0321: real time    0.0321
    --------------------------------------------
      LOOP:  cpu time  535.5244: real time  540.5658

 eigenvalue-minimisations  : 43960
 total energy-change (2. order) : 0.2067641E-04  (-0.1790925E-04)
 number of electron     828.0000017 magnetization     144.0000012
 augmentation part      312.6517790 magnetization      94.7005721

 Broyden mixing:
  rms(total) = 0.10693E-01    rms(broyden)= 0.10692E-01
  rms(prec ) = 0.10772E-01
  weight for this iteration     100.00

 eigenvalues of (default mixing * dielectric matrix)
  average eigenvalue GAMMA=   0.8805
  1.5182  1.5182  0.7775  0.7775  0.5457  0.5457  0.4805

 Free energy of the ion-electron system (eV)
  ---------------------------------------------------
  alpha Z        PSCENC =      2606.24521607
  Ewald energy   TEWEN  =    -65007.70343467
  -Hartree energ DENC   =    -34081.72632018
  -exchange      EXHF   =         0.00000000
  -V(xc)+E(xc)   XCENC  =      3632.81027387
  PAW double counting   =    104127.01772510  -107338.39582378
  entropy T*S    EENTRO =        -0.00000000
  eigenvalues    EBANDS =    -11862.50126410
  atomic energy  EATOM  =    107373.91467324
  Solvation  Ediel_sol  =         0.00000000
  ---------------------------------------------------
  free energy    TOTEN  =      -550.33895445 eV

  energy without entropy =     -550.33895445  energy(sigma->0) =     -550.33895445


--------------------------------------------------------------------------------------------------------




--------------------------------------- Iteration      1(  13)  ---------------------------------------


    POTLOK:  cpu time    1.1302: real time    1.1314
    SETDIJ:  cpu time    2.5425: real time    2.5446
     EDDAV:  cpu time  513.7804: real time  518.3837
       DOS:  cpu time    0.0032: real time    0.0032
    CHARGE:  cpu time   12.7391: real time   12.7537
    MIXING:  cpu time    0.0384: real time    0.0385
    --------------------------------------------
      LOOP:  cpu time  530.2339: real time  534.8551

 eigenvalue-minimisations  : 43512
 total energy-change (2. order) :-0.4756977E-05  (-0.2257589E-05)
 number of electron     828.0000017 magnetization     144.0000009
 augmentation part      312.6534702 magnetization      94.7005746

 Broyden mixing:
  rms(total) = 0.98400E-02    rms(broyden)= 0.98393E-02
  rms(prec ) = 0.99145E-02
  weight for this iteration     100.00

 eigenvalues of (default mixing * dielectric matrix)
  average eigenvalue GAMMA=   1.0215
  2.0720  2.0720  0.9419  0.9419  0.5879  0.5879  0.4843  0.4843

 Free energy of the ion-electron system (eV)
  ---------------------------------------------------
  alpha Z        PSCENC =      2606.24521607
  Ewald energy   TEWEN  =    -65007.70343467
  -Hartree energ DENC   =    -34081.73461353
  -exchange      EXHF   =         0.00000000
  -V(xc)+E(xc)   XCENC  =      3632.81119839
  PAW double counting   =    104128.77096385  -107340.15503222
  entropy T*S    EENTRO =        -0.00000000
  eigenvalues    EBANDS =    -11862.48793034
  atomic energy  EATOM  =    107373.91467324
  Solvation  Ediel_sol  =         0.00000000
  ---------------------------------------------------
  free energy    TOTEN  =      -550.33895920 eV

  energy without entropy =     -550.33895920  energy(sigma->0) =     -550.33895920


--------------------------------------------------------------------------------------------------------




--------------------------------------- Iteration      1(  14)  ---------------------------------------


    POTLOK:  cpu time    1.1299: real time    1.1313
    SETDIJ:  cpu time    2.5387: real time    2.5410
     EDDAV:  cpu time  349.8349: real time  352.9825
       DOS:  cpu time    0.0031: real time    0.0031
    CHARGE:  cpu time   12.2832: real time   12.2957
    MIXING:  cpu time    0.0338: real time    0.0338
    --------------------------------------------
      LOOP:  cpu time  365.8236: real time  368.9874

 eigenvalue-minimisations  : 26144
 total energy-change (2. order) : 0.2073168E-05  (-0.1449073E-06)
 number of electron     828.0000017 magnetization     144.0000005
 augmentation part      312.6533689 magnetization      94.7005400

 Broyden mixing:
  rms(total) = 0.64112E-02    rms(broyden)= 0.64101E-02
  rms(prec ) = 0.64942E-02
  weight for this iteration     100.00

 eigenvalues of (default mixing * dielectric matrix)
  average eigenvalue GAMMA=   1.1033
  2.3567  2.3567  1.0854  1.0854  0.6805  0.6805  0.5510  0.5666  0.5666

 Free energy of the ion-electron system (eV)
  ---------------------------------------------------
  alpha Z        PSCENC =      2606.24521607
  Ewald energy   TEWEN  =    -65007.70343467
  -Hartree energ DENC   =    -34081.78937710
  -exchange      EXHF   =         0.00000000
  -V(xc)+E(xc)   XCENC  =      3632.81775953
  PAW double counting   =    104136.46407884  -107347.89195347
  entropy T*S    EENTRO =        -0.00000000
  eigenvalues    EBANDS =    -11862.39591958
  atomic energy  EATOM  =    107373.91467324
  Solvation  Ediel_sol  =         0.00000000
  ---------------------------------------------------
  free energy    TOTEN  =      -550.33895713 eV

  energy without entropy =     -550.33895713  energy(sigma->0) =     -550.33895713


--------------------------------------------------------------------------------------------------------




--------------------------------------- Iteration      1(  15)  ---------------------------------------


    POTLOK:  cpu time    1.1296: real time    1.1318
    SETDIJ:  cpu time    2.5435: real time    2.5453
     EDDAV:  cpu time  484.1799: real time  488.5354
       DOS:  cpu time    0.0031: real time    0.0031
    CHARGE:  cpu time   12.0556: real time   12.2010
    MIXING:  cpu time    0.0450: real time    0.0479
    --------------------------------------------
      LOOP:  cpu time  499.9567: real time  504.4644

 eigenvalue-minimisations  : 40152
 total energy-change (2. order) : 0.1662331E-04  (-0.2078966E-05)
 number of electron     828.0000017 magnetization     144.0000005
 augmentation part      312.6545966 magnetization      94.7008220

 Broyden mixing:
  rms(total) = 0.68936E-03    rms(broyden)= 0.67918E-03
  rms(prec ) = 0.69174E-03
  weight for this iteration     100.00

 eigenvalues of (default mixing * dielectric matrix)
  average eigenvalue GAMMA=   1.0552
  2.1799  2.1799  1.1854  1.1854  0.7761  0.7761  0.6065  0.6065  0.5280  0.5280

 Free energy of the ion-electron system (eV)
  ---------------------------------------------------
  alpha Z        PSCENC =      2606.24521607
  Ewald energy   TEWEN  =    -65007.70343467
  -Hartree energ DENC   =    -34081.90427335
  -exchange      EXHF   =         0.00000000
  -V(xc)+E(xc)   XCENC  =      3632.83735532
  PAW double counting   =    104148.13589841  -107359.67522278
  entropy T*S    EENTRO =        -0.00000000
  eigenvalues    EBANDS =    -11862.18915275
  atomic energy  EATOM  =    107373.91467324
  Solvation  Ediel_sol  =         0.00000000
  ---------------------------------------------------
  free energy    TOTEN  =      -550.33894051 eV

  energy without entropy =     -550.33894051  energy(sigma->0) =     -550.33894051


--------------------------------------------------------------------------------------------------------




--------------------------------------- Iteration      1(  16)  ---------------------------------------


    POTLOK:  cpu time    1.0967: real time    1.1665
    SETDIJ:  cpu time    2.5442: real time    2.5479
     EDDAV:  cpu time  434.0850: real time  437.9948
       DOS:  cpu time    0.0029: real time    0.0031
    --------------------------------------------
      LOOP:  cpu time  437.7288: real time  441.7124

 eigenvalue-minimisations  : 35200
 total energy-change (2. order) :-0.8838542E-06  (-0.9067995E-06)
 number of electron     828.0000017 magnetization     144.0000005
 augmentation part      312.6545966 magnetization      94.7008220

 Free energy of the ion-electron system (eV)
  ---------------------------------------------------
  alpha Z        PSCENC =      2606.24521607
  Ewald energy   TEWEN  =    -65007.70343467
  -Hartree energ DENC   =    -34081.90636888
  -exchange      EXHF   =         0.00000000
  -V(xc)+E(xc)   XCENC  =      3632.83785048
  PAW double counting   =    104148.67722365  -107360.22141193
  entropy T*S    EENTRO =        -0.00000000
  eigenvalues    EBANDS =    -11862.18268935
  atomic energy  EATOM  =    107373.91467324
  Solvation  Ediel_sol  =         0.00000000
  ---------------------------------------------------
  free energy    TOTEN  =      -550.33894139 eV

  energy without entropy =     -550.33894139  energy(sigma->0) =     -550.33894139


--------------------------------------------------------------------------------------------------------




 average (electrostatic) potential at core
  the test charge radii are     0.7079  0.7215  0.9698  0.9500
  (the norm of the test charge is              1.0000)
       1 -58.9515       2 -58.9458       3 -58.9398       4 -58.9463       5 -58.9457
       6 -58.9452       7 -58.9464       8 -58.9457       9 -58.9452      10 -58.9458
      11 -58.9469      12 -58.9445      13 -58.9458      14 -58.9467      15 -58.9447
      16 -58.9458      17 -58.9461      18 -58.9452      19 -69.8217      20 -69.8192
      21 -69.8169      22 -69.8216      23 -69.8192      24 -69.8169      25 -69.8195
      26 -69.8192      27 -69.8190      28 -69.8212      29 -69.8192      30 -69.8173
      31 -69.8212      32 -69.8193      33 -69.8172      34 -69.8194      35 -69.8192
      36 -69.8191      37 -85.5586      38 -85.5593      39 -85.5582      40 -85.5586
      41 -85.5591      42 -85.5584      43 -85.5587      44 -85.5590      45 -85.5584
      46 -85.5588      47 -85.5593      48 -85.5580      49 -85.5588      50 -85.5590
      51 -85.5584      52 -85.5588      53 -85.5590      54 -85.5583      55 -85.6462
      56 -85.6489      57 -85.6435      58 -85.6462      59 -85.6467      60 -85.6457
      61 -85.6463      62 -85.6467      63 -85.6457      64 -78.5675      65 -78.5666
      66 -78.5661      67 -78.5674      68 -78.5666      69 -78.5661      70 -78.5669
      71 -78.5666      72 -78.5666      73 -78.5673      74 -78.5668      75 -78.5661
      76 -78.5673      77 -78.5670      78 -78.5660      79 -78.5668      80 -78.5668
      81 -78.5666      82 -78.5829      83 -78.5839      84 -78.5819      85 -78.5829
      86 -78.5839      87 -78.5819      88 -78.5829      89 -78.5832      90 -78.5826
      91 -78.5885      92 -78.5829      93 -78.5774      94 -78.5836      95 -78.5829
      96 -78.5823      97 -78.5836      98 -78.5829      99 -78.5823
 
 
 
 E-fermi :   5.2609     XC(G=0): -10.4947     alpha+bet :-11.8267


 spin component 1

 k-point     1 :       0.0000    0.0000    0.0000
  band No.  band energies     occupation 
      1     -51.0514      1.00000
      2     -51.0503      1.00000
      3     -51.0502      1.00000
      4     -51.0502      1.00000
      5     -51.0499      1.00000
      6     -51.0497      1.00000
      7     -51.0496      1.00000
      8     -51.0495      1.00000
      9     -51.0494      1.00000
     10     -51.0494      1.00000
     11     -51.0492      1.00000
     12     -51.0486      1.00000
     13     -51.0485      1.00000
     14     -51.0476      1.00000
     15     -51.0472      1.00000
     16     -51.0471      1.00000
     17     -51.0470      1.00000
     18     -51.0461      1.00000
     19     -51.0413      1.00000
     20     -51.0375      1.00000
     21     -51.0375      1.00000
     22     -51.0373      1.00000
     23     -51.0371      1.00000
     24     -51.0371      1.00000
     25     -51.0366      1.00000
     26     -51.0363      1.00000
     27     -51.0362      1.00000
     28     -51.0361      1.00000
     29     -51.0361      1.00000
     30     -51.0359      1.00000
     31     -51.0359      1.00000
     32     -51.0358      1.00000
     33     -51.0354      1.00000
     34     -51.0352      1.00000
     35     -51.0352      1.00000
     36     -51.0311      1.00000
     37     -49.6953      1.00000
     38     -49.6904      1.00000
     39     -49.6901      1.00000
     40     -49.6900      1.00000
     41     -49.6899      1.00000
     42     -49.6894      1.00000
     43     -49.6894      1.00000
     44     -49.6893      1.00000
     45     -49.6893      1.00000
     46     -49.6892      1.00000
     47     -49.6892      1.00000
     48     -49.6890      1.00000
     49     -49.6887      1.00000
     50     -49.6885      1.00000
     51     -49.6885      1.00000
     52     -49.6885      1.00000
     53     -49.6879      1.00000
     54     -49.6832      1.00000
     55     -49.5915      1.00000
     56     -49.5913      1.00000
     57     -49.5911      1.00000
     58     -49.5910      1.00000
     59     -49.5906      1.00000
     60     -49.5904      1.00000
     61     -49.5903      1.00000
     62     -49.5902      1.00000
     63     -49.5896      1.00000
     64     -49.5894      1.00000
     65     -49.5890      1.00000
     66     -49.5887      1.00000
     67     -49.5886      1.00000
     68     -49.5883      1.00000
     69     -49.5883      1.00000
     70     -49.5882      1.00000
     71     -49.5879      1.00000
     72     -49.5878      1.00000
     73     -49.5625      1.00000
     74     -49.5618      1.00000
     75     -49.5614      1.00000
     76     -49.5613      1.00000
     77     -49.5611      1.00000
     78     -49.5607      1.00000
     79     -49.5600      1.00000
     80     -49.5597      1.00000
     81     -49.5595      1.00000
     82     -49.5595      1.00000
     83     -49.5593      1.00000
     84     -49.5591      1.00000
     85     -49.5590      1.00000
     86     -49.5589      1.00000
     87     -49.5586      1.00000
     88     -49.5574      1.00000
     89     -49.5573      1.00000
     90     -49.5573      1.00000
     91     -49.5526      1.00000
     92     -49.5488      1.00000
     93     -49.5487      1.00000
     94     -49.5485      1.00000
     95     -49.5484      1.00000
     96     -49.5483      1.00000
     97     -49.5476      1.00000
     98     -49.5475      1.00000
     99     -49.5472      1.00000
    100     -49.5471      1.00000
    101     -49.5470      1.00000
    102     -49.5470      1.00000
    103     -49.5469      1.00000
    104     -49.5466      1.00000
    105     -49.5465      1.00000
    106     -49.5461      1.00000
    107     -49.5460      1.00000
    108     -49.5422      1.00000
    109     -39.8681      1.00000
    110     -39.8637      1.00000
    111     -39.8634      1.00000
    112     -39.8632      1.00000
    113     -39.8629      1.00000
    114     -39.8628      1.00000
    115     -39.8627      1.00000
    116     -39.8625      1.00000
    117     -39.8623      1.00000
    118     -39.8622      1.00000
    119     -39.8621      1.00000
    120     -39.8620      1.00000
    121     -39.8620      1.00000
    122     -39.8617      1.00000
    123     -39.8615      1.00000
    124     -39.8612      1.00000
    125     -39.8610      1.00000
    126     -39.8564      1.00000
    127     -13.2358      1.00000
    128     -13.2349      1.00000
    129     -13.2349      1.00000
    130     -13.2341      1.00000
    131     -13.2258      1.00000
    132     -13.1987      1.00000
    133     -13.0562      1.00000
    134     -13.0555      1.00000
    135     -13.0542      1.00000
    136     -13.0536      1.00000
    137     -13.0430      1.00000
    138     -13.0423      1.00000
    139     -13.0411      1.00000
    140     -13.0404      1.00000
    141     -13.0193      1.00000
    142     -13.0186      1.00000
    143     -13.0185      1.00000
    144     -13.0179      1.00000
    145      -7.6148      1.00000
    146      -7.4115      1.00000
    147      -7.3759      1.00000
    148      -7.3751      1.00000
    149      -7.3751      1.00000
    150      -7.3743      1.00000
    151      -7.1821      1.00000
    152      -7.1807      1.00000
    153      -7.1723      1.00000
    154      -7.1709      1.00000
    155      -7.1515      1.00000
    156      -7.1513      1.00000
    157      -7.1512      1.00000
    158      -7.1509      1.00000
    159      -6.9846      1.00000
    160      -6.9651      1.00000
    161      -6.9650      1.00000
    162      -6.9305      1.00000
    163      -6.9302      1.00000
    164      -6.8715      1.00000
    165      -6.8714      1.00000
    166      -6.8713      1.00000
    167      -6.8713      1.00000
    168      -6.8073      1.00000
    169      -6.8072      1.00000
    170      -6.7805      1.00000
    171      -6.7804      1.00000
    172      -1.8370      1.00000
    173      -1.8368      1.00000
    174      -1.8367      1.00000
    175      -1.8363      1.00000
    176      -1.8164      1.00000
    177      -1.8160      1.00000
    178      -1.8036      1.00000
    179      -1.8034      1.00000
    180      -1.7664      1.00000
    181      -1.7661      1.00000
    182      -1.7538      1.00000
    183      -1.7532      1.00000
    184      -1.2808      1.00000
    185      -1.1978      1.00000
    186      -1.1973      1.00000
    187      -1.1972      1.00000
    188      -1.1968      1.00000
    189      -1.0051      1.00000
    190      -1.0049      1.00000
    191      -0.9742      1.00000
    192      -0.9740      1.00000
    193      -0.9590      1.00000
    194      -0.9585      1.00000
    195      -0.9469      1.00000
    196      -0.9385      1.00000
    197      -0.9312      1.00000
    198      -0.9284      1.00000
    199      -0.9280      1.00000
    200      -0.8854      1.00000
    201      -0.8844      1.00000
    202      -0.8843      1.00000
    203      -0.8836      1.00000
    204      -0.8714      1.00000
    205      -0.8714      1.00000
    206      -0.8675      1.00000
    207      -0.8673      1.00000
    208      -0.8672      1.00000
    209      -0.8670      1.00000
    210      -0.8595      1.00000
    211      -0.8592      1.00000
    212      -0.7007      1.00000
    213      -0.7001      1.00000
    214      -0.7001      1.00000
    215      -0.6997      1.00000
    216      -0.6713      1.00000
    217      -0.6712      1.00000
    218      -0.6228      1.00000
    219      -0.6228      1.00000
    220      -0.6227      1.00000
    221      -0.6224      1.00000
    222      -0.6221      1.00000
    223      -0.6219      1.00000
    224      -0.3522      1.00000
    225      -0.3521      1.00000
    226      -0.3520      1.00000
    227      -0.3518      1.00000
    228      -0.3218      1.00000
    229      -0.3215      1.00000
    230      -0.2915      1.00000
    231      -0.2912      1.00000
    232      -0.2645      1.00000
    233      -0.2639      1.00000
    234      -0.2638      1.00000
    235      -0.2634      1.00000
    236      -0.2609      1.00000
    237      -0.2606      1.00000
    238      -0.2580      1.00000
    239      -0.2487      1.00000
    240      -0.2485      1.00000
    241      -0.2426      1.00000
    242      -0.2202      1.00000
    243      -0.1404      1.00000
    244      -0.1403      1.00000
    245      -0.1401      1.00000
    246      -0.1400      1.00000
    247      -0.1394      1.00000
    248      -0.1389      1.00000
    249      -0.1236      1.00000
    250      -0.1229      1.00000
    251      -0.1228      1.00000
    252      -0.1221      1.00000
    253      -0.1202      1.00000
    254      -0.1198      1.00000
    255      -0.0775      1.00000
    256      -0.0775      1.00000
    257      -0.0595      1.00000
    258      -0.0117      1.00000
    259      -0.0117      1.00000
    260       0.0157      1.00000
    261       0.0159      1.00000
    262       0.0260      1.00000
    263       0.0262      1.00000
    264       0.0427      1.00000
    265       0.0432      1.00000
    266       0.0433      1.00000
    267       0.0436      1.00000
    268       0.0608      1.00000
    269       0.0610      1.00000
    270       0.1495      1.00000
    271       0.1501      1.00000
    272       0.1502      1.00000
    273       0.1505      1.00000
    274       0.1585      1.00000
    275       0.1638      1.00000
    276       0.1654      1.00000
    277       0.1824      1.00000
    278       0.1828      1.00000
    279       0.1923      1.00000
    280       0.1966      1.00000
    281       0.1968      1.00000
    282       0.2078      1.00000
    283       0.2080      1.00000
    284       0.2573      1.00000
    285       0.2579      1.00000
    286       0.2583      1.00000
    287       0.2587      1.00000
    288       0.2781      1.00000
    289       0.2788      1.00000
    290       0.3391      1.00000
    291       0.3393      1.00000
    292       0.3593      1.00000
    293       0.3600      1.00000
    294       0.3601      1.00000
    295       0.3604      1.00000
    296       0.3801      1.00000
    297       0.3832      1.00000
    298       0.4895      1.00000
    299       0.4898      1.00000
    300       0.4900      1.00000
    301       0.4902      1.00000
    302       0.5167      1.00000
    303       0.5172      1.00000
    304       0.5172      1.00000
    305       0.5174      1.00000
    306       0.5585      1.00000
    307       0.5592      1.00000
    308       0.6086      1.00000
    309       0.6094      1.00000
    310       0.6148      1.00000
    311       0.6306      1.00000
    312       0.6311      1.00000
    313       0.6312      1.00000
    314       0.6314      1.00000
    315       0.7522      1.00000
    316       0.7524      1.00000
    317       0.7613      1.00000
    318       0.7614      1.00000
    319       0.7620      1.00000
    320       0.7624      1.00000
    321       0.7907      1.00000
    322       0.7908      1.00000
    323       0.7932      1.00000
    324       0.8457      1.00000
    325       0.8466      1.00000
    326       0.8549      1.00000
    327       0.8550      1.00000
    328       0.9689      1.00000
    329       0.9691      1.00000
    330       0.9691      1.00000
    331       0.9694      1.00000
    332       0.9793      1.00000
    333       1.2394      1.00000
    334       1.2400      1.00000
    335       1.2401      1.00000
    336       1.2405      1.00000
    337       1.2639      1.00000
    338       1.2926      1.00000
    339       1.2928      1.00000
    340       1.3303      1.00000
    341       1.3306      1.00000
    342       1.3585      1.00000
    343       1.3588      1.00000
    344       1.3588      1.00000
    345       1.3593      1.00000
    346       1.4366      1.00000
    347       1.4368      1.00000
    348       1.4640      1.00000
    349       1.4755      1.00000
    350       1.4874      1.00000
    351       1.4875      1.00000
    352       1.5477      1.00000
    353       1.6788      1.00000
    354       1.6800      1.00000
    355       1.6803      1.00000
    356       1.7236      1.00000
    357       1.7237      1.00000
    358       1.7238      1.00000
    359       1.7241      1.00000
    360       1.7652      1.00000
    361       1.7658      1.00000
    362       1.8142      1.00000
    363       1.8143      1.00000
    364       1.8146      1.00000
    365       1.8154      1.00000
    366       1.8267      1.00000
    367       1.8270      1.00000
    368       1.8278      1.00000
    369       1.8279      1.00000
    370       1.8395      1.00000
    371       1.8760      1.00000
    372       1.8866      1.00000
    373       1.9028      1.00000
    374       1.9032      1.00000
    375       1.9176      1.00000
    376       1.9182      1.00000
    377       1.9630      1.00000
    378       1.9634      1.00000
    379       1.9897      1.00000
    380       1.9902      1.00000
    381       1.9991      1.00000
    382       1.9992      1.00000
    383       1.9994      1.00000
    384       1.9995      1.00000
    385       2.0711      1.00000
    386       2.0716      1.00000
    387       2.0810      1.00000
    388       2.0816      1.00000
    389       2.0816      1.00000
    390       2.0821      1.00000
    391       2.0944      1.00000
    392       2.0946      1.00000
    393       2.1162      1.00000
    394       2.1162      1.00000
    395       2.1164      1.00000
    396       2.1166      1.00000
    397       2.1956      1.00000
    398       2.1959      1.00000
    399       2.2882      1.00000
    400       2.2890      1.00000
    401       2.4163      1.00000
    402       2.4164      1.00000
    403       2.4402      1.00000
    404       2.4408      1.00000
    405       2.4409      1.00000
    406       2.4414      1.00000
    407       2.4997      1.00000
    408       2.5163      1.00000
    409       2.5164      1.00000
    410       2.5166      1.00000
    411       2.5170      1.00000
    412       2.5595      1.00000
    413       2.5597      1.00000
    414       2.5653      1.00000
    415       2.7187      1.00000
[...]
   -.226E+01 0.659E+01 -.125E+03   0.234E+01 -.688E+01 0.129E+03   -.826E-01 0.296E+00 -.453E+01   -.511E-04 -.245E-03 0.136E-03
   -.221E+01 0.672E+01 -.124E+03   0.229E+01 -.701E+01 0.129E+03   -.808E-01 0.286E+00 -.454E+01   -.185E-04 -.608E-04 0.140E-03
   -.226E+01 0.685E+01 -.124E+03   0.234E+01 -.713E+01 0.129E+03   -.827E-01 0.275E+00 -.455E+01   -.207E-04 0.285E-03 0.124E-03
   -.226E+01 0.685E+01 -.125E+03   0.234E+01 -.713E+01 0.129E+03   -.825E-01 0.275E+00 -.453E+01   -.574E-04 0.219E-03 0.149E-03
   -.221E+01 0.672E+01 -.124E+03   0.229E+01 -.701E+01 0.129E+03   -.809E-01 0.285E+00 -.454E+01   -.106E-04 0.171E-04 0.143E-03
   -.226E+01 0.659E+01 -.124E+03   0.234E+01 -.688E+01 0.129E+03   -.829E-01 0.296E+00 -.455E+01   -.896E-05 -.279E-03 0.127E-03
   -.229E+01 0.672E+01 -.124E+03   0.236E+01 -.701E+01 0.129E+03   -.759E-01 0.286E+00 -.454E+01   -.419E-04 -.363E-04 0.126E-03
   -.225E+01 0.672E+01 -.124E+03   0.233E+01 -.701E+01 0.129E+03   -.785E-01 0.285E+00 -.454E+01   -.507E-04 -.139E-04 0.160E-03
   -.228E+01 0.672E+01 -.124E+03   0.236E+01 -.701E+01 0.129E+03   -.761E-01 0.286E+00 -.454E+01   -.165E-04 -.481E-04 0.128E-03
   0.459E+01 -.113E+02 -.319E+02   -.467E+01 0.114E+02 0.324E+02   0.865E-01 -.134E+00 -.499E+00   -.123E-03 -.751E-05 0.444E-04
   0.471E+01 -.113E+02 -.319E+02   -.479E+01 0.114E+02 0.324E+02   0.828E-01 -.134E+00 -.498E+00   0.270E-04 -.967E-05 -.723E-06
   0.472E+01 -.113E+02 -.318E+02   -.480E+01 0.114E+02 0.323E+02   0.821E-01 -.135E+00 -.500E+00   0.433E-04 -.168E-04 0.557E-04
   0.465E+01 -.113E+02 -.319E+02   -.473E+01 0.114E+02 0.324E+02   0.845E-01 -.135E+00 -.499E+00   -.222E-04 -.848E-05 0.489E-04
   0.469E+01 -.113E+02 -.319E+02   -.477E+01 0.114E+02 0.324E+02   0.830E-01 -.135E+00 -.498E+00   0.752E-05 0.134E-04 0.352E-04
   0.470E+01 -.113E+02 -.319E+02   -.478E+01 0.114E+02 0.324E+02   0.823E-01 -.134E+00 -.499E+00   0.296E-04 -.181E-04 0.452E-04
   0.465E+01 -.113E+02 -.319E+02   -.473E+01 0.114E+02 0.324E+02   0.843E-01 -.134E+00 -.499E+00   -.884E-05 -.234E-05 0.547E-04
   0.469E+01 -.113E+02 -.319E+02   -.477E+01 0.114E+02 0.324E+02   0.829E-01 -.134E+00 -.498E+00   0.751E-05 -.261E-04 0.398E-04
   0.469E+01 -.113E+02 -.319E+02   -.478E+01 0.114E+02 0.324E+02   0.824E-01 -.135E+00 -.499E+00   0.177E-04 0.156E-04 0.432E-04
   0.112E+02 -.464E+01 0.319E+02   -.114E+02 0.472E+01 -.324E+02   0.140E+00 -.829E-01 0.499E+00   -.799E-04 -.176E-04 -.587E-04
   0.114E+02 -.464E+01 0.319E+02   -.115E+02 0.472E+01 -.324E+02   0.133E+00 -.829E-01 0.498E+00   0.581E-04 0.815E-06 0.592E-06
   0.113E+02 -.464E+01 0.318E+02   -.115E+02 0.472E+01 -.323E+02   0.134E+00 -.829E-01 0.500E+00   0.505E-04 -.105E-04 -.896E-04
   0.113E+02 -.464E+01 0.319E+02   -.114E+02 0.472E+01 -.324E+02   0.136E+00 -.829E-01 0.499E+00   -.111E-06 0.344E-05 -.451E-04
   0.113E+02 -.463E+01 0.319E+02   -.115E+02 0.471E+01 -.324E+02   0.134E+00 -.836E-01 0.498E+00   0.294E-04 -.373E-05 -.456E-04
   0.113E+02 -.465E+01 0.319E+02   -.115E+02 0.473E+01 -.324E+02   0.134E+00 -.822E-01 0.499E+00   0.147E-04 -.990E-05 -.378E-04
   0.113E+02 -.464E+01 0.319E+02   -.114E+02 0.473E+01 -.324E+02   0.136E+00 -.828E-01 0.499E+00   0.489E-06 0.731E-05 -.473E-04
   0.113E+02 -.465E+01 0.319E+02   -.115E+02 0.473E+01 -.324E+02   0.134E+00 -.822E-01 0.498E+00   0.920E-05 -.374E-05 -.338E-04
   0.113E+02 -.463E+01 0.319E+02   -.114E+02 0.471E+01 -.324E+02   0.134E+00 -.836E-01 0.499E+00   0.210E-04 0.127E-04 -.514E-04
   -.175E+01 0.160E-01 0.108E-03   0.172E+01 -.194E-01 -.537E-03   0.970E-01 0.345E-02 0.400E-03   -.272E-03 0.205E-05 -.315E-04
   0.191E+00 0.144E-01 0.930E-03   -.181E+00 -.177E-01 -.222E-02   -.159E-01 0.325E-02 0.157E-02   0.893E-04 0.331E-04 -.223E-04
   0.192E+00 0.145E-01 0.362E-02   -.182E+00 -.177E-01 -.222E-02   -.160E-01 0.325E-02 -.180E-02   0.121E-03 -.159E-04 0.440E-04
   -.953E-01 0.140E-01 -.229E-02   0.976E-01 -.173E-01 0.227E-02   -.135E-02 0.328E-02 0.713E-04   -.105E-04 0.242E-04 -.236E-04
   0.194E-01 0.476E-01 0.157E-02   -.157E-01 -.506E-01 -.144E-02   -.387E-02 0.254E-02 -.155E-03   -.609E-05 0.434E-04 0.115E-04
   0.197E-01 -.185E-01 0.691E-03   -.161E-01 0.148E-01 -.754E-03   -.389E-02 0.397E-02 0.663E-04   -.419E-05 0.123E-04 -.912E-05
   -.954E-01 0.134E-01 -.232E-02   0.976E-01 -.167E-01 0.227E-02   -.134E-02 0.329E-02 0.676E-04   -.608E-05 0.107E-04 0.240E-05
   0.198E-01 -.183E-01 0.863E-03   -.162E-01 0.146E-01 -.765E-03   -.391E-02 0.399E-02 -.100E-03   -.538E-05 -.220E-04 0.447E-05
   0.193E-01 0.479E-01 0.136E-02   -.156E-01 -.508E-01 -.143E-02   -.387E-02 0.251E-02 0.291E-04   -.212E-04 0.274E-04 0.203E-04
   -.273E+01 0.418E+01 -.185E+03   0.204E+01 -.379E+01 0.183E+03   0.690E+00 -.390E+00 0.229E+01   -.144E-04 -.844E-04 0.164E-03
   -.263E+01 0.423E+01 -.185E+03   0.194E+01 -.384E+01 0.183E+03   0.686E+00 -.389E+00 0.229E+01   -.322E-06 -.356E-04 0.992E-04
   -.277E+01 0.427E+01 -.185E+03   0.208E+01 -.389E+01 0.183E+03   0.689E+00 -.389E+00 0.230E+01   -.960E-04 0.234E-04 0.111E-05
   -.274E+01 0.428E+01 -.185E+03   0.205E+01 -.389E+01 0.183E+03   0.690E+00 -.389E+00 0.229E+01   0.261E-04 0.660E-04 0.239E-03
   -.264E+01 0.423E+01 -.185E+03   0.195E+01 -.384E+01 0.183E+03   0.687E+00 -.390E+00 0.230E+01   -.424E-04 0.731E-05 0.105E-03
   -.276E+01 0.418E+01 -.185E+03   0.207E+01 -.379E+01 0.183E+03   0.690E+00 -.389E+00 0.230E+01   -.784E-04 -.669E-04 0.267E-04
   -.272E+01 0.422E+01 -.185E+03   0.203E+01 -.383E+01 0.183E+03   0.689E+00 -.389E+00 0.230E+01   0.180E-04 -.126E-04 0.764E-04
   -.267E+01 0.423E+01 -.185E+03   0.198E+01 -.385E+01 0.183E+03   0.687E+00 -.389E+00 0.230E+01   -.244E-04 -.170E-04 0.743E-04
   -.275E+01 0.423E+01 -.185E+03   0.206E+01 -.384E+01 0.183E+03   0.689E+00 -.389E+00 0.230E+01   -.791E-04 0.198E-04 0.667E-04
   -.429E+01 0.266E+01 0.185E+03   0.389E+01 -.197E+01 -.183E+03   0.393E+00 -.688E+00 -.229E+01   -.597E-05 0.480E-04 -.187E-03
   -.416E+01 0.269E+01 0.185E+03   0.377E+01 -.201E+01 -.183E+03   0.390E+00 -.687E+00 -.230E+01   0.124E-04 0.671E-04 -.145E-03
   -.426E+01 0.275E+01 0.185E+03   0.386E+01 -.206E+01 -.183E+03   0.392E+00 -.686E+00 -.230E+01   0.580E-04 0.111E-03 0.341E-04
   -.430E+01 0.275E+01 0.185E+03   0.391E+01 -.206E+01 -.183E+03   0.392E+00 -.687E+00 -.229E+01   -.405E-04 0.481E-04 -.191E-03
   -.416E+01 0.270E+01 0.185E+03   0.377E+01 -.201E+01 -.183E+03   0.390E+00 -.688E+00 -.230E+01   0.336E-05 0.273E-04 -.135E-03
   -.425E+01 0.265E+01 0.185E+03   0.386E+01 -.197E+01 -.183E+03   0.392E+00 -.687E+00 -.230E+01   0.795E-04 0.827E-05 0.221E-04
   -.427E+01 0.270E+01 0.185E+03   0.388E+01 -.201E+01 -.183E+03   0.392E+00 -.687E+00 -.230E+01   0.145E-04 -.164E-04 -.553E-04
   -.420E+01 0.270E+01 0.185E+03   0.381E+01 -.202E+01 -.183E+03   0.390E+00 -.687E+00 -.230E+01   -.333E-04 -.842E-05 -.132E-03
   -.424E+01 0.270E+01 0.185E+03   0.385E+01 -.201E+01 -.183E+03   0.392E+00 -.687E+00 -.230E+01   0.650E-04 -.335E-04 -.114E-03
   0.302E+01 0.506E+01 -.202E+03   -.313E+01 -.508E+01 0.203E+03   0.106E+00 0.129E-01 -.198E+01   -.225E-03 0.873E-05 0.396E-03
   0.397E+01 0.495E+01 -.202E+03   -.404E+01 -.497E+01 0.204E+03   0.764E-01 0.157E-01 -.198E+01   0.518E-04 -.203E-04 0.418E-03
   0.397E+01 0.518E+01 -.201E+03   -.405E+01 -.519E+01 0.203E+03   0.763E-01 0.956E-02 -.198E+01   0.177E-03 0.108E-05 0.381E-03
   0.302E+01 0.507E+01 -.202E+03   -.313E+01 -.508E+01 0.203E+03   0.106E+00 0.127E-01 -.198E+01   -.227E-03 -.963E-04 0.385E-03
   0.397E+01 0.518E+01 -.202E+03   -.404E+01 -.519E+01 0.204E+03   0.765E-01 0.964E-02 -.198E+01   0.749E-04 -.284E-04 0.446E-03
   0.398E+01 0.495E+01 -.201E+03   -.405E+01 -.497E+01 0.203E+03   0.761E-01 0.158E-01 -.198E+01   0.152E-03 -.374E-04 0.371E-03
   0.371E+01 0.507E+01 -.201E+03   -.379E+01 -.508E+01 0.203E+03   0.807E-01 0.127E-01 -.198E+01   0.218E-06 -.122E-04 0.402E-03
   0.381E+01 0.507E+01 -.201E+03   -.389E+01 -.508E+01 0.203E+03   0.802E-01 0.125E-01 -.198E+01   -.955E-05 -.642E-05 0.402E-03
   0.382E+01 0.507E+01 -.201E+03   -.390E+01 -.508E+01 0.203E+03   0.801E-01 0.126E-01 -.198E+01   0.296E-04 -.804E-05 0.429E-03
   -.437E+01 -.380E+01 0.203E+03   0.441E+01 0.388E+01 -.205E+03   -.583E-01 -.803E-01 0.193E+01   0.707E-04 -.670E-04 -.339E-03
   -.483E+01 -.380E+01 0.201E+03   0.486E+01 0.388E+01 -.203E+03   -.233E-01 -.804E-01 0.198E+01   0.134E-03 -.301E-04 -.355E-03
   -.436E+01 -.379E+01 0.200E+03   0.441E+01 0.387E+01 -.202E+03   -.588E-01 -.807E-01 0.203E+01   0.324E-04 -.492E-04 -.467E-03
   -.509E+01 -.368E+01 0.202E+03   0.510E+01 0.377E+01 -.204E+03   -.110E-01 -.856E-01 0.198E+01   0.621E-04 0.122E-03 -.385E-03
   -.497E+01 -.380E+01 0.201E+03   0.498E+01 0.388E+01 -.203E+03   -.143E-01 -.804E-01 0.198E+01   0.965E-05 0.467E-04 -.393E-03
   -.509E+01 -.391E+01 0.201E+03   0.510E+01 0.399E+01 -.203E+03   -.110E-01 -.753E-01 0.198E+01   0.330E-04 0.471E-04 -.423E-03
   -.509E+01 -.391E+01 0.202E+03   0.510E+01 0.399E+01 -.204E+03   -.112E-01 -.752E-01 0.198E+01   0.204E-04 -.159E-04 -.360E-03
   -.497E+01 -.379E+01 0.201E+03   0.498E+01 0.388E+01 -.203E+03   -.144E-01 -.804E-01 0.198E+01   0.127E-03 -.264E-04 -.384E-03
   -.510E+01 -.368E+01 0.201E+03   0.511E+01 0.377E+01 -.203E+03   -.108E-01 -.855E-01 0.198E+01   0.249E-04 0.302E-04 -.411E-03
 -----------------------------------------------------------------------------------------------
   -.938E+01 0.941E+01 0.325E-03   -.853E-13 0.278E-12 0.199E-12   0.938E+01 -.941E+01 -.447E-03   0.208E-03 0.212E-03 0.122E-03
 
 
 POSITION                                       TOTAL-FORCE (eV/Angst)
 -----------------------------------------------------------------------------------
      0.69431      1.16678      8.50361        -0.001569      0.000513      0.000593
      4.62006      1.16961      8.52669         0.001203      0.000519      0.000143
      8.54582      1.17244      8.54977        -0.001821      0.000566     -0.000539
      0.68421      5.09252      8.52669        -0.000025     -0.000072     -0.000020
      4.60997      5.09535      8.54977         0.000340     -0.000573     -0.000036
      8.53573      5.09818      8.57285        -0.000114     -0.001123     -0.000072
      0.67412      9.01827      8.54977         0.000016     -0.000132      0.000119
      4.59988      9.02110      8.57285         0.000311      0.000384      0.000099
      8.52563      9.02393      8.59592        -0.000122      0.000908      0.000081
      0.73117      1.20377      1.72829        -0.002498      0.000076     -0.000076
      4.65693      1.20660      1.75137         0.001298     -0.000350      0.000387
      8.58269      1.20942      1.77444         0.000141      0.000517     -0.000303
      0.72108      5.12951      1.75137        -0.002499     -0.000059     -0.000081
      4.64684      5.13234      1.77444         0.001288      0.000378      0.000387
      8.57259      5.13517      1.79752         0.000152     -0.000505     -0.000307
      0.71099      9.05525      1.77444        -0.000493     -0.000084     -0.000064
      4.63674      9.05808      1.79752         0.000685     -0.000054      0.000211
      8.56250      9.06091      1.82060        -0.000442     -0.000039     -0.000158
      2.69694      1.20483      2.03281        -0.002002      0.005064     -0.003972
      6.62270      1.20766      2.05588        -0.000895     -0.000003     -0.000069
     10.54845      1.21049      2.07896        -0.002135     -0.005112      0.004041
      2.68685      5.13057      2.05588        -0.001961     -0.005107     -0.004102
      6.61260      5.13340      2.07896        -0.000885     -0.000005     -0.000039
     10.53836      5.13623      2.10204        -0.002175      0.005055      0.004073
      2.67675      9.05632      2.07896        -0.000023      0.000006     -0.000103
      6.60251      9.05915      2.10204        -0.000501     -0.000033     -0.000023
     10.52827      9.06198      2.12512        -0.000097     -0.000010      0.000115
      0.69972     -0.79898      8.19910        -0.001894      0.003422      0.003882
      4.62547     -0.79615      8.22217        -0.001358      0.000386      0.000001
      8.55123     -0.79332      8.24525        -0.001978     -0.002690     -0.003903
      0.68962      3.12676      8.22217        -0.001856     -0.002988      0.003852
      4.61538      3.12959      8.24525        -0.001389      0.000167     -0.000085
      8.54114      3.13242      8.26833        -0.002013      0.003305     -0.003783
      0.67953      7.05251      8.24525         0.000376      0.000229      0.000053
      4.60529      7.05534      8.26833        -0.000500      0.000226     -0.000008
      8.53104      7.05817      8.29141         0.000280      0.000235     -0.000028
     -1.24734      1.15770      6.42338         0.001272      0.000094      0.000153
      2.67842      1.16053      6.44646        -0.000247      0.000075      0.000426
      6.60417      1.16336      6.46954        -0.000589      0.000089     -0.000595
     -1.25744      5.08344      6.44646         0.000520      0.000071      0.000114
      2.66832      5.08627      6.46954        -0.000147     -0.000140      0.000166
      6.59408      5.08910      6.49262        -0.000495      0.000343     -0.000321
     -1.26753      9.00919      6.46954         0.000448      0.000096      0.000011
      2.65823      9.01202      6.49262        -0.000201      0.000332      0.000257
      6.58398      9.01484      6.51569        -0.000434     -0.000162     -0.000310
      0.73386      3.14543      3.80852         0.001616      0.000039      0.000120
      4.65962      3.14826      3.83160        -0.000605      0.000048     -0.000741
      8.58538      3.15109      3.85467        -0.000320      0.000043      0.000732
      0.72377      7.07118      3.83160         0.000636      0.000041      0.000059
      4.64953      7.07401      3.85467        -0.000508     -0.000226     -0.000267
      8.57528      7.07684      3.87775        -0.000275      0.000319      0.000356
      0.71368     10.99692      3.85467         0.000648      0.000062      0.000165
      4.63943     10.99975      3.87775        -0.000511      0.000303     -0.000255
      8.56519     11.00258      3.90083        -0.000233     -0.000242      0.000239
      0.72979      3.17832      0.02302         0.064853      0.000036     -0.000060
      4.66555      3.18115      0.04616        -0.005756     -0.000003      0.000254
      8.59130      3.18398      0.06923        -0.005830      0.000004     -0.000353
      0.72970      7.10407      0.04616         0.000910      0.000006      0.000032
      4.65545      7.10690      0.06923        -0.000256     -0.000345     -0.000018
      8.58121      7.10973      0.09231        -0.000273      0.000312     -0.000006
      0.71960     11.02981      0.06923         0.000910      0.000013      0.000027
      4.64536     11.03264      0.09231        -0.000269      0.000317      0.000002
      8.57112     11.03547      0.11539        -0.000259     -0.000338     -0.000026
      2.61849      1.23237      4.04033        -0.000230     -0.000152      0.000998
      6.54425      1.23520      4.06340         0.000629     -0.000147      0.000214
     10.47001      1.23803      4.08648        -0.000341     -0.000084     -0.001514
      2.60840      5.15812      4.06340        -0.000221     -0.000048      0.001094
      6.53415      5.16095      4.08648         0.000599     -0.000088      0.000092
     10.45991      5.16378      4.10956        -0.000381     -0.000168     -0.001506
      2.59830      9.08386      4.08648        -0.000057      0.000054     -0.000060
      6.52406      9.08669      4.10956         0.000532      0.000049      0.000109
     10.44982      9.08952      4.13264        -0.000316      0.000057     -0.000301
      0.67192     -0.72062      6.19157        -0.000523     -0.000115     -0.001028
      4.59767     -0.71779      6.21465         0.000443     -0.000138      0.000326
      8.52343     -0.71497      6.23773        -0.000244     -0.000160      0.001092
      0.66182      3.20512      6.21465        -0.000376     -0.000195     -0.001022
      4.58758      3.20795      6.23773         0.000396     -0.000241      0.000495
      8.51333      3.21078      6.26081        -0.000239     -0.000302      0.000797
      0.65173      7.13086      6.23773        -0.000384     -0.000272      0.000019
      4.57748      7.13369      6.26081         0.000398     -0.000252      0.000289
      8.50324      7.13652      6.28389        -0.000117     -0.000253     -0.000004
     -1.26712     -0.80254      8.61927        -0.004450     -0.000008     -0.000020
      2.65864     -0.79971      8.64235         0.001422     -0.000880     -0.000602
      6.58440     -0.79688      8.66542         0.001520      0.000724      0.000651
     -1.27721      3.12320      8.64235        -0.004465     -0.000067     -0.000045
      2.64854      3.12603      8.66542         0.001373      0.000732     -0.000562
      6.57430      3.12886      8.68850         0.001610     -0.000860      0.000674
     -1.28731      7.04895      8.66542        -0.000017     -0.000092     -0.000049
      2.63845      7.05177      8.68850         0.000163     -0.000036     -0.000222
      6.56421      7.05460      8.71158         0.000319     -0.000056      0.000234
      2.69403      3.17166      1.61263        -0.013811     -0.000177     -0.008118
      6.61978      3.17449      1.63571         0.001741     -0.000231     -0.000143
     10.54554      3.17732      1.65879        -0.014665     -0.000233      0.008293
      2.68393      7.09741      1.63571        -0.000202      0.001239     -0.000315
      6.60969      7.10024      1.65879         0.000533     -0.000099     -0.000099
     10.53545      7.10307      1.68187        -0.000207     -0.001431      0.000125
      2.67384     11.02315      1.65879        -0.000158     -0.001428     -0.000359
      6.59960     11.02598      1.68187         0.000522     -0.000077     -0.000108
     10.52535     11.02881      1.70494        -0.000247      0.001228      0.000147
 -----------------------------------------------------------------------------------
    total drift:                                0.000221     -0.000179      0.000000


--------------------------------------------------------------------------------------------------------



  FREE ENERGIE OF THE ION-ELECTRON SYSTEM (eV)
  ---------------------------------------------------
  free  energy   TOTEN  =      -550.33894139 eV

  energy  without entropy=     -550.33894139  energy(sigma->0) =     -550.33894139
 


--------------------------------------------------------------------------------------------------------


    POTLOK:  cpu time    3.6610: real time    3.6873


--------------------------------------------------------------------------------------------------------


     LOOP+:  cpu time 9115.0364: real time 9194.9843
    4ORBIT:  cpu time    0.0000: real time    0.0000

 total amount of memory used by VASP MPI-rank0  1508757. kBytes
=======================================================================

   base      :      30000. kBytes
   nonl-proj :      85790. kBytes
   fftplans  :      89726. kBytes
   grid      :      70158. kBytes
   one-center:        528. kBytes
   wavefun   :    1232555. kBytes
 
  
  
 General timing and accounting informations for this job:
 ========================================================
  
                  Total CPU time used (sec):     9237.600
                            User time (sec):     9138.216
                          System time (sec):       99.384
                         Elapsed time (sec):     9318.992
  
                   Maximum memory used (kb):     1707208.
                   Average memory used (kb):           0.
  
                          Minor page faults:      1279129
                          Major page faults:           19
                 Voluntary context switches:        89365
