 120 120   0   0
  0.1228332E+02  0.1173587E-08  0.1121847E-08  0.1119562E-08  0.5000000E-15
  1.000000000000000E-004
  CAR 
 unknown system                          
     16.73676034    -54.73708953  301      4.40752124      1.00000000
    -54.737  0.0000E+00  0.0000E+00  0.0000E+00  0.0000E+00
    -54.499  0.0000E+00  0.0000E+00  0.0000E+00  0.0000E+00
    -54.261  0.0000E+00  0.0000E+00  0.0000E+00  0.0000E+00
    -54.022  0.0000E+00  0.0000E+00  0.0000E+00  0.0000E+00
    -53.784  0.0000E+00  0.0000E+00  0.0000E+00  0.0000E+00
    -53.546  0.0000E+00  0.0000E+00  0.0000E+00  0.0000E+00
    -53.308  0.0000E+00  0.0000E+00  0.0000E+00  0.0000E+00
    -53.069  0.0000E+00  0.0000E+00  0.0000E+00  0.0000E+00
    -52.831  0.0000E+00  0.0000E+00  0.0000E+00  0.0000E+00
    -52.593  0.0000E+00  0.0000E+00  0.0000E+00  0.0000E+00
    -52.355  0.0000E+00  0.0000E+00  0.0000E+00  0.0000E+00
    -52.116  0.0000E+00  0.0000E+00  0.0000E+00  0.0000E+00
    -51.878  0.0000E+00  0.0000E+00  0.0000E+00  0.0000E+00
    -51.640  0.1409E-03  0.0000E+00  0.3356E-04  0.0000E+00
    -51.402  0.9663E+02  0.0000E+00  0.2302E+02  0.0000E+00
    -51.163  0.4106E+01  0.0000E+00  0.2400E+02  0.0000E+00
    -50.925  0.0000E+00  0.0000E+00  0.2400E+02  0.0000E+00
    -50.687  0.0000E+00  0.0000E+00  0.2400E+02  0.0000E+00
    -50.449  0.1209E-09  0.0000E+00  0.2400E+02  0.0000E+00
    -50.210  0.3736E+02  0.0000E+00  0.3290E+02  0.0000E+00
    -49.972  0.1327E+03  0.0000E+00  0.6452E+02  0.0000E+00
    -49.734  0.3140E+02  0.0000E+00  0.7200E+02  0.0000E+00
    -49.496  0.0000E+00  0.0000E+00  0.7200E+02  0.0000E+00
    -49.257  0.0000E+00  0.0000E+00  0.7200E+02  0.0000E+00
    -49.019  0.0000E+00  0.0000E+00  0.7200E+02  0.0000E+00
    -48.781  0.0000E+00  0.0000E+00  0.7200E+02  0.0000E+00
    -48.543  0.0000E+00  0.0000E+00  0.7200E+02  0.0000E+00
    -48.304  0.0000E+00  0.0000E+00  0.7200E+02  0.0000E+00
    -48.066  0.0000E+00  0.0000E+00  0.7200E+02  0.0000E+00
    -47.828  0.0000E+00  0.0000E+00  0.7200E+02  0.0000E+00
    -47.590  0.0000E+00  0.0000E+00  0.7200E+02  0.0000E+00
    -47.351  0.0000E+00  0.0000E+00  0.7200E+02  0.0000E+00
    -47.113  0.0000E+00  0.0000E+00  0.7200E+02  0.0000E+00
    -46.875  0.0000E+00  0.4152E-01  0.7200E+02  0.9893E-02
    -46.637  0.0000E+00  0.1005E+03  0.7200E+02  0.2396E+02
    -46.398  0.0000E+00  0.8934E+02  0.7200E+02  0.4524E+02
    -46.160  0.0000E+00  0.1123E+03  0.7200E+02  0.7200E+02
    -45.922  0.0000E+00  0.0000E+00  0.7200E+02  0.7200E+02
    -45.684  0.0000E+00  0.0000E+00  0.7200E+02  0.7200E+02
    -45.445  0.0000E+00  0.0000E+00  0.7200E+02  0.7200E+02
    -45.207  0.0000E+00  0.0000E+00  0.7200E+02  0.7200E+02
    -44.969  0.0000E+00  0.0000E+00  0.7200E+02  0.7200E+02
    -44.731  0.0000E+00  0.0000E+00  0.7200E+02  0.7200E+02
    -44.493  0.0000E+00  0.0000E+00  0.7200E+02  0.7200E+02
    -44.254  0.0000E+00  0.0000E+00  0.7200E+02  0.7200E+02
    -44.016  0.0000E+00  0.0000E+00  0.7200E+02  0.7200E+02
    -43.778  0.0000E+00  0.0000E+00  0.7200E+02  0.7200E+02
    -43.540  0.0000E+00  0.0000E+00  0.7200E+02  0.7200E+02
    -43.301  0.0000E+00  0.0000E+00  0.7200E+02  0.7200E+02
    -43.063  0.0000E+00  0.0000E+00  0.7200E+02  0.7200E+02
    -42.825  0.0000E+00  0.0000E+00  0.7200E+02  0.7200E+02
    -42.587  0.0000E+00  0.0000E+00  0.7200E+02  0.7200E+02
    -42.348  0.0000E+00  0.0000E+00  0.7200E+02  0.7200E+02
    -42.110  0.0000E+00  0.0000E+00  0.7200E+02  0.7200E+02
    -41.872  0.0000E+00  0.0000E+00  0.7200E+02  0.7200E+02
    -41.634  0.0000E+00  0.0000E+00  0.7200E+02  0.7200E+02
    -41.395  0.0000E+00  0.0000E+00  0.7200E+02  0.7200E+02
    -41.157  0.0000E+00  0.0000E+00  0.7200E+02  0.7200E+02
    -40.919  0.0000E+00  0.0000E+00  0.7200E+02  0.7200E+02
    -40.681  0.1745E-03  0.5253E-04  0.7200E+02  0.7200E+02
    -40.442  0.9826E+02  0.9649E+02  0.9541E+02  0.9499E+02
    -40.204  0.1030E+03  0.1048E+03  0.1199E+03  0.1199E+03
    -39.966  0.2170E+00  0.2209E+00  0.1200E+03  0.1200E+03
    -39.728  0.0000E+00  0.0000E+00  0.1200E+03  0.1200E+03
    -39.489  0.0000E+00  0.0000E+00  0.1200E+03  0.1200E+03
    -39.251  0.0000E+00  0.0000E+00  0.1200E+03  0.1200E+03
    -39.013  0.0000E+00  0.0000E+00  0.1200E+03  0.1200E+03
    -38.775  0.0000E+00  0.0000E+00  0.1200E+03  0.1200E+03
    -38.536  0.0000E+00  0.0000E+00  0.1200E+03  0.1200E+03
    -38.298  0.0000E+00  0.0000E+00  0.1200E+03  0.1200E+03
    -38.060  0.0000E+00  0.0000E+00  0.1200E+03  0.1200E+03
    -37.822  0.0000E+00  0.0000E+00  0.1200E+03  0.1200E+03
    -37.583  0.0000E+00  0.0000E+00  0.1200E+03  0.1200E+03
    -37.345  0.0000E+00  0.0000E+00  0.1200E+03  0.1200E+03
    -37.107  0.0000E+00  0.0000E+00  0.1200E+03  0.1200E+03
    -36.869  0.0000E+00  0.0000E+00  0.1200E+03  0.1200E+03
    -36.630  0.0000E+00  0.0000E+00  0.1200E+03  0.1200E+03
    -36.392  0.0000E+00  0.0000E+00  0.1200E+03  0.1200E+03
    -36.154  0.0000E+00  0.0000E+00  0.1200E+03  0.1200E+03
    -35.916  0.0000E+00  0.0000E+00  0.1200E+03  0.1200E+03
    -35.677  0.0000E+00  0.0000E+00  0.1200E+03  0.1200E+03
    -35.439  0.0000E+00  0.0000E+00  0.1200E+03  0.1200E+03
    -35.201  0.0000E+00  0.0000E+00  0.1200E+03  0.1200E+03
    -34.963  0.0000E+00  0.0000E+00  0.1200E+03  0.1200E+03
    -34.724  0.0000E+00  0.0000E+00  0.1200E+03  0.1200E+03
    -34.486  0.0000E+00  0.0000E+00  0.1200E+03  0.1200E+03
    -34.248  0.0000E+00  0.0000E+00  0.1200E+03  0.1200E+03
    -34.010  0.0000E+00  0.0000E+00  0.1200E+03  0.1200E+03
    -33.771  0.0000E+00  0.0000E+00  0.1200E+03  0.1200E+03
    -33.533  0.0000E+00  0.0000E+00  0.1200E+03  0.1200E+03
    -33.295  0.0000E+00  0.0000E+00  0.1200E+03  0.1200E+03
    -33.057  0.0000E+00  0.0000E+00  0.1200E+03  0.1200E+03
    -32.818  0.0000E+00  0.0000E+00  0.1200E+03  0.1200E+03
    -32.580  0.0000E+00  0.0000E+00  0.1200E+03  0.1200E+03
    -32.342  0.0000E+00  0.0000E+00  0.1200E+03  0.1200E+03
    -32.104  0.0000E+00  0.0000E+00  0.1200E+03  0.1200E+03
    -31.865  0.0000E+00  0.0000E+00  0.1200E+03  0.1200E+03
    -31.627  0.0000E+00  0.0000E+00  0.1200E+03  0.1200E+03
    -31.389  0.0000E+00  0.0000E+00  0.1200E+03  0.1200E+03
    -31.151  0.0000E+00  0.0000E+00  0.1200E+03  0.1200E+03
    -30.912  0.0000E+00  0.0000E+00  0.1200E+03  0.1200E+03
    -30.674  0.0000E+00  0.0000E+00  0.1200E+03  0.1200E+03
    -30.436  0.0000E+00  0.0000E+00  0.1200E+03  0.1200E+03
    -30.198  0.0000E+00  0.0000E+00  0.1200E+03  0.1200E+03
    -29.959  0.0000E+00  0.0000E+00  0.1200E+03  0.1200E+03
    -29.721  0.0000E+00  0.0000E+00  0.1200E+03  0.1200E+03
    -29.483  0.0000E+00  0.0000E+00  0.1200E+03  0.1200E+03
    -29.245  0.0000E+00  0.0000E+00  0.1200E+03  0.1200E+03
    -29.007  0.0000E+00  0.0000E+00  0.1200E+03  0.1200E+03
    -28.768  0.0000E+00  0.0000E+00  0.1200E+03  0.1200E+03
    -28.530  0.0000E+00  0.0000E+00  0.1200E+03  0.1200E+03
    -28.292  0.0000E+00  0.0000E+00  0.1200E+03  0.1200E+03
    -28.054  0.0000E+00  0.0000E+00  0.1200E+03  0.1200E+03
    -27.815  0.0000E+00  0.0000E+00  0.1200E+03  0.1200E+03
    -27.577  0.0000E+00  0.0000E+00  0.1200E+03  0.1200E+03
    -27.339  0.0000E+00  0.0000E+00  0.1200E+03  0.1200E+03
    -27.101  0.0000E+00  0.0000E+00  0.1200E+03  0.1200E+03
    -26.862  0.0000E+00  0.0000E+00  0.1200E+03  0.1200E+03
    -26.624  0.0000E+00  0.0000E+00  0.1200E+03  0.1200E+03
    -26.386  0.0000E+00  0.0000E+00  0.1200E+03  0.1200E+03
    -26.148  0.0000E+00  0.0000E+00  0.1200E+03  0.1200E+03
    -25.909  0.0000E+00  0.0000E+00  0.1200E+03  0.1200E+03
    -25.671  0.0000E+00  0.0000E+00  0.1200E+03  0.1200E+03
    -25.433  0.0000E+00  0.0000E+00  0.1200E+03  0.1200E+03
    -25.195  0.0000E+00  0.0000E+00  0.1200E+03  0.1200E+03
    -24.956  0.0000E+00  0.0000E+00  0.1200E+03  0.1200E+03
    -24.718  0.0000E+00  0.0000E+00  0.1200E+03  0.1200E+03
    -24.480  0.0000E+00  0.0000E+00  0.1200E+03  0.1200E+03
    -24.242  0.0000E+00  0.0000E+00  0.1200E+03  0.1200E+03
    -24.003  0.0000E+00  0.0000E+00  0.1200E+03  0.1200E+03
    -23.765  0.0000E+00  0.0000E+00  0.1200E+03  0.1200E+03
    -23.527  0.0000E+00  0.0000E+00  0.1200E+03  0.1200E+03
    -23.289  0.0000E+00  0.0000E+00  0.1200E+03  0.1200E+03
    -23.050  0.0000E+00  0.0000E+00  0.1200E+03  0.1200E+03
    -22.812  0.0000E+00  0.0000E+00  0.1200E+03  0.1200E+03
    -22.574  0.0000E+00  0.0000E+00  0.1200E+03  0.1200E+03
    -22.336  0.0000E+00  0.0000E+00  0.1200E+03  0.1200E+03
    -22.097  0.0000E+00  0.0000E+00  0.1200E+03  0.1200E+03
    -21.859  0.0000E+00  0.0000E+00  0.1200E+03  0.1200E+03
    -21.621  0.0000E+00  0.0000E+00  0.1200E+03  0.1200E+03
    -21.383  0.0000E+00  0.0000E+00  0.1200E+03  0.1200E+03
    -21.144  0.0000E+00  0.0000E+00  0.1200E+03  0.1200E+03
    -20.906  0.0000E+00  0.0000E+00  0.1200E+03  0.1200E+03
    -20.668  0.0000E+00  0.0000E+00  0.1200E+03  0.1200E+03
    -20.430  0.0000E+00  0.0000E+00  0.1200E+03  0.1200E+03
    -20.191  0.0000E+00  0.0000E+00  0.1200E+03  0.1200E+03
    -19.953  0.0000E+00  0.0000E+00  0.1200E+03  0.1200E+03
    -19.715  0.0000E+00  0.0000E+00  0.1200E+03  0.1200E+03
    -19.477  0.0000E+00  0.0000E+00  0.1200E+03  0.1200E+03
    -19.238  0.0000E+00  0.0000E+00  0.1200E+03  0.1200E+03
    -19.000  0.0000E+00  0.0000E+00  0.1200E+03  0.1200E+03
    -18.762  0.0000E+00  0.0000E+00  0.1200E+03  0.1200E+03
    -18.524  0.0000E+00  0.0000E+00  0.1200E+03  0.1200E+03
    -18.285  0.0000E+00  0.0000E+00  0.1200E+03  0.1200E+03
    -18.047  0.0000E+00  0.0000E+00  0.1200E+03  0.1200E+03
    -17.809  0.0000E+00  0.0000E+00  0.1200E+03  0.1200E+03
    -17.571  0.0000E+00  0.0000E+00  0.1200E+03  0.1200E+03
    -17.332  0.0000E+00  0.0000E+00  0.1200E+03  0.1200E+03
    -17.094  0.0000E+00  0.0000E+00  0.1200E+03  0.1200E+03
    -16.856  0.0000E+00  0.0000E+00  0.1200E+03  0.1200E+03
    -16.618  0.0000E+00  0.0000E+00  0.1200E+03  0.1200E+03
    -16.379  0.0000E+00  0.0000E+00  0.1200E+03  0.1200E+03
    -16.141  0.0000E+00  0.0000E+00  0.1200E+03  0.1200E+03
    -15.903  0.0000E+00  0.0000E+00  0.1200E+03  0.1200E+03
    -15.665  0.0000E+00  0.0000E+00  0.1200E+03  0.1200E+03
    -15.426  0.0000E+00  0.0000E+00  0.1200E+03  0.1200E+03
    -15.188  0.0000E+00  0.0000E+00  0.1200E+03  0.1200E+03
    -14.950  0.0000E+00  0.0000E+00  0.1200E+03  0.1200E+03
    -14.712  0.0000E+00  0.0000E+00  0.1200E+03  0.1200E+03
    -14.473  0.0000E+00  0.0000E+00  0.1200E+03  0.1200E+03
    -14.235  0.0000E+00  0.0000E+00  0.1200E+03  0.1200E+03
    -13.997  0.0000E+00  0.0000E+00  0.1200E+03  0.1200E+03
    -13.759  0.1409E-08  0.0000E+00  0.1200E+03  0.1200E+03
    -13.521  0.8968E+01  0.2589E-15  0.1221E+03  0.1200E+03
    -13.282  0.6001E+02  0.3347E+00  0.1364E+03  0.1201E+03
    -13.044  0.3176E+02  0.6733E+02  0.1440E+03  0.1361E+03
    -12.806  0.2493E-03  0.3307E+02  0.1440E+03  0.1440E+03
    -12.568  0.0000E+00  0.3050E-04  0.1440E+03  0.1440E+03
    -12.329  0.0000E+00  0.0000E+00  0.1440E+03  0.1440E+03
    -12.091  0.0000E+00  0.0000E+00  0.1440E+03  0.1440E+03
    -11.853  0.0000E+00  0.0000E+00  0.1440E+03  0.1440E+03
    -11.615  0.0000E+00  0.0000E+00  0.1440E+03  0.1440E+03
    -11.376  0.0000E+00  0.0000E+00  0.1440E+03  0.1440E+03
    -11.138  0.0000E+00  0.0000E+00  0.1440E+03  0.1440E+03
    -10.900  0.0000E+00  0.0000E+00  0.1440E+03  0.1440E+03
    -10.662  0.0000E+00  0.0000E+00  0.1440E+03  0.1440E+03
    -10.423  0.0000E+00  0.0000E+00  0.1440E+03  0.1440E+03
    -10.185  0.0000E+00  0.0000E+00  0.1440E+03  0.1440E+03
     -9.947  0.0000E+00  0.0000E+00  0.1440E+03  0.1440E+03
     -9.709  0.0000E+00  0.0000E+00  0.1440E+03  0.1440E+03
     -9.470  0.0000E+00  0.0000E+00  0.1440E+03  0.1440E+03
     -9.232  0.0000E+00  0.0000E+00  0.1440E+03  0.1440E+03
     -8.994  0.0000E+00  0.0000E+00  0.1440E+03  0.1440E+03
     -8.756  0.0000E+00  0.0000E+00  0.1440E+03  0.1440E+03
     -8.517  0.0000E+00  0.0000E+00  0.1440E+03  0.1440E+03
     -8.279  0.0000E+00  0.0000E+00  0.1440E+03  0.1440E+03
     -8.041  0.0000E+00  0.0000E+00  0.1440E+03  0.1440E+03
     -7.803  0.1327E-01  0.3452E-15  0.1440E+03  0.1440E+03
     -7.564  0.1863E+02  0.1455E+00  0.1484E+03  0.1440E+03
     -7.326  0.4828E+02  0.2923E+02  0.1599E+03  0.1510E+03
     -7.088  0.3300E+02  0.4935E+02  0.1678E+03  0.1628E+03
     -6.850  0.8147E+00  0.2139E+02  0.1680E+03  0.1679E+03
     -6.611  0.0000E+00  0.6234E+00  0.1680E+03  0.1680E+03
     -6.373  0.0000E+00  0.0000E+00  0.1680E+03  0.1680E+03
     -6.135  0.0000E+00  0.0000E+00  0.1680E+03  0.1680E+03
     -5.897  0.0000E+00  0.0000E+00  0.1680E+03  0.1680E+03
     -5.658  0.0000E+00  0.0000E+00  0.1680E+03  0.1680E+03
     -5.420  0.0000E+00  0.0000E+00  0.1680E+03  0.1680E+03
     -5.182  0.0000E+00  0.0000E+00  0.1680E+03  0.1680E+03
     -4.944  0.0000E+00  0.0000E+00  0.1680E+03  0.1680E+03
     -4.705  0.0000E+00  0.0000E+00  0.1680E+03  0.1680E+03
     -4.467  0.0000E+00  0.0000E+00  0.1680E+03  0.1680E+03
     -4.229  0.0000E+00  0.0000E+00  0.1680E+03  0.1680E+03
     -3.991  0.0000E+00  0.0000E+00  0.1680E+03  0.1680E+03
     -3.752  0.0000E+00  0.0000E+00  0.1680E+03  0.1680E+03
     -3.514  0.0000E+00  0.0000E+00  0.1680E+03  0.1680E+03
     -3.276  0.0000E+00  0.0000E+00  0.1680E+03  0.1680E+03
     -3.038  0.0000E+00  0.0000E+00  0.1680E+03  0.1680E+03
     -2.799  0.0000E+00  0.0000E+00  0.1680E+03  0.1680E+03
     -2.561  0.0000E+00  0.0000E+00  0.1680E+03  0.1680E+03
     -2.323  0.0000E+00  0.0000E+00  0.1680E+03  0.1680E+03
     -2.085  0.3149E-05  0.0000E+00  0.1680E+03  0.1680E+03
     -1.846  0.8374E+01  0.0000E+00  0.1700E+03  0.1680E+03
     -1.608  0.5860E+02  0.0000E+00  0.1840E+03  0.1680E+03
     -1.370  0.4101E+02  0.0000E+00  0.1937E+03  0.1680E+03
     -1.132  0.3266E+02  0.0000E+00  0.2015E+03  0.1680E+03
     -0.893  0.5423E+02  0.3678E-08  0.2144E+03  0.1680E+03
     -0.655  0.5325E+02  0.1897E+01  0.2271E+03  0.1685E+03
     -0.417  0.6715E+02  0.1746E+02  0.2431E+03  0.1726E+03
     -0.179  0.5400E+02  0.3882E+02  0.2560E+03  0.1819E+03
      0.060  0.3451E+02  0.3488E+02  0.2642E+03  0.1902E+03
      0.298  0.5523E+02  0.2314E+02  0.2774E+03  0.1957E+03
      0.536  0.4752E+02  0.4868E+02  0.2887E+03  0.2073E+03
      0.774  0.3244E+02  0.4867E+02  0.2964E+03  0.2189E+03
      1.013  0.4994E+02  0.6847E+02  0.3083E+03  0.2352E+03
      1.251  0.4928E+02  0.2562E+02  0.3200E+03  0.2413E+03
      1.489  0.5422E+02  0.2318E+02  0.3330E+03  0.2468E+03
      1.727  0.6187E+02  0.3829E+02  0.3477E+03  0.2559E+03
      1.965  0.3381E+02  0.4594E+02  0.3558E+03  0.2669E+03
      2.204  0.2406E+02  0.2936E+02  0.3615E+03  0.2739E+03
      2.442  0.1381E+02  0.3574E+02  0.3648E+03  0.2824E+03
      2.680  0.3759E+02  0.2542E+02  0.3737E+03  0.2884E+03
      2.918  0.3870E+02  0.4571E+02  0.3830E+03  0.2993E+03
      3.157  0.3045E+02  0.4173E+02  0.3902E+03  0.3093E+03
      3.395  0.4391E+02  0.1427E+02  0.4007E+03  0.3127E+03
      3.633  0.5358E+02  0.3112E+02  0.4134E+03  0.3201E+03
      3.871  0.4708E+02  0.5675E+02  0.4247E+03  0.3336E+03
      4.110  0.2891E+02  0.1001E+02  0.4315E+03  0.3360E+03
      4.348  0.1895E+01  0.5846E-05  0.4320E+03  0.3360E+03
      4.586  0.0000E+00  0.0000E+00  0.4320E+03  0.3360E+03
      4.824  0.0000E+00  0.0000E+00  0.4320E+03  0.3360E+03
      5.063  0.0000E+00  0.0000E+00  0.4320E+03  0.3360E+03
      5.301  0.0000E+00  0.0000E+00  0.4320E+03  0.3360E+03
      5.539  0.0000E+00  0.0000E+00  0.4320E+03  0.3360E+03
      5.777  0.0000E+00  0.0000E+00  0.4320E+03  0.3360E+03
      6.016  0.0000E+00  0.5022E-02  0.4320E+03  0.3360E+03
      6.254  0.0000E+00  0.1959E+01  0.4320E+03  0.3365E+03
      6.492  0.0000E+00  0.1370E+02  0.4320E+03  0.3397E+03
      6.730  0.0000E+00  0.2696E+02  0.4320E+03  0.3462E+03
      6.969  0.0000E+00  0.2528E+02  0.4320E+03  0.3522E+03
      7.207  0.1297E-04  0.5817E+02  0.4320E+03  0.3660E+03
      7.445  0.1552E+00  0.7519E+02  0.4320E+03  0.3840E+03
      7.683  0.7558E+00  0.2931E+02  0.4322E+03  0.3909E+03
      7.922  0.1530E+01  0.4136E+02  0.4326E+03  0.4008E+03
      8.160  0.4825E+01  0.7836E+02  0.4337E+03  0.4195E+03
      8.398  0.7186E+01  0.4944E+02  0.4354E+03  0.4312E+03
      8.636  0.1572E+02  0.3627E+01  0.4392E+03  0.4321E+03
      8.875  0.2399E+02  0.1179E+01  0.4449E+03  0.4324E+03
      9.113  0.1982E+02  0.4512E+01  0.4496E+03  0.4335E+03
      9.351  0.1939E+02  0.1083E+02  0.4542E+03  0.4360E+03
      9.589  0.1982E+02  0.2116E+02  0.4590E+03  0.4411E+03
      9.828  0.2445E+02  0.2885E+02  0.4648E+03  0.4480E+03
     10.066  0.2198E+02  0.3013E+02  0.4700E+03  0.4551E+03
     10.304  0.1794E+02  0.3001E+02  0.4743E+03  0.4623E+03
     10.542  0.2475E+02  0.2579E+02  0.4802E+03  0.4684E+03
     10.781  0.1488E+02  0.2585E+02  0.4837E+03  0.4746E+03
     11.019  0.2765E+02  0.2419E+02  0.4903E+03  0.4803E+03
     11.257  0.4554E+02  0.1037E+02  0.5012E+03  0.4828E+03
     11.495  0.4860E+02  0.2591E+02  0.5128E+03  0.4890E+03
     11.734  0.3508E+02  0.3068E+02  0.5211E+03  0.4963E+03
     11.972  0.2033E+02  0.5643E+02  0.5260E+03  0.5097E+03
     12.210  0.2077E+02  0.4436E+02  0.5309E+03  0.5203E+03
     12.448  0.3027E+02  0.2673E+02  0.5381E+03  0.5267E+03
     12.687  0.3224E+02  0.2378E+02  0.5458E+03  0.5323E+03
     12.925  0.1837E+02  0.2748E+02  0.5502E+03  0.5389E+03
     13.163  0.7552E+01  0.3297E+02  0.5520E+03  0.5467E+03
     13.401  0.8924E-01  0.1802E+02  0.5520E+03  0.5510E+03
     13.640  0.0000E+00  0.4047E+01  0.5520E+03  0.5520E+03
     13.878  0.0000E+00  0.3895E-05  0.5520E+03  0.5520E+03
     14.116  0.0000E+00  0.0000E+00  0.5520E+03  0.5520E+03
     14.354  0.0000E+00  0.0000E+00  0.5520E+03  0.5520E+03
     14.593  0.0000E+00  0.0000E+00  0.5520E+03  0.5520E+03
     14.831  0.0000E+00  0.0000E+00  0.5520E+03  0.5520E+03
     15.069  0.0000E+00  0.0000E+00  0.5520E+03  0.5520E+03
     15.307  0.0000E+00  0.0000E+00  0.5520E+03  0.5520E+03
     15.546  0.0000E+00  0.0000E+00  0.5520E+03  0.5520E+03
     15.784  0.0000E+00  0.0000E+00  0.5520E+03  0.5520E+03
     16.022  0.0000E+00  0.0000E+00  0.5520E+03  0.5520E+03
     16.260  0.0000E+00  0.0000E+00  0.5520E+03  0.5520E+03
     16.499  0.0000E+00  0.0000E+00  0.5520E+03  0.5520E+03
     16.737  0.0000E+00  0.0000E+00  0.5520E+03  0.5520E+03
