  88  88   0   0
  0.1431748E+02  0.1111223E-08  0.1111745E-08  0.1056954E-08  0.5000000E-15
  1.000000000000000E-004
  CAR 
 unknown system                          
     17.90837557    -54.34128048  301      5.20447771      1.00000000
    -54.341  0.0000E+00  0.0000E+00  0.0000E+00  0.0000E+00
    -54.100  0.0000E+00  0.0000E+00  0.0000E+00  0.0000E+00
    -53.860  0.0000E+00  0.0000E+00  0.0000E+00  0.0000E+00
    -53.619  0.0000E+00  0.0000E+00  0.0000E+00  0.0000E+00
    -53.378  0.0000E+00  0.0000E+00  0.0000E+00  0.0000E+00
    -53.137  0.0000E+00  0.0000E+00  0.0000E+00  0.0000E+00
    -52.896  0.0000E+00  0.0000E+00  0.0000E+00  0.0000E+00
    -52.655  0.0000E+00  0.0000E+00  0.0000E+00  0.0000E+00
    -52.415  0.0000E+00  0.0000E+00  0.0000E+00  0.0000E+00
    -52.174  0.0000E+00  0.0000E+00  0.0000E+00  0.0000E+00
    -51.933  0.0000E+00  0.0000E+00  0.0000E+00  0.0000E+00
    -51.692  0.0000E+00  0.0000E+00  0.0000E+00  0.0000E+00
    -51.451  0.0000E+00  0.0000E+00  0.0000E+00  0.0000E+00
    -51.210  0.3730E-03  0.0000E+00  0.8983E-04  0.0000E+00
    -50.970  0.1308E+03  0.0000E+00  0.3151E+02  0.0000E+00
    -50.729  0.2032E+01  0.0000E+00  0.3200E+02  0.0000E+00
    -50.488  0.0000E+00  0.0000E+00  0.3200E+02  0.0000E+00
    -50.247  0.0000E+00  0.0000E+00  0.3200E+02  0.0000E+00
    -50.006  0.0000E+00  0.0000E+00  0.3200E+02  0.0000E+00
    -49.765  0.1842E+01  0.0000E+00  0.3244E+02  0.0000E+00
    -49.525  0.2362E+03  0.0000E+00  0.8933E+02  0.0000E+00
    -49.284  0.2768E+02  0.0000E+00  0.9600E+02  0.0000E+00
    -49.043  0.0000E+00  0.0000E+00  0.9600E+02  0.0000E+00
    -48.802  0.0000E+00  0.0000E+00  0.9600E+02  0.0000E+00
    -48.561  0.0000E+00  0.0000E+00  0.9600E+02  0.0000E+00
    -48.320  0.0000E+00  0.0000E+00  0.9600E+02  0.0000E+00
    -48.080  0.0000E+00  0.0000E+00  0.9600E+02  0.0000E+00
    -47.839  0.0000E+00  0.0000E+00  0.9600E+02  0.0000E+00
    -47.598  0.0000E+00  0.0000E+00  0.9600E+02  0.0000E+00
    -47.357  0.0000E+00  0.0000E+00  0.9600E+02  0.0000E+00
    -47.116  0.0000E+00  0.0000E+00  0.9600E+02  0.0000E+00
    -46.875  0.0000E+00  0.0000E+00  0.9600E+02  0.0000E+00
    -46.635  0.0000E+00  0.0000E+00  0.9600E+02  0.0000E+00
    -46.394  0.0000E+00  0.3814E+00  0.9600E+02  0.9185E-01
    -46.153  0.0000E+00  0.1324E+03  0.9600E+02  0.3199E+02
    -45.912  0.0000E+00  0.5984E+02  0.9600E+02  0.4640E+02
    -45.671  0.0000E+00  0.2060E+03  0.9600E+02  0.9600E+02
    -45.430  0.0000E+00  0.0000E+00  0.9600E+02  0.9600E+02
    -45.190  0.0000E+00  0.0000E+00  0.9600E+02  0.9600E+02
    -44.949  0.0000E+00  0.0000E+00  0.9600E+02  0.9600E+02
    -44.708  0.0000E+00  0.0000E+00  0.9600E+02  0.9600E+02
    -44.467  0.0000E+00  0.0000E+00  0.9600E+02  0.9600E+02
    -44.226  0.0000E+00  0.0000E+00  0.9600E+02  0.9600E+02
    -43.985  0.0000E+00  0.0000E+00  0.9600E+02  0.9600E+02
    -43.745  0.0000E+00  0.0000E+00  0.9600E+02  0.9600E+02
    -43.504  0.0000E+00  0.0000E+00  0.9600E+02  0.9600E+02
    -43.263  0.0000E+00  0.0000E+00  0.9600E+02  0.9600E+02
    -43.022  0.0000E+00  0.0000E+00  0.9600E+02  0.9600E+02
    -42.781  0.0000E+00  0.0000E+00  0.9600E+02  0.9600E+02
    -42.541  0.0000E+00  0.0000E+00  0.9600E+02  0.9600E+02
    -42.300  0.0000E+00  0.0000E+00  0.9600E+02  0.9600E+02
    -42.059  0.0000E+00  0.0000E+00  0.9600E+02  0.9600E+02
    -41.818  0.0000E+00  0.0000E+00  0.9600E+02  0.9600E+02
    -41.577  0.0000E+00  0.0000E+00  0.9600E+02  0.9600E+02
    -41.336  0.0000E+00  0.0000E+00  0.9600E+02  0.9600E+02
    -41.096  0.0000E+00  0.0000E+00  0.9600E+02  0.9600E+02
    -40.855  0.0000E+00  0.0000E+00  0.9600E+02  0.9600E+02
    -40.614  0.0000E+00  0.0000E+00  0.9600E+02  0.9600E+02
    -40.373  0.0000E+00  0.0000E+00  0.9600E+02  0.9600E+02
    -40.132  0.1312E-11  0.8358E-12  0.9600E+02  0.9600E+02
    -39.891  0.1484E+02  0.1370E+02  0.9957E+02  0.9930E+02
    -39.651  0.5160E+02  0.5273E+02  0.1120E+03  0.1120E+03
    -39.410  0.0000E+00  0.0000E+00  0.1120E+03  0.1120E+03
    -39.169  0.0000E+00  0.0000E+00  0.1120E+03  0.1120E+03
    -38.928  0.0000E+00  0.0000E+00  0.1120E+03  0.1120E+03
    -38.687  0.0000E+00  0.0000E+00  0.1120E+03  0.1120E+03
    -38.446  0.0000E+00  0.0000E+00  0.1120E+03  0.1120E+03
    -38.206  0.0000E+00  0.0000E+00  0.1120E+03  0.1120E+03
    -37.965  0.0000E+00  0.0000E+00  0.1120E+03  0.1120E+03
    -37.724  0.0000E+00  0.0000E+00  0.1120E+03  0.1120E+03
    -37.483  0.0000E+00  0.0000E+00  0.1120E+03  0.1120E+03
    -37.242  0.0000E+00  0.0000E+00  0.1120E+03  0.1120E+03
    -37.001  0.0000E+00  0.0000E+00  0.1120E+03  0.1120E+03
    -36.761  0.0000E+00  0.0000E+00  0.1120E+03  0.1120E+03
    -36.520  0.0000E+00  0.0000E+00  0.1120E+03  0.1120E+03
    -36.279  0.0000E+00  0.0000E+00  0.1120E+03  0.1120E+03
    -36.038  0.0000E+00  0.0000E+00  0.1120E+03  0.1120E+03
    -35.797  0.0000E+00  0.0000E+00  0.1120E+03  0.1120E+03
    -35.556  0.0000E+00  0.0000E+00  0.1120E+03  0.1120E+03
    -35.316  0.0000E+00  0.0000E+00  0.1120E+03  0.1120E+03
    -35.075  0.0000E+00  0.0000E+00  0.1120E+03  0.1120E+03
    -34.834  0.0000E+00  0.0000E+00  0.1120E+03  0.1120E+03
    -34.593  0.0000E+00  0.0000E+00  0.1120E+03  0.1120E+03
    -34.352  0.0000E+00  0.0000E+00  0.1120E+03  0.1120E+03
    -34.111  0.0000E+00  0.0000E+00  0.1120E+03  0.1120E+03
    -33.871  0.0000E+00  0.0000E+00  0.1120E+03  0.1120E+03
    -33.630  0.0000E+00  0.0000E+00  0.1120E+03  0.1120E+03
    -33.389  0.0000E+00  0.0000E+00  0.1120E+03  0.1120E+03
    -33.148  0.0000E+00  0.0000E+00  0.1120E+03  0.1120E+03
    -32.907  0.0000E+00  0.0000E+00  0.1120E+03  0.1120E+03
    -32.666  0.0000E+00  0.0000E+00  0.1120E+03  0.1120E+03
    -32.426  0.0000E+00  0.0000E+00  0.1120E+03  0.1120E+03
    -32.185  0.0000E+00  0.0000E+00  0.1120E+03  0.1120E+03
    -31.944  0.0000E+00  0.0000E+00  0.1120E+03  0.1120E+03
    -31.703  0.0000E+00  0.0000E+00  0.1120E+03  0.1120E+03
    -31.462  0.0000E+00  0.0000E+00  0.1120E+03  0.1120E+03
    -31.221  0.0000E+00  0.0000E+00  0.1120E+03  0.1120E+03
    -30.981  0.0000E+00  0.0000E+00  0.1120E+03  0.1120E+03
    -30.740  0.0000E+00  0.0000E+00  0.1120E+03  0.1120E+03
    -30.499  0.0000E+00  0.0000E+00  0.1120E+03  0.1120E+03
    -30.258  0.0000E+00  0.0000E+00  0.1120E+03  0.1120E+03
    -30.017  0.0000E+00  0.0000E+00  0.1120E+03  0.1120E+03
    -29.776  0.0000E+00  0.0000E+00  0.1120E+03  0.1120E+03
    -29.536  0.0000E+00  0.0000E+00  0.1120E+03  0.1120E+03
    -29.295  0.0000E+00  0.0000E+00  0.1120E+03  0.1120E+03
    -29.054  0.0000E+00  0.0000E+00  0.1120E+03  0.1120E+03
    -28.813  0.0000E+00  0.0000E+00  0.1120E+03  0.1120E+03
    -28.572  0.0000E+00  0.0000E+00  0.1120E+03  0.1120E+03
    -28.331  0.0000E+00  0.0000E+00  0.1120E+03  0.1120E+03
    -28.091  0.0000E+00  0.0000E+00  0.1120E+03  0.1120E+03
    -27.850  0.0000E+00  0.0000E+00  0.1120E+03  0.1120E+03
    -27.609  0.0000E+00  0.0000E+00  0.1120E+03  0.1120E+03
    -27.368  0.0000E+00  0.0000E+00  0.1120E+03  0.1120E+03
    -27.127  0.0000E+00  0.0000E+00  0.1120E+03  0.1120E+03
    -26.886  0.0000E+00  0.0000E+00  0.1120E+03  0.1120E+03
    -26.646  0.0000E+00  0.0000E+00  0.1120E+03  0.1120E+03
    -26.405  0.0000E+00  0.0000E+00  0.1120E+03  0.1120E+03
    -26.164  0.0000E+00  0.0000E+00  0.1120E+03  0.1120E+03
    -25.923  0.0000E+00  0.0000E+00  0.1120E+03  0.1120E+03
    -25.682  0.0000E+00  0.0000E+00  0.1120E+03  0.1120E+03
    -25.441  0.0000E+00  0.0000E+00  0.1120E+03  0.1120E+03
    -25.201  0.0000E+00  0.0000E+00  0.1120E+03  0.1120E+03
    -24.960  0.0000E+00  0.0000E+00  0.1120E+03  0.1120E+03
    -24.719  0.0000E+00  0.0000E+00  0.1120E+03  0.1120E+03
    -24.478  0.0000E+00  0.0000E+00  0.1120E+03  0.1120E+03
    -24.237  0.0000E+00  0.0000E+00  0.1120E+03  0.1120E+03
    -23.996  0.0000E+00  0.0000E+00  0.1120E+03  0.1120E+03
    -23.756  0.0000E+00  0.0000E+00  0.1120E+03  0.1120E+03
    -23.515  0.0000E+00  0.0000E+00  0.1120E+03  0.1120E+03
    -23.274  0.0000E+00  0.0000E+00  0.1120E+03  0.1120E+03
    -23.033  0.0000E+00  0.0000E+00  0.1120E+03  0.1120E+03
    -22.792  0.0000E+00  0.0000E+00  0.1120E+03  0.1120E+03
    -22.551  0.0000E+00  0.0000E+00  0.1120E+03  0.1120E+03
    -22.311  0.0000E+00  0.0000E+00  0.1120E+03  0.1120E+03
    -22.070  0.0000E+00  0.0000E+00  0.1120E+03  0.1120E+03
    -21.829  0.0000E+00  0.0000E+00  0.1120E+03  0.1120E+03
    -21.588  0.0000E+00  0.0000E+00  0.1120E+03  0.1120E+03
    -21.347  0.0000E+00  0.0000E+00  0.1120E+03  0.1120E+03
    -21.106  0.0000E+00  0.0000E+00  0.1120E+03  0.1120E+03
    -20.866  0.0000E+00  0.0000E+00  0.1120E+03  0.1120E+03
    -20.625  0.0000E+00  0.0000E+00  0.1120E+03  0.1120E+03
    -20.384  0.0000E+00  0.0000E+00  0.1120E+03  0.1120E+03
    -20.143  0.0000E+00  0.0000E+00  0.1120E+03  0.1120E+03
    -19.902  0.0000E+00  0.0000E+00  0.1120E+03  0.1120E+03
    -19.661  0.0000E+00  0.0000E+00  0.1120E+03  0.1120E+03
    -19.421  0.0000E+00  0.0000E+00  0.1120E+03  0.1120E+03
    -19.180  0.0000E+00  0.0000E+00  0.1120E+03  0.1120E+03
    -18.939  0.0000E+00  0.0000E+00  0.1120E+03  0.1120E+03
    -18.698  0.0000E+00  0.0000E+00  0.1120E+03  0.1120E+03
    -18.457  0.0000E+00  0.0000E+00  0.1120E+03  0.1120E+03
    -18.216  0.0000E+00  0.0000E+00  0.1120E+03  0.1120E+03
    -17.976  0.0000E+00  0.0000E+00  0.1120E+03  0.1120E+03
    -17.735  0.0000E+00  0.0000E+00  0.1120E+03  0.1120E+03
    -17.494  0.0000E+00  0.0000E+00  0.1120E+03  0.1120E+03
    -17.253  0.0000E+00  0.0000E+00  0.1120E+03  0.1120E+03
    -17.012  0.0000E+00  0.0000E+00  0.1120E+03  0.1120E+03
    -16.771  0.0000E+00  0.0000E+00  0.1120E+03  0.1120E+03
    -16.531  0.0000E+00  0.0000E+00  0.1120E+03  0.1120E+03
    -16.290  0.0000E+00  0.0000E+00  0.1120E+03  0.1120E+03
    -16.049  0.0000E+00  0.0000E+00  0.1120E+03  0.1120E+03
    -15.808  0.0000E+00  0.0000E+00  0.1120E+03  0.1120E+03
    -15.567  0.0000E+00  0.0000E+00  0.1120E+03  0.1120E+03
    -15.326  0.0000E+00  0.0000E+00  0.1120E+03  0.1120E+03
    -15.086  0.0000E+00  0.0000E+00  0.1120E+03  0.1120E+03
    -14.845  0.0000E+00  0.0000E+00  0.1120E+03  0.1120E+03
    -14.604  0.0000E+00  0.0000E+00  0.1120E+03  0.1120E+03
    -14.363  0.0000E+00  0.0000E+00  0.1120E+03  0.1120E+03
    -14.122  0.0000E+00  0.0000E+00  0.1120E+03  0.1120E+03
    -13.881  0.0000E+00  0.0000E+00  0.1120E+03  0.1120E+03
    -13.641  0.0000E+00  0.0000E+00  0.1120E+03  0.1120E+03
    -13.400  0.6621E-06  0.0000E+00  0.1120E+03  0.1120E+03
    -13.159  0.1894E+02  0.0000E+00  0.1166E+03  0.1120E+03
    -12.918  0.4602E+02  0.8064E-02  0.1276E+03  0.1120E+03
    -12.677  0.1472E+01  0.4228E+02  0.1280E+03  0.1222E+03
    -12.436  0.0000E+00  0.2415E+02  0.1280E+03  0.1280E+03
    -12.196  0.0000E+00  0.1979E-05  0.1280E+03  0.1280E+03
    -11.955  0.0000E+00  0.0000E+00  0.1280E+03  0.1280E+03
    -11.714  0.0000E+00  0.0000E+00  0.1280E+03  0.1280E+03
    -11.473  0.0000E+00  0.0000E+00  0.1280E+03  0.1280E+03
    -11.232  0.0000E+00  0.0000E+00  0.1280E+03  0.1280E+03
    -10.991  0.0000E+00  0.0000E+00  0.1280E+03  0.1280E+03
    -10.751  0.0000E+00  0.0000E+00  0.1280E+03  0.1280E+03
    -10.510  0.0000E+00  0.0000E+00  0.1280E+03  0.1280E+03
    -10.269  0.0000E+00  0.0000E+00  0.1280E+03  0.1280E+03
    -10.028  0.0000E+00  0.0000E+00  0.1280E+03  0.1280E+03
     -9.787  0.0000E+00  0.0000E+00  0.1280E+03  0.1280E+03
     -9.546  0.0000E+00  0.0000E+00  0.1280E+03  0.1280E+03
     -9.306  0.0000E+00  0.0000E+00  0.1280E+03  0.1280E+03
     -9.065  0.0000E+00  0.0000E+00  0.1280E+03  0.1280E+03
     -8.824  0.0000E+00  0.0000E+00  0.1280E+03  0.1280E+03
     -8.583  0.0000E+00  0.0000E+00  0.1280E+03  0.1280E+03
     -8.342  0.0000E+00  0.0000E+00  0.1280E+03  0.1280E+03
     -8.102  0.0000E+00  0.0000E+00  0.1280E+03  0.1280E+03
     -7.861  0.1051E-09  0.0000E+00  0.1280E+03  0.1280E+03
     -7.620  0.6118E+00  0.1923E-10  0.1281E+03  0.1280E+03
     -7.379  0.1270E+02  0.5421E+00  0.1312E+03  0.1281E+03
     -7.138  0.3029E+02  0.1395E+02  0.1385E+03  0.1315E+03
     -6.897  0.3445E+02  0.2949E+02  0.1468E+03  0.1386E+03
     -6.657  0.2161E+02  0.2641E+02  0.1520E+03  0.1450E+03
     -6.416  0.1715E-04  0.2921E+02  0.1520E+03  0.1520E+03
     -6.175  0.0000E+00  0.4876E-01  0.1520E+03  0.1520E+03
     -5.934  0.0000E+00  0.0000E+00  0.1520E+03  0.1520E+03
     -5.693  0.0000E+00  0.0000E+00  0.1520E+03  0.1520E+03
     -5.452  0.0000E+00  0.0000E+00  0.1520E+03  0.1520E+03
     -5.212  0.0000E+00  0.0000E+00  0.1520E+03  0.1520E+03
     -4.971  0.0000E+00  0.0000E+00  0.1520E+03  0.1520E+03
     -4.730  0.0000E+00  0.0000E+00  0.1520E+03  0.1520E+03
     -4.489  0.0000E+00  0.0000E+00  0.1520E+03  0.1520E+03
     -4.248  0.0000E+00  0.0000E+00  0.1520E+03  0.1520E+03
     -4.007  0.0000E+00  0.0000E+00  0.1520E+03  0.1520E+03
     -3.767  0.0000E+00  0.0000E+00  0.1520E+03  0.1520E+03
     -3.526  0.0000E+00  0.0000E+00  0.1520E+03  0.1520E+03
     -3.285  0.0000E+00  0.0000E+00  0.1520E+03  0.1520E+03
     -3.044  0.0000E+00  0.0000E+00  0.1520E+03  0.1520E+03
     -2.803  0.0000E+00  0.0000E+00  0.1520E+03  0.1520E+03
     -2.562  0.0000E+00  0.0000E+00  0.1520E+03  0.1520E+03
     -2.322  0.0000E+00  0.0000E+00  0.1520E+03  0.1520E+03
     -2.081  0.2612E-04  0.0000E+00  0.1520E+03  0.1520E+03
     -1.840  0.1598E+02  0.0000E+00  0.1558E+03  0.1520E+03
     -1.599  0.1954E+02  0.0000E+00  0.1606E+03  0.1520E+03
     -1.358  0.1482E+02  0.0000E+00  0.1641E+03  0.1520E+03
     -1.117  0.1715E+02  0.0000E+00  0.1683E+03  0.1520E+03
     -0.877  0.4590E+02  0.0000E+00  0.1793E+03  0.1520E+03
     -0.636  0.5909E+02  0.1024E-05  0.1935E+03  0.1520E+03
     -0.395  0.3880E+02  0.4208E+01  0.2029E+03  0.1530E+03
     -0.154  0.6809E+02  0.2033E+02  0.2193E+03  0.1579E+03
      0.087  0.7370E+02  0.1226E+02  0.2370E+03  0.1609E+03
      0.328  0.7756E+02  0.1859E+02  0.2557E+03  0.1653E+03
      0.568  0.6993E+02  0.2957E+02  0.2726E+03  0.1725E+03
      0.809  0.5536E+02  0.3918E+02  0.2859E+03  0.1819E+03
      1.050  0.3636E+02  0.3729E+02  0.2946E+03  0.1909E+03
      1.291  0.3064E+02  0.3118E+02  0.3020E+03  0.1984E+03
      1.532  0.4504E+02  0.2081E+02  0.3129E+03  0.2034E+03
      1.773  0.4238E+02  0.2894E+02  0.3231E+03  0.2104E+03
      2.013  0.6900E+02  0.3697E+02  0.3397E+03  0.2193E+03
      2.254  0.5763E+02  0.2755E+02  0.3536E+03  0.2259E+03
      2.495  0.2686E+02  0.2702E+02  0.3600E+03  0.2324E+03
      2.736  0.4270E+02  0.3090E+02  0.3703E+03  0.2399E+03
      2.977  0.2999E+02  0.4445E+02  0.3775E+03  0.2506E+03
      3.218  0.8678E+01  0.4551E+02  0.3796E+03  0.2615E+03
      3.458  0.2804E+02  0.3197E+02  0.3864E+03  0.2692E+03
      3.699  0.2715E+02  0.1237E+02  0.3929E+03  0.2722E+03
      3.940  0.3095E+02  0.1783E+02  0.4004E+03  0.2765E+03
      4.181  0.3591E+02  0.5242E+02  0.4090E+03  0.2891E+03
      4.422  0.3641E+02  0.4501E+02  0.4178E+03  0.3000E+03
      4.663  0.3020E+02  0.1677E+02  0.4251E+03  0.3040E+03
      4.903  0.2574E+02  0.4496E-02  0.4313E+03  0.3040E+03
      5.144  0.3046E+01  0.0000E+00  0.4320E+03  0.3040E+03
      5.385  0.0000E+00  0.0000E+00  0.4320E+03  0.3040E+03
      5.626  0.0000E+00  0.0000E+00  0.4320E+03  0.3040E+03
      5.867  0.0000E+00  0.0000E+00  0.4320E+03  0.3040E+03
      6.108  0.0000E+00  0.5058E-09  0.4320E+03  0.3040E+03
      6.348  0.0000E+00  0.4101E+00  0.4320E+03  0.3041E+03
      6.589  0.0000E+00  0.4203E+01  0.4320E+03  0.3051E+03
      6.830  0.0000E+00  0.7923E+01  0.4320E+03  0.3070E+03
      7.071  0.9476E-15  0.1946E+02  0.4320E+03  0.3117E+03
      7.312  0.2828E-01  0.4424E+02  0.4320E+03  0.3224E+03
      7.553  0.1255E+00  0.5346E+02  0.4320E+03  0.3352E+03
      7.793  0.2547E+00  0.6321E+02  0.4321E+03  0.3505E+03
      8.034  0.7257E+00  0.6603E+02  0.4323E+03  0.3664E+03
      8.275  0.2148E+01  0.7020E+02  0.4328E+03  0.3833E+03
      8.516  0.2646E+01  0.5899E+02  0.4334E+03  0.3975E+03
      8.757  0.8918E+01  0.5873E+02  0.4356E+03  0.4116E+03
      8.998  0.1250E+02  0.4774E+02  0.4386E+03  0.4231E+03
      9.238  0.1312E+02  0.2974E+02  0.4417E+03  0.4303E+03
      9.479  0.1807E+02  0.8823E+01  0.4461E+03  0.4324E+03
      9.720  0.1623E+02  0.3055E+01  0.4500E+03  0.4331E+03
      9.961  0.1572E+02  0.8376E+01  0.4538E+03  0.4352E+03
     10.202  0.2249E+02  0.1872E+02  0.4592E+03  0.4397E+03
     10.443  0.1485E+02  0.1796E+02  0.4628E+03  0.4440E+03
     10.683  0.1531E+02  0.1719E+02  0.4665E+03  0.4481E+03
     10.924  0.1322E+02  0.2759E+02  0.4697E+03  0.4548E+03
     11.165  0.2064E+02  0.1897E+02  0.4746E+03  0.4593E+03
     11.406  0.2483E+02  0.2401E+02  0.4806E+03  0.4651E+03
     11.647  0.2718E+02  0.1474E+02  0.4872E+03  0.4687E+03
     11.888  0.2472E+02  0.1382E+02  0.4931E+03  0.4720E+03
     12.128  0.3341E+02  0.1610E+02  0.5012E+03  0.4759E+03
     12.369  0.1988E+02  0.3688E+02  0.5059E+03  0.4848E+03
     12.610  0.2306E+02  0.3259E+02  0.5115E+03  0.4926E+03
     12.851  0.2145E+02  0.2977E+02  0.5167E+03  0.4998E+03
     13.092  0.2022E+02  0.2024E+02  0.5215E+03  0.5046E+03
     13.333  0.2403E+02  0.2225E+02  0.5273E+03  0.5100E+03
     13.573  0.2419E+02  0.2723E+02  0.5331E+03  0.5166E+03
     13.814  0.1338E+02  0.2372E+02  0.5364E+03  0.5223E+03
     14.055  0.6787E+01  0.2627E+02  0.5380E+03  0.5286E+03
     14.296  0.1064E-02  0.1916E+02  0.5380E+03  0.5332E+03
     14.537  0.0000E+00  0.1670E+02  0.5380E+03  0.5372E+03
     14.778  0.0000E+00  0.3159E+01  0.5380E+03  0.5380E+03
     15.018  0.0000E+00  0.2244E-05  0.5380E+03  0.5380E+03
     15.259  0.0000E+00  0.0000E+00  0.5380E+03  0.5380E+03
     15.500  0.0000E+00  0.0000E+00  0.5380E+03  0.5380E+03
     15.741  0.0000E+00  0.0000E+00  0.5380E+03  0.5380E+03
     15.982  0.0000E+00  0.0000E+00  0.5380E+03  0.5380E+03
     16.223  0.0000E+00  0.0000E+00  0.5380E+03  0.5380E+03
     16.463  0.0000E+00  0.0000E+00  0.5380E+03  0.5380E+03
     16.704  0.0000E+00  0.0000E+00  0.5380E+03  0.5380E+03
     16.945  0.0000E+00  0.0000E+00  0.5380E+03  0.5380E+03
     17.186  0.0000E+00  0.0000E+00  0.5380E+03  0.5380E+03
     17.427  0.0000E+00  0.0000E+00  0.5380E+03  0.5380E+03
     17.668  0.0000E+00  0.0000E+00  0.5380E+03  0.5380E+03
     17.908  0.0000E+00  0.0000E+00  0.5380E+03  0.5380E+03
