 vasp.5.4.4.18Apr17-6-g9f103f2a35 (build Oct 25 2017 14:42:18) complex          
  
 executed on             LinuxIFC date 2021.06.02  18:14:41
 running on   24 total cores
 distrk:  each k-point on   12 cores,    2 groups
 distr:  one band on NCORES_PER_BAND=   6 cores,    2 groups


--------------------------------------------------------------------------------------------------------


 INCAR:
 POTCAR:    PAW_PBE Li_sv 10Sep2004               
 POTCAR:    PAW_PBE O 08Apr2002                   
 POTCAR:    PAW_PBE S 06Sep2000                   
 POTCAR:    PAW_PBE Fe_pv 02Aug2007               

 ----------------------------------------------------------------------------- 
|                                                                             |
|           W    W    AA    RRRRR   N    N  II  N    N   GGGG   !!!           |
|           W    W   A  A   R    R  NN   N  II  NN   N  G    G  !!!           |
|           W    W  A    A  R    R  N N  N  II  N N  N  G       !!!           |
|           W WW W  AAAAAA  RRRRR   N  N N  II  N  N N  G  GGG   !            |
|           WW  WW  A    A  R   R   N   NN  II  N   NN  G    G                |
|           W    W  A    A  R    R  N    N  II  N    N   GGGG   !!!           |
|                                                                             |
|      You have enabled k-point parallelism (KPAR>1).                         |
|      This developmental code was originally  written by Paul Kent at ORNL,  |
|      and carefully double checked in Vienna.                                |
|      GW as well as linear response parallelism added by Martijn Marsman     |
|      and Georg Kresse.                                                      |
|      Carefully verify results versus KPAR=1.                                |
|      Report problems to Paul Kent and Vienna.                               |
|                                                                             |
 ----------------------------------------------------------------------------- 

 POTCAR:    PAW_PBE Li_sv 10Sep2004               
  local pseudopotential read in
  atomic valenz-charges read in
  non local Contribution for L=           0  read in
    real space projection operators read in
  non local Contribution for L=           0  read in
    real space projection operators read in
  non local Contribution for L=           1  read in
    real space projection operators read in
    PAW grid and wavefunctions read in
 
   number of l-projection  operators is LMAX  =           3
   number of lm-projection operators is LMMAX =           5
 
 POTCAR:    PAW_PBE O 08Apr2002                   
  local pseudopotential read in
  partial core-charges read in
  partial kinetic energy density read in
  kinetic energy density of atom read in
  atomic valenz-charges read in
  non local Contribution for L=           0  read in
    real space projection operators read in
  non local Contribution for L=           0  read in
    real space projection operators read in
  non local Contribution for L=           1  read in
    real space projection operators read in
  non local Contribution for L=           1  read in
    real space projection operators read in
    PAW grid and wavefunctions read in
 
   number of l-projection  operators is LMAX  =           4
   number of lm-projection operators is LMMAX =           8
 
 POTCAR:    PAW_PBE S 06Sep2000                   
  local pseudopotential read in
  partial core-charges read in
  partial kinetic energy density read in
  atomic valenz-charges read in
  non local Contribution for L=           0  read in
    real space projection operators read in
  non local Contribution for L=           0  read in
    real space projection operators read in
  non local Contribution for L=           1  read in
    real space projection operators read in
  non local Contribution for L=           1  read in
    real space projection operators read in
    PAW grid and wavefunctions read in
 
   number of l-projection  operators is LMAX  =           4
   number of lm-projection operators is LMMAX =           8
 
 POTCAR:    PAW_PBE Fe_pv 02Aug2007               
  local pseudopotential read in
  partial core-charges read in
  partial kinetic energy density read in
  atomic valenz-charges read in
  non local Contribution for L=           1  read in
    real space projection operators read in
  non local Contribution for L=           1  read in
    real space projection operators read in
  non local Contribution for L=           2  read in
    real space projection operators read in
  non local Contribution for L=           2  read in
    real space projection operators read in
  non local Contribution for L=           0  read in
    real space projection operators read in
  non local Contribution for L=           0  read in
    real space projection operators read in
    PAW grid and wavefunctions read in
 
   number of l-projection  operators is LMAX  =           6
   number of lm-projection operators is LMMAX =          18
 

 ----------------------------------------------------------------------------- 
|                                                                             |
|  ADVICE TO THIS USER RUNNING 'VASP/VAMP'   (HEAR YOUR MASTER'S VOICE ...):  |
|                                                                             |
|      You have a (more or less) 'large supercell' and for larger cells       |
|      it might be more efficient to use real space projection opertators     |
|      So try LREAL= Auto  in the INCAR   file.                               |
|      Mind:          For very  accurate calculation you might also keep the  |
|      reciprocal projection scheme          (i.e. LREAL=.FALSE.)             |
|                                                                             |
 ----------------------------------------------------------------------------- 

  PAW_PBE Li_sv 10Sep2004               :
 energy of atom  1       EATOM= -202.7858
 kinetic energy error for atom=    0.0072 (will be added to EATOM!!)
  PAW_PBE O 08Apr2002                   :
 energy of atom  2       EATOM= -432.3788
 kinetic energy error for atom=    0.0129 (will be added to EATOM!!)
  PAW_PBE S 06Sep2000                   :
 energy of atom  3       EATOM= -276.8230
 kinetic energy error for atom=    0.0008 (will be added to EATOM!!)
  PAW_PBE Fe_pv 02Aug2007               :
 energy of atom  4       EATOM=-2457.4239
 kinetic energy error for atom=    0.0041 (will be added to EATOM!!)
 
 
 POSCAR: # Compound: Li16O16S24Fe32. Old comment:
  positions in direct lattice
  No initial velocities read in
 exchange correlation table for  LEXCH =        8
   RHO(1)=    0.500       N(1)  =     2000
   RHO(2)=  100.500       N(2)  =     4000
 


--------------------------------------------------------------------------------------------------------


 ion  position               nearest neighbor table
   1  0.289  0.469  0.156-  27 2.00  29 2.00  55 2.53  49 2.53
   2  0.789  0.469  0.156-  28 2.00  30 2.00  56 2.53  50 2.53
   3  0.289  0.969  0.156-  25 2.00  31 2.00  53 2.53  51 2.53
   4  0.789  0.969  0.156-  26 2.00  32 2.00  54 2.53  52 2.53
   5  0.046  0.219  0.186-  30 1.98  25 1.98
   6  0.546  0.219  0.186-  29 1.98  26 1.98
   7  0.046  0.719  0.186-  32 1.98  27 1.98
   8  0.546  0.719  0.186-  31 1.98  28 1.98
   9  0.454  0.469  0.814-  20 1.98  21 1.98
  10  0.954  0.469  0.814-  19 1.98  22 1.98
  11  0.454  0.969  0.814-  18 1.98  23 1.98
  12  0.954  0.969  0.814-  17 1.98  24 1.98
  13  0.211  0.219  0.844-  21 2.00  17 2.00  49 2.53  53 2.53
  14  0.711  0.219  0.844-  22 2.00  18 2.00  50 2.53  54 2.53
  15  0.211  0.719  0.844-  23 2.00  19 2.00  51 2.53  55 2.53
  16  0.711  0.719  0.844-  24 2.00  20 2.00  52 2.53  56 2.53
  17  0.077  0.095  0.803-  12 1.98  13 2.00  83 2.01  86 2.01  57 2.02
  18  0.577  0.095  0.803-  11 1.98  14 2.00  58 2.01  84 2.01  85 2.01
  19  0.077  0.595  0.803-  10 1.98  15 2.00  59 2.01  81 2.01  88 2.01
  20  0.577  0.595  0.803-   9 1.98  16 2.00  60 2.01  82 2.01  87 2.01
  21  0.325  0.343  0.803-   9 1.98  13 2.00  61 2.01  81 2.01  85 2.01
  22  0.825  0.343  0.803-  10 1.98  14 2.00  62 2.01  82 2.01  86 2.01
  23  0.325  0.843  0.803-  11 1.98  15 2.00  63 2.01  83 2.01  87 2.01
  24  0.825  0.843  0.803-  12 1.98  16 2.00  64 2.01  84 2.01  88 2.01
  25  0.175  0.093  0.197-   5 1.98   3 2.00  65 2.01  77 2.01  75 2.01
  26  0.675  0.093  0.197-   6 1.98   4 2.00  66 2.01  78 2.01  76 2.01
  27  0.175  0.593  0.197-   7 1.98   1 2.00  67 2.01  79 2.01  73 2.01
  28  0.675  0.593  0.197-   8 1.98   2 2.00  68 2.01  80 2.01  74 2.01
  29  0.423  0.345  0.197-   6 1.98   1 2.00  69 2.01  77 2.01  74 2.01
  30  0.923  0.345  0.197-   5 1.98   2 2.00  70 2.01  78 2.01  73 2.01
  31  0.423  0.845  0.197-   8 1.98   3 2.00  71 2.01  79 2.01  76 2.01
  32  0.923  0.845  0.197-   7 1.98   4 2.00  72 2.01  80 2.01  75 2.01
  33  0.219  0.345  0.371-  61 2.41  67 2.65  69 2.65
  34  0.719  0.345  0.371-  62 2.41  68 2.65  70 2.65
  35  0.219  0.845  0.371-  63 2.41  65 2.65  71 2.65
  36  0.719  0.845  0.371-  64 2.41  66 2.65  72 2.65
  37  0.467  0.093  0.371-  58 2.41  71 2.65  65 2.65
  38  0.967  0.093  0.371-  57 2.40  72 2.65  66 2.65
  39  0.467  0.593  0.371-  60 2.41  69 2.65  67 2.65
  40  0.967  0.593  0.371-  59 2.41  70 2.65  68 2.65
  41  0.033  0.343  0.629-  70 2.41  57 2.65  61 2.65
  42  0.533  0.343  0.629-  69 2.41  58 2.65  62 2.65
  43  0.033  0.843  0.629-  72 2.41  59 2.65  63 2.65
  44  0.533  0.843  0.629-  71 2.41  60 2.65  64 2.65
  45  0.281  0.095  0.629-  65 2.41  61 2.65  57 2.65
  46  0.781  0.095  0.629-  66 2.41  62 2.65  58 2.65
  47  0.281  0.595  0.629-  67 2.41  63 2.65  59 2.65
  48  0.781  0.595  0.629-  68 2.41  64 2.65  60 2.65
  49  0.124  0.344  0.000-  73 2.51  86 2.51  81 2.52  77 2.52  13 2.53   1 2.53
  50  0.624  0.344  0.000-  74 2.51  85 2.51  82 2.52  78 2.52  14 2.53   2 2.53
  51  0.124  0.844  0.000-  75 2.51  88 2.51  83 2.52  79 2.52  15 2.53   3 2.53
  52  0.624  0.844  0.000-  76 2.51  87 2.51  84 2.52  80 2.52  16 2.53   4 2.53
  53  0.376  0.094  1.000-  85 2.51  76 2.51  77 2.52  83 2.52   3 2.53  13 2.53
  54  0.876  0.094  1.000-  86 2.51  75 2.51  78 2.52  84 2.52   4 2.53  14 2.53
  55  0.376  0.594  1.000-  87 2.51  74 2.51  79 2.52  81 2.52   1 2.53  15 2.53
  56  0.876  0.594  1.000-  88 2.51  73 2.51  80 2.52  82 2.52   2 2.53  16 2.53
  57  0.038  0.106  0.605-  17 2.02  38 2.40  45 2.65  41 2.65
  58  0.538  0.106  0.606-  18 2.01  37 2.41  42 2.65  46 2.65
  59  0.038  0.606  0.606-  19 2.01  40 2.41  43 2.65  47 2.65
  60  0.538  0.606  0.606-  20 2.01  39 2.41  44 2.65  48 2.65
  61  0.265  0.332  0.606-  21 2.01  33 2.41  45 2.65  41 2.65
  62  0.765  0.332  0.606-  22 2.01  34 2.41  46 2.65  42 2.65
  63  0.265  0.832  0.606-  23 2.01  35 2.41  47 2.65  43 2.65
  64  0.765  0.832  0.606-  24 2.01  36 2.41  48 2.65  44 2.65
  65  0.235  0.082  0.394-  25 2.01  45 2.41  35 2.65  37 2.65
  66  0.735  0.082  0.394-  26 2.01  46 2.41  36 2.65  38 2.65
  67  0.235  0.582  0.394-  27 2.01  47 2.41  33 2.65  39 2.65
  68  0.735  0.582  0.394-  28 2.01  48 2.41  34 2.65  40 2.65
  69  0.462  0.356  0.394-  29 2.01  42 2.41  39 2.65  33 2.65
  70  0.962  0.356  0.394-  30 2.01  41 2.41  40 2.65  34 2.65
  71  0.462  0.856  0.394-  31 2.01  44 2.41  37 2.65  35 2.65
  72  0.962  0.856  0.394-  32 2.01  43 2.41  38 2.65  36 2.65
  73  0.038  0.469  0.154-  30 2.01  27 2.01  49 2.51  56 2.51
  74  0.538  0.469  0.154-  29 2.01  28 2.01  50 2.51  55 2.51
  75  0.038  0.969  0.154-  32 2.01  25 2.01  51 2.51  54 2.51
  76  0.538  0.969  0.154-  31 2.01  26 2.01  52 2.51  53 2.51
  77  0.289  0.219  0.154-  25 2.01  29 2.01  53 2.52  49 2.52
  78  0.789  0.219  0.154-  26 2.01  30 2.01  54 2.52  50 2.52
  79  0.289  0.719  0.154-  27 2.01  31 2.01  55 2.52  51 2.52
  80  0.789  0.719  0.154-  28 2.01  32 2.01  56 2.52  52 2.52
  81  0.211  0.469  0.846-  21 2.01  19 2.01  49 2.52  55 2.52
  82  0.711  0.469  0.846-  22 2.01  20 2.01  50 2.52  56 2.52
  83  0.211  0.969  0.846-  23 2.01  17 2.01  51 2.52  53 2.52
  84  0.711  0.969  0.846-  24 2.01  18 2.01  52 2.52  54 2.52
  85  0.462  0.219  0.846-  18 2.01  21 2.01  53 2.51  50 2.51
  86  0.962  0.219  0.846-  17 2.01  22 2.01  54 2.51  49 2.51
  87  0.462  0.719  0.846-  20 2.01  23 2.01  55 2.51  52 2.51
  88  0.962  0.719  0.846-  19 2.01  24 2.01  56 2.51  51 2.51
 

IMPORTANT INFORMATION: All symmetrisations will be switched off!
NOSYMM: (Re-)initialisation of all symmetry stuff for point group C_1.

 
 
 KPOINTS: # No comment                            

Automatic generation of k-mesh.
Space group operators:
 irot       det(A)        alpha          n_x          n_y          n_z        tau_x        tau_y        tau_z
    1     1.000000     0.000000     1.000000     0.000000     0.000000     0.000000     0.000000     0.000000
 
 Subroutine IBZKPT returns following result:
 ===========================================
 
 Found     14 irreducible k-points:
 
 Following reciprocal coordinates:
            Coordinates               Weight
  0.000000  0.000000  0.000000      1.000000
  0.333333  0.000000  0.000000      2.000000
  0.000000  0.333333  0.000000      2.000000
  0.333333  0.333333  0.000000      2.000000
 -0.333333  0.333333 -0.000000      2.000000
  0.000000  0.000000  0.333333      2.000000
  0.333333  0.000000  0.333333      2.000000
 -0.333333  0.000000  0.333333      2.000000
  0.000000  0.333333  0.333333      2.000000
  0.333333  0.333333  0.333333      2.000000
 -0.333333  0.333333  0.333333      2.000000
  0.000000 -0.333333  0.333333      2.000000
  0.333333 -0.333333  0.333333      2.000000
 -0.333333 -0.333333  0.333333      2.000000
 
 Following cartesian coordinates:
            Coordinates               Weight
  0.000000  0.000000  0.000000      1.000000
  0.029997  0.000000  0.008162      2.000000
  0.000000  0.029983  0.000000      2.000000
  0.029997  0.029983  0.008162      2.000000
 -0.029997  0.029983 -0.008162      2.000000
  0.000001  0.000000  0.032684      2.000000
  0.029998  0.000000  0.040846      2.000000
 -0.029996  0.000000  0.024522      2.000000
  0.000001  0.029983  0.032684      2.000000
  0.029998  0.029983  0.040846      2.000000
 -0.029996  0.029983  0.024522      2.000000
  0.000001 -0.029983  0.032684      2.000000
  0.029998 -0.029983  0.040846      2.000000
 -0.029996 -0.029983  0.024522      2.000000
 


--------------------------------------------------------------------------------------------------------




 Dimension of arrays:
   k-points           NKPTS =     14   k-points in BZ     NKDIM =     14   number of bands    NBANDS=    538
   number of dos      NEDOS =    301   number of ions     NIONS =     88
   non local maximal  LDIM  =      6   non local SUM 2l+1 LMDIM =     18
   total plane-waves  NPLWV = 829440
   max r-space proj   IRMAX =      1   max aug-charges    IRDMAX= 166102
   dimension x,y,z NGX =    96 NGY =   96 NGZ =   90
   dimension x,y,z NGXF=   192 NGYF=  192 NGZF=  180
   support grid    NGXF=   384 NGYF=  384 NGZF=  360
   ions per type =              16  16  24  32
   NGX,Y,Z   is equivalent  to a cutoff of  14.36, 14.36, 14.16 a.u.
   NGXF,Y,Z  is equivalent  to a cutoff of  28.72, 28.71, 28.31 a.u.

 SYSTEM =  unknown system                          
 POSCAR =  # Compound: Li16O16S24Fe32. Old comment:

 Startparameter for this run:
   NWRITE =      1    write-flag & timer
   PREC   = accura    normal or accurate (medium, high low for compatibility)
   ISTART =      0    job   : 0-new  1-cont  2-samecut
   ICHARG =      1    charge: 1-file 2-atom 10-const
   ISPIN  =      2    spin polarized calculation?
   LNONCOLLINEAR =      F non collinear calculations
   LSORBIT =      F    spin-orbit coupling
   INIWAV =      1    electr: 0-lowe 1-rand  2-diag
   LASPH  =      T    aspherical Exc in radial PAW
   METAGGA=      F    non-selfconsistent MetaGGA calc.

 Electronic Relaxation 1
   ENCUT  =  650.0 eV  47.77 Ry    6.91 a.u.  23.10 23.11 21.97*2*pi/ulx,y,z
   ENINI  =  650.0     initial cutoff
   ENAUG  =  628.9 eV  augmentation charge cutoff
   NELM   =    200;   NELMIN=  8; NELMDL=  0     # of ELM steps 
   EDIFF  = 0.1E-05   stopping-criterion for ELM
   LREAL  =      F    real-space projection
   NLSPLINE    = F    spline interpolate recip. space projectors
   LCOMPAT=      F    compatible to vasp.4.4
   GGA_COMPAT  = T    GGA compatible to vasp.4.4-vasp.4.6
   LMAXPAW     = -100 max onsite density
   LMAXMIX     =    4 max onsite mixed and CHGCAR
   VOSKOWN=      0    Vosko Wilk Nusair interpolation
   ROPT   =    0.00000   0.00000   0.00000   0.00000
 Ionic relaxation
   EDIFFG = 0.1E-04   stopping-criterion for IOM
   NSW    =      0    number of steps for IOM
   NBLOCK =      1;   KBLOCK =      1    inner block; outer block 
   IBRION =     -1    ionic relax: 0-MD 1-quasi-New 2-CG
   NFREE  =      0    steps in history (QN), initial steepest desc. (CG)
   ISIF   =      2    stress and relaxation
   IWAVPR =     10    prediction:  0-non 1-charg 2-wave 3-comb
   ISYM   =      0    0-nonsym 1-usesym 2-fastsym
   LCORR  =      T    Harris-Foulkes like correction to forces

   POTIM  = 0.5000    time-step for ionic-motion
   TEIN   =    0.0    initial temperature
   TEBEG  =    0.0;   TEEND  =   0.0 temperature during run
   SMASS  =  -3.00    Nose mass-parameter (am)
   estimated Nose-frequenzy (Omega)   =  0.10E-29 period in steps =****** mass=  -0.282E-26a.u.
   SCALEE = 1.0000    scale energy and forces
   NPACO  =    256;   APACO  = 16.0  distance and # of slots for P.C.
   PSTRESS=    0.0 pullay stress

  Mass of Ions in am
   POMASS =   7.01 16.00 32.07 55.85
  Ionic Valenz
   ZVAL   =   3.00  6.00  6.00 14.00
  Atomic Wigner-Seitz radii
   RWIGS  =  -1.00 -1.00 -1.00 -1.00
  virtual crystal weights 
   VCA    =   1.00  1.00  1.00  1.00
   NELECT =     736.0000    total number of electrons
   NUPDOWN=      -1.0000    fix difference up-down

 DOS related values:
   EMIN   =  10.00;   EMAX   =-10.00  energy-range for DOS
   EFERMI =   0.00
   ISMEAR =     0;   SIGMA  =   0.05  broadening in eV -4-tet -1-fermi 0-gaus

 Electronic relaxation 2 (details)
   IALGO  =     38    algorithm
   LDIAG  =      T    sub-space diagonalisation (order eigenvalues)
   LSUBROT=      F    optimize rotation matrix (better conditioning)
   TURBO    =      0    0=normal 1=particle mesh
   IRESTART =      0    0=no restart 2=restart with 2 vectors
   NREBOOT  =      0    no. of reboots
   NMIN     =      0    reboot dimension
   EREF     =   0.00    reference energy to select bands
   IMIX   =      4    mixing-type and parameters
     AMIX     =   0.40;   BMIX     =  1.00
     AMIX_MAG =   1.60;   BMIX_MAG =  1.00
     AMIN     =   0.10
     WC   =   100.;   INIMIX=   1;  MIXPRE=   1;  MAXMIX= -45

 Intra band minimization:
   WEIMIN = 0.0000     energy-eigenvalue tresh-hold
   EBREAK =  0.46E-09  absolut break condition
   DEPER  =   0.30     relativ break condition  

   TIME   =   0.40     timestep for ELM

  volume/ion in A,a.u.               =      14.32        96.62
  Fermi-wavevector in a.u.,A,eV,Ry     =   1.368520  2.586127 25.481613  1.872846
  Thomas-Fermi vector in A             =   2.494476
 
 Write flags
   LWAVE        =      F    write WAVECAR
   LDOWNSAMPLE  =      F    k-point downsampling of WAVECAR
   LCHARG       =      T    write CHGCAR
   LVTOT        =      F    write LOCPOT, total local potential
   LVHAR        =      F    write LOCPOT, Hartree potential only
   LELF         =      F    write electronic localiz. function (ELF)
   LORBIT       =      0    0 simple, 1 ext, 2 COOP (PROOUT), +10 PAW based schemes


 Dipole corrections
   LMONO  =      F    monopole corrections only (constant potential shift)
   LDIPOL =      F    correct potential (dipole corrections)
   IDIPOL =      0    1-x, 2-y, 3-z, 4-all directions 
   EPSILON=  1.0000000 bulk dielectric constant

 LDA+U is selected, type is set to LDAUTYPE =  2
   angular momentum for each species LDAUL =    -1   -1   -1    2
   U (eV)           for each species LDAUU =   0.0  0.0  0.0  4.0
   J (eV)           for each species LDAUJ =   0.0  0.0  0.0  0.0
 Exchange correlation treatment:
   GGA     =    PE    GGA type
   LEXCH   =     8    internal setting for exchange type
   VOSKOWN=      0    Vosko Wilk Nusair interpolation
   LHFCALC =     F    Hartree Fock is set to
   LHFONE  =     F    Hartree Fock one center treatment
   AEXX    =    0.0000 exact exchange contribution

 Linear response parameters
   LEPSILON=     F    determine dielectric tensor
   LRPA    =     F    only Hartree local field effects (RPA)
   LNABLA  =     F    use nabla operator in PAW spheres
   LVEL    =     F    velocity operator in full k-point grid
   LINTERFAST=   F  fast interpolation
   KINTER  =     0    interpolate to denser k-point grid
   CSHIFT  =0.1000    complex shift for real part using Kramers Kronig
   OMEGAMAX=  -1.0    maximum frequency
   DEG_THRESHOLD= 0.2000000E-02 threshold for treating states as degnerate
   RTIME   =   -0.100 relaxation time in fs
  (WPLASMAI=    0.000 imaginary part of plasma frequency in eV, 0.658/RTIME)
   DFIELD  = 0.0000000 0.0000000 0.0000000 field for delta impulse in time
 
 Orbital magnetization related:
   ORBITALMAG=     F  switch on orbital magnetization
   LCHIMAG   =     F  perturbation theory with respect to B field
   DQ        =  0.001000  dq finite difference perturbation B field
   LLRAUG    =     F  two centre corrections for induced B field



--------------------------------------------------------------------------------------------------------


 Static calculation
 charge density and potential will be updated during run
 spin polarized calculation
 Variant of blocked Davidson
 Davidson routine will perform the subspace rotation
 perform sub-space diagonalisation
    after iterative eigenvector-optimisation
 modified Broyden-mixing scheme, WC =      100.0
 initial mixing is a Kerker type mixing with AMIX =  0.4000 and BMIX =      1.0000
 Hartree-type preconditioning will be used
 using additional bands          170
 reciprocal scheme for non local part
 use partial core corrections
 calculate Harris-corrections to forces 
   (improved forces if not selfconsistent)
 use gradient corrections 
 use of overlap-Matrix (Vanderbilt PP)
 Gauss-broadening in eV      SIGMA  =   0.05


--------------------------------------------------------------------------------------------------------


  energy-cutoff  :      650.00
  volume of cell :     1259.94
      direct lattice vectors                 reciprocal lattice vectors
    11.112233740  0.000000000 -0.000290340     0.089991547  0.000000000  0.024487024
     0.000000000 11.117451940  0.000000000     0.000000000  0.089948669  0.000000000
    -2.775108980  0.000000000 10.198722210     0.000002562  0.000000000  0.098052196

  length of vectors
    11.112233744 11.117451940 10.569539468     0.093263567  0.089948669  0.098052196


 
 k-points in units of 2pi/SCALE and weight: # No comment                            
   0.00000000  0.00000000  0.00000000       0.037
   0.02999718  0.00000000  0.00816234       0.074
   0.00000000  0.02998289  0.00000000       0.074
   0.02999718  0.02998289  0.00816234       0.074
  -0.02999718  0.02998289 -0.00816234       0.074
   0.00000085  0.00000000  0.03268407       0.074
   0.02999804  0.00000000  0.04084641       0.074
  -0.02999633  0.00000000  0.02452172       0.074
   0.00000085  0.02998289  0.03268407       0.074
   0.02999804  0.02998289  0.04084641       0.074
  -0.02999633  0.02998289  0.02452172       0.074
   0.00000085 -0.02998289  0.03268407       0.074
   0.02999804 -0.02998289  0.04084641       0.074
  -0.02999633 -0.02998289  0.02452172       0.074
 
 k-points in reciprocal lattice and weights: # No comment                            
   0.00000000  0.00000000  0.00000000       0.037
   0.33333333  0.00000000  0.00000000       0.074
   0.00000000  0.33333333  0.00000000       0.074
   0.33333333  0.33333333  0.00000000       0.074
  -0.33333333  0.33333333 -0.00000000       0.074
   0.00000000  0.00000000  0.33333333       0.074
   0.33333333  0.00000000  0.33333333       0.074
  -0.33333333  0.00000000  0.33333333       0.074
   0.00000000  0.33333333  0.33333333       0.074
   0.33333333  0.33333333  0.33333333       0.074
  -0.33333333  0.33333333  0.33333333       0.074
   0.00000000 -0.33333333  0.33333333       0.074
   0.33333333 -0.33333333  0.33333333       0.074
  -0.33333333 -0.33333333  0.33333333       0.074
 
 position of ions in fractional coordinates (direct lattice) 
   0.28894969  0.46933910  0.15583616
   0.78894969  0.46933910  0.15583616
   0.28894969  0.96933910  0.15583616
   0.78894969  0.96933910  0.15583616
   0.04646972  0.21934976  0.18586770
   0.54646972  0.21934976  0.18586770
   0.04646972  0.71934976  0.18586770
   0.54646972  0.71934976  0.18586770
   0.45353028  0.46934976  0.81413230
   0.95353028  0.46934976  0.81413230
   0.45353028  0.96934976  0.81413230
   0.95353028  0.96934976  0.81413230
   0.21105031  0.21933910  0.84416384
   0.71105031  0.21933910  0.84416384
   0.21105031  0.71933910  0.84416384
   0.71105031  0.71933910  0.84416384
   0.07654971  0.09530995  0.80250593
   0.57654971  0.09530995  0.80250593
   0.07654971  0.59530995  0.80250593
   0.57654971  0.59530995  0.80250593
   0.32470466  0.34338175  0.80250383
   0.82470466  0.34338175  0.80250383
   0.32470466  0.84338175  0.80250383
   0.82470466  0.84338175  0.80250383
   0.17529534  0.09338175  0.19749617
   0.67529534  0.09338175  0.19749617
   0.17529534  0.59338175  0.19749617
   0.67529534  0.59338175  0.19749617
   0.42345029  0.34530995  0.19749407
   0.92345029  0.34530995  0.19749407
   0.42345029  0.84530995  0.19749407
   0.92345029  0.84530995  0.19749407
   0.21868463  0.34523395  0.37102476
   0.71868463  0.34523395  0.37102476
   0.21868463  0.84523395  0.37102476
   0.71868463  0.84523395  0.37102476
   0.46681660  0.09344897  0.37102399
   0.96681660  0.09344897  0.37102399
   0.46681660  0.59344897  0.37102399
   0.96681660  0.59344897  0.37102399
   0.03318340  0.34344897  0.62897601
   0.53318340  0.34344897  0.62897601
   0.03318340  0.84344897  0.62897601
   0.53318340  0.84344897  0.62897601
   0.28131537  0.09523395  0.62897524
   0.78131537  0.09523395  0.62897524
   0.28131537  0.59523395  0.62897524
   0.78131537  0.59523395  0.62897524
   0.12439279  0.34434306  0.00000412
   0.62439279  0.34434306  0.00000412
   0.12439279  0.84434306  0.00000412
   0.62439279  0.84434306  0.00000412
   0.37560721  0.09434306  0.99999588
   0.87560721  0.09434306  0.99999588
   0.37560721  0.59434306  0.99999588
   0.87560721  0.59434306  0.99999588
   0.03824426  0.10634799  0.60537695
   0.53824426  0.10634799  0.60632306
   0.03824426  0.60634799  0.60632306
   0.53824426  0.60634799  0.60632306
   0.26492712  0.33232651  0.60632763
   0.76492712  0.33232651  0.60632763
   0.26492712  0.83232651  0.60632763
   0.76492712  0.83232651  0.60632763
   0.23507288  0.08232651  0.39367237
   0.73507288  0.08232651  0.39367237
   0.23507288  0.58232651  0.39367237
   0.73507288  0.58232651  0.39367237
   0.46175574  0.35634799  0.39367694
   0.96175574  0.35634799  0.39367694
   0.46175574  0.85634799  0.39367694
   0.96175574  0.85634799  0.39367694
   0.03848398  0.46936404  0.15397331
   0.53848398  0.46936404  0.15397331
   0.03848398  0.96936404  0.15397331
   0.53848398  0.96936404  0.15397331
   0.28861657  0.21935690  0.15447525
   0.78861657  0.21935690  0.15447525
   0.28861657  0.71935690  0.15447525
   0.78861657  0.71935690  0.15447525
   0.21138343  0.46935690  0.84552475
   0.71138343  0.46935690  0.84552475
   0.21138343  0.96935690  0.84552475
   0.71138343  0.96935690  0.84552475
   0.46151602  0.21936404  0.84602669
   0.96151602  0.21936404  0.84602669
   0.46151602  0.71936404  0.84602669
   0.96151602  0.71936404  0.84602669
 
 position of ions in cartesian coordinates  (Angst):
   2.77841422  5.21785483  1.58924581
   8.33453109  5.21785483  1.58910064
   2.77841422 10.77658080  1.58924581
   8.33453109 10.77658080  1.58910064
   0.00057921  2.43861041  1.89559955
   5.55669608  2.43861041  1.89545438
   0.00057921  7.99733638  1.89559955
   5.55669608  7.99733638  1.89545438
   2.78042868  5.21797340  8.30297749
   8.33654555  5.21797340  8.30283232
   2.78042868 10.77669937  8.30297749
   8.33654555 10.77669937  8.30283232
   0.00259367  2.43849185  8.60933123
   5.55871054  2.43849185  8.60918606
   0.00259367  7.99721782  8.60933123
   5.55871054  7.99721782  8.60918606
  -1.37640314  1.05960384  8.18451283
   4.17971373  1.05960384  8.18436766
  -1.37640314  6.61832981  8.18451283
   4.17971373  6.61832981  8.18436766
   1.38115855  3.81753010  8.18441936
   6.93727542  3.81753010  8.18427419
   1.38115855  9.37625607  8.18441936
   6.93727542  9.37625607  8.18427419
   1.39984934  1.03816712  2.01415768
   6.95596621  1.03816712  2.01401251
   1.39984934  6.59689309  2.01415768
   6.95596621  6.59689309  2.01401251
   4.15741103  3.83896683  2.01406421
   9.71352790  3.83896683  2.01391904
   4.15741103  9.39769280  2.01406421
   9.71352790  9.39769280  2.01391904
   1.40044058  3.83812185  3.78391497
   6.95655745  3.83812185  3.78376980
   1.40044058  9.39684782  3.78391497
   6.95655745  9.39684782  3.78376980
   4.15774317  1.03891443  3.78383507
   9.71386004  1.03891443  3.78368990
   4.15774317  6.59764040  3.78383507
   9.71386004  6.59764040  3.78368990
  -1.37673528  3.81827742  6.41474197
   4.17938159  3.81827742  6.41459680
  -1.37673528  9.37700339  6.41474197
   4.17938159  9.37700339  6.41459680
   1.38056731  1.05875886  6.41466207
   6.93668418  1.05875886  6.41451690
   1.38056731  6.61748483  6.41466207
   6.93668418  6.61748483  6.41451690
   1.38227032  3.82821742  0.00000590
   6.93838719  3.82821742 -0.00013927
   1.38227032  9.38694339  0.00000590
   6.93838719  9.38694339 -0.00013927
   1.39873757  1.04885444 10.19857114
   6.95485444  1.04885444 10.19842597
   1.39873757  6.60758041 10.19857114
   6.95485444  6.60758041 10.19842597
  -1.25500790  1.18231867  6.17406019
   4.29848340  1.18231867  6.18356418
  -1.25763347  6.74104464  6.18370935
   4.29848340  6.74104464  6.18356418
   1.26130689  3.69462400  6.18369015
   6.81742376  3.69462400  6.18354498
   1.26130689  9.25334997  6.18369015
   6.81742376  9.25334997  6.18354498
   1.51970100  0.91526102  4.01488689
   7.07581787  0.91526102  4.01474172
   1.51970100  6.47398699  4.01488689
   7.07581787  6.47398699  4.01474172
   4.03864136  3.96168165  4.01486769
   9.59475823  3.96168165  4.01472252
   4.03864136  9.52040762  4.01486769
   9.59475823  9.52040762  4.01472252
   0.00035027  5.21813216  1.57031984
   5.55646714  5.21813216  1.57017467
   0.00035027 10.77685813  1.57031984
   5.55646714 10.77685813  1.57017467
   2.77848919  2.43868979  1.57536637
   8.33460606  2.43868979  1.57522120
   2.77848919  7.99741576  1.57536637
   8.33460606  7.99741576  1.57522120
   0.00251870  5.21805278  8.62321067
   5.55863557  5.21805278  8.62306550
   0.00251870 10.77677875  8.62321067
   5.55863557 10.77677875  8.62306550
   2.78065762  2.43876917  8.62825720
   8.33677449  2.43876917  8.62811203
   2.78065762  7.99749514  8.62825720
   8.33677449  7.99749514  8.62811203
 


--------------------------------------------------------------------------------------------------------


 k-point  1 :   0.0000 0.0000 0.0000  plane waves:   47369
 k-point  2 :   0.3333 0.0000 0.0000  plane waves:   47373
 k-point  3 :   0.0000 0.3333 0.0000  plane waves:   47370
 k-point  4 :   0.3333 0.3333 0.0000  plane waves:   47404
 k-point  5 :  -0.3333 0.3333-0.0000  plane waves:   47404
 k-point  6 :   0.0000 0.0000 0.3333  plane waves:   47419
 k-point  7 :   0.3333 0.0000 0.3333  plane waves:   47399
 k-point  8 :  -0.3333 0.0000 0.3333  plane waves:   47417
 k-point  9 :   0.0000 0.3333 0.3333  plane waves:   47409
 k-point 10 :   0.3333 0.3333 0.3333  plane waves:   47422
 k-point 11 :  -0.3333 0.3333 0.3333  plane waves:   47440
 k-point 12 :   0.0000-0.3333 0.3333  plane waves:   47409
 k-point 13 :   0.3333-0.3333 0.3333  plane waves:   47422
 k-point 14 :  -0.3333-0.3333 0.3333  plane waves:   47440

 maximum and minimum number of plane-waves per node :      7942     7858

 maximum number of plane-waves:     47440
 maximum index in each direction: 
   IXMAX=   23   IYMAX=   23   IZMAX=   21
   IXMIN=  -23   IYMIN=  -23   IZMIN=  -22


 parallel 3D FFT for wavefunctions:
    minimum data exchange during FFTs selected (reduces bandwidth)
 parallel 3D FFT for charge:
    minimum data exchange during FFTs selected (reduces bandwidth)


 total amount of memory used by VASP MPI-rank0  1233264. kBytes
=======================================================================

   base      :      30000. kBytes
   nonl-proj :      75226. kBytes
   fftplans  :      85054. kBytes
   grid      :      64684. kBytes
   one-center:        466. kBytes
   wavefun   :     977834. kBytes
 
     INWAV:  cpu time    0.0000: real time    0.0000
 Broyden mixing: mesh for mixing (old mesh)
   NGX = 47   NGY = 47   NGZ = 43
  (NGX  =192   NGY  =192   NGZ  =180)
  gives a total of  94987 points

 initial charge density was supplied:
 number of electron     736.0000016 magnetization     127.9999885
 keeping initial charge density in first step


--------------------------------------------------------------------------------------------------------


 Maximum index for augmentation-charges        13229 (set IRDMAX)


--------------------------------------------------------------------------------------------------------


 First call to EWALD:  gamma=   0.164
 Maximum number of real-space cells 3x 3x 3
 Maximum number of reciprocal cells 3x 3x 3

    FEWALD:  cpu time    0.0046: real time    0.0049


--------------------------------------- Iteration      1(   1)  ---------------------------------------


    POTLOK:  cpu time    1.0426: real time    1.0695
    SETDIJ:  cpu time    2.3351: real time    2.3418
     EDDAV:  cpu time  311.1533: real time  314.5227
       DOS:  cpu time    0.0080: real time    0.0099
    --------------------------------------------
      LOOP:  cpu time  314.5390: real time  317.9439

 eigenvalue-minimisations  : 30944
 total energy-change (2. order) : 0.1040965E+05  (-0.4118843E+05)
 number of electron     736.0000016 magnetization     127.9999885
 augmentation part      736.0000016 magnetization     127.9999885

 Free energy of the ion-electron system (eV)
  ---------------------------------------------------
  alpha Z        PSCENC =      2314.49656628
  Ewald energy   TEWEN  =    -57724.72181440
  -Hartree energ DENC   =    -30347.26182826
  -exchange      EXHF   =         0.00000000
  -V(xc)+E(xc)   XCENC  =      3229.29608066
  PAW double counting   =     92679.89207989   -95535.38516353
  entropy T*S    EENTRO =        -0.01876692
  eigenvalues    EBANDS =       349.87450630
  atomic energy  EATOM  =     95443.47970955
  Solvation  Ediel_sol  =         0.00000000
  ---------------------------------------------------
  free energy    TOTEN  =     10409.65136957 eV

  energy without entropy =    10409.67013648  energy(sigma->0) =    10409.66075303


--------------------------------------------------------------------------------------------------------




--------------------------------------- Iteration      1(   2)  ---------------------------------------


     EDDAV:  cpu time  305.6347: real time  309.9186
       DOS:  cpu time    0.0081: real time    0.0081
    --------------------------------------------
      LOOP:  cpu time  305.6428: real time  309.9267

 eigenvalue-minimisations  : 30128
 total energy-change (2. order) :-0.9232163E+04  (-0.8658333E+04)
 number of electron     736.0000016 magnetization     127.9999885
 augmentation part      736.0000016 magnetization     127.9999885

 Free energy of the ion-electron system (eV)
  ---------------------------------------------------
  alpha Z        PSCENC =      2314.49656628
  Ewald energy   TEWEN  =    -57724.72181440
  -Hartree energ DENC   =    -30347.26182826
  -exchange      EXHF   =         0.00000000
  -V(xc)+E(xc)   XCENC  =      3229.29608066
  PAW double counting   =     92679.89207989   -95535.38516353
  entropy T*S    EENTRO =        -0.06540453
  eigenvalues    EBANDS =     -8882.24218272
  atomic energy  EATOM  =     95443.47970955
  Solvation  Ediel_sol  =         0.00000000
  ---------------------------------------------------
  free energy    TOTEN  =      1177.48804294 eV

  energy without entropy =     1177.55344746  energy(sigma->0) =     1177.52074520


--------------------------------------------------------------------------------------------------------




--------------------------------------- Iteration      1(   3)  ---------------------------------------


     EDDAV:  cpu time  322.1783: real time  326.0089
       DOS:  cpu time    0.0026: real time    0.0026
    --------------------------------------------
      LOOP:  cpu time  322.1809: real time  326.0115

 eigenvalue-minimisations  : 32368
 total energy-change (2. order) :-0.1485659E+04  (-0.1278923E+04)
 number of electron     736.0000016 magnetization     127.9999885
 augmentation part      736.0000016 magnetization     127.9999885

 Free energy of the ion-electron system (eV)
  ---------------------------------------------------
  alpha Z        PSCENC =      2314.49656628
  Ewald energy   TEWEN  =    -57724.72181440
  -Hartree energ DENC   =    -30347.26182826
  -exchange      EXHF   =         0.00000000
  -V(xc)+E(xc)   XCENC  =      3229.29608066
  PAW double counting   =     92679.89207989   -95535.38516353
  entropy T*S    EENTRO =        -0.00000000
  eigenvalues    EBANDS =    -10367.96669944
  atomic energy  EATOM  =     95443.47970955
  Solvation  Ediel_sol  =         0.00000000
  ---------------------------------------------------
  free energy    TOTEN  =      -308.17106925 eV

  energy without entropy =     -308.17106925  energy(sigma->0) =     -308.17106925


--------------------------------------------------------------------------------------------------------




--------------------------------------- Iteration      1(   4)  ---------------------------------------


     EDDAV:  cpu time  341.3601: real time  344.8785
       DOS:  cpu time    0.0024: real time    0.0024
    --------------------------------------------
      LOOP:  cpu time  341.3625: real time  344.8810

 eigenvalue-minimisations  : 35008
 total energy-change (2. order) :-0.1681293E+03  (-0.1653726E+03)
 number of electron     736.0000016 magnetization     127.9999885
 augmentation part      736.0000016 magnetization     127.9999885

 Free energy of the ion-electron system (eV)
  ---------------------------------------------------
  alpha Z        PSCENC =      2314.49656628
  Ewald energy   TEWEN  =    -57724.72181440
  -Hartree energ DENC   =    -30347.26182826
  -exchange      EXHF   =         0.00000000
  -V(xc)+E(xc)   XCENC  =      3229.29608066
  PAW double counting   =     92679.89207989   -95535.38516353
  entropy T*S    EENTRO =        -0.00000000
  eigenvalues    EBANDS =    -10536.09603789
  atomic energy  EATOM  =     95443.47970955
  Solvation  Ediel_sol  =         0.00000000
  ---------------------------------------------------
  free energy    TOTEN  =      -476.30040770 eV

  energy without entropy =     -476.30040770  energy(sigma->0) =     -476.30040770


--------------------------------------------------------------------------------------------------------




--------------------------------------- Iteration      1(   5)  ---------------------------------------


     EDDAV:  cpu time  453.1955: real time  458.0121
       DOS:  cpu time    0.0026: real time    0.0026
    CHARGE:  cpu time    9.4305: real time    9.4667
    MIXING:  cpu time    0.0284: real time    0.0360
    --------------------------------------------
      LOOP:  cpu time  462.6570: real time  467.5174

 eigenvalue-minimisations  : 49696
 total energy-change (2. order) :-0.1242763E+02  (-0.1230432E+02)
 number of electron     736.0000016 magnetization     127.9999932
 augmentation part      278.4637300 magnetization      84.1335454

 Broyden mixing:
  rms(total) = 0.21315E+00    rms(broyden)= 0.21299E+00
  rms(prec ) = 0.21655E+00
  weight for this iteration     100.00

 Free energy of the ion-electron system (eV)
  ---------------------------------------------------
  alpha Z        PSCENC =      2314.49656628
  Ewald energy   TEWEN  =    -57724.72181440
  -Hartree energ DENC   =    -30347.26182826
  -exchange      EXHF   =         0.00000000
  -V(xc)+E(xc)   XCENC  =      3229.29608066
  PAW double counting   =     92679.89207989   -95535.38516353
  entropy T*S    EENTRO =        -0.00000000
  eigenvalues    EBANDS =    -10548.52366853
  atomic energy  EATOM  =     95443.47970955
  Solvation  Ediel_sol  =         0.00000000
  ---------------------------------------------------
  free energy    TOTEN  =      -488.72803835 eV

  energy without entropy =     -488.72803835  energy(sigma->0) =     -488.72803835


--------------------------------------------------------------------------------------------------------




--------------------------------------- Iteration      1(   6)  ---------------------------------------


    POTLOK:  cpu time    1.0491: real time    1.0636
    SETDIJ:  cpu time    2.2861: real time    2.3204
     EDDAV:  cpu time  399.9869: real time  404.8469
       DOS:  cpu time    0.0024: real time    0.0024
    CHARGE:  cpu time    9.2611: real time    9.3450
    MIXING:  cpu time    0.0339: real time    0.0339
    --------------------------------------------
      LOOP:  cpu time  412.6195: real time  417.6122

 eigenvalue-minimisations  : 42464
 total energy-change (2. order) :-0.4715559E+00  (-0.4830997E+00)
 number of electron     736.0000016 magnetization     127.9999951
 augmentation part      277.9597006 magnetization      84.1617957

 Broyden mixing:
  rms(total) = 0.10456E+00    rms(broyden)= 0.10440E+00
  rms(prec ) = 0.10527E+00
  weight for this iteration     100.00

 eigenvalues of (default mixing * dielectric matrix)
  average eigenvalue GAMMA=   0.6675
  0.6675

 Free energy of the ion-electron system (eV)
  ---------------------------------------------------
  alpha Z        PSCENC =      2314.49656628
  Ewald energy   TEWEN  =    -57724.72181440
  -Hartree energ DENC   =    -30345.43877893
  -exchange      EXHF   =         0.00000000
  -V(xc)+E(xc)   XCENC  =      3228.99421262
  PAW double counting   =     92524.01535794   -95377.85266724
  entropy T*S    EENTRO =        -0.00000000
  eigenvalues    EBANDS =    -10552.17218008
  atomic energy  EATOM  =     95443.47970955
  Solvation  Ediel_sol  =         0.00000000
  ---------------------------------------------------
  free energy    TOTEN  =      -489.19959427 eV

  energy without entropy =     -489.19959427  energy(sigma->0) =     -489.19959427


--------------------------------------------------------------------------------------------------------




--------------------------------------- Iteration      1(   7)  ---------------------------------------


    POTLOK:  cpu time    1.0313: real time    1.0680
    SETDIJ:  cpu time    2.2857: real time    2.2886
     EDDAV:  cpu time  423.0516: real time  427.6019
       DOS:  cpu time    0.0024: real time    0.0024
    CHARGE:  cpu time    9.3151: real time    9.3378
    MIXING:  cpu time    0.0284: real time    0.0284
    --------------------------------------------
      LOOP:  cpu time  435.7147: real time  440.3272

 eigenvalue-minimisations  : 45584
 total energy-change (2. order) :-0.1723333E-01  (-0.1761215E-01)
 number of electron     736.0000016 magnetization     127.9999959
 augmentation part      277.8789267 magnetization      84.1538697

 Broyden mixing:
  rms(total) = 0.59246E-01    rms(broyden)= 0.59205E-01
  rms(prec ) = 0.60697E-01
  weight for this iteration     100.00

 eigenvalues of (default mixing * dielectric matrix)
  average eigenvalue GAMMA=   0.5560
  0.5560  0.5560

 Free energy of the ion-electron system (eV)
  ---------------------------------------------------
  alpha Z        PSCENC =      2314.49656628
  Ewald energy   TEWEN  =    -57724.72181440
  -Hartree energ DENC   =    -30346.36830467
  -exchange      EXHF   =         0.00000000
  -V(xc)+E(xc)   XCENC  =      3229.07872297
  PAW double counting   =     92581.31953951   -95435.72868244
  entropy T*S    EENTRO =        -0.00000000
  eigenvalues    EBANDS =    -10550.77256439
  atomic energy  EATOM  =     95443.47970955
  Solvation  Ediel_sol  =         0.00000000
  ---------------------------------------------------
  free energy    TOTEN  =      -489.21682760 eV

  energy without entropy =     -489.21682760  energy(sigma->0) =     -489.21682760


--------------------------------------------------------------------------------------------------------




--------------------------------------- Iteration      1(   8)  ---------------------------------------


    POTLOK:  cpu time    1.0460: real time    1.0694
    SETDIJ:  cpu time    2.2931: real time    2.3294
     EDDAV:  cpu time  401.3137: real time  405.8802
       DOS:  cpu time    0.0027: real time    0.0027
    CHARGE:  cpu time    9.2602: real time    9.4045
    MIXING:  cpu time    0.0375: real time    0.0375
    --------------------------------------------
      LOOP:  cpu time  413.9533: real time  418.7238

 eigenvalue-minimisations  : 42840
 total energy-change (2. order) : 0.4519546E-03  (-0.3708682E-03)
 number of electron     736.0000016 magnetization     127.9999966
 augmentation part      277.8705108 magnetization      84.1560168

 Broyden mixing:
  rms(total) = 0.52913E-01    rms(broyden)= 0.52910E-01
  rms(prec ) = 0.54198E-01
  weight for this iteration     100.00

 eigenvalues of (default mixing * dielectric matrix)
  average eigenvalue GAMMA=   0.5893
  0.6259  0.6259  0.5161

 Free energy of the ion-electron system (eV)
  ---------------------------------------------------
  alpha Z        PSCENC =      2314.49656628
  Ewald energy   TEWEN  =    -57724.72181440
  -Hartree energ DENC   =    -30346.33948396
  -exchange      EXHF   =         0.00000000
  -V(xc)+E(xc)   XCENC  =      3229.10719774
  PAW double counting   =     92594.69367065   -95449.23768598
  entropy T*S    EENTRO =        -0.00000000
  eigenvalues    EBANDS =    -10550.69453551
  atomic energy  EATOM  =     95443.47970955
  Solvation  Ediel_sol  =         0.00000000
  ---------------------------------------------------
  free energy    TOTEN  =      -489.21637564 eV

  energy without entropy =     -489.21637564  energy(sigma->0) =     -489.21637564


--------------------------------------------------------------------------------------------------------




--------------------------------------- Iteration      1(   9)  ---------------------------------------


    POTLOK:  cpu time    1.0460: real time    1.0484
    SETDIJ:  cpu time    2.2707: real time    2.2927
     EDDAV:  cpu time  443.2573: real time  447.7809
       DOS:  cpu time    0.0028: real time    0.0028
    CHARGE:  cpu time    9.1948: real time    9.2400
    MIXING:  cpu time    0.0388: real time    0.0389
    --------------------------------------------
      LOOP:  cpu time  455.8104: real time  460.4038

 eigenvalue-minimisations  : 48392
 total energy-change (2. order) : 0.6606235E-03  (-0.2193598E-04)
 number of electron     736.0000016 magnetization     127.9999996
 augmentation part      277.8730308 magnetization      84.1562820

 Broyden mixing:
  rms(total) = 0.43125E-01    rms(broyden)= 0.43125E-01
  rms(prec ) = 0.44115E-01
  weight for this iteration     100.00

 eigenvalues of (default mixing * dielectric matrix)
  average eigenvalue GAMMA=   1.0868
  1.8043  1.2673  0.6378  0.6378

 Free energy of the ion-electron system (eV)
  ---------------------------------------------------
  alpha Z        PSCENC =      2314.49656628
  Ewald energy   TEWEN  =    -57724.72181440
  -Hartree energ DENC   =    -30346.46463476
  -exchange      EXHF   =         0.00000000
  -V(xc)+E(xc)   XCENC  =      3229.14512181
  PAW double counting   =     92607.85319952   -95462.57686455
  entropy T*S    EENTRO =        -0.00000000
  eigenvalues    EBANDS =    -10550.42699846
  atomic energy  EATOM  =     95443.47970955
  Solvation  Ediel_sol  =         0.00000000
  ---------------------------------------------------
  free energy    TOTEN  =      -489.21571502 eV

  energy without entropy =     -489.21571502  energy(sigma->0) =     -489.21571502


--------------------------------------------------------------------------------------------------------




--------------------------------------- Iteration      1(  10)  ---------------------------------------


    POTLOK:  cpu time    1.0401: real time    1.0472
    SETDIJ:  cpu time    2.2860: real time    2.3326
     EDDAV:  cpu time  440.2037: real time  444.4469
       DOS:  cpu time    0.0029: real time    0.0032
    CHARGE:  cpu time    9.2252: real time    9.3911
    MIXING:  cpu time    0.0348: real time    0.0420
    --------------------------------------------
      LOOP:  cpu time  452.7927: real time  457.2628

 eigenvalue-minimisations  : 47832
 total energy-change (2. order) : 0.9603500E-03  (-0.1903954E-03)
 number of electron     736.0000016 magnetization     128.0000003
 augmentation part      277.8910206 magnetization      84.1580822

 Broyden mixing:
  rms(total) = 0.88640E-02    rms(broyden)= 0.88603E-02
  rms(prec ) = 0.88958E-02
  weight for this iteration     100.00

 eigenvalues of (default mixing * dielectric matrix)
  average eigenvalue GAMMA=   1.0597
  2.5142  0.9321  0.6584  0.6584  0.5355

 Free energy of the ion-electron system (eV)
  ---------------------------------------------------
  alpha Z        PSCENC =      2314.49656628
  Ewald energy   TEWEN  =    -57724.72181440
  -Hartree energ DENC   =    -30347.19996995
  -exchange      EXHF   =         0.00000000
  -V(xc)+E(xc)   XCENC  =      3229.29489039
  PAW double counting   =     92661.45717357   -95516.89410488
  entropy T*S    EENTRO =        -0.00000000
  eigenvalues    EBANDS =    -10549.12720523
  atomic energy  EATOM  =     95443.47970955
  Solvation  Ediel_sol  =         0.00000000
  ---------------------------------------------------
  free energy    TOTEN  =      -489.21475467 eV

  energy without entropy =     -489.21475467  energy(sigma->0) =     -489.21475467


--------------------------------------------------------------------------------------------------------




--------------------------------------- Iteration      1(  11)  ---------------------------------------


    POTLOK:  cpu time    1.0554: real time    1.0720
    SETDIJ:  cpu time    2.2621: real time    2.2995
     EDDAV:  cpu time  359.5656: real time  363.8893
       DOS:  cpu time    0.0030: real time    0.0030
    CHARGE:  cpu time    9.4609: real time    9.4768
    MIXING:  cpu time    0.0330: real time    0.0330
    --------------------------------------------
      LOOP:  cpu time  372.3800: real time  376.7737

 eigenvalue-minimisations  : 37232
 total energy-change (2. order) :-0.7845035E-04  (-0.4966410E-04)
 number of electron     736.0000016 magnetization     128.0000004
 augmentation part      277.8938868 magnetization      84.1579034

 Broyden mixing:
  rms(total) = 0.63933E-02    rms(broyden)= 0.63912E-02
  rms(prec ) = 0.67252E-02
  weight for this iteration     100.00

 eigenvalues of (default mixing * dielectric matrix)
  average eigenvalue GAMMA=   1.0283
  2.5974  0.7439  0.7439  0.8690  0.6077  0.6077

 Free energy of the ion-electron system (eV)
  ---------------------------------------------------
  alpha Z        PSCENC =      2314.49656628
  Ewald energy   TEWEN  =    -57724.72181440
  -Hartree energ DENC   =    -30347.33521300
  -exchange      EXHF   =         0.00000000
  -V(xc)+E(xc)   XCENC  =      3229.31918536
  PAW double counting   =     92674.92081706   -95530.48903714
  entropy T*S    EENTRO =        -0.00000000
  eigenvalues    EBANDS =    -10548.88504682
  atomic energy  EATOM  =     95443.47970955
  Solvation  Ediel_sol  =         0.00000000
  ---------------------------------------------------
  free energy    TOTEN  =      -489.21483312 eV

  energy without entropy =     -489.21483312  energy(sigma->0) =     -489.21483312


--------------------------------------------------------------------------------------------------------




--------------------------------------- Iteration      1(  12)  ---------------------------------------


    POTLOK:  cpu time    1.0503: real time    1.0513
    SETDIJ:  cpu time    2.2808: real time    2.2947
     EDDAV:  cpu time  384.0461: real time  388.3848
       DOS:  cpu time    0.0026: real time    0.0074
    CHARGE:  cpu time    9.2980: real time    9.4055
    MIXING:  cpu time    0.0517: real time    0.0523
    --------------------------------------------
      LOOP:  cpu time  396.7295: real time  401.1960

 eigenvalue-minimisations  : 40432
 total energy-change (2. order) : 0.1037832E-04  (-0.5752877E-05)
 number of electron     736.0000016 magnetization     128.0000004
 augmentation part      277.8960814 magnetization      84.1578004

 Broyden mixing:
  rms(total) = 0.54437E-02    rms(broyden)= 0.54422E-02
  rms(prec ) = 0.57295E-02
  weight for this iteration     100.00

 eigenvalues of (default mixing * dielectric matrix)
  average eigenvalue GAMMA=   1.1499
  2.5506  1.3813  1.3813  0.8818  0.6621  0.6621  0.5299

 Free energy of the ion-electron system (eV)
  ---------------------------------------------------
  alpha Z        PSCENC =      2314.49656628
  Ewald energy   TEWEN  =    -57724.72181440
  -Hartree energ DENC   =    -30347.32122714
  -exchange      EXHF   =         0.00000000
  -V(xc)+E(xc)   XCENC  =      3229.31382282
  PAW double counting   =     92676.19332629   -95531.74070307
  entropy T*S    EENTRO =        -0.00000000
  eigenvalues    EBANDS =    -10548.91450307
  atomic energy  EATOM  =     95443.47970955
  Solvation  Ediel_sol  =         0.00000000
  ---------------------------------------------------
  free energy    TOTEN  =      -489.21482274 eV

  energy without entropy =     -489.21482274  energy(sigma->0) =     -489.21482274


--------------------------------------------------------------------------------------------------------




--------------------------------------- Iteration      1(  13)  ---------------------------------------


    POTLOK:  cpu time    1.0465: real time    1.0614
    SETDIJ:  cpu time    2.3014: real time    2.3356
     EDDAV:  cpu time  361.5592: real time  365.6277
       DOS:  cpu time    0.0025: real time    0.0025
    CHARGE:  cpu time    9.3437: real time    9.3889
    MIXING:  cpu time    0.0364: real time    0.0364
    --------------------------------------------
      LOOP:  cpu time  374.2897: real time  378.4524

 eigenvalue-minimisations  : 37704
 total energy-change (2. order) : 0.1719507E-04  (-0.2852566E-05)
 number of electron     736.0000016 magnetization     128.0000005
 augmentation part      277.8941977 magnetization      84.1575175

 Broyden mixing:
  rms(total) = 0.13884E-02    rms(broyden)= 0.13839E-02
  rms(prec ) = 0.14194E-02
  weight for this iteration     100.00

 eigenvalues of (default mixing * dielectric matrix)
  average eigenvalue GAMMA=   1.1911
  2.7513  1.9384  1.2566  0.9712  0.7308  0.7308  0.5749  0.5749

 Free energy of the ion-electron system (eV)
  ---------------------------------------------------
  alpha Z        PSCENC =      2314.49656628
  Ewald energy   TEWEN  =    -57724.72181440
  -Hartree energ DENC   =    -30347.25358246
  -exchange      EXHF   =         0.00000000
  -V(xc)+E(xc)   XCENC  =      3229.29424097
  PAW double counting   =     92677.20685248   -95532.68106266
  entropy T*S    EENTRO =        -0.00000000
  eigenvalues    EBANDS =    -10549.03571529
  atomic energy  EATOM  =     95443.47970955
  Solvation  Ediel_sol  =         0.00000000
  ---------------------------------------------------
  free energy    TOTEN  =      -489.21480555 eV

  energy without entropy =     -489.21480555  energy(sigma->0) =     -489.21480555


--------------------------------------------------------------------------------------------------------




--------------------------------------- Iteration      1(  14)  ---------------------------------------


    POTLOK:  cpu time    1.0462: real time    1.0490
    SETDIJ:  cpu time    2.2896: real time    2.2945
     EDDAV:  cpu time  323.1022: real time  326.6624
       DOS:  cpu time    0.0025: real time    0.0025
    CHARGE:  cpu time    9.1302: real time    9.3584
    MIXING:  cpu time    0.0401: real time    0.0408
    --------------------------------------------
      LOOP:  cpu time  335.6108: real time  339.4076

 eigenvalue-minimisations  : 32528
 total energy-change (2. order) :-0.5055525E-05  (-0.2589417E-05)
 number of electron     736.0000016 magnetization     128.0000005
 augmentation part      277.8924411 magnetization      84.1574365

 Broyden mixing:
  rms(total) = 0.89909E-03    rms(broyden)= 0.89202E-03
  rms(prec ) = 0.93095E-03
  weight for this iteration     100.00

 eigenvalues of (default mixing * dielectric matrix)
  average eigenvalue GAMMA=   1.1337
  2.8883  1.5519  1.5519  0.9350  0.7599  0.7599  0.6205  0.6205  0.5154

 Free energy of the ion-electron system (eV)
  ---------------------------------------------------
  alpha Z        PSCENC =      2314.49656628
  Ewald energy   TEWEN  =    -57724.72181440
  -Hartree energ DENC   =    -30347.25834759
  -exchange      EXHF   =         0.00000000
  -V(xc)+E(xc)   XCENC  =      3229.29076468
  PAW double counting   =     92678.58929364   -95534.05849994
  entropy T*S    EENTRO =        -0.00000000
  eigenvalues    EBANDS =    -10549.03248282
  atomic energy  EATOM  =     95443.47970955
  Solvation  Ediel_sol  =         0.00000000
  ---------------------------------------------------
  free energy    TOTEN  =      -489.21481060 eV

  energy without entropy =     -489.21481060  energy(sigma->0) =     -489.21481060


--------------------------------------------------------------------------------------------------------




--------------------------------------- Iteration      1(  15)  ---------------------------------------


    POTLOK:  cpu time    1.0531: real time    1.0680
    SETDIJ:  cpu time    2.2920: real time    2.3095
     EDDAV:  cpu time  267.1058: real time  269.8679
       DOS:  cpu time    0.0025: real time    0.0026
    CHARGE:  cpu time    9.4317: real time    9.4451
    MIXING:  cpu time    0.0416: real time    0.0416
    --------------------------------------------
      LOOP:  cpu time  279.9267: real time  282.7346

 eigenvalue-minimisations  : 25264
 total energy-change (2. order) : 0.1944281E-05  (-0.2202600E-06)
 number of electron     736.0000016 magnetization     128.0000005
 augmentation part      277.8923229 magnetization      84.1575293

 Broyden mixing:
  rms(total) = 0.48939E-03    rms(broyden)= 0.47668E-03
  rms(prec ) = 0.48993E-03
  weight for this iteration     100.00

 eigenvalues of (default mixing * dielectric matrix)
  average eigenvalue GAMMA=   1.1235
  2.8034  1.4843  1.3718  1.3718  0.8423  0.8423  0.6863  0.6863  0.5731  0.5731

 Free energy of the ion-electron system (eV)
  ---------------------------------------------------
  alpha Z        PSCENC =      2314.49656628
  Ewald energy   TEWEN  =    -57724.72181440
  -Hartree energ DENC   =    -30347.26621806
  -exchange      EXHF   =         0.00000000
  -V(xc)+E(xc)   XCENC  =      3229.29351595
  PAW double counting   =     92679.05741403   -95534.54182412
  entropy T*S    EENTRO =        -0.00000000
  eigenvalues    EBANDS =    -10549.01215790
  atomic energy  EATOM  =     95443.47970955
  Solvation  Ediel_sol  =         0.00000000
  ---------------------------------------------------
  free energy    TOTEN  =      -489.21480866 eV

  energy without entropy =     -489.21480866  energy(sigma->0) =     -489.21480866


--------------------------------------------------------------------------------------------------------




--------------------------------------- Iteration      1(  16)  ---------------------------------------


    POTLOK:  cpu time    1.0433: real time    1.0445
    SETDIJ:  cpu time    2.2795: real time    2.2820
     EDDAV:  cpu time  217.7581: real time  220.3733
       DOS:  cpu time    0.0026: real time    0.0027
    --------------------------------------------
      LOOP:  cpu time  221.0834: real time  223.7024

 eigenvalue-minimisations  : 18736
 total energy-change (2. order) :-0.7957569E-06  (-0.4337006E-07)
 number of electron     736.0000016 magnetization     128.0000005
 augmentation part      277.8923229 magnetization      84.1575293

 Free energy of the ion-electron system (eV)
  ---------------------------------------------------
  alpha Z        PSCENC =      2314.49656628
  Ewald energy   TEWEN  =    -57724.72181440
  -Hartree energ DENC   =    -30347.26144122
  -exchange      EXHF   =         0.00000000
  -V(xc)+E(xc)   XCENC  =      3229.29250917
  PAW double counting   =     92679.24301260   -95534.72669828
  entropy T*S    EENTRO =        -0.00000000
  eigenvalues    EBANDS =    -10549.01665315
  atomic energy  EATOM  =     95443.47970955
  Solvation  Ediel_sol  =         0.00000000
  ---------------------------------------------------
  free energy    TOTEN  =      -489.21480945 eV

  energy without entropy =     -489.21480945  energy(sigma->0) =     -489.21480945


--------------------------------------------------------------------------------------------------------




 average (electrostatic) potential at core
  the test charge radii are     0.7079  0.7215  0.9698  0.9500
  (the norm of the test charge is              1.0000)
       1 -58.9485       2 -58.9492       3 -58.9488       4 -58.9506       5 -58.9497
       6 -58.9482       7 -58.9482       8 -58.9481       9 -58.9479      10 -58.9477
      11 -58.9480      12 -58.9415      13 -58.9429      14 -58.9486      15 -58.9486
      16 -58.9487      17 -69.7966      18 -69.8165      19 -69.8162      20 -69.8162
      21 -69.8160      22 -69.8151      23 -69.8155      24 -69.8159      25 -69.8174
      26 -69.8178      27 -69.8162      28 -69.8166      29 -69.8163      30 -69.8176
      31 -69.8164      32 -69.8179      33 -85.5805      34 -85.5805      35 -85.5806
      36 -85.5806      37 -85.5799      38 -85.5899      39 -85.5801      40 -85.5800
      41 -85.5791      42 -85.5798      43 -85.5793      44 -85.5798      45 -85.5813
      46 -85.5776      47 -85.5797      48 -85.5798      49 -85.6374      50 -85.6390
      51 -85.6377      52 -85.6388      53 -85.6376      54 -85.6385      55 -85.6386
      56 -85.6388      57 -78.5786      58 -78.5735      59 -78.5736      60 -78.5741
      61 -78.5743      62 -78.5736      63 -78.5740      64 -78.5739      65 -78.5758
      66 -78.5760      67 -78.5743      68 -78.5744      69 -78.5744      70 -78.5753
      71 -78.5745      72 -78.5764      73 -78.5820      74 -78.5821      75 -78.5833
      76 -78.5821      77 -78.5913      78 -78.5932      79 -78.5913      80 -78.5920
      81 -78.5912      82 -78.5913      83 -78.5866      84 -78.5914      85 -78.5820
      86 -78.5766      87 -78.5817      88 -78.5817
 
 
 
 E-fermi :   5.2045     XC(G=0): -10.4850     alpha+bet :-11.8156


 spin component 1

 k-point     1 :       0.0000    0.0000    0.0000
  band No.  band energies     occupation 
      1     -51.0572      1.00000
      2     -51.0559      1.00000
      3     -51.0557      1.00000
      4     -51.0547      1.00000
      5     -51.0545      1.00000
      6     -51.0542      1.00000
      7     -51.0541      1.00000
      8     -51.0539      1.00000
      9     -51.0535      1.00000
     10     -51.0530      1.00000
     11     -51.0528      1.00000
     12     -51.0525      1.00000
     13     -51.0523      1.00000
     14     -51.0520      1.00000
     15     -51.0512      1.00000
     16     -51.0506      1.00000
     17     -51.0455      1.00000
     18     -51.0447      1.00000
     19     -51.0440      1.00000
     20     -51.0440      1.00000
     21     -51.0439      1.00000
     22     -51.0437      1.00000
     23     -51.0437      1.00000
     24     -51.0406      1.00000
     25     -51.0397      1.00000
     26     -51.0396      1.00000
     27     -51.0395      1.00000
     28     -51.0395      1.00000
     29     -51.0394      1.00000
     30     -51.0391      1.00000
     31     -51.0390      1.00000
     32     -51.0341      1.00000
     33     -49.7034      1.00000
     34     -49.7020      1.00000
     35     -49.7014      1.00000
     36     -49.7014      1.00000
     37     -49.7014      1.00000
     38     -49.7013      1.00000
     39     -49.7013      1.00000
     40     -49.6963      1.00000
     41     -49.6956      1.00000
     42     -49.6942      1.00000
     43     -49.6942      1.00000
     44     -49.6941      1.00000
     45     -49.6941      1.00000
     46     -49.6938      1.00000
     47     -49.6938      1.00000
     48     -49.6879      1.00000
     49     -49.6011      1.00000
     50     -49.5992      1.00000
     51     -49.5989      1.00000
     52     -49.5986      1.00000
     53     -49.5982      1.00000
     54     -49.5978      1.00000
     55     -49.5975      1.00000
     56     -49.5970      1.00000
     57     -49.5969      1.00000
     58     -49.5969      1.00000
     59     -49.5964      1.00000
     60     -49.5963      1.00000
     61     -49.5961      1.00000
     62     -49.5961      1.00000
     63     -49.5959      1.00000
     64     -49.5957      1.00000
     65     -49.5691      1.00000
     66     -49.5682      1.00000
     67     -49.5673      1.00000
     68     -49.5670      1.00000
     69     -49.5667      1.00000
     70     -49.5665      1.00000
     71     -49.5660      1.00000
     72     -49.5656      1.00000
     73     -49.5653      1.00000
     74     -49.5650      1.00000
     75     -49.5648      1.00000
     76     -49.5647      1.00000
     77     -49.5644      1.00000
     78     -49.5642      1.00000
     79     -49.5639      1.00000
     80     -49.5636      1.00000
     81     -49.5556      1.00000
     82     -49.5545      1.00000
     83     -49.5540      1.00000
     84     -49.5539      1.00000
     85     -49.5539      1.00000
     86     -49.5538      1.00000
     87     -49.5537      1.00000
     88     -49.5500      1.00000
     89     -49.5405      1.00000
     90     -49.5396      1.00000
     91     -49.5395      1.00000
     92     -49.5394      1.00000
     93     -49.5393      1.00000
     94     -49.5392      1.00000
     95     -49.5392      1.00000
     96     -49.5350      1.00000
     97     -39.8670      1.00000
     98     -39.8667      1.00000
     99     -39.8656      1.00000
    100     -39.8654      1.00000
    101     -39.8653      1.00000
    102     -39.8651      1.00000
    103     -39.8651      1.00000
    104     -39.8650      1.00000
    105     -39.8648      1.00000
    106     -39.8647      1.00000
    107     -39.8647      1.00000
    108     -39.8646      1.00000
    109     -39.8645      1.00000
    110     -39.8643      1.00000
    111     -39.8592      1.00000
    112     -39.8583      1.00000
    113     -13.2255      1.00000
    114     -13.2218      1.00000
    115     -13.2088      1.00000
    116     -13.1819      1.00000
    117     -13.1008      1.00000
    118     -13.0991      1.00000
    119     -13.0972      1.00000
    120     -13.0911      1.00000
    121     -13.0853      1.00000
    122     -13.0802      1.00000
    123     -13.0788      1.00000
    124     -13.0701      1.00000
    125     -12.9869      1.00000
    126     -12.9751      1.00000
    127     -12.9426      1.00000
    128     -12.9366      1.00000
    129      -7.6462      1.00000
    130      -7.4066      1.00000
    131      -7.3269      1.00000
    132      -7.3259      1.00000
    133      -7.3096      1.00000
    134      -7.3089      1.00000
    135      -7.3087      1.00000
    136      -7.3072      1.00000
    137      -7.1709      1.00000
    138      -7.1573      1.00000
    139      -7.1249      1.00000
    140      -7.1237      1.00000
    141      -7.0364      1.00000
    142      -7.0230      1.00000
    143      -7.0044      1.00000
    144      -7.0020      1.00000
    145      -6.9427      1.00000
    146      -6.9408      1.00000
    147      -6.8894      1.00000
    148      -6.8874      1.00000
    149      -6.8672      1.00000
    150      -6.8619      1.00000
    151      -6.8356      1.00000
    152      -6.8046      1.00000
    153      -1.9362      1.00000
    154      -1.9330      1.00000
    155      -1.9094      1.00000
    156      -1.8921      1.00000
    157      -1.6658      1.00000
    158      -1.6652      1.00000
    159      -1.6577      1.00000
    160      -1.6554      1.00000
    161      -1.5988      1.00000
    162      -1.5967      1.00000
    163      -1.5852      1.00000
    164      -1.5843      1.00000
    165      -1.2978      1.00000
    166      -1.1747      1.00000
    167      -1.1734      1.00000
    168      -1.1134      1.00000
    169      -1.1120      1.00000
    170      -1.1064      1.00000
    171      -1.0485      1.00000
    172      -0.9801      1.00000
    173      -0.9635      1.00000
    174      -0.9590      1.00000
    175      -0.9581      1.00000
    176      -0.9565      1.00000
    177      -0.9462      1.00000
    178      -0.9455      1.00000
    179      -0.9218      1.00000
    180      -0.8718      1.00000
    181      -0.8683      1.00000
    182      -0.8032      1.00000
    183      -0.8027      1.00000
    184      -0.8004      1.00000
    185      -0.7747      1.00000
    186      -0.7739      1.00000
    187      -0.7724      1.00000
    188      -0.7607      1.00000
    189      -0.7163      1.00000
    190      -0.7154      1.00000
    191      -0.7056      1.00000
    192      -0.7046      1.00000
    193      -0.6999      1.00000
    194      -0.6980      1.00000
    195      -0.6096      1.00000
    196      -0.6088      1.00000
    197      -0.5611      1.00000
    198      -0.5609      1.00000
    199      -0.5489      1.00000
    200      -0.5478      1.00000
    201      -0.4084      1.00000
    202      -0.4077      1.00000
    203      -0.3576      1.00000
    204      -0.3475      1.00000
    205      -0.3296      1.00000
    206      -0.3293      1.00000
    207      -0.2990      1.00000
    208      -0.2983      1.00000
    209      -0.2811      1.00000
    210      -0.2696      1.00000
    211      -0.2626      1.00000
    212      -0.2563      1.00000
    213      -0.2545      1.00000
    214      -0.2091      1.00000
    215      -0.2089      1.00000
    216      -0.1889      1.00000
    217      -0.1868      1.00000
    218      -0.1860      1.00000
    219      -0.1760      1.00000
    220      -0.1580      1.00000
    221      -0.1258      1.00000
    222      -0.1254      1.00000
    223      -0.1093      1.00000
    224      -0.0715      1.00000
    225      -0.0700      1.00000
    226      -0.0608      1.00000
    227      -0.0440      1.00000
    228      -0.0180      1.00000
    229      -0.0176      1.00000
    230      -0.0112      1.00000
    231       0.0013      1.00000
    232       0.0017      1.00000
    233       0.0462      1.00000
    234       0.0491      1.00000
    235       0.0497      1.00000
    236       0.0912      1.00000
    237       0.0936      1.00000
    238       0.1178      1.00000
    239       0.1181      1.00000
    240       0.1583      1.00000
    241       0.1621      1.00000
    242       0.1770      1.00000
    243       0.1791      1.00000
    244       0.1821      1.00000
    245       0.1825      1.00000
    246       0.1848      1.00000
    247       0.1887      1.00000
    248       0.1939      1.00000
    249       0.1945      1.00000
    250       0.2008      1.00000
    251       0.2011      1.00000
    252       0.2390      1.00000
    253       0.2508      1.00000
    254       0.2565      1.00000
    255       0.2567      1.00000
    256       0.2767      1.00000
    257       0.3367      1.00000
    258       0.3467      1.00000
    259       0.3589      1.00000
    260       0.3592      1.00000
    261       0.3603      1.00000
    262       0.3608      1.00000
    263       0.3884      1.00000
    264       0.4020      1.00000
    265       0.4524      1.00000
    266       0.4526      1.00000
    267       0.5789      1.00000
    268       0.5791      1.00000
    269       0.5845      1.00000
    270       0.6017      1.00000
    271       0.6018      1.00000
    272       0.6068      1.00000
    273       0.6072      1.00000
    274       0.6403      1.00000
    275       0.6514      1.00000
    276       0.6518      1.00000
    277       0.6623      1.00000
    278       0.6629      1.00000
    279       0.6651      1.00000
    280       0.6728      1.00000
    281       0.6744      1.00000
    282       0.6747      1.00000
    283       0.6968      1.00000
    284       0.7226      1.00000
    285       0.7829      1.00000
    286       0.8193      1.00000
    287       0.8292      1.00000
    288       0.8316      1.00000
    289       0.8319      1.00000
    290       0.8608      1.00000
    291       0.8615      1.00000
    292       0.9084      1.00000
    293       0.9399      1.00000
    294       0.9483      1.00000
    295       0.9488      1.00000
    296       0.9830      1.00000
    297       1.0255      1.00000
    298       1.0702      1.00000
    299       1.2691      1.00000
    300       1.2979      1.00000
    301       1.2983      1.00000
    302       1.3115      1.00000
    303       1.3324      1.00000
    304       1.3332      1.00000
    305       1.3375      1.00000
    306       1.3843      1.00000
    307       1.4050      1.00000
    308       1.4283      1.00000
    309       1.4668      1.00000
    310       1.4676      1.00000
    311       1.4680      1.00000
    312       1.4808      1.00000
    313       1.5107      1.00000
    314       1.5112      1.00000
    315       1.5409      1.00000
    316       1.5613      1.00000
    317       1.5769      1.00000
    318       1.6460      1.00000
    319       1.6557      1.00000
    320       1.7559      1.00000
    321       1.7561      1.00000
    322       1.7628      1.00000
    323       1.7778      1.00000
    324       1.8027      1.00000
    325       1.8035      1.00000
    326       1.8113      1.00000
    327       1.8228      1.00000
    328       1.8362      1.00000
    329       1.8370      1.00000
    330       1.8458      1.00000
    331       1.8473      1.00000
    332       1.8788      1.00000
    333       1.8901      1.00000
    334       1.9465      1.00000
    335       1.9931      1.00000
    336       1.9938      1.00000
    337       2.0059      1.00000
    338       2.0066      1.00000
    339       2.0098      1.00000
    340       2.0184      1.00000
    341       2.0196      1.00000
    342       2.0202      1.00000
    343       2.0397      1.00000
    344       2.0457      1.00000
    345       2.0467      1.00000
    346       2.0564      1.00000
    347       2.0682      1.00000
    348       2.0688      1.00000
    349       2.0916      1.00000
    350       2.1129      1.00000
    351       2.1902      1.00000
    352       2.1925      1.00000
    353       2.2473      1.00000
    354       2.2475      1.00000
    355       2.2710      1.00000
    356       2.2734      1.00000
    357       2.2849      1.00000
    358       2.4283      1.00000
    359       2.4662      1.00000
    360       2.4666      1.00000
    361       2.4777      1.00000
    362       2.5037      1.00000
    363       2.5276      1.00000
    364       2.5544      1.00000
    365       2.5927      1.00000
    366       2.6269      1.00000
    367       2.6275      1.00000
    368       2.6563      1.00000
    369       2.7380      1.00000
    370       2.7407      1.00000
    371       2.7606      1.00000
    372       2.7613      1.00000
    373       2.8335      1.00000
    374       2.8722      1.00000
    375       2.9264      1.00000
    376       2.9338      1.00000
    377       2.9348      1.00000
    378       2.9694      1.00000
    379       3.0271      1.00000
    380       3.0274      1.00000
    381       3.0620      1.00000
    382       3.0964      1.00000
    383       3.3079      1.00000
    384       3.3108      1.00000
    385       3.3483      1.00000
    386       3.3749      1.00000
    387       3.4216      1.00000
    388       3.4221      1.00000
    389       3.4398      1.00000
    390       3.4582      1.00000
    391       3.4589      1.00000
    392       3.5320      1.00000
    393       3.7478      1.00000
    394       3.8086      1.00000
    395       3.8093      1.00000
    396       3.8152      1.00000
    397       3.8157      1.00000
    398       3.8828      1.00000
    399       3.8829      1.00000
    400       3.9326      1.00000
    401       3.9354      1.00000
    402       3.9406      1.00000
    403       3.9410      1.00000
    404       4.0394      1.00000
    405       4.0395      1.00000
    406       4.0704      1.00000
    407       4.1388      1.00000
    408       4.1492      1.00000
    409       4.1513      1.00000
    410       4.3152      1.00000
    411       4.3181      1.00000
    412       4.3383      1.00000
    413       4.3587      1.00000
    414       4.3589      1.00000
    415       4.4283      1.00000
    416       4.4447      1.00000
    417       4.4465      1.00000
    418       4.4535      1.00000
    419       4.4557      1.00000
    420       4.4560      1.00000
    421       4.6351      1.00000
    422       4.6364      1.00000
    423       4.7315      1.00000
    424       4.7319      1.00000
    425       4.7633      1.00000
    426       4.7637      1.00000
    427       4.7683      1.00000
    428       4.7693      1.00000
    429       4.8098      1.00000
    430       4.8519      1.00000
    431       4.8533      1.00000
    432       4.8569      1.00000
    433       7.3436      0.00000
    434       8.1283      0.00000
    435       8.4447      0.00000
    436       8.6419      0.00000
    437       8.6434      0.00000
    438       8.8578      0.00000
    439       9.0845      0.00000
    440       9.0847      0.00000
    441       9.2613      0.00000
    442       9.2735      0.00000
    443       9.2880      0.00000
    444       9.2892      0.00000
    445       9.7268      0.00000
    446       9.7715      0.00000
    447       9.7727      0.00000
    448       9.7901      0.00000
    449       9.8545      0.00000
    450       9.8554      0.00000
    451       9.8596      0.00000
    452       9.8793      0.00000
    453       9.8897      0.00000
    454      10.0602      0.00000
    455      10.0828      0.00000
    456      10.1358      0.00000
    457      10.1363      0.00000
    458      10.3060      0.00000
    459      10.3065      0.00000
    460      10.4159      0.00000
    461      10.5258      0.00000
    462      10.5707      0.00000
    463      10.5720      0.00000
    464      10.5722      0.00000
    465      10.5774      0.00000
    466      10.5783      0.00000
    467      10.6755      0.00000
    468      10.9755      0.00000
    469      11.0193      0.00000
    470      11.0197      0.00000
    471      11.0400      0.00000
    472      11.0404      0.00000
    473      11.0772      0.00000
    474      11.1278      0.00000
    475      11.1782      0.00000
[...]
   -.177E-01 0.553E-01 -.259E+02   0.173E-01 -.556E-01 0.257E+02   0.306E-03 -.108E-03 0.250E+00   -.801E-05 0.184E-04 0.174E-04
   0.250E-01 -.105E-01 -.259E+02   -.251E-01 0.993E-02 0.257E+02   0.355E-04 0.113E-03 0.250E+00   -.510E-05 -.424E-06 0.112E-04
   -.203E+00 -.247E+00 -.257E+02   0.216E+00 0.261E+00 0.255E+02   -.793E-02 -.844E-02 0.252E+00   -.531E-05 0.129E-04 0.290E-04
   0.226E+00 0.183E+00 -.419E+02   -.238E+00 -.194E+00 0.419E+02   0.745E-02 0.625E-02 0.135E-01   -.107E-04 -.196E-04 -.641E-04
   -.504E-01 0.319E-01 -.420E+02   0.517E-01 -.302E-01 0.420E+02   -.890E-03 -.158E-02 0.112E-01   0.130E-05 0.293E-05 -.185E-04
   0.266E-01 -.188E-01 -.421E+02   -.260E-01 0.207E-01 0.421E+02   -.529E-03 -.152E-02 0.108E-01   -.103E-04 -.752E-05 -.265E-04
   -.810E-02 0.304E-02 -.421E+02   0.866E-02 -.168E-02 0.420E+02   -.547E-03 -.130E-02 0.110E-01   -.134E-04 -.124E-04 -.204E-04
   0.160E+02 0.147E+02 -.123E+03   -.164E+02 -.150E+02 0.128E+03   0.391E+00 0.368E+00 -.448E+01   0.200E-04 0.190E-03 0.573E-04
   0.158E+02 0.149E+02 -.126E+03   -.162E+02 -.153E+02 0.131E+03   0.383E+00 0.380E+00 -.463E+01   -.667E-04 0.539E-04 0.282E-05
   0.159E+02 0.149E+02 -.126E+03   -.163E+02 -.153E+02 0.131E+03   0.386E+00 0.380E+00 -.463E+01   -.759E-04 0.489E-04 -.233E-04
   0.159E+02 0.149E+02 -.126E+03   -.163E+02 -.153E+02 0.131E+03   0.387E+00 0.380E+00 -.463E+01   -.519E-04 0.712E-04 0.299E-04
   -.158E+02 -.148E+02 -.126E+03   0.162E+02 0.152E+02 0.131E+03   -.387E+00 -.378E+00 -.463E+01   0.350E-04 -.558E-04 -.413E-05
   -.161E+02 -.148E+02 -.126E+03   0.165E+02 0.151E+02 0.131E+03   -.394E+00 -.375E+00 -.463E+01   -.282E-04 0.167E-04 0.101E-03
   -.158E+02 -.150E+02 -.126E+03   0.162E+02 0.153E+02 0.131E+03   -.385E+00 -.382E+00 -.463E+01   0.630E-04 -.416E-04 0.622E-04
   -.160E+02 -.150E+02 -.126E+03   0.164E+02 0.154E+02 0.131E+03   -.392E+00 -.382E+00 -.463E+01   -.204E-04 -.795E-04 0.458E-04
   0.158E+02 -.149E+02 0.126E+03   -.162E+02 0.153E+02 -.131E+03   0.381E+00 -.380E+00 0.464E+01   -.118E-03 -.302E-04 0.857E-04
   0.160E+02 -.149E+02 0.126E+03   -.164E+02 0.153E+02 -.131E+03   0.399E+00 -.379E+00 0.463E+01   0.436E-04 -.531E-04 0.218E-04
   0.159E+02 -.149E+02 0.126E+03   -.163E+02 0.153E+02 -.131E+03   0.389E+00 -.379E+00 0.463E+01   -.245E-04 -.418E-04 0.954E-05
   0.159E+02 -.149E+02 0.126E+03   -.163E+02 0.153E+02 -.131E+03   0.390E+00 -.379E+00 0.463E+01   -.130E-04 -.307E-04 -.222E-04
   -.159E+02 0.149E+02 0.126E+03   0.163E+02 -.153E+02 -.131E+03   -.386E+00 0.381E+00 0.463E+01   0.592E-04 0.759E-04 0.235E-04
   -.159E+02 0.148E+02 0.126E+03   0.163E+02 -.152E+02 -.131E+03   -.388E+00 0.372E+00 0.463E+01   0.349E-04 -.153E-05 0.219E-04
   -.159E+02 0.149E+02 0.126E+03   0.163E+02 -.153E+02 -.131E+03   -.386E+00 0.380E+00 0.463E+01   0.655E-04 0.210E-04 -.783E-05
   -.159E+02 0.150E+02 0.126E+03   0.163E+02 -.154E+02 -.131E+03   -.387E+00 0.389E+00 0.463E+01   0.679E-04 0.132E-03 0.506E-04
   0.279E+02 0.280E+02 0.334E+02   -.282E+02 -.284E+02 -.339E+02   0.349E+00 0.351E+00 0.519E+00   -.526E-04 -.570E-05 0.366E-04
   0.281E+02 0.281E+02 0.333E+02   -.284E+02 -.285E+02 -.338E+02   0.352E+00 0.351E+00 0.517E+00   -.144E-04 0.176E-04 0.337E-04
   0.279E+02 0.283E+02 0.334E+02   -.282E+02 -.287E+02 -.339E+02   0.348E+00 0.356E+00 0.519E+00   -.425E-04 0.392E-04 0.159E-04
   0.281E+02 0.282E+02 0.333E+02   -.284E+02 -.286E+02 -.338E+02   0.353E+00 0.355E+00 0.518E+00   0.604E-05 0.397E-04 -.562E-05
   -.280E+02 -.282E+02 0.333E+02   0.283E+02 0.286E+02 -.339E+02   -.350E+00 -.354E+00 0.518E+00   -.159E-04 -.481E-04 0.418E-04
   -.276E+02 -.281E+02 0.350E+02   0.279E+02 0.284E+02 -.355E+02   -.348E+00 -.355E+00 0.477E+00   0.543E-04 -.936E-04 0.233E-04
   -.279E+02 -.282E+02 0.333E+02   0.283E+02 0.286E+02 -.338E+02   -.349E+00 -.354E+00 0.519E+00   0.119E-04 -.264E-04 0.172E-04
   -.279E+02 -.282E+02 0.333E+02   0.283E+02 0.286E+02 -.338E+02   -.349E+00 -.353E+00 0.517E+00   0.365E-04 -.324E-04 0.588E-05
   0.281E+02 -.280E+02 -.339E+02   -.284E+02 0.284E+02 0.344E+02   0.352E+00 -.351E+00 -.530E+00   -.501E-05 -.376E-04 -.243E-04
   0.279E+02 -.282E+02 -.334E+02   -.282E+02 0.286E+02 0.339E+02   0.348E+00 -.354E+00 -.519E+00   -.106E-04 -.290E-04 -.171E-04
   0.280E+02 -.283E+02 -.337E+02   -.284E+02 0.287E+02 0.343E+02   0.351E+00 -.358E+00 -.528E+00   0.230E-04 -.650E-04 -.680E-04
   0.279E+02 -.282E+02 -.334E+02   -.282E+02 0.286E+02 0.339E+02   0.349E+00 -.354E+00 -.519E+00   -.365E-04 -.459E-04 -.241E-04
   -.282E+02 0.282E+02 -.340E+02   0.285E+02 -.286E+02 0.345E+02   -.350E+00 0.353E+00 -.530E+00   0.306E-04 0.154E-04 -.319E-04
   -.284E+02 0.282E+02 -.337E+02   0.287E+02 -.285E+02 0.342E+02   -.360E+00 0.353E+00 -.528E+00   0.137E-04 0.524E-04 -.334E-04
   -.280E+02 0.282E+02 -.334E+02   0.284E+02 -.285E+02 0.339E+02   -.350E+00 0.353E+00 -.519E+00   0.280E-04 0.484E-04 -.177E-04
   -.280E+02 0.282E+02 -.334E+02   0.284E+02 -.285E+02 0.339E+02   -.351E+00 0.353E+00 -.519E+00   0.299E-04 0.160E-04 -.718E-05
   0.989E+01 0.154E+00 0.172E+00   -.100E+02 -.157E+00 -.173E+00   0.115E+00 0.392E-02 0.316E-02   -.873E-04 0.490E-04 0.279E-04
   0.991E+01 0.522E-01 0.417E-01   -.100E+02 -.525E-01 -.420E-01   0.115E+00 0.165E-03 0.852E-03   -.226E-04 0.430E-04 -.658E-05
   0.990E+01 -.507E-01 0.146E+00   -.100E+02 0.520E-01 -.148E+00   0.114E+00 -.268E-02 0.324E-02   -.313E-04 -.450E-04 0.335E-04
   0.991E+01 0.421E-01 0.382E-01   -.100E+02 -.425E-01 -.384E-01   0.115E+00 0.389E-03 0.695E-03   -.418E-04 0.840E-05 0.103E-05
   -.979E+01 0.417E-01 0.136E+00   0.990E+01 -.427E-01 -.137E+00   -.111E+00 0.103E-02 0.236E-02   0.640E-04 -.318E-04 -.911E-05
   -.100E+02 0.432E-01 0.249E+00   0.101E+02 -.432E-01 -.253E+00   -.119E+00 -.265E-03 0.759E-02   0.366E-04 0.522E-04 0.295E-04
   -.988E+01 0.493E-01 0.352E-01   0.100E+02 -.496E-01 -.354E-01   -.114E+00 0.267E-03 0.256E-03   0.384E-04 0.104E-04 -.102E-04
   -.992E+01 0.487E-01 0.614E-01   0.100E+02 -.492E-01 -.616E-01   -.115E+00 0.607E-03 0.572E-03   0.382E-04 0.286E-05 -.908E-05
   0.199E+02 0.189E+02 0.177E+03   -.188E+02 -.178E+02 -.175E+03   -.107E+01 -.109E+01 -.218E+01   0.633E-03 0.365E-04 -.135E-02
   0.189E+02 0.189E+02 0.185E+03   -.178E+02 -.179E+02 -.182E+03   -.107E+01 -.108E+01 -.241E+01   -.105E-03 0.386E-04 -.176E-04
   0.191E+02 0.189E+02 0.185E+03   -.180E+02 -.179E+02 -.182E+03   -.106E+01 -.109E+01 -.241E+01   -.157E-05 0.558E-04 0.514E-04
   0.190E+02 0.189E+02 0.185E+03   -.179E+02 -.179E+02 -.183E+03   -.106E+01 -.108E+01 -.241E+01   0.121E-04 0.487E-04 0.141E-04
   -.190E+02 -.191E+02 0.185E+03   0.179E+02 0.180E+02 -.182E+03   0.106E+01 0.108E+01 -.241E+01   0.189E-04 -.123E-03 -.113E-03
   -.190E+02 -.187E+02 0.185E+03   0.180E+02 0.176E+02 -.182E+03   0.106E+01 0.109E+01 -.241E+01   -.176E-04 -.534E-05 -.159E-03
   -.190E+02 -.187E+02 0.185E+03   0.179E+02 0.176E+02 -.182E+03   0.107E+01 0.109E+01 -.241E+01   0.182E-04 -.236E-04 -.134E-03
   -.190E+02 -.190E+02 0.185E+03   0.179E+02 0.179E+02 -.182E+03   0.106E+01 0.108E+01 -.241E+01   -.101E-04 -.132E-03 -.125E-03
   0.179E+02 -.188E+02 -.185E+03   -.168E+02 0.177E+02 0.182E+03   -.108E+01 0.109E+01 0.241E+01   -.318E-03 -.920E-04 0.352E-04
   0.196E+02 -.188E+02 -.185E+03   -.185E+02 0.177E+02 0.183E+03   -.104E+01 0.109E+01 0.240E+01   0.268E-03 -.110E-03 0.131E-03
   0.188E+02 -.189E+02 -.185E+03   -.178E+02 0.178E+02 0.183E+03   -.106E+01 0.108E+01 0.241E+01   -.304E-04 -.192E-04 -.900E-05
   0.190E+02 -.189E+02 -.185E+03   -.179E+02 0.178E+02 0.183E+03   -.106E+01 0.108E+01 0.241E+01   -.372E-04 -.742E-04 0.134E-03
   -.191E+02 0.189E+02 -.185E+03   0.180E+02 -.178E+02 0.183E+03   0.106E+01 -.108E+01 0.241E+01   -.150E-04 0.591E-04 0.767E-04
   -.188E+02 0.181E+02 -.185E+03   0.177E+02 -.170E+02 0.183E+03   0.106E+01 -.110E+01 0.240E+01   0.284E-04 -.155E-03 -.694E-04
   -.191E+02 0.190E+02 -.185E+03   0.180E+02 -.179E+02 0.183E+03   0.106E+01 -.109E+01 0.241E+01   -.503E-04 0.399E-04 0.262E-04
   -.188E+02 0.197E+02 -.185E+03   0.177E+02 -.187E+02 0.183E+03   0.106E+01 -.106E+01 0.240E+01   0.149E-04 0.354E-03 -.736E-04
   -.309E-01 -.119E+00 0.209E+03   0.364E-01 0.117E+00 -.211E+03   -.440E-02 0.159E-02 0.207E+01   -.352E-04 -.171E-04 -.113E-03
   0.607E-01 -.787E-01 0.209E+03   -.627E-01 0.764E-01 -.211E+03   0.170E-02 0.223E-02 0.206E+01   0.210E-04 -.225E-04 -.154E-03
   -.140E+00 0.183E-01 0.209E+03   0.149E+00 -.278E-01 -.212E+03   -.663E-02 0.775E-02 0.208E+01   -.111E-03 0.810E-04 0.145E-03
   0.111E+00 -.606E-01 0.209E+03   -.117E+00 0.580E-01 -.211E+03   0.520E-02 0.262E-02 0.207E+01   -.539E-04 -.164E-03 -.171E-03
   -.192E-01 -.371E-01 0.199E+03   0.216E-01 0.379E-01 -.201E+03   -.167E-02 -.339E-03 0.207E+01   -.133E-03 -.774E-04 -.102E-03
   0.140E+00 -.143E+00 0.199E+03   -.146E+00 0.148E+00 -.202E+03   0.488E-02 -.309E-02 0.208E+01   0.246E-03 0.337E-04 -.739E-04
   0.431E-02 -.589E-01 0.199E+03   -.670E-02 0.581E-01 -.201E+03   0.214E-02 0.879E-03 0.207E+01   -.488E-04 -.234E-05 -.191E-03
   0.467E-01 -.700E-02 0.199E+03   -.496E-01 0.175E-02 -.201E+03   0.235E-02 0.445E-02 0.206E+01   0.351E-04 0.851E-04 -.211E-03
   0.916E-01 0.139E+00 -.199E+03   -.919E-01 -.143E+00 0.201E+03   0.334E-03 0.306E-02 -.206E+01   -.166E-04 0.733E-04 0.183E-03
   -.946E-01 0.213E-02 -.199E+03   0.977E-01 -.654E-02 0.201E+03   -.259E-02 0.385E-02 -.206E+01   -.218E-04 0.434E-04 0.241E-03
   0.821E+00 -.839E+00 -.198E+03   -.868E+00 0.883E+00 0.201E+03   0.352E-01 -.329E-01 -.205E+01   0.383E-03 -.284E-03 0.271E-03
   -.266E+00 -.149E+00 -.199E+03   0.268E+00 0.146E+00 0.201E+03   -.152E-02 0.265E-02 -.206E+01   -.158E-04 -.129E-04 0.274E-03
   0.125E+00 -.200E-01 -.209E+03   -.125E+00 0.190E-01 0.211E+03   0.213E-03 0.150E-02 -.207E+01   -.133E-04 -.124E-04 0.598E-04
   -.912E+00 0.812E+00 -.208E+03   0.962E+00 -.859E+00 0.210E+03   -.373E-01 0.355E-01 -.205E+01   -.329E-03 0.258E-03 0.263E-03
   0.114E-01 -.982E-01 -.209E+03   -.133E-01 0.973E-01 0.211E+03   0.137E-02 0.119E-02 -.206E+01   0.763E-04 -.448E-04 0.159E-03
   -.816E-01 -.254E+00 -.209E+03   0.822E-01 0.254E+00 0.211E+03   -.667E-03 0.895E-03 -.207E+01   0.522E-04 -.134E-03 0.161E-03
 -----------------------------------------------------------------------------------------------
   0.172E-01 -.215E-01 -.375E+00   0.297E-13 -.843E-13 -.853E-12   -.176E-01 0.204E-01 0.375E+00   0.493E-03 -.944E-04 -.277E-03
 
 
 POSITION                                       TOTAL-FORCE (eV/Angst)
 -----------------------------------------------------------------------------------
      2.77841      5.21785      1.58925        -0.000146     -0.000101     -0.000459
      8.33453      5.21785      1.58910        -0.000051      0.000267     -0.000158
      2.77841     10.77658      1.58925         0.000219     -0.000014     -0.000659
      8.33453     10.77658      1.58910        -0.000893     -0.000878     -0.002032
      0.00058      2.43861      1.89560         0.001314      0.001201     -0.002098
      5.55670      2.43861      1.89545        -0.000527      0.000029     -0.000325
      0.00058      7.99734      1.89560         0.000336     -0.000203     -0.000368
      5.55670      7.99734      1.89545        -0.000167     -0.000019     -0.000203
      2.78043      5.21797      8.30298        -0.000029      0.000055     -0.000064
      8.33655      5.21797      8.30283        -0.000126     -0.000408      0.000285
      2.78043     10.77670      8.30298        -0.000156     -0.000421      0.000566
      8.33655     10.77670      8.30283         0.005044      0.005226     -0.003170
      0.00259      2.43849      8.60933        -0.004808     -0.004183     -0.002707
      5.55871      2.43849      8.60919         0.000417      0.000134     -0.000213
      0.00259      7.99722      8.60933         0.000020      0.000358      0.000182
      5.55871      7.99722      8.60919        -0.000001      0.000055      0.000000
     -1.37640      1.05960      8.18451         0.005134      0.003172     -0.057441
      4.17971      1.05960      8.18437        -0.000949      0.000103     -0.000390
     -1.37640      6.61833      8.18451         0.000117     -0.000048     -0.000470
      4.17971      6.61833      8.18437         0.000203     -0.000038     -0.000084
      1.38116      3.81753      8.18442         0.000567      0.000103     -0.000555
      6.93728      3.81753      8.18427        -0.002049      0.001958     -0.000360
      1.38116      9.37626      8.18442         0.001488     -0.001334     -0.000828
      6.93728      9.37626      8.18427        -0.000692     -0.000572     -0.000035
      1.39985      1.03817      2.01416        -0.002475     -0.000485      0.002367
      6.95597      1.03817      2.01401         0.003390      0.000445      0.001995
      1.39985      6.59689      2.01416         0.000101      0.000026      0.000849
      6.95597      6.59689      2.01401         0.000236      0.000125      0.000267
      4.15741      3.83897      2.01406         0.000055      0.000174      0.000618
      9.71353      3.83897      2.01392        -0.000797     -0.002590      0.001617
      4.15741      9.39769      2.01406         0.000043     -0.000035      0.000604
      9.71353      9.39769      2.01392        -0.000002      0.002827      0.001917
      1.40044      3.83812      3.78391        -0.000620     -0.000907      0.000054
      6.95656      3.83812      3.78377         0.000609     -0.000766     -0.000575
      1.40044      9.39685      3.78391        -0.000868      0.000758      0.000002
      6.95656      9.39685      3.78377         0.000881      0.000606     -0.000499
      4.15774      1.03891      3.78384        -0.000319      0.000090     -0.000310
      9.71386      1.03891      3.78369        -0.001063     -0.001674     -0.038912
      4.15774      6.59764      3.78384         0.000110      0.000155      0.000184
      9.71386      6.59764      3.78369        -0.000004      0.000284     -0.000622
     -1.37674      3.81828      6.41474         0.000199     -0.000835     -0.005115
      4.17938      3.81828      6.41460        -0.000471      0.000266     -0.000438
     -1.37674      9.37700      6.41474         0.000430     -0.000354     -0.004143
      4.17938      9.37700      6.41460        -0.000217      0.000037     -0.000501
      1.38057      1.05876      6.41466         0.000541     -0.000582     -0.004696
      6.93668      1.05876      6.41452        -0.001989     -0.000046     -0.003935
      1.38057      6.61748      6.41466         0.000243     -0.000172     -0.000437
      6.93668      6.61748      6.41452        -0.000031     -0.000025     -0.000455
      1.38227      3.82822      0.00001         0.000042      0.001510      0.001851
      6.93839      3.82822     -0.00014         0.000156     -0.000147      0.000556
      1.38227      9.38694      0.00001        -0.000334     -0.001358      0.001884
      6.93839      9.38694     -0.00014         0.000197     -0.000002      0.000465
      1.39874      1.04885     10.19857         0.001782      0.000067      0.001437
      6.95485      1.04885     10.19843        -0.001636     -0.000223      0.003331
      1.39874      6.60758     10.19857         0.000212     -0.000059      0.000051
      6.95485      6.60758     10.19843        -0.000200      0.000052      0.000285
     -1.25501      1.18232      6.17406        -0.006250      0.000205      0.128481
      4.29848      1.18232      6.18356         0.001979     -0.000117     -0.000549
     -1.25763      6.74104      6.18371        -0.000195     -0.000110     -0.000375
      4.29848      6.74104      6.18356        -0.000339      0.000010      0.000319
      1.26131      3.69462      6.18369         0.000299      0.000802      0.001115
      6.81742      3.69462      6.18354         0.000686     -0.001015      0.001497
      1.26131      9.25335      6.18369         0.000113     -0.000554      0.001357
      6.81742      9.25335      6.18354         0.000458      0.000626      0.000931
      1.51970      0.91526      4.01489         0.006111     -0.000376     -0.001356
      7.07582      0.91526      4.01474        -0.006610     -0.000048      0.002214
      1.51970      6.47399      4.01489        -0.000336     -0.000011     -0.000086
      7.07582      6.47399      4.01474        -0.000044     -0.000036      0.000063
      4.03864      3.96168      4.01487         0.000321     -0.000109     -0.000058
      9.59476      3.96168      4.01472        -0.000097      0.005628      0.000831
      4.03864      9.52041      4.01487         0.000335      0.000173     -0.000050
      9.59476      9.52041      4.01472        -0.000036     -0.006736      0.000842
      0.00035      5.21813      1.57032         0.001037      0.000391     -0.000772
      5.55647      5.21813      1.57017        -0.000281     -0.000037     -0.000197
      0.00035     10.77686      1.57032         0.002252     -0.001619     -0.003721
      5.55647     10.77686      1.57017        -0.001073     -0.000220     -0.000752
      2.77849      2.43869      1.57537         0.000523      0.000428     -0.001258
      8.33461      2.43869      1.57522        -0.001626      0.001825     -0.003537
      2.77849      7.99742      1.57537        -0.000300      0.000075     -0.000807
      8.33461      7.99742      1.57522        -0.000474     -0.000711     -0.000404
      0.00252      5.21805      8.62321        -0.000020     -0.000363      0.000620
      5.55864      5.21805      8.62307         0.000509     -0.000504     -0.000174
      0.00252     10.77678      8.62321        -0.011644      0.011452     -0.005220
      5.55864     10.77678      8.62307         0.000464     -0.000162     -0.000111
      2.78066      2.43877      8.62826        -0.000185      0.000476      0.000989
      8.33677      2.43877      8.62811         0.012422     -0.011638     -0.008148
      2.78066      7.99750      8.62826        -0.000415      0.000273     -0.000187
      8.33677      7.99750      8.62811        -0.000049      0.000395      0.000392
 -----------------------------------------------------------------------------------
    total drift:                                0.000047     -0.001167     -0.000089


--------------------------------------------------------------------------------------------------------



  FREE ENERGIE OF THE ION-ELECTRON SYSTEM (eV)
  ---------------------------------------------------
  free  energy   TOTEN  =      -489.21480945 eV

  energy  without entropy=     -489.21480945  energy(sigma->0) =     -489.21480945
 


--------------------------------------------------------------------------------------------------------


    POTLOK:  cpu time    3.3224: real time    3.3643


--------------------------------------------------------------------------------------------------------


     LOOP+:  cpu time 6417.9162: real time 6488.4130
    4ORBIT:  cpu time    0.0000: real time    0.0000

 total amount of memory used by VASP MPI-rank0  1233264. kBytes
=======================================================================

   base      :      30000. kBytes
   nonl-proj :      75226. kBytes
   fftplans  :      85054. kBytes
   grid      :      64684. kBytes
   one-center:        466. kBytes
   wavefun   :     977834. kBytes
 
  
  
 General timing and accounting informations for this job:
 ========================================================
  
                  Total CPU time used (sec):     6514.759
                            User time (sec):     6446.919
                          System time (sec):       67.840
                         Elapsed time (sec):     6588.145
  
                   Maximum memory used (kb):     1433840.
                   Average memory used (kb):           0.
  
                          Minor page faults:      1000454
                          Major page faults:            8
                 Voluntary context switches:        63878
