<?xml version="1.0" encoding="ISO-8859-1"?>
<modeling>
 <generator>
  <i name="program" type="string">vasp </i>
  <i name="version" type="string">5.4.4.18Apr17-6-g9f103f2a35  </i>
  <i name="subversion" type="string">(build Oct 25 2017 14:42:18) complex            parallel </i>
  <i name="platform" type="string">LinuxIFC </i>
  <i name="date" type="string">2021 06 02 </i>
  <i name="time" type="string">18:14:41 </i>
 </generator>
 <incar>
  <i type="string" name="PREC">accurate</i>
  <i type="string" name="ALGO"> normal</i>
  <i type="logical" name="ADDGRID"> T  </i>
  <i type="int" name="ISPIN">     2</i>
  <i type="int" name="ICHARG">     1</i>
  <i type="int" name="NELM">   200</i>
  <i type="int" name="NELMIN">     8</i>
  <i name="EDIFF">      0.00000100</i>
  <i type="int" name="ISYM">     0</i>
  <i name="ENCUT">    650.00000000</i>
  <v name="MAGMOM">      0.60000000      0.60000000      0.60000000      0.60000000      0.60000000      0.60000000      0.60000000      0.60000000      0.60000000      0.60000000      0.60000000      0.60000000      0.60000000      0.60000000      0.60000000      0.60000000      0.60000000      0.60000000      0.60000000      0.60000000
      0.60000000      0.60000000      0.60000000      0.60000000      0.60000000      0.60000000      0.60000000      0.60000000      0.60000000      0.60000000      0.60000000      0.60000000      0.60000000      0.60000000      0.60000000      0.60000000      0.60000000      0.60000000      0.60000000      0.60000000
      0.60000000      0.60000000      0.60000000      0.60000000      0.60000000      0.60000000      0.60000000      0.60000000      0.60000000      0.60000000      0.60000000      0.60000000      0.60000000      0.60000000      0.60000000      0.60000000      5.00000000      5.00000000      5.00000000      5.00000000
      5.00000000      5.00000000      5.00000000      5.00000000      5.00000000      5.00000000      5.00000000      5.00000000      5.00000000      5.00000000      5.00000000      5.00000000      5.00000000      5.00000000      5.00000000      5.00000000      5.00000000      5.00000000      5.00000000      5.00000000
      5.00000000      5.00000000      5.00000000      5.00000000      5.00000000      5.00000000      5.00000000      5.00000000</v>
  <i type="logical" name="LREAL"> F  </i>
  <i type="int" name="ISMEAR">     0</i>
  <i name="SIGMA">      0.05000000</i>
  <i type="int" name="NWRITE">     1</i>
  <i type="int" name="LMAXMIX">     4</i>
  <i type="logical" name="LWAVE"> F  </i>
  <i type="logical" name="LASPH"> T  </i>
  <v type="int" name="KPOINT_BSE">    -1     0     0     0</v>
  <i type="int" name="NELM">   200</i>
  <i type="string" name="GGA"> pe</i>
  <i type="logical" name="LDAU"> T  </i>
  <v type="int" name="LDAUTYPE">     2</v>
  <v type="int" name="LDAUL">    -1    -1    -1     2</v>
  <v name="LDAUU">      0.00000000      0.00000000      0.00000000      4.00000000</v>
  <v name="LDAUJ">      0.00000000      0.00000000      0.00000000      0.00000000</v>
  <i type="logical" name="LASPH"> T  </i>
 </incar>
 <structure name="primitive_cell" >
  <crystal>
   <varray name="basis" >
    <v>      11.11223374       0.00000000      -0.00029034 </v>
    <v>       0.00000000      11.11745194       0.00000000 </v>
    <v>      -2.77510898       0.00000000      10.19872221 </v>
   </varray>
   <i name="volume">   1259.93837498 </i>
   <varray name="rec_basis" >
    <v>       0.08999155       0.00000000       0.02448702 </v>
    <v>       0.00000000       0.08994867       0.00000000 </v>
    <v>       0.00000256       0.00000000       0.09805220 </v>
   </varray>
  </crystal>
  <varray name="positions" >
   <v>       0.28894970       0.46933910       0.15583616 </v>
   <v>       0.17529533      -0.40661825       0.19749617 </v>
   <v>       0.42345029       0.34530995       0.19749407 </v>
   <v>       0.37560721      -0.40565694      -0.00000412 </v>
   <v>       0.12439279       0.34434306       0.00000412 </v>
   <v>      -0.46151602       0.46936404       0.15397331 </v>
   <v>       0.03848398       0.46936404       0.15397331 </v>
   <v>       0.28861657       0.21935690       0.15447525 </v>
   <v>       0.28861657      -0.28064310       0.15447525 </v>
   <v>       0.21868463       0.34523395       0.37102476 </v>
   <v>       0.46681660      -0.40655103       0.37102399 </v>
   <v>       0.23507288      -0.41767349       0.39367237 </v>
   <v>       0.46175575       0.35634799       0.39367694 </v>
   <v>       0.21138343       0.46935690      -0.15447525 </v>
   <v>       0.04646972       0.21934976       0.18586770 </v>
   <v>       0.04646972      -0.28065024       0.18586770 </v>
   <v>      -0.45353028       0.21934976       0.18586770 </v>
   <v>      -0.45353028      -0.28065024       0.18586770 </v>
   <v>       0.32470467       0.34338175      -0.19749617 </v>
   <v>       0.07654971      -0.40469005      -0.19749407 </v>
   <v>       0.21105030       0.21933910      -0.15583616 </v>
   <v>       0.21105030      -0.28066090      -0.15583616 </v>
   <v>      -0.07654971       0.34530995       0.19749407 </v>
   <v>      -0.32470467      -0.40661825       0.19749617 </v>
   <v>       0.17529533       0.09338175       0.19749617 </v>
   <v>       0.42345029      -0.15469005       0.19749407 </v>
   <v>       0.45353028       0.46934976      -0.18586770 </v>
   <v>      -0.04646972       0.46934976      -0.18586770 </v>
   <v>      -0.37560721       0.34434306       0.00000412 </v>
   <v>      -0.12439279      -0.40565694      -0.00000412 </v>
   <v>       0.37560721       0.09434306      -0.00000412 </v>
   <v>       0.12439279      -0.15565694       0.00000412 </v>
   <v>      -0.03318340      -0.40655103       0.37102399 </v>
   <v>      -0.28131537       0.34523395       0.37102476 </v>
   <v>       0.21868463      -0.15476605       0.37102476 </v>
   <v>       0.46681660       0.09344897       0.37102399 </v>
   <v>       0.46151602       0.21936404      -0.15397331 </v>
   <v>       0.46151602      -0.28063596      -0.15397331 </v>
   <v>      -0.03848398       0.21936404      -0.15397331 </v>
   <v>      -0.03848398      -0.28063596      -0.15397331 </v>
   <v>       0.26492712       0.33232651      -0.39367237 </v>
   <v>      -0.46175575      -0.39365201      -0.39367694 </v>
   <v>      -0.03824425       0.35634799       0.39367694 </v>
   <v>      -0.26492712      -0.41767349       0.39367237 </v>
   <v>       0.23507288       0.08232651       0.39367237 </v>
   <v>       0.46175575      -0.14365201       0.39367694 </v>
   <v>       0.28131537      -0.40476605      -0.37102476 </v>
   <v>      -0.46681660       0.34344897      -0.37102399 </v>
   <v>      -0.21105030       0.46933910       0.15583616 </v>
   <v>       0.28894970      -0.03066090       0.15583616 </v>
   <v>       0.32470467      -0.15661825      -0.19749617 </v>
   <v>       0.07654971       0.09530995      -0.19749407 </v>
   <v>      -0.42345029      -0.40469005      -0.19749407 </v>
   <v>      -0.17529533       0.34338175      -0.19749617 </v>
   <v>       0.03318340       0.34344897      -0.37102399 </v>
   <v>      -0.07654971      -0.15469005       0.19749407 </v>
   <v>      -0.32470467       0.09338175       0.19749617 </v>
   <v>       0.03824425      -0.39365201      -0.39367694 </v>
   <v>      -0.37560721      -0.15565694       0.00000412 </v>
   <v>      -0.12439279       0.09434306      -0.00000412 </v>
   <v>      -0.21138343       0.21935690       0.15447525 </v>
   <v>      -0.21138343      -0.28064310       0.15447525 </v>
   <v>      -0.46151602      -0.03063596       0.15397331 </v>
   <v>       0.03848398      -0.03063596       0.15397331 </v>
   <v>       0.26492712      -0.16767349      -0.39367237 </v>
   <v>      -0.46175575       0.10634799      -0.39367694 </v>
   <v>      -0.03318340       0.09344897       0.37102399 </v>
   <v>      -0.28131537      -0.15476605       0.37102476 </v>
   <v>      -0.23507288       0.33232651      -0.39367237 </v>
   <v>      -0.28861657       0.46935690      -0.15447525 </v>
   <v>       0.21138343      -0.03064310      -0.15447525 </v>
   <v>      -0.21868463      -0.40476605      -0.37102476 </v>
   <v>       0.28131537       0.09523395      -0.37102476 </v>
   <v>      -0.46681660      -0.15655103      -0.37102399 </v>
   <v>      -0.03824425      -0.14365201       0.39367694 </v>
   <v>      -0.26492712       0.08232651       0.39367237 </v>
   <v>      -0.42345029       0.09530995      -0.19749407 </v>
   <v>      -0.17529533      -0.15661825      -0.19749617 </v>
   <v>       0.03318340      -0.15655103      -0.37102399 </v>
   <v>      -0.28894970       0.21933910      -0.15583616 </v>
   <v>      -0.28894970      -0.28066090      -0.15583616 </v>
   <v>       0.03824425       0.10634799      -0.39462306 </v>
   <v>       0.45353028      -0.03065024      -0.18586770 </v>
   <v>      -0.04646972      -0.03065024      -0.18586770 </v>
   <v>      -0.23507288      -0.16767349      -0.39367237 </v>
   <v>      -0.21868463       0.09523395      -0.37102476 </v>
   <v>      -0.21105030      -0.03066090       0.15583616 </v>
   <v>      -0.28861657      -0.03064310      -0.15447525 </v>
  </varray>
 </structure>
 <varray name="primitive_index" >
  <v type="int" >        1 </v>
  <v type="int" >       27 </v>
  <v type="int" >       29 </v>
  <v type="int" >       55 </v>
  <v type="int" >       49 </v>
  <v type="int" >       74 </v>
  <v type="int" >       73 </v>
  <v type="int" >       77 </v>
  <v type="int" >       79 </v>
  <v type="int" >       33 </v>
  <v type="int" >       39 </v>
  <v type="int" >       67 </v>
  <v type="int" >       69 </v>
  <v type="int" >       81 </v>
  <v type="int" >        5 </v>
  <v type="int" >        7 </v>
  <v type="int" >        6 </v>
  <v type="int" >        8 </v>
  <v type="int" >       21 </v>
  <v type="int" >       19 </v>
  <v type="int" >       13 </v>
  <v type="int" >       15 </v>
  <v type="int" >       30 </v>
  <v type="int" >       28 </v>
  <v type="int" >       25 </v>
  <v type="int" >       31 </v>
  <v type="int" >        9 </v>
  <v type="int" >       10 </v>
  <v type="int" >       50 </v>
  <v type="int" >       56 </v>
  <v type="int" >       53 </v>
  <v type="int" >       51 </v>
  <v type="int" >       40 </v>
  <v type="int" >       34 </v>
  <v type="int" >       35 </v>
  <v type="int" >       37 </v>
  <v type="int" >       85 </v>
  <v type="int" >       87 </v>
  <v type="int" >       86 </v>
  <v type="int" >       88 </v>
  <v type="int" >       61 </v>
  <v type="int" >       60 </v>
  <v type="int" >       70 </v>
  <v type="int" >       68 </v>
  <v type="int" >       65 </v>
  <v type="int" >       71 </v>
  <v type="int" >       47 </v>
  <v type="int" >       42 </v>
  <v type="int" >        2 </v>
  <v type="int" >        3 </v>
  <v type="int" >       23 </v>
  <v type="int" >       17 </v>
  <v type="int" >       20 </v>
  <v type="int" >       22 </v>
  <v type="int" >       41 </v>
  <v type="int" >       32 </v>
  <v type="int" >       26 </v>
  <v type="int" >       59 </v>
  <v type="int" >       52 </v>
  <v type="int" >       54 </v>
  <v type="int" >       78 </v>
  <v type="int" >       80 </v>
  <v type="int" >       76 </v>
  <v type="int" >       75 </v>
  <v type="int" >       63 </v>
  <v type="int" >       58 </v>
  <v type="int" >       38 </v>
  <v type="int" >       36 </v>
  <v type="int" >       62 </v>
  <v type="int" >       82 </v>
  <v type="int" >       83 </v>
  <v type="int" >       48 </v>
  <v type="int" >       45 </v>
  <v type="int" >       44 </v>
  <v type="int" >       72 </v>
  <v type="int" >       66 </v>
  <v type="int" >       18 </v>
  <v type="int" >       24 </v>
  <v type="int" >       43 </v>
  <v type="int" >       14 </v>
  <v type="int" >       16 </v>
  <v type="int" >       57 </v>
  <v type="int" >       11 </v>
  <v type="int" >       12 </v>
  <v type="int" >       64 </v>
  <v type="int" >       46 </v>
  <v type="int" >        4 </v>
  <v type="int" >       84 </v>
 </varray>
 <kpoints>
  <generation param="Gamma">
   <v type="int" name="divisions">       3        3        3 </v>
   <v name="usershift">      0.00000000       0.00000000       0.00000000 </v>
   <v name="genvec1">      0.33333333       0.00000000       0.00000000 </v>
   <v name="genvec2">      0.00000000       0.33333333       0.00000000 </v>
   <v name="genvec3">      0.00000000       0.00000000       0.33333333 </v>
   <v name="shift">      0.00000000       0.00000000       0.00000000 </v>
  </generation>
  <varray name="kpointlist" >
   <v>       0.00000000       0.00000000       0.00000000 </v>
   <v>       0.33333333       0.00000000       0.00000000 </v>
   <v>       0.00000000       0.33333333       0.00000000 </v>
   <v>       0.33333333       0.33333333       0.00000000 </v>
   <v>      -0.33333333       0.33333333      -0.00000000 </v>
   <v>       0.00000000       0.00000000       0.33333333 </v>
   <v>       0.33333333       0.00000000       0.33333333 </v>
   <v>      -0.33333333       0.00000000       0.33333333 </v>
   <v>       0.00000000       0.33333333       0.33333333 </v>
   <v>       0.33333333       0.33333333       0.33333333 </v>
   <v>      -0.33333333       0.33333333       0.33333333 </v>
   <v>       0.00000000      -0.33333333       0.33333333 </v>
   <v>       0.33333333      -0.33333333       0.33333333 </v>
   <v>      -0.33333333      -0.33333333       0.33333333 </v>
  </varray>
  <varray name="weights" >
   <v>       0.03703704 </v>
   <v>       0.07407407 </v>
   <v>       0.07407407 </v>
   <v>       0.07407407 </v>
   <v>       0.07407407 </v>
   <v>       0.07407407 </v>
   <v>       0.07407407 </v>
   <v>       0.07407407 </v>
   <v>       0.07407407 </v>
   <v>       0.07407407 </v>
   <v>       0.07407407 </v>
   <v>       0.07407407 </v>
   <v>       0.07407407 </v>
   <v>       0.07407407 </v>
  </varray>
 </kpoints>
 <parameters>
  <separator name="general" >
   <i type="string" name="SYSTEM">unknown system</i>
   <i type="logical" name="LCOMPAT"> F  </i>
  </separator>
  <separator name="electronic" >
   <i type="string" name="PREC">accura</i>
   <i name="ENMAX">    650.00000000</i>
   <i name="ENAUG">    628.94500000</i>
   <i name="EDIFF">      0.00000100</i>
   <i type="int" name="IALGO">    38</i>
   <i type="int" name="IWAVPR">    10</i>
   <i type="int" name="NBANDS">   538</i>
   <i name="NELECT">    736.00000000</i>
   <i type="int" name="TURBO">     0</i>
   <i type="int" name="IRESTART">     0</i>
   <i type="int" name="NREBOOT">     0</i>
   <i type="int" name="NMIN">     0</i>
   <i name="EREF">      0.00000000</i>
   <separator name="electronic smearing" >
    <i type="int" name="ISMEAR">     0</i>
    <i name="SIGMA">      0.05000000</i>
    <i name="KSPACING">      0.50000000</i>
    <i type="logical" name="KGAMMA"> T  </i>
   </separator>
   <separator name="electronic projectors" >
    <i type="logical" name="LREAL"> F  </i>
    <v name="ROPT">      0.00000000      0.00000000      0.00000000      0.00000000</v>
    <i type="int" name="LMAXPAW">  -100</i>
    <i type="int" name="LMAXMIX">     4</i>
    <i type="logical" name="NLSPLINE"> F  </i>
   </separator>
   <separator name="electronic startup" >
    <i type="int" name="ISTART">     0</i>
    <i type="int" name="ICHARG">     1</i>
    <i type="int" name="INIWAV">     1</i>
   </separator>
   <separator name="electronic spin" >
    <i type="int" name="ISPIN">     2</i>
    <i type="logical" name="LNONCOLLINEAR"> F  </i>
    <v name="MAGMOM">      0.60000000      0.60000000      0.60000000      0.60000000      0.60000000      0.60000000      0.60000000      0.60000000      0.60000000      0.60000000      0.60000000      0.60000000      0.60000000      0.60000000      0.60000000      0.60000000      0.60000000      0.60000000      0.60000000      0.60000000
      0.60000000      0.60000000      0.60000000      0.60000000      0.60000000      0.60000000      0.60000000      0.60000000      0.60000000      0.60000000      0.60000000      0.60000000      0.60000000      0.60000000      0.60000000      0.60000000      0.60000000      0.60000000      0.60000000      0.60000000
      0.60000000      0.60000000      0.60000000      0.60000000      0.60000000      0.60000000      0.60000000      0.60000000      0.60000000      0.60000000      0.60000000      0.60000000      0.60000000      0.60000000      0.60000000      0.60000000      5.00000000      5.00000000      5.00000000      5.00000000
      5.00000000      5.00000000      5.00000000      5.00000000      5.00000000      5.00000000      5.00000000      5.00000000      5.00000000      5.00000000      5.00000000      5.00000000      5.00000000      5.00000000      5.00000000      5.00000000      5.00000000      5.00000000      5.00000000      5.00000000
      5.00000000      5.00000000      5.00000000      5.00000000      5.00000000      5.00000000      5.00000000      5.00000000</v>
    <i name="NUPDOWN">     -1.00000000</i>
    <i type="logical" name="LSORBIT"> F  </i>
    <v name="SAXIS">      0.00000000      0.00000000      1.00000000</v>
    <i type="logical" name="LSPIRAL"> F  </i>
    <v name="QSPIRAL">      0.00000000      0.00000000      0.00000000</v>
    <i type="logical" name="LZEROZ"> F  </i>
   </separator>
   <separator name="electronic exchange-correlation" >
    <i type="logical" name="LASPH"> T  </i>
    <i type="logical" name="LMETAGGA"> F  </i>
   </separator>
   <separator name="electronic convergence" >
    <i type="int" name="NELM">   200</i>
    <i type="int" name="NELMDL">     0</i>
    <i type="int" name="NELMIN">     8</i>
    <i name="ENINI">    650.00000000</i>
    <separator name="electronic convergence detail" >
     <i type="logical" name="LDIAG"> T  </i>
     <i type="logical" name="LSUBROT"> F  </i>
     <i name="WEIMIN">      0.00000000</i>
     <i name="EBREAK">      0.00000000</i>
     <i name="DEPER">      0.30000000</i>
     <i type="int" name="NRMM">     4</i>
     <i name="TIME">      0.40000000</i>
    </separator>
   </separator>
   <separator name="electronic mixer" >
    <i name="AMIX">      0.40000000</i>
    <i name="BMIX">      1.00000000</i>
    <i name="AMIN">      0.10000000</i>
    <i name="AMIX_MAG">      1.60000000</i>
    <i name="BMIX_MAG">      1.00000000</i>
    <separator name="electronic mixer details" >
     <i type="int" name="IMIX">     4</i>
     <i type="logical" name="MIXFIRST"> F  </i>
     <i type="int" name="MAXMIX">   -45</i>
     <i name="WC">    100.00000000</i>
     <i type="int" name="INIMIX">     1</i>
     <i type="int" name="MIXPRE">     1</i>
     <i type="int" name="MREMOVE">     5</i>
    </separator>
   </separator>
   <separator name="electronic dipolcorrection" >
    <i type="logical" name="LDIPOL"> F  </i>
    <i type="logical" name="LMONO"> F  </i>
    <i type="int" name="IDIPOL">     0</i>
    <i name="EPSILON">      1.00000000</i>
    <v name="DIPOL">   -100.00000000   -100.00000000   -100.00000000</v>
    <i name="EFIELD">      0.00000000</i>
   </separator>
  </separator>
  <separator name="grids" >
   <i type="int" name="NGX">    96</i>
   <i type="int" name="NGY">    96</i>
   <i type="int" name="NGZ">    90</i>
   <i type="int" name="NGXF">   192</i>
   <i type="int" name="NGYF">   192</i>
   <i type="int" name="NGZF">   180</i>
   <i type="logical" name="ADDGRID"> T  </i>
  </separator>
  <separator name="ionic" >
   <i type="int" name="NSW">     0</i>
   <i type="int" name="IBRION">    -1</i>
   <i type="int" name="MDALGO">     0</i>
   <i type="int" name="ISIF">     2</i>
   <i name="PSTRESS">      0.00000000</i>
   <i name="EDIFFG">      0.00001000</i>
   <i type="int" name="NFREE">     0</i>
   <i name="POTIM">      0.50000000</i>
   <i name="SMASS">     -3.00000000</i>
   <i name="SCALEE">      1.00000000</i>
  </separator>
  <separator name="ionic md" >
   <i name="TEBEG">      0.00010000</i>
   <i name="TEEND">      0.00010000</i>
   <i type="int" name="NBLOCK">     1</i>
   <i type="int" name="KBLOCK">     1</i>
   <i type="int" name="NPACO">   256</i>
   <i name="APACO">     16.00000000</i>
  </separator>
  <separator name="symmetry" >
   <i type="int" name="ISYM">     0</i>
   <i name="SYMPREC">      0.00001000</i>
  </separator>
  <separator name="dos" >
   <i type="int" name="LORBIT">     0</i>
   <v name="RWIGS">     -1.00000000     -1.00000000     -1.00000000     -1.00000000</v>
   <i type="int" name="NEDOS">   301</i>
   <i name="EMIN">     10.00000000</i>
   <i name="EMAX">    -10.00000000</i>
   <i name="EFERMI">      0.00000000</i>
  </separator>
  <separator name="writing" >
   <i type="int" name="NWRITE">     1</i>
   <i type="logical" name="LWAVE"> F  </i>
   <i type="logical" name="LDOWNSAMPLE"> F  </i>
   <i type="logical" name="LCHARG"> T  </i>
   <i type="logical" name="LPARD"> F  </i>
   <i type="logical" name="LVTOT"> F  </i>
   <i type="logical" name="LVHAR"> F  </i>
   <i type="logical" name="LELF"> F  </i>
   <i type="logical" name="LOPTICS"> F  </i>
   <v name="STM">      0.00000000      0.00000000      0.00000000      0.00000000      0.00000000      0.00000000      0.00000000</v>
  </separator>
  <separator name="performance" >
   <i type="int" name="NPAR">     2</i>
   <i type="int" name="NSIM">     4</i>
   <i type="int" name="NBLK">    -1</i>
   <i type="logical" name="LPLANE"> T  </i>
   <i type="logical" name="LSCALAPACK"> T  </i>
   <i type="logical" name="LSCAAWARE"> F  </i>
   <i type="logical" name="LSCALU"> F  </i>
   <i type="logical" name="LASYNC"> F  </i>
   <i type="logical" name="LORBITALREAL"> F  </i>
  </separator>
  <separator name="miscellaneous" >
   <i type="int" name="IDIOT">     3</i>
   <i type="int" name="ISPECIAL">     0</i>
   <i type="logical" name="LMUSIC"> F  </i>
   <v name="POMASS">      7.01000000     16.00000000     32.06600000     55.84700000</v>
   <v name="DARWINR">      0.00000000      0.00000000      0.00000000      0.00000000</v>
   <v name="DARWINV">      1.00000000      1.00000000      1.00000000      1.00000000</v>
   <i type="logical" name="LCORR"> T  </i>
  </separator>
  <i type="logical" name="GGA_COMPAT"> T  </i>
  <i type="logical" name="LBERRY"> F  </i>
  <i type="int" name="ICORELEVEL">     0</i>
  <i type="logical" name="LDAU"> T  </i>
  <v type="int" name="LDAUTYPE">     2</v>
  <v type="int" name="LDAUL">    -1</v>
  <v name="LDAUU">      0.00000000</v>
  <v name="LDAUJ">      0.00000000</v>
  <i type="int" name="LDAUPRINT">     0</i>
  <i type="int" name="I_CONSTRAINED_M">     0</i>
  <separator name="electronic exchange-correlation" >
   <i type="string" name="GGA">PE</i>
   <i type="int" name="VOSKOWN">     0</i>
   <i type="logical" name="LHFCALC"> F  </i>
   <i type="string" name="PRECFOCK"></i>
   <i type="logical" name="LSYMGRAD"> F  </i>
   <i type="logical" name="LHFONE"> F  </i>
   <i type="logical" name="LRHFCALC"> F  </i>
   <i type="logical" name="LTHOMAS"> F  </i>
   <i type="logical" name="LMODELHF"> F  </i>
   <i name="ENCUT4O">     -1.00000000</i>
   <i type="int" name="EXXOEP">     0</i>
   <i type="int" name="FOURORBIT">     0</i>
   <i name="AEXX">      0.00000000</i>
   <i name="HFALPHA">      0.00000000</i>
   <i name="MCALPHA">      0.00000000</i>
   <i name="ALDAX">      1.00000000</i>
   <i name="AGGAX">      1.00000000</i>
   <i name="ALDAC">      1.00000000</i>
   <i name="AGGAC">      1.00000000</i>
   <i type="int" name="NKREDX">     1</i>
   <i type="int" name="NKREDY">     1</i>
   <i type="int" name="NKREDZ">     1</i>
   <i type="logical" name="SHIFTRED"> F  </i>
   <i type="logical" name="ODDONLY"> F  </i>
   <i type="logical" name="EVENONLY"> F  </i>
   <i type="int" name="LMAXFOCK">     0</i>
   <i type="int" name="NMAXFOCKAE">     0</i>
   <i type="logical" name="LFOCKAEDFT"> F  </i>
   <i name="HFSCREEN">      0.00000000</i>
   <i name="HFSCREENC">      0.00000000</i>
   <i type="int" name="NBANDSGWLOW">     0</i>
  </separator>
  <separator name="vdW DFT" >
   <i type="logical" name="LUSE_VDW"> F  </i>
   <i name="Zab_VDW">     -0.84910000</i>
   <i name="PARAM1">      0.12340000</i>
   <i name="PARAM2">      1.00000000</i>
   <i name="PARAM3">      0.00000000</i>
  </separator>
  <separator name="model GW" >
   <i type="int" name="MODEL_GW">     0</i>
   <i name="MODEL_EPS0">      8.59048892</i>
   <i name="MODEL_ALPHA">      1.00000000</i>
  </separator>
  <separator name="linear response parameters" >
   <i type="logical" name="LEPSILON"> F  </i>
   <i type="logical" name="LRPA"> F  </i>
   <i type="logical" name="LNABLA"> F  </i>
   <i type="logical" name="LVEL"> F  </i>
   <i type="int" name="KINTER">     0</i>
   <i name="CSHIFT">      0.10000000</i>
   <i name="OMEGAMAX">     -1.00000000</i>
   <i name="DEG_THRESHOLD">      0.00200000</i>
   <i name="RTIME">     -0.10000000</i>
   <i name="WPLASMAI">      0.00000000</i>
   <v name="DFIELD">      0.00000000      0.00000000      0.00000000</v>
   <v name="WPLASMA">      0.00000000      0.00000000      0.00000000      0.00000000      0.00000000      0.00000000      0.00000000      0.00000000      0.00000000</v>
  </separator>
  <separator name="orbital magnetization" >
   <i type="logical" name="NUCIND"> F  </i>
   <v name="MAGPOS">      0.00000000      0.00000000      0.00000000</v>
   <i type="logical" name="LNICSALL"> T  </i>
   <i type="logical" name="ORBITALMAG"> F  </i>
   <i type="logical" name="LMAGBLOCH"> F  </i>
   <i type="logical" name="LCHIMAG"> F  </i>
   <i type="logical" name="LGAUGE"> T  </i>
   <i type="int" name="MAGATOM">     0</i>
   <v name="MAGDIPOL">      0.00000000      0.00000000      0.00000000</v>
   <v name="AVECCONST">      0.00000000      0.00000000      0.00000000</v>
  </separator>
  <separator name="response functions" >
   <i type="logical" name="LADDER"> F  </i>
   <i type="logical" name="LRPAFORCE"> F  </i>
   <i type="logical" name="LFXC"> F  </i>
   <i type="logical" name="LHARTREE"> T  </i>
   <i type="int" name="IBSE">     0</i>
   <v type="int" name="KPOINT">    -1     0     0     0</v>
   <i type="logical" name="LTCTE"> F  </i>
   <i type="logical" name="LTETE"> F  </i>
   <i type="logical" name="LTRIPLET"> F  </i>
   <i type="logical" name="LFXCEPS"> F  </i>
   <i type="logical" name="LFXHEG"> F  </i>
   <i type="int" name="NATURALO">     2</i>
   <i type="logical" name="L2ORDER"> F  </i>
   <i type="logical" name="LMP2LT"> F  </i>
   <i type="logical" name="LUSEW"> F  </i>
   <i name="ENCUTGW">     -2.00000000</i>
   <i name="ENCUTGWSOFT">     -2.00000000</i>
   <i name="ENCUTLF">     -1.00000000</i>
   <i type="int" name="LMAXMP2">    -1</i>
   <i name="SCISSOR">      0.00000000</i>
   <i type="int" name="NOMEGA">     0</i>
   <i type="int" name="NOMEGAR">     0</i>
   <i type="int" name="NBANDSGW">    -1</i>
   <i type="int" name="NBANDSO">    -1</i>
   <i type="int" name="NBANDSV">    -1</i>
   <i type="int" name="NELM">   200</i>
   <i type="int" name="NELMHF">     1</i>
   <i type="int" name="DIM">     3</i>
   <i type="int" name="ANTIRES">     0</i>
   <i name="OMEGAMAX">    -30.00000000</i>
   <i name="OMEGAMIN">    -30.00000000</i>
   <i name="OMEGATL">   -200.00000000</i>
   <i type="int" name="OMEGAGRID">   140</i>
   <i name="CSHIFT">     -0.10000000</i>
   <i type="logical" name="SELFENERGY"> F  </i>
   <i type="logical" name="LSPECTRAL"> F  </i>
   <i type="logical" name="LSPECTRALGW"> F  </i>
   <i type="logical" name="LSINGLES"> F  </i>
   <i type="logical" name="LFERMIGW"> F  </i>
   <i type="logical" name="ODDONLYGW"> F  </i>
   <i type="logical" name="EVENONLYGW"> F  </i>
   <i type="int" name="NKREDLFX">     1</i>
   <i type="int" name="NKREDLFY">     1</i>
   <i type="int" name="NKREDLFZ">     1</i>
   <i type="int" name="MAXMEM">  2800</i>
   <i type="int" name="TELESCOPE">     0</i>
   <i type="int" name="TAUPAR">     1</i>
   <i type="int" name="OMEGAPAR">    -1</i>
   <i name="LAMBDA">      1.00000000</i>
  </separator>
  <separator name="External order field" >
   <i name="OFIELD_KAPPA">      0.00000000</i>
   <v name="OFIELD_K">      0.00000000      0.00000000      0.00000000</v>
   <i name="OFIELD_Q6_NEAR">      0.00000000</i>
   <i name="OFIELD_Q6_FAR">      0.00000000</i>
   <i name="OFIELD_A">      0.00000000</i>
  </separator>
 </parameters>
 <atominfo>
  <atoms>      88 </atoms>
  <types>       4 </types>
  <array name="atoms" >
   <dimension dim="1">ion</dimension>
   <field type="string">element</field>
   <field type="int">atomtype</field>
   <set>
    <rc><c>Li</c><c>   1</c></rc>
    <rc><c>Li</c><c>   1</c></rc>
    <rc><c>Li</c><c>   1</c></rc>
    <rc><c>Li</c><c>   1</c></rc>
    <rc><c>Li</c><c>   1</c></rc>
    <rc><c>Li</c><c>   1</c></rc>
    <rc><c>Li</c><c>   1</c></rc>
    <rc><c>Li</c><c>   1</c></rc>
    <rc><c>Li</c><c>   1</c></rc>
    <rc><c>Li</c><c>   1</c></rc>
    <rc><c>Li</c><c>   1</c></rc>
    <rc><c>Li</c><c>   1</c></rc>
    <rc><c>Li</c><c>   1</c></rc>
    <rc><c>Li</c><c>   1</c></rc>
    <rc><c>Li</c><c>   1</c></rc>
    <rc><c>Li</c><c>   1</c></rc>
    <rc><c>O </c><c>   2</c></rc>
    <rc><c>O </c><c>   2</c></rc>
    <rc><c>O </c><c>   2</c></rc>
    <rc><c>O </c><c>   2</c></rc>
    <rc><c>O </c><c>   2</c></rc>
    <rc><c>O </c><c>   2</c></rc>
    <rc><c>O </c><c>   2</c></rc>
    <rc><c>O </c><c>   2</c></rc>
    <rc><c>O </c><c>   2</c></rc>
    <rc><c>O </c><c>   2</c></rc>
    <rc><c>O </c><c>   2</c></rc>
    <rc><c>O </c><c>   2</c></rc>
    <rc><c>O </c><c>   2</c></rc>
    <rc><c>O </c><c>   2</c></rc>
    <rc><c>O </c><c>   2</c></rc>
    <rc><c>O </c><c>   2</c></rc>
    <rc><c>S </c><c>   3</c></rc>
    <rc><c>S </c><c>   3</c></rc>
    <rc><c>S </c><c>   3</c></rc>
    <rc><c>S </c><c>   3</c></rc>
    <rc><c>S </c><c>   3</c></rc>
    <rc><c>S </c><c>   3</c></rc>
    <rc><c>S </c><c>   3</c></rc>
    <rc><c>S </c><c>   3</c></rc>
    <rc><c>S </c><c>   3</c></rc>
    <rc><c>S </c><c>   3</c></rc>
    <rc><c>S </c><c>   3</c></rc>
    <rc><c>S </c><c>   3</c></rc>
    <rc><c>S </c><c>   3</c></rc>
    <rc><c>S </c><c>   3</c></rc>
    <rc><c>S </c><c>   3</c></rc>
    <rc><c>S </c><c>   3</c></rc>
    <rc><c>S </c><c>   3</c></rc>
    <rc><c>S </c><c>   3</c></rc>
    <rc><c>S </c><c>   3</c></rc>
    <rc><c>S </c><c>   3</c></rc>
    <rc><c>S </c><c>   3</c></rc>
    <rc><c>S </c><c>   3</c></rc>
    <rc><c>S </c><c>   3</c></rc>
    <rc><c>S </c><c>   3</c></rc>
    <rc><c>Fe</c><c>   4</c></rc>
    <rc><c>Fe</c><c>   4</c></rc>
    <rc><c>Fe</c><c>   4</c></rc>
    <rc><c>Fe</c><c>   4</c></rc>
    <rc><c>Fe</c><c>   4</c></rc>
    <rc><c>Fe</c><c>   4</c></rc>
    <rc><c>Fe</c><c>   4</c></rc>
    <rc><c>Fe</c><c>   4</c></rc>
    <rc><c>Fe</c><c>   4</c></rc>
    <rc><c>Fe</c><c>   4</c></rc>
    <rc><c>Fe</c><c>   4</c></rc>
    <rc><c>Fe</c><c>   4</c></rc>
    <rc><c>Fe</c><c>   4</c></rc>
    <rc><c>Fe</c><c>   4</c></rc>
    <rc><c>Fe</c><c>   4</c></rc>
    <rc><c>Fe</c><c>   4</c></rc>
    <rc><c>Fe</c><c>   4</c></rc>
    <rc><c>Fe</c><c>   4</c></rc>
    <rc><c>Fe</c><c>   4</c></rc>
    <rc><c>Fe</c><c>   4</c></rc>
    <rc><c>Fe</c><c>   4</c></rc>
    <rc><c>Fe</c><c>   4</c></rc>
    <rc><c>Fe</c><c>   4</c></rc>
    <rc><c>Fe</c><c>   4</c></rc>
    <rc><c>Fe</c><c>   4</c></rc>
    <rc><c>Fe</c><c>   4</c></rc>
    <rc><c>Fe</c><c>   4</c></rc>
    <rc><c>Fe</c><c>   4</c></rc>
    <rc><c>Fe</c><c>   4</c></rc>
    <rc><c>Fe</c><c>   4</c></rc>
    <rc><c>Fe</c><c>   4</c></rc>
    <rc><c>Fe</c><c>   4</c></rc>
   </set>
  </array>
  <array name="atomtypes" >
   <dimension dim="1">type</dimension>
   <field type="int">atomspertype</field>
   <field type="string">element</field>
   <field>mass</field>
   <field>valence</field>
   <field type="string">pseudopotential</field>
   <set>
    <rc><c>  16</c><c>Li</c><c>      7.01000000</c><c>      3.00000000</c><c>  PAW_PBE Li_sv 10Sep2004               </c></rc>
    <rc><c>  16</c><c>O </c><c>     16.00000000</c><c>      6.00000000</c><c>  PAW_PBE O 08Apr2002                   </c></rc>
    <rc><c>  24</c><c>S </c><c>     32.06600000</c><c>      6.00000000</c><c>  PAW_PBE S 06Sep2000                   </c></rc>
    <rc><c>  32</c><c>Fe</c><c>     55.84700000</c><c>     14.00000000</c><c>  PAW_PBE Fe_pv 02Aug2007               </c></rc>
   </set>
  </array>
 </atominfo>
 <structure name="initialpos" >
  <crystal>
   <varray name="basis" >
    <v>      11.11223374       0.00000000      -0.00029034 </v>
    <v>       0.00000000      11.11745194       0.00000000 </v>
    <v>      -2.77510898       0.00000000      10.19872221 </v>
   </varray>
   <i name="volume">   1259.93837498 </i>
   <varray name="rec_basis" >
    <v>       0.08999155       0.00000000       0.02448702 </v>
    <v>       0.00000000       0.08994867       0.00000000 </v>
    <v>       0.00000256       0.00000000       0.09805220 </v>
   </varray>
  </crystal>
  <varray name="positions" >
   <v>       0.28894969       0.46933910       0.15583616 </v>
   <v>       0.78894969       0.46933910       0.15583616 </v>
   <v>       0.28894969       0.96933910       0.15583616 </v>
   <v>       0.78894969       0.96933910       0.15583616 </v>
   <v>       0.04646972       0.21934976       0.18586770 </v>
   <v>       0.54646972       0.21934976       0.18586770 </v>
   <v>       0.04646972       0.71934976       0.18586770 </v>
   <v>       0.54646972       0.71934976       0.18586770 </v>
   <v>       0.45353028       0.46934976       0.81413230 </v>
   <v>       0.95353028       0.46934976       0.81413230 </v>
   <v>       0.45353028       0.96934976       0.81413230 </v>
   <v>       0.95353028       0.96934976       0.81413230 </v>
   <v>       0.21105031       0.21933910       0.84416384 </v>
   <v>       0.71105031       0.21933910       0.84416384 </v>
   <v>       0.21105031       0.71933910       0.84416384 </v>
   <v>       0.71105031       0.71933910       0.84416384 </v>
   <v>       0.07654971       0.09530995       0.80250593 </v>
   <v>       0.57654971       0.09530995       0.80250593 </v>
   <v>       0.07654971       0.59530995       0.80250593 </v>
   <v>       0.57654971       0.59530995       0.80250593 </v>
   <v>       0.32470466       0.34338175       0.80250383 </v>
   <v>       0.82470466       0.34338175       0.80250383 </v>
   <v>       0.32470466       0.84338175       0.80250383 </v>
   <v>       0.82470466       0.84338175       0.80250383 </v>
   <v>       0.17529534       0.09338175       0.19749617 </v>
   <v>       0.67529534       0.09338175       0.19749617 </v>
   <v>       0.17529534       0.59338175       0.19749617 </v>
   <v>       0.67529534       0.59338175       0.19749617 </v>
   <v>       0.42345029       0.34530995       0.19749407 </v>
   <v>       0.92345029       0.34530995       0.19749407 </v>
   <v>       0.42345029       0.84530995       0.19749407 </v>
   <v>       0.92345029       0.84530995       0.19749407 </v>
   <v>       0.21868463       0.34523395       0.37102476 </v>
   <v>       0.71868463       0.34523395       0.37102476 </v>
   <v>       0.21868463       0.84523395       0.37102476 </v>
   <v>       0.71868463       0.84523395       0.37102476 </v>
   <v>       0.46681660       0.09344897       0.37102399 </v>
   <v>       0.96681660       0.09344897       0.37102399 </v>
   <v>       0.46681660       0.59344897       0.37102399 </v>
   <v>       0.96681660       0.59344897       0.37102399 </v>
   <v>       0.03318340       0.34344897       0.62897601 </v>
   <v>       0.53318340       0.34344897       0.62897601 </v>
   <v>       0.03318340       0.84344897       0.62897601 </v>
   <v>       0.53318340       0.84344897       0.62897601 </v>
   <v>       0.28131537       0.09523395       0.62897524 </v>
   <v>       0.78131537       0.09523395       0.62897524 </v>
   <v>       0.28131537       0.59523395       0.62897524 </v>
   <v>       0.78131537       0.59523395       0.62897524 </v>
   <v>       0.12439279       0.34434306       0.00000412 </v>
   <v>       0.62439279       0.34434306       0.00000412 </v>
   <v>       0.12439279       0.84434306       0.00000412 </v>
   <v>       0.62439279       0.84434306       0.00000412 </v>
   <v>       0.37560721       0.09434306       0.99999588 </v>
   <v>       0.87560721       0.09434306       0.99999588 </v>
   <v>       0.37560721       0.59434306       0.99999588 </v>
   <v>       0.87560721       0.59434306       0.99999588 </v>
   <v>       0.03824426       0.10634799       0.60537695 </v>
   <v>       0.53824426       0.10634799       0.60632306 </v>
   <v>       0.03824426       0.60634799       0.60632306 </v>
   <v>       0.53824426       0.60634799       0.60632306 </v>
   <v>       0.26492712       0.33232651       0.60632763 </v>
   <v>       0.76492712       0.33232651       0.60632763 </v>
   <v>       0.26492712       0.83232651       0.60632763 </v>
   <v>       0.76492712       0.83232651       0.60632763 </v>
   <v>       0.23507288       0.08232651       0.39367237 </v>
   <v>       0.73507288       0.08232651       0.39367237 </v>
   <v>       0.23507288       0.58232651       0.39367237 </v>
   <v>       0.73507288       0.58232651       0.39367237 </v>
   <v>       0.46175574       0.35634799       0.39367694 </v>
   <v>       0.96175574       0.35634799       0.39367694 </v>
   <v>       0.46175574       0.85634799       0.39367694 </v>
   <v>       0.96175574       0.85634799       0.39367694 </v>
   <v>       0.03848398       0.46936404       0.15397331 </v>
   <v>       0.53848398       0.46936404       0.15397331 </v>
   <v>       0.03848398       0.96936404       0.15397331 </v>
   <v>       0.53848398       0.96936404       0.15397331 </v>
   <v>       0.28861657       0.21935690       0.15447525 </v>
   <v>       0.78861657       0.21935690       0.15447525 </v>
   <v>       0.28861657       0.71935690       0.15447525 </v>
   <v>       0.78861657       0.71935690       0.15447525 </v>
   <v>       0.21138343       0.46935690       0.84552475 </v>
   <v>       0.71138343       0.46935690       0.84552475 </v>
   <v>       0.21138343       0.96935690       0.84552475 </v>
   <v>       0.71138343       0.96935690       0.84552475 </v>
   <v>       0.46151602       0.21936404       0.84602669 </v>
   <v>       0.96151602       0.21936404       0.84602669 </v>
   <v>       0.46151602       0.71936404       0.84602669 </v>
   <v>       0.96151602       0.71936404       0.84602669 </v>
  </varray>
 </structure>
 <calculation>
  <scstep>
   <time name="dav">  311.15  314.52</time>
   <time name="total">  314.54  317.94</time>
   <energy>
    <i name="alphaZ">   2314.49656628 </i>
    <i name="ewald"> -57724.72181440 </i>
    <i name="hartreedc"> -30347.26182826 </i>
    <i name="XCdc">   3229.29608066 </i>
    <i name="pawpsdc">  92679.89207989 </i>
    <i name="pawaedc"> -95535.38516353 </i>
    <i name="eentropy">     -0.01876692 </i>
    <i name="bandstr">    349.87450630 </i>
    <i name="atom">  95443.47970955 </i>
    <i name="e_fr_energy">  10409.65136957 </i>
    <i name="e_wo_entrp">  10409.67013648 </i>
    <i name="e_0_energy">  10409.66075303 </i>
   </energy>
  </scstep>
  <scstep>
   <time name="dav">  305.63  309.92</time>
   <time name="total">  305.64  309.93</time>
   <energy>
    <i name="e_fr_energy">   1177.48804294 </i>
    <i name="e_wo_entrp">   1177.55344746 </i>
    <i name="e_0_energy">   1177.52074520 </i>
   </energy>
  </scstep>
  <scstep>
   <time name="dav">  322.18  326.01</time>
   <time name="total">  322.18  326.01</time>
   <energy>
    <i name="e_fr_energy">   -308.17106925 </i>
    <i name="e_wo_entrp">   -308.17106925 </i>
    <i name="e_0_energy">   -308.17106925 </i>
   </energy>
  </scstep>
  <scstep>
   <time name="dav">  341.36  344.88</time>
   <time name="total">  341.36  344.88</time>
   <energy>
    <i name="e_fr_energy">   -476.30040770 </i>
    <i name="e_wo_entrp">   -476.30040770 </i>
    <i name="e_0_energy">   -476.30040770 </i>
   </energy>
  </scstep>
  <scstep>
   <time name="dav">  453.20  458.01</time>
   <time name="total">  462.66  467.52</time>
   <energy>
    <i name="e_fr_energy">   -488.72803835 </i>
    <i name="e_wo_entrp">   -488.72803835 </i>
    <i name="e_0_energy">   -488.72803835 </i>
   </energy>
  </scstep>
  <scstep>
   <time name="dav">  399.99  404.85</time>
   <time name="total">  412.62  417.61</time>
   <energy>
    <i name="e_fr_energy">   -489.19959427 </i>
    <i name="e_wo_entrp">   -489.19959427 </i>
    <i name="e_0_energy">   -489.19959427 </i>
   </energy>
  </scstep>
  <scstep>
   <time name="dav">  423.05  427.60</time>
   <time name="total">  435.71  440.33</time>
   <energy>
    <i name="e_fr_energy">   -489.21682760 </i>
    <i name="e_wo_entrp">   -489.21682760 </i>
    <i name="e_0_energy">   -489.21682760 </i>
   </energy>
  </scstep>
  <scstep>
   <time name="dav">  401.31  405.88</time>
   <time name="total">  413.95  418.72</time>
   <energy>
    <i name="e_fr_energy">   -489.21637564 </i>
    <i name="e_wo_entrp">   -489.21637564 </i>
    <i name="e_0_energy">   -489.21637564 </i>
   </energy>
  </scstep>
  <scstep>
   <time name="dav">  443.26  447.78</time>
   <time name="total">  455.81  460.40</time>
   <energy>
    <i name="e_fr_energy">   -489.21571502 </i>
    <i name="e_wo_entrp">   -489.21571502 </i>
    <i name="e_0_energy">   -489.21571502 </i>
   </energy>
  </scstep>
  <scstep>
   <time name="dav">  440.20  444.45</time>
   <time name="total">  452.79  457.26</time>
   <energy>
    <i name="e_fr_energy">   -489.21475467 </i>
    <i name="e_wo_entrp">   -489.21475467 </i>
    <i name="e_0_energy">   -489.21475467 </i>
   </energy>
  </scstep>
  <scstep>
   <time name="dav">  359.57  363.89</time>
   <time name="total">  372.38  376.77</time>
   <energy>
    <i name="e_fr_energy">   -489.21483312 </i>
    <i name="e_wo_entrp">   -489.21483312 </i>
    <i name="e_0_energy">   -489.21483312 </i>
   </energy>
  </scstep>
  <scstep>
   <time name="dav">  384.05  388.38</time>
   <time name="total">  396.73  401.20</time>
   <energy>
    <i name="e_fr_energy">   -489.21482274 </i>
    <i name="e_wo_entrp">   -489.21482274 </i>
    <i name="e_0_energy">   -489.21482274 </i>
   </energy>
  </scstep>
  <scstep>
   <time name="dav">  361.56  365.63</time>
   <time name="total">  374.29  378.45</time>
   <energy>
    <i name="e_fr_energy">   -489.21480555 </i>
    <i name="e_wo_entrp">   -489.21480555 </i>
    <i name="e_0_energy">   -489.21480555 </i>
   </energy>
  </scstep>
  <scstep>
   <time name="dav">  323.10  326.66</time>
   <time name="total">  335.61  339.41</time>
   <energy>
    <i name="e_fr_energy">   -489.21481060 </i>
    <i name="e_wo_entrp">   -489.21481060 </i>
    <i name="e_0_energy">   -489.21481060 </i>
   </energy>
  </scstep>
  <scstep>
   <time name="dav">  267.11  269.87</time>
   <time name="total">  279.93  282.73</time>
   <energy>
    <i name="e_fr_energy">   -489.21480866 </i>
    <i name="e_wo_entrp">   -489.21480866 </i>
    <i name="e_0_energy">   -489.21480866 </i>
   </energy>
  </scstep>
  <scstep>
   <time name="dav">  217.76  220.37</time>
   <time name="total">  221.08  223.70</time>
   <energy>
    <i name="alphaZ">   2314.49656628 </i>
    <i name="ewald"> -57724.72181440 </i>
    <i name="hartreedc"> -30347.26144122 </i>
    <i name="XCdc">   3229.29250917 </i>
    <i name="pawpsdc">  92679.24301260 </i>
    <i name="pawaedc"> -95534.72669828 </i>
    <i name="eentropy">     -0.00000000 </i>
    <i name="bandstr"> -10549.01665315 </i>
    <i name="atom">  95443.47970955 </i>
    <i name="e_fr_energy">   -489.21480945 </i>
    <i name="e_wo_entrp">   -489.21480945 </i>
    <i name="e_0_energy">   -489.21480945 </i>
   </energy>
  </scstep>
  <structure>
   <crystal>
    <varray name="basis" >
     <v>      11.11223374       0.00000000      -0.00029034 </v>
     <v>       0.00000000      11.11745194       0.00000000 </v>
     <v>      -2.77510898       0.00000000      10.19872221 </v>
    </varray>
    <i name="volume">   1259.93837498 </i>
    <varray name="rec_basis" >
     <v>       0.08999155       0.00000000       0.02448702 </v>
     <v>       0.00000000       0.08994867       0.00000000 </v>
     <v>       0.00000256       0.00000000       0.09805220 </v>
    </varray>
   </crystal>
   <varray name="positions" >
    <v>       0.28894969       0.46933910       0.15583616 </v>
    <v>       0.78894969       0.46933910       0.15583616 </v>
    <v>       0.28894969       0.96933910       0.15583616 </v>
    <v>       0.78894969       0.96933910       0.15583616 </v>
    <v>       0.04646972       0.21934976       0.18586770 </v>
    <v>       0.54646972       0.21934976       0.18586770 </v>
    <v>       0.04646972       0.71934976       0.18586770 </v>
    <v>       0.54646972       0.71934976       0.18586770 </v>
    <v>       0.45353028       0.46934976       0.81413230 </v>
    <v>       0.95353028       0.46934976       0.81413230 </v>
    <v>       0.45353028       0.96934976       0.81413230 </v>
    <v>       0.95353028       0.96934976       0.81413230 </v>
    <v>       0.21105031       0.21933910       0.84416384 </v>
    <v>       0.71105031       0.21933910       0.84416384 </v>
    <v>       0.21105031       0.71933910       0.84416384 </v>
    <v>       0.71105031       0.71933910       0.84416384 </v>
    <v>       0.07654971       0.09530995       0.80250593 </v>
    <v>       0.57654971       0.09530995       0.80250593 </v>
    <v>       0.07654971       0.59530995       0.80250593 </v>
    <v>       0.57654971       0.59530995       0.80250593 </v>
    <v>       0.32470466       0.34338175       0.80250383 </v>
    <v>       0.82470466       0.34338175       0.80250383 </v>
    <v>       0.32470466       0.84338175       0.80250383 </v>
    <v>       0.82470466       0.84338175       0.80250383 </v>
    <v>       0.17529534       0.09338175       0.19749617 </v>
    <v>       0.67529534       0.09338175       0.19749617 </v>
    <v>       0.17529534       0.59338175       0.19749617 </v>
    <v>       0.67529534       0.59338175       0.19749617 </v>
    <v>       0.42345029       0.34530995       0.19749407 </v>
    <v>       0.92345029       0.34530995       0.19749407 </v>
    <v>       0.42345029       0.84530995       0.19749407 </v>
    <v>       0.92345029       0.84530995       0.19749407 </v>
    <v>       0.21868463       0.34523395       0.37102476 </v>
    <v>       0.71868463       0.34523395       0.37102476 </v>
    <v>       0.21868463       0.84523395       0.37102476 </v>
    <v>       0.71868463       0.84523395       0.37102476 </v>
    <v>       0.46681660       0.09344897       0.37102399 </v>
    <v>       0.96681660       0.09344897       0.37102399 </v>
    <v>       0.46681660       0.59344897       0.37102399 </v>
    <v>       0.96681660       0.59344897       0.37102399 </v>
    <v>       0.03318340       0.34344897       0.62897601 </v>
    <v>       0.53318340       0.34344897       0.62897601 </v>
    <v>       0.03318340       0.84344897       0.62897601 </v>
    <v>       0.53318340       0.84344897       0.62897601 </v>
    <v>       0.28131537       0.09523395       0.62897524 </v>
    <v>       0.78131537       0.09523395       0.62897524 </v>
    <v>       0.28131537       0.59523395       0.62897524 </v>
    <v>       0.78131537       0.59523395       0.62897524 </v>
    <v>       0.12439279       0.34434306       0.00000412 </v>
    <v>       0.62439279       0.34434306       0.00000412 </v>
    <v>       0.12439279       0.84434306       0.00000412 </v>
    <v>       0.62439279       0.84434306       0.00000412 </v>
    <v>       0.37560721       0.09434306       0.99999588 </v>
    <v>       0.87560721       0.09434306       0.99999588 </v>
    <v>       0.37560721       0.59434306       0.99999588 </v>
    <v>       0.87560721       0.59434306       0.99999588 </v>
    <v>       0.03824426       0.10634799       0.60537695 </v>
    <v>       0.53824426       0.10634799       0.60632306 </v>
    <v>       0.03824426       0.60634799       0.60632306 </v>
    <v>       0.53824426       0.60634799       0.60632306 </v>
    <v>       0.26492712       0.33232651       0.60632763 </v>
    <v>       0.76492712       0.33232651       0.60632763 </v>
    <v>       0.26492712       0.83232651       0.60632763 </v>
    <v>       0.76492712       0.83232651       0.60632763 </v>
    <v>       0.23507288       0.08232651       0.39367237 </v>
    <v>       0.73507288       0.08232651       0.39367237 </v>
    <v>       0.23507288       0.58232651       0.39367237 </v>
    <v>       0.73507288       0.58232651       0.39367237 </v>
    <v>       0.46175574       0.35634799       0.39367694 </v>
    <v>       0.96175574       0.35634799       0.39367694 </v>
    <v>       0.46175574       0.85634799       0.39367694 </v>
    <v>       0.96175574       0.85634799       0.39367694 </v>
    <v>       0.03848398       0.46936404       0.15397331 </v>
    <v>       0.53848398       0.46936404       0.15397331 </v>
    <v>       0.03848398       0.96936404       0.15397331 </v>
    <v>       0.53848398       0.96936404       0.15397331 </v>
    <v>       0.28861657       0.21935690       0.15447525 </v>
    <v>       0.78861657       0.21935690       0.15447525 </v>
    <v>       0.28861657       0.71935690       0.15447525 </v>
    <v>       0.78861657       0.71935690       0.15447525 </v>
    <v>       0.21138343       0.46935690       0.84552475 </v>
    <v>       0.71138343       0.46935690       0.84552475 </v>
    <v>       0.21138343       0.96935690       0.84552475 </v>
    <v>       0.71138343       0.96935690       0.84552475 </v>
    <v>       0.46151602       0.21936404       0.84602669 </v>
    <v>       0.96151602       0.21936404       0.84602669 </v>
    <v>       0.46151602       0.71936404       0.84602669 </v>
    <v>       0.96151602       0.71936404       0.84602669 </v>
   </varray>
  </structure>
  <varray name="forces" >
   <v>      -0.00014637      -0.00010134      -0.00045938 </v>
   <v>      -0.00005066       0.00026660      -0.00015801 </v>
   <v>       0.00021938      -0.00001369      -0.00065866 </v>
   <v>      -0.00089332      -0.00087763      -0.00203195 </v>
   <v>       0.00131429       0.00120054      -0.00209792 </v>
   <v>      -0.00052711       0.00002875      -0.00032469 </v>
   <v>       0.00033612      -0.00020344      -0.00036816 </v>
   <v>      -0.00016731      -0.00001865      -0.00020298 </v>
   <v>      -0.00002873       0.00005450      -0.00006362 </v>
   <v>      -0.00012648      -0.00040782       0.00028490 </v>
   <v>      -0.00015556      -0.00042097       0.00056603 </v>
   <v>       0.00504403       0.00522631      -0.00317046 </v>
   <v>      -0.00480760      -0.00418252      -0.00270696 </v>
   <v>       0.00041710       0.00013419      -0.00021292 </v>
   <v>       0.00001994       0.00035778       0.00018168 </v>
   <v>      -0.00000116       0.00005489       0.00000042 </v>
   <v>       0.00513352       0.00317169      -0.05744135 </v>
   <v>      -0.00094910       0.00010278      -0.00038960 </v>
   <v>       0.00011734      -0.00004796      -0.00047034 </v>
   <v>       0.00020266      -0.00003789      -0.00008390 </v>
   <v>       0.00056723       0.00010294      -0.00055517 </v>
   <v>      -0.00204859       0.00195832      -0.00036010 </v>
   <v>       0.00148793      -0.00133413      -0.00082754 </v>
   <v>      -0.00069177      -0.00057200      -0.00003523 </v>
   <v>      -0.00247484      -0.00048502       0.00236747 </v>
   <v>       0.00339048       0.00044537       0.00199513 </v>
   <v>       0.00010073       0.00002611       0.00084926 </v>
   <v>       0.00023580       0.00012509       0.00026718 </v>
   <v>       0.00005546       0.00017448       0.00061757 </v>
   <v>      -0.00079653      -0.00258955       0.00161704 </v>
   <v>       0.00004268      -0.00003484       0.00060419 </v>
   <v>      -0.00000234       0.00282745       0.00191673 </v>
   <v>      -0.00062025      -0.00090739       0.00005427 </v>
   <v>       0.00060916      -0.00076637      -0.00057539 </v>
   <v>      -0.00086784       0.00075830       0.00000236 </v>
   <v>       0.00088068       0.00060554      -0.00049902 </v>
   <v>      -0.00031949       0.00008990      -0.00030982 </v>
   <v>      -0.00106275      -0.00167353      -0.03891238 </v>
   <v>       0.00010996       0.00015494       0.00018380 </v>
   <v>      -0.00000379       0.00028423      -0.00062238 </v>
   <v>       0.00019866      -0.00083528      -0.00511501 </v>
   <v>      -0.00047142       0.00026620      -0.00043842 </v>
   <v>       0.00043045      -0.00035369      -0.00414280 </v>
   <v>      -0.00021730       0.00003721      -0.00050084 </v>
   <v>       0.00054086      -0.00058198      -0.00469555 </v>
   <v>      -0.00198864      -0.00004575      -0.00393505 </v>
   <v>       0.00024251      -0.00017203      -0.00043687 </v>
   <v>      -0.00003065      -0.00002462      -0.00045542 </v>
   <v>       0.00004172       0.00150964       0.00185107 </v>
   <v>       0.00015581      -0.00014651       0.00055600 </v>
   <v>      -0.00033447      -0.00135774       0.00188422 </v>
   <v>       0.00019721      -0.00000183       0.00046498 </v>
   <v>       0.00178206       0.00006745       0.00143730 </v>
   <v>      -0.00163627      -0.00022318       0.00333117 </v>
   <v>       0.00021165      -0.00005944       0.00005093 </v>
   <v>      -0.00020015       0.00005242       0.00028493 </v>
   <v>      -0.00625048       0.00020508       0.12848082 </v>
   <v>       0.00197889      -0.00011660      -0.00054863 </v>
   <v>      -0.00019541      -0.00010952      -0.00037474 </v>
   <v>      -0.00033905       0.00001009       0.00031875 </v>
   <v>       0.00029861       0.00080248       0.00111480 </v>
   <v>       0.00068617      -0.00101481       0.00149686 </v>
   <v>       0.00011346      -0.00055426       0.00135686 </v>
   <v>       0.00045815       0.00062600       0.00093120 </v>
   <v>       0.00611149      -0.00037616      -0.00135575 </v>
   <v>      -0.00660970      -0.00004761       0.00221432 </v>
   <v>      -0.00033560      -0.00001074      -0.00008600 </v>
   <v>      -0.00004373      -0.00003633       0.00006270 </v>
   <v>       0.00032142      -0.00010936      -0.00005800 </v>
   <v>      -0.00009667       0.00562755       0.00083066 </v>
   <v>       0.00033500       0.00017251      -0.00004992 </v>
   <v>      -0.00003605      -0.00673620       0.00084168 </v>
   <v>       0.00103748       0.00039103      -0.00077202 </v>
   <v>      -0.00028147      -0.00003684      -0.00019704 </v>
   <v>       0.00225203      -0.00161935      -0.00372127 </v>
   <v>      -0.00107321      -0.00021965      -0.00075200 </v>
   <v>       0.00052266       0.00042848      -0.00125762 </v>
   <v>      -0.00162611       0.00182476      -0.00353692 </v>
   <v>      -0.00030039       0.00007517      -0.00080683 </v>
   <v>      -0.00047379      -0.00071128      -0.00040440 </v>
   <v>      -0.00001987      -0.00036346       0.00062042 </v>
   <v>       0.00050854      -0.00050374      -0.00017360 </v>
   <v>      -0.01164371       0.01145178      -0.00522049 </v>
   <v>       0.00046353      -0.00016184      -0.00011078 </v>
   <v>      -0.00018479       0.00047599       0.00098891 </v>
   <v>       0.01242189      -0.01163847      -0.00814762 </v>
   <v>      -0.00041485       0.00027317      -0.00018732 </v>
   <v>      -0.00004934       0.00039535       0.00039223 </v>
  </varray>
  <varray name="stress" >
   <v>       2.10262174       0.02172235      -0.07456463 </v>
   <v>       0.02172988       1.83363862       0.01637298 </v>
   <v>      -0.07488865       0.01637409       0.41328891 </v>
  </varray>
  <energy>
   <i name="e_fr_energy">   -489.21480945 </i>
   <i name="e_wo_entrp">   -489.21480945 </i>
   <i name="e_0_energy">     -0.00000000 </i>
  </energy>
  <time name="totalsc"> 6417.92 6488.41</time>
  <eigenvalues>
   <array>
    <dimension dim="1">band</dimension>
    <dimension dim="2">kpoint</dimension>
    <dimension dim="3">spin</dimension>
    <field>eigene</field>
    <field>occ</field>
    <set>
     <set comment="spin 1">
      <set comment="kpoint 1">
       <r>  -51.0572    1.0000 </r>
       <r>  -51.0559    1.0000 </r>
       <r>  -51.0557    1.0000 </r>
       <r>  -51.0547    1.0000 </r>
       <r>  -51.0545    1.0000 </r>
       <r>  -51.0542    1.0000 </r>
       <r>  -51.0541    1.0000 </r>
       <r>  -51.0539    1.0000 </r>
       <r>  -51.0535    1.0000 </r>
       <r>  -51.0530    1.0000 </r>
       <r>  -51.0528    1.0000 </r>
       <r>  -51.0525    1.0000 </r>
       <r>  -51.0523    1.0000 </r>
       <r>  -51.0520    1.0000 </r>
       <r>  -51.0512    1.0000 </r>
       <r>  -51.0506    1.0000 </r>
       <r>  -51.0455    1.0000 </r>
       <r>  -51.0447    1.0000 </r>
       <r>  -51.0440    1.0000 </r>
       <r>  -51.0440    1.0000 </r>
       <r>  -51.0439    1.0000 </r>
       <r>  -51.0437    1.0000 </r>
       <r>  -51.0437    1.0000 </r>
       <r>  -51.0406    1.0000 </r>
       <r>  -51.0397    1.0000 </r>
       <r>  -51.0396    1.0000 </r>
       <r>  -51.0395    1.0000 </r>
       <r>  -51.0395    1.0000 </r>
       <r>  -51.0394    1.0000 </r>
       <r>  -51.0391    1.0000 </r>
       <r>  -51.0390    1.0000 </r>
       <r>  -51.0341    1.0000 </r>
       <r>  -49.7034    1.0000 </r>
       <r>  -49.7020    1.0000 </r>
       <r>  -49.7014    1.0000 </r>
       <r>  -49.7014    1.0000 </r>
       <r>  -49.7014    1.0000 </r>
       <r>  -49.7013    1.0000 </r>
       <r>  -49.7013    1.0000 </r>
       <r>  -49.6963    1.0000 </r>
       <r>  -49.6956    1.0000 </r>
       <r>  -49.6942    1.0000 </r>
       <r>  -49.6942    1.0000 </r>
       <r>  -49.6941    1.0000 </r>
       <r>  -49.6941    1.0000 </r>
       <r>  -49.6938    1.0000 </r>
       <r>  -49.6938    1.0000 </r>
       <r>  -49.6879    1.0000 </r>
       <r>  -49.6011    1.0000 </r>
       <r>  -49.5992    1.0000 </r>
       <r>  -49.5989    1.0000 </r>
       <r>  -49.5986    1.0000 </r>
       <r>  -49.5982    1.0000 </r>
       <r>  -49.5978    1.0000 </r>
       <r>  -49.5975    1.0000 </r>
       <r>  -49.5970    1.0000 </r>
       <r>  -49.5969    1.0000 </r>
       <r>  -49.5969    1.0000 </r>
       <r>  -49.5964    1.0000 </r>
       <r>  -49.5963    1.0000 </r>
       <r>  -49.5961    1.0000 </r>
       <r>  -49.5961    1.0000 </r>
       <r>  -49.5959    1.0000 </r>
       <r>  -49.5957    1.0000 </r>
       <r>  -49.5691    1.0000 </r>
       <r>  -49.5682    1.0000 </r>
       <r>  -49.5673    1.0000 </r>
       <r>  -49.5670    1.0000 </r>
       <r>  -49.5667    1.0000 </r>
       <r>  -49.5665    1.0000 </r>
       <r>  -49.5660    1.0000 </r>
       <r>  -49.5656    1.0000 </r>
       <r>  -49.5653    1.0000 </r>
       <r>  -49.5650    1.0000 </r>
       <r>  -49.5648    1.0000 </r>
       <r>  -49.5647    1.0000 </r>
       <r>  -49.5644    1.0000 </r>
       <r>  -49.5642    1.0000 </r>
       <r>  -49.5639    1.0000 </r>
       <r>  -49.5636    1.0000 </r>
       <r>  -49.5556    1.0000 </r>
       <r>  -49.5545    1.0000 </r>
       <r>  -49.5540    1.0000 </r>
       <r>  -49.5539    1.0000 </r>
       <r>  -49.5539    1.0000 </r>
       <r>  -49.5538    1.0000 </r>
       <r>  -49.5537    1.0000 </r>
       <r>  -49.5500    1.0000 </r>
       <r>  -49.5405    1.0000 </r>
       <r>  -49.5396    1.0000 </r>
       <r>  -49.5395    1.0000 </r>
       <r>  -49.5394    1.0000 </r>
       <r>  -49.5393    1.0000 </r>
       <r>  -49.5392    1.0000 </r>
       <r>  -49.5392    1.0000 </r>
       <r>  -49.5350    1.0000 </r>
       <r>  -39.8670    1.0000 </r>
       <r>  -39.8667    1.0000 </r>
       <r>  -39.8656    1.0000 </r>
       <r>  -39.8654    1.0000 </r>
       <r>  -39.8653    1.0000 </r>
       <r>  -39.8651    1.0000 </r>
       <r>  -39.8651    1.0000 </r>
       <r>  -39.8650    1.0000 </r>
       <r>  -39.8648    1.0000 </r>
       <r>  -39.8647    1.0000 </r>
       <r>  -39.8647    1.0000 </r>
       <r>  -39.8646    1.0000 </r>
       <r>  -39.8645    1.0000 </r>
       <r>  -39.8643    1.0000 </r>
       <r>  -39.8592    1.0000 </r>
       <r>  -39.8583    1.0000 </r>
       <r>  -13.2255    1.0000 </r>
       <r>  -13.2218    1.0000 </r>
       <r>  -13.2088    1.0000 </r>
       <r>  -13.1819    1.0000 </r>
       <r>  -13.1008    1.0000 </r>
       <r>  -13.0991    1.0000 </r>
       <r>  -13.0972    1.0000 </r>
       <r>  -13.0911    1.0000 </r>
       <r>  -13.0853    1.0000 </r>
       <r>  -13.0802    1.0000 </r>
       <r>  -13.0788    1.0000 </r>
       <r>  -13.0701    1.0000 </r>
       <r>  -12.9869    1.0000 </r>
       <r>  -12.9751    1.0000 </r>
       <r>  -12.9426    1.0000 </r>
       <r>  -12.9366    1.0000 </r>
       <r>   -7.6462    1.0000 </r>
       <r>   -7.4066    1.0000 </r>
       <r>   -7.3269    1.0000 </r>
       <r>   -7.3259    1.0000 </r>
       <r>   -7.3096    1.0000 </r>
       <r>   -7.3089    1.0000 </r>
       <r>   -7.3087    1.0000 </r>
       <r>   -7.3072    1.0000 </r>
       <r>   -7.1709    1.0000 </r>
       <r>   -7.1573    1.0000 </r>
       <r>   -7.1249    1.0000 </r>
       <r>   -7.1237    1.0000 </r>
       <r>   -7.0364    1.0000 </r>
       <r>   -7.0230    1.0000 </r>
       <r>   -7.0044    1.0000 </r>
       <r>   -7.0020    1.0000 </r>
       <r>   -6.9427    1.0000 </r>
       <r>   -6.9408    1.0000 </r>
       <r>   -6.8894    1.0000 </r>
       <r>   -6.8874    1.0000 </r>
       <r>   -6.8672    1.0000 </r>
       <r>   -6.8619    1.0000 </r>
       <r>   -6.8356    1.0000 </r>
       <r>   -6.8046    1.0000 </r>
       <r>   -1.9362    1.0000 </r>
       <r>   -1.9330    1.0000 </r>
       <r>   -1.9094    1.0000 </r>
       <r>   -1.8921    1.0000 </r>
       <r>   -1.6658    1.0000 </r>
       <r>   -1.6652    1.0000 </r>
       <r>   -1.6577    1.0000 </r>
       <r>   -1.6554    1.0000 </r>
       <r>   -1.5988    1.0000 </r>
       <r>   -1.5967    1.0000 </r>
       <r>   -1.5852    1.0000 </r>
       <r>   -1.5843    1.0000 </r>
       <r>   -1.2978    1.0000 </r>
       <r>   -1.1747    1.0000 </r>
       <r>   -1.1734    1.0000 </r>
       <r>   -1.1134    1.0000 </r>
       <r>   -1.1120    1.0000 </r>
       <r>   -1.1064    1.0000 </r>
       <r>   -1.0485    1.0000 </r>
       <r>   -0.9801    1.0000 </r>
       <r>   -0.9635    1.0000 </r>
       <r>   -0.9590    1.0000 </r>
       <r>   -0.9581    1.0000 </r>
       <r>   -0.9565    1.0000 </r>
       <r>   -0.9462    1.0000 </r>
       <r>   -0.9455    1.0000 </r>
       <r>   -0.9218    1.0000 </r>
       <r>   -0.8718    1.0000 </r>
       <r>   -0.8683    1.0000 </r>
       <r>   -0.8032    1.0000 </r>
       <r>   -0.8027    1.0000 </r>
       <r>   -0.8004    1.0000 </r>
       <r>   -0.7747    1.0000 </r>
       <r>   -0.7739    1.0000 </r>
       <r>   -0.7724    1.0000 </r>
       <r>   -0.7607    1.0000 </r>
       <r>   -0.7163    1.0000 </r>
       <r>   -0.7154    1.0000 </r>
       <r>   -0.7056    1.0000 </r>
       <r>   -0.7046    1.0000 </r>
       <r>   -0.6999    1.0000 </r>
       <r>   -0.6980    1.0000 </r>
       <r>   -0.6096    1.0000 </r>
       <r>   -0.6088    1.0000 </r>
       <r>   -0.5611    1.0000 </r>
       <r>   -0.5609    1.0000 </r>
       <r>   -0.5489    1.0000 </r>
       <r>   -0.5478    1.0000 </r>
       <r>   -0.4084    1.0000 </r>
       <r>   -0.4077    1.0000 </r>
       <r>   -0.3576    1.0000 </r>
       <r>   -0.3475    1.0000 </r>
       <r>   -0.3296    1.0000 </r>
       <r>   -0.3293    1.0000 </r>
       <r>   -0.2990    1.0000 </r>
       <r>   -0.2983    1.0000 </r>
       <r>   -0.2811    1.0000 </r>
       <r>   -0.2696    1.0000 </r>
       <r>   -0.2626    1.0000 </r>
       <r>   -0.2563    1.0000 </r>
       <r>   -0.2545    1.0000 </r>
       <r>   -0.2091    1.0000 </r>
       <r>   -0.2089    1.0000 </r>
       <r>   -0.1889    1.0000 </r>
       <r>   -0.1868    1.0000 </r>
       <r>   -0.1860    1.0000 </r>
       <r>   -0.1760    1.0000 </r>
       <r>   -0.1580    1.0000 </r>
       <r>   -0.1258    1.0000 </r>
       <r>   -0.1254    1.0000 </r>
       <r>   -0.1093    1.0000 </r>
       <r>   -0.0715    1.0000 </r>
       <r>   -0.0700    1.0000 </r>
       <r>   -0.0608    1.0000 </r>
       <r>   -0.0440    1.0000 </r>
       <r>   -0.0180    1.0000 </r>
       <r>   -0.0176    1.0000 </r>
       <r>   -0.0112    1.0000 </r>
       <r>    0.0013    1.0000 </r>
       <r>    0.0017    1.0000 </r>
       <r>    0.0462    1.0000 </r>
       <r>    0.0491    1.0000 </r>
       <r>    0.0497    1.0000 </r>
       <r>    0.0912    1.0000 </r>
       <r>    0.0936    1.0000 </r>
       <r>    0.1178    1.0000 </r>
       <r>    0.1181    1.0000 </r>
       <r>    0.1583    1.0000 </r>
       <r>    0.1621    1.0000 </r>
       <r>    0.1770    1.0000 </r>
       <r>    0.1791    1.0000 </r>
       <r>    0.1821    1.0000 </r>
       <r>    0.1825    1.0000 </r>
       <r>    0.1848    1.0000 </r>
       <r>    0.1887    1.0000 </r>
       <r>    0.1939    1.0000 </r>
       <r>    0.1945    1.0000 </r>
       <r>    0.2008    1.0000 </r>
       <r>    0.2011    1.0000 </r>
       <r>    0.2390    1.0000 </r>
       <r>    0.2508    1.0000 </r>
       <r>    0.2565    1.0000 </r>
       <r>    0.2567    1.0000 </r>
       <r>    0.2767    1.0000 </r>
       <r>    0.3367    1.0000 </r>
       <r>    0.3467    1.0000 </r>
       <r>    0.3589    1.0000 </r>
       <r>    0.3592    1.0000 </r>
       <r>    0.3603    1.0000 </r>
       <r>    0.3608    1.0000 </r>
       <r>    0.3884    1.0000 </r>
       <r>    0.4020    1.0000 </r>
       <r>    0.4524    1.0000 </r>
       <r>    0.4526    1.0000 </r>
       <r>    0.5789    1.0000 </r>
       <r>    0.5791    1.0000 </r>
       <r>    0.5845    1.0000 </r>
       <r>    0.6017    1.0000 </r>
       <r>    0.6018    1.0000 </r>
       <r>    0.6068    1.0000 </r>
       <r>    0.6072    1.0000 </r>
       <r>    0.6403    1.0000 </r>
       <r>    0.6514    1.0000 </r>
       <r>    0.6518    1.0000 </r>
       <r>    0.6623    1.0000 </r>
       <r>    0.6629    1.0000 </r>
       <r>    0.6651    1.0000 </r>
       <r>    0.6728    1.0000 </r>
       <r>    0.6744    1.0000 </r>
       <r>    0.6747    1.0000 </r>
       <r>    0.6968    1.0000 </r>
       <r>    0.7226    1.0000 </r>
       <r>    0.7829    1.0000 </r>
       <r>    0.8193    1.0000 </r>
       <r>    0.8292    1.0000 </r>
       <r>    0.8316    1.0000 </r>
       <r>    0.8319    1.0000 </r>
       <r>    0.8608    1.0000 </r>
       <r>    0.8615    1.0000 </r>
       <r>    0.9084    1.0000 </r>
       <r>    0.9399    1.0000 </r>
       <r>    0.9483    1.0000 </r>
       <r>    0.9488    1.0000 </r>
       <r>    0.9830    1.0000 </r>
       <r>    1.0255    1.0000 </r>
       <r>    1.0702    1.0000 </r>
       <r>    1.2691    1.0000 </r>
       <r>    1.2979    1.0000 </r>
       <r>    1.2983    1.0000 </r>
       <r>    1.3115    1.0000 </r>
       <r>    1.3324    1.0000 </r>
       <r>    1.3332    1.0000 </r>
       <r>    1.3375    1.0000 </r>
       <r>    1.3843    1.0000 </r>
       <r>    1.4050    1.0000 </r>
       <r>    1.4283    1.0000 </r>
       <r>    1.4668    1.0000 </r>
       <r>    1.4676    1.0000 </r>
       <r>    1.4680    1.0000 </r>
       <r>    1.4808    1.0000 </r>
       <r>    1.5107    1.0000 </r>
       <r>    1.5112    1.0000 </r>
       <r>    1.5409    1.0000 </r>
       <r>    1.5613    1.0000 </r>
       <r>    1.5769    1.0000 </r>
       <r>    1.6460    1.0000 </r>
       <r>    1.6557    1.0000 </r>
       <r>    1.7559    1.0000 </r>
       <r>    1.7561    1.0000 </r>
       <r>    1.7628    1.0000 </r>
       <r>    1.7778    1.0000 </r>
       <r>    1.8027    1.0000 </r>
       <r>    1.8035    1.0000 </r>
       <r>    1.8113    1.0000 </r>
       <r>    1.8228    1.0000 </r>
       <r>    1.8362    1.0000 </r>
       <r>    1.8370    1.0000 </r>
       <r>    1.8458    1.0000 </r>
       <r>    1.8473    1.0000 </r>
       <r>    1.8788    1.0000 </r>
       <r>    1.8901    1.0000 </r>
       <r>    1.9465    1.0000 </r>
       <r>    1.9931    1.0000 </r>
       <r>    1.9938    1.0000 </r>
       <r>    2.0059    1.0000 </r>
       <r>    2.0066    1.0000 </r>
       <r>    2.0098    1.0000 </r>
       <r>    2.0184    1.0000 </r>
       <r>    2.0196    1.0000 </r>
       <r>    2.0202    1.0000 </r>
       <r>    2.0397    1.0000 </r>
       <r>    2.0457    1.0000 </r>
       <r>    2.0467    1.0000 </r>
       <r>    2.0564    1.0000 </r>
       <r>    2.0682    1.0000 </r>
       <r>    2.0688    1.0000 </r>
       <r>    2.0916    1.0000 </r>
       <r>    2.1129    1.0000 </r>
       <r>    2.1902    1.0000 </r>
       <r>    2.1925    1.0000 </r>
       <r>    2.2473    1.0000 </r>
       <r>    2.2475    1.0000 </r>
       <r>    2.2710    1.0000 </r>
       <r>    2.2734    1.0000 </r>
       <r>    2.2849    1.0000 </r>
       <r>    2.4283    1.0000 </r>
       <r>    2.4662    1.0000 </r>
       <r>    2.4666    1.0000 </r>
       <r>    2.4777    1.0000 </r>
       <r>    2.5037    1.0000 </r>
       <r>    2.5276    1.0000 </r>
       <r>    2.5544    1.0000 </r>
       <r>    2.5927    1.0000 </r>
       <r>    2.6269    1.0000 </r>
       <r>    2.6275    1.0000 </r>
       <r>    2.6563    1.0000 </r>
       <r>    2.7380    1.0000 </r>
       <r>    2.7407    1.0000 </r>
       <r>    2.7606    1.0000 </r>
       <r>    2.7613    1.0000 </r>
       <r>    2.8335    1.0000 </r>
       <r>    2.8722    1.0000 </r>
       <r>    2.9264    1.0000 </r>
       <r>    2.9338    1.0000 </r>
       <r>    2.9348    1.0000 </r>
       <r>    2.9694    1.0000 </r>
       <r>    3.0271    1.0000 </r>
       <r>    3.0274    1.0000 </r>
       <r>    3.0620    1.0000 </r>
       <r>    3.0964    1.0000 </r>
       <r>    3.3079    1.0000 </r>
       <r>    3.3108    1.0000 </r>
       <r>    3.3483    1.0000 </r>
       <r>    3.3749    1.0000 </r>
       <r>    3.4216    1.0000 </r>
       <r>    3.4221    1.0000 </r>
       <r>    3.4398    1.0000 </r>
       <r>    3.4582    1.0000 </r>
       <r>    3.4589    1.0000 </r>
       <r>    3.5320    1.0000 </r>
       <r>    3.7478    1.0000 </r>
       <r>    3.8086    1.0000 </r>
       <r>    3.8093    1.0000 </r>
       <r>    3.8152    1.0000 </r>
       <r>    3.8157    1.0000 </r>
       <r>    3.8828    1.0000 </r>
       <r>    3.8829    1.0000 </r>
       <r>    3.9326    1.0000 </r>
       <r>    3.9354    1.0000 </r>
       <r>    3.9406    1.0000 </r>
       <r>    3.9410    1.0000 </r>
       <r>    4.0394    1.0000 </r>
       <r>    4.0395    1.0000 </r>
       <r>    4.0704    1.0000 </r>
       <r>    4.1388    1.0000 </r>
       <r>    4.1492    1.0000 </r>
       <r>    4.1513    1.0000 </r>
       <r>    4.3152    1.0000 </r>
       <r>    4.3181    1.0000 </r>
       <r>    4.3383    1.0000 </r>
       <r>    4.3587    1.0000 </r>
       <r>    4.3589    1.0000 </r>
       <r>    4.4283    1.0000 </r>
       <r>    4.4447    1.0000 </r>
       <r>    4.4465    1.0000 </r>
       <r>    4.4535    1.0000 </r>
       <r>    4.4557    1.0000 </r>
       <r>    4.4560    1.0000 </r>
       <r>    4.6351    1.0000 </r>
       <r>    4.6364    1.0000 </r>
       <r>    4.7315    1.0000 </r>
       <r>    4.7319    1.0000 </r>
       <r>    4.7633    1.0000 </r>
       <r>    4.7637    1.0000 </r>
       <r>    4.7683    1.0000 </r>
       <r>    4.7693    1.0000 </r>
       <r>    4.8098    1.0000 </r>
       <r>    4.8519    1.0000 </r>
       <r>    4.8533    1.0000 </r>
       <r>    4.8569    1.0000 </r>
       <r>    7.3436    0.0000 </r>
       <r>    8.1283    0.0000 </r>
       <r>    8.4447    0.0000 </r>
       <r>    8.6419    0.0000 </r>
       <r>    8.6434    0.0000 </r>
       <r>    8.8578    0.0000 </r>
       <r>    9.0845    0.0000 </r>
       <r>    9.0847    0.0000 </r>
       <r>    9.2613    0.0000 </r>
       <r>    9.2735    0.0000 </r>
       <r>    9.2880    0.0000 </r>
       <r>    9.2892    0.0000 </r>
       <r>    9.7268    0.0000 </r>
       <r>    9.7715    0.0000 </r>
       <r>    9.7727    0.0000 </r>
       <r>    9.7901    0.0000 </r>
       <r>    9.8545    0.0000 </r>
       <r>    9.8554    0.0000 </r>
       <r>    9.8596    0.0000 </r>
       <r>    9.8793    0.0000 </r>
       <r>    9.8897    0.0000 </r>
       <r>   10.0602    0.0000 </r>
       <r>   10.0828    0.0000 </r>
       <r>   10.1358    0.0000 </r>
       <r>   10.1363    0.0000 </r>
       <r>   10.3060    0.0000 </r>
       <r>   10.3065    0.0000 </r>
       <r>   10.4159    0.0000 </r>
       <r>   10.5258    0.0000 </r>
       <r>   10.5707    0.0000 </r>
       <r>   10.5720    0.0000 </r>
       <r>   10.5722    0.0000 </r>
       <r>   10.5774    0.0000 </r>
       <r>   10.5783    0.0000 </r>
       <r>   10.6755    0.0000 </r>
       <r>   10.9755    0.0000 </r>
       <r>   11.0193    0.0000 </r>
       <r>   11.0197    0.0000 </r>
       <r>   11.0400    0.0000 </r>
       <r>   11.0404    0.0000 </r>
       <r>   11.0772    0.0000 </r>
       <r>   11.1278    0.0000 </r>
       <r>   11.1782    0.0000 </r>
       <r>   11.1879    0.0000 </r>
       <r>   11.2286    0.0000 </r>
       <r>   11.2488    0.0000 </r>
       <r>   11.2491    0.0000 </r>
       <r>   11.2908    0.0000 </r>
       <r>   11.3062    0.0000 </r>
       <r>   11.4168    0.0000 </r>
       <r>   11.4178    0.0000 </r>
       <r>   11.4584    0.0000 </r>
       <r>   11.5202    0.0000 </r>
       <r>   11.5206    0.0000 </r>
       <r>   11.5304    0.0000 </r>
       <r>   11.5764    0.0000 </r>
       <r>   11.6797    0.0000 </r>
       <r>   11.6803    0.0000 </r>
       <r>   11.7968    0.0000 </r>
       <r>   11.7971    0.0000 </r>
       <r>   11.8156    0.0000 </r>
       <r>   11.8159    0.0000 </r>
       <r>   11.8822    0.0000 </r>
       <r>   11.9414    0.0000 </r>
       <r>   11.9760    0.0000 </r>
       <r>   11.9767    0.0000 </r>
       <r>   11.9816    0.0000 </r>
       <r>   12.0282    0.0000 </r>
       <r>   12.0286    0.0000 </r>
       <r>   12.0582    0.0000 </r>
       <r>   12.1617    0.0000 </r>
       <r>   12.2424    0.0000 </r>
       <r>   12.2573    0.0000 </r>
       <r>   12.2575    0.0000 </r>
       <r>   12.3153    0.0000 </r>
       <r>   12.3163    0.0000 </r>
       <r>   12.3218    0.0000 </r>
       <r>   12.3477    0.0000 </r>
       <r>   12.4616    0.0000 </r>
       <r>   12.4799    0.0000 </r>
       <r>   12.5167    0.0000 </r>
       <r>   12.5171    0.0000 </r>
       <r>   12.6143    0.0000 </r>
       <r>   12.6145    0.0000 </r>
       <r>   12.6608    0.0000 </r>
       <r>   12.6633    0.0000 </r>
       <r>   12.6634    0.0000 </r>
       <r>   12.6901    0.0000 </r>
       <r>   12.7469    0.0000 </r>
       <r>   12.8315    0.0000 </r>
       <r>   12.8720    0.0000 </r>
       <r>   12.8727    0.0000 </r>
       <r>   12.8729    0.0000 </r>
       <r>   13.1199    0.0000 </r>
       <r>   13.1206    0.0000 </r>
       <r>   13.2008    0.0000 </r>
       <r>   13.3826    0.0000 </r>
       <r>   13.4102    0.0000 </r>
       <r>   13.4113    0.0000 </r>
       <r>   13.4328    0.0000 </r>
       <r>   13.4386    0.0000 </r>
       <r>   13.4483    0.0000 </r>
       <r>   13.4856    0.0000 </r>
       <r>   13.5102    0.0000 </r>
       <r>   13.5455    0.0000 </r>
       <r>   13.5485    0.0000 </r>
      </set>
      <set comment="kpoint 2">
       <r>  -51.0572    1.0000 </r>
       <r>  -51.0558    1.0000 </r>
       <r>  -51.0556    1.0000 </r>
       <r>  -51.0549    1.0000 </r>
       <r>  -51.0545    1.0000 </r>
       <r>  -51.0543    1.0000 </r>
       <r>  -51.0541    1.0000 </r>
       <r>  -51.0539    1.0000 </r>
       <r>  -51.0534    1.0000 </r>
       <r>  -51.0531    1.0000 </r>
       <r>  -51.0528    1.0000 </r>
       <r>  -51.0524    1.0000 </r>
       <r>  -51.0521    1.0000 </r>
       <r>  -51.0517    1.0000 </r>
       <r>  -51.0513    1.0000 </r>
       <r>  -51.0509    1.0000 </r>
       <r>  -51.0455    1.0000 </r>
       <r>  -51.0447    1.0000 </r>
       <r>  -51.0441    1.0000 </r>
       <r>  -51.0439    1.0000 </r>
       <r>  -51.0439    1.0000 </r>
       <r>  -51.0437    1.0000 </r>
       <r>  -51.0437    1.0000 </r>
       <r>  -51.0406    1.0000 </r>
       <r>  -51.0397    1.0000 </r>
       <r>  -51.0396    1.0000 </r>
       <r>  -51.0395    1.0000 </r>
       <r>  -51.0395    1.0000 </r>
       <r>  -51.0394    1.0000 </r>
       <r>  -51.0392    1.0000 </r>
       <r>  -51.0390    1.0000 </r>
       <r>  -51.0341    1.0000 </r>
       <r>  -49.7034    1.0000 </r>
       <r>  -49.7020    1.0000 </r>
       <r>  -49.7014    1.0000 </r>
       <r>  -49.7014    1.0000 </r>
       <r>  -49.7014    1.0000 </r>
       <r>  -49.7013    1.0000 </r>
       <r>  -49.7013    1.0000 </r>
       <r>  -49.6963    1.0000 </r>
       <r>  -49.6956    1.0000 </r>
       <r>  -49.6942    1.0000 </r>
       <r>  -49.6942    1.0000 </r>
       <r>  -49.6941    1.0000 </r>
       <r>  -49.6941    1.0000 </r>
       <r>  -49.6938    1.0000 </r>
       <r>  -49.6938    1.0000 </r>
       <r>  -49.6879    1.0000 </r>
       <r>  -49.6011    1.0000 </r>
       <r>  -49.5992    1.0000 </r>
       <r>  -49.5989    1.0000 </r>
       <r>  -49.5987    1.0000 </r>
       <r>  -49.5983    1.0000 </r>
       <r>  -49.5978    1.0000 </r>
       <r>  -49.5975    1.0000 </r>
       <r>  -49.5971    1.0000 </r>
       <r>  -49.5970    1.0000 </r>
       <r>  -49.5968    1.0000 </r>
       <r>  -49.5964    1.0000 </r>
       <r>  -49.5963    1.0000 </r>
       <r>  -49.5961    1.0000 </r>
       <r>  -49.5961    1.0000 </r>
       <r>  -49.5958    1.0000 </r>
       <r>  -49.5957    1.0000 </r>
       <r>  -49.5691    1.0000 </r>
       <r>  -49.5682    1.0000 </r>
       <r>  -49.5673    1.0000 </r>
       <r>  -49.5670    1.0000 </r>
       <r>  -49.5667    1.0000 </r>
       <r>  -49.5665    1.0000 </r>
       <r>  -49.5660    1.0000 </r>
       <r>  -49.5656    1.0000 </r>
       <r>  -49.5653    1.0000 </r>
       <r>  -49.5650    1.0000 </r>
       <r>  -49.5649    1.0000 </r>
       <r>  -49.5647    1.0000 </r>
       <r>  -49.5644    1.0000 </r>
       <r>  -49.5642    1.0000 </r>
       <r>  -49.5639    1.0000 </r>
       <r>  -49.5636    1.0000 </r>
       <r>  -49.5556    1.0000 </r>
       <r>  -49.5545    1.0000 </r>
       <r>  -49.5540    1.0000 </r>
       <r>  -49.5539    1.0000 </r>
       <r>  -49.5539    1.0000 </r>
       <r>  -49.5538    1.0000 </r>
       <r>  -49.5537    1.0000 </r>
       <r>  -49.5500    1.0000 </r>
       <r>  -49.5405    1.0000 </r>
       <r>  -49.5396    1.0000 </r>
       <r>  -49.5395    1.0000 </r>
       <r>  -49.5394    1.0000 </r>
       <r>  -49.5393    1.0000 </r>
       <r>  -49.5392    1.0000 </r>
       <r>  -49.5392    1.0000 </r>
       <r>  -49.5350    1.0000 </r>
       <r>  -39.8670    1.0000 </r>
       <r>  -39.8667    1.0000 </r>
       <r>  -39.8656    1.0000 </r>
       <r>  -39.8653    1.0000 </r>
       <r>  -39.8653    1.0000 </r>
       <r>  -39.8651    1.0000 </r>
       <r>  -39.8650    1.0000 </r>
       <r>  -39.8650    1.0000 </r>
       <r>  -39.8650    1.0000 </r>
       <r>  -39.8647    1.0000 </r>
       <r>  -39.8647    1.0000 </r>
       <r>  -39.8645    1.0000 </r>
       <r>  -39.8645    1.0000 </r>
       <r>  -39.8643    1.0000 </r>
       <r>  -39.8592    1.0000 </r>
       <r>  -39.8583    1.0000 </r>
       <r>  -13.2081    1.0000 </r>
       <r>  -13.2046    1.0000 </r>
       <r>  -13.1935    1.0000 </r>
       <r>  -13.1689    1.0000 </r>
       <r>  -13.1597    1.0000 </r>
[...]
       <r>   -49.2838     0.0000     0.0000 </r>
       <r>   -49.0430     0.0000     0.0000 </r>
       <r>   -48.8021     0.0000     0.0000 </r>
       <r>   -48.5613     0.0000     0.0000 </r>
       <r>   -48.3205     0.0000     0.0000 </r>
       <r>   -48.0796     0.0000     0.0000 </r>
       <r>   -47.8388     0.0000     0.0000 </r>
       <r>   -47.5980     0.0000     0.0000 </r>
       <r>   -47.3571     0.0000     0.0000 </r>
       <r>   -47.1163     0.0000     0.0000 </r>
       <r>   -46.8755     0.0000     0.0000 </r>
       <r>   -46.6347     0.0000     0.0000 </r>
       <r>   -46.3938     0.3814     0.0919 </r>
       <r>   -46.1530   132.4435    31.9885 </r>
       <r>   -45.9122    59.8421    46.4004 </r>
       <r>   -45.6713   205.9507    96.0000 </r>
       <r>   -45.4305     0.0000    96.0000 </r>
       <r>   -45.1897     0.0000    96.0000 </r>
       <r>   -44.9488     0.0000    96.0000 </r>
       <r>   -44.7080     0.0000    96.0000 </r>
       <r>   -44.4672     0.0000    96.0000 </r>
       <r>   -44.2263     0.0000    96.0000 </r>
       <r>   -43.9855     0.0000    96.0000 </r>
       <r>   -43.7447     0.0000    96.0000 </r>
       <r>   -43.5038     0.0000    96.0000 </r>
       <r>   -43.2630     0.0000    96.0000 </r>
       <r>   -43.0222     0.0000    96.0000 </r>
       <r>   -42.7813     0.0000    96.0000 </r>
       <r>   -42.5405     0.0000    96.0000 </r>
       <r>   -42.2997     0.0000    96.0000 </r>
       <r>   -42.0588     0.0000    96.0000 </r>
       <r>   -41.8180     0.0000    96.0000 </r>
       <r>   -41.5772     0.0000    96.0000 </r>
       <r>   -41.3363     0.0000    96.0000 </r>
       <r>   -41.0955     0.0000    96.0000 </r>
       <r>   -40.8547     0.0000    96.0000 </r>
       <r>   -40.6138     0.0000    96.0000 </r>
       <r>   -40.3730     0.0000    96.0000 </r>
       <r>   -40.1322     0.0000    96.0000 </r>
       <r>   -39.8913    13.7042    99.3004 </r>
       <r>   -39.6505    52.7321   112.0000 </r>
       <r>   -39.4097     0.0000   112.0000 </r>
       <r>   -39.1689     0.0000   112.0000 </r>
       <r>   -38.9280     0.0000   112.0000 </r>
       <r>   -38.6872     0.0000   112.0000 </r>
       <r>   -38.4464     0.0000   112.0000 </r>
       <r>   -38.2055     0.0000   112.0000 </r>
       <r>   -37.9647     0.0000   112.0000 </r>
       <r>   -37.7239     0.0000   112.0000 </r>
       <r>   -37.4830     0.0000   112.0000 </r>
       <r>   -37.2422     0.0000   112.0000 </r>
       <r>   -37.0014     0.0000   112.0000 </r>
       <r>   -36.7605     0.0000   112.0000 </r>
       <r>   -36.5197     0.0000   112.0000 </r>
       <r>   -36.2789     0.0000   112.0000 </r>
       <r>   -36.0380     0.0000   112.0000 </r>
       <r>   -35.7972     0.0000   112.0000 </r>
       <r>   -35.5564     0.0000   112.0000 </r>
       <r>   -35.3155     0.0000   112.0000 </r>
       <r>   -35.0747     0.0000   112.0000 </r>
       <r>   -34.8339     0.0000   112.0000 </r>
       <r>   -34.5930     0.0000   112.0000 </r>
       <r>   -34.3522     0.0000   112.0000 </r>
       <r>   -34.1114     0.0000   112.0000 </r>
       <r>   -33.8705     0.0000   112.0000 </r>
       <r>   -33.6297     0.0000   112.0000 </r>
       <r>   -33.3889     0.0000   112.0000 </r>
       <r>   -33.1480     0.0000   112.0000 </r>
       <r>   -32.9072     0.0000   112.0000 </r>
       <r>   -32.6664     0.0000   112.0000 </r>
       <r>   -32.4256     0.0000   112.0000 </r>
       <r>   -32.1847     0.0000   112.0000 </r>
       <r>   -31.9439     0.0000   112.0000 </r>
       <r>   -31.7031     0.0000   112.0000 </r>
       <r>   -31.4622     0.0000   112.0000 </r>
       <r>   -31.2214     0.0000   112.0000 </r>
       <r>   -30.9806     0.0000   112.0000 </r>
       <r>   -30.7397     0.0000   112.0000 </r>
       <r>   -30.4989     0.0000   112.0000 </r>
       <r>   -30.2581     0.0000   112.0000 </r>
       <r>   -30.0172     0.0000   112.0000 </r>
       <r>   -29.7764     0.0000   112.0000 </r>
       <r>   -29.5356     0.0000   112.0000 </r>
       <r>   -29.2947     0.0000   112.0000 </r>
       <r>   -29.0539     0.0000   112.0000 </r>
       <r>   -28.8131     0.0000   112.0000 </r>
       <r>   -28.5722     0.0000   112.0000 </r>
       <r>   -28.3314     0.0000   112.0000 </r>
       <r>   -28.0906     0.0000   112.0000 </r>
       <r>   -27.8497     0.0000   112.0000 </r>
       <r>   -27.6089     0.0000   112.0000 </r>
       <r>   -27.3681     0.0000   112.0000 </r>
       <r>   -27.1272     0.0000   112.0000 </r>
       <r>   -26.8864     0.0000   112.0000 </r>
       <r>   -26.6456     0.0000   112.0000 </r>
       <r>   -26.4047     0.0000   112.0000 </r>
       <r>   -26.1639     0.0000   112.0000 </r>
       <r>   -25.9231     0.0000   112.0000 </r>
       <r>   -25.6823     0.0000   112.0000 </r>
       <r>   -25.4414     0.0000   112.0000 </r>
       <r>   -25.2006     0.0000   112.0000 </r>
       <r>   -24.9598     0.0000   112.0000 </r>
       <r>   -24.7189     0.0000   112.0000 </r>
       <r>   -24.4781     0.0000   112.0000 </r>
       <r>   -24.2373     0.0000   112.0000 </r>
       <r>   -23.9964     0.0000   112.0000 </r>
       <r>   -23.7556     0.0000   112.0000 </r>
       <r>   -23.5148     0.0000   112.0000 </r>
       <r>   -23.2739     0.0000   112.0000 </r>
       <r>   -23.0331     0.0000   112.0000 </r>
       <r>   -22.7923     0.0000   112.0000 </r>
       <r>   -22.5514     0.0000   112.0000 </r>
       <r>   -22.3106     0.0000   112.0000 </r>
       <r>   -22.0698     0.0000   112.0000 </r>
       <r>   -21.8289     0.0000   112.0000 </r>
       <r>   -21.5881     0.0000   112.0000 </r>
       <r>   -21.3473     0.0000   112.0000 </r>
       <r>   -21.1064     0.0000   112.0000 </r>
       <r>   -20.8656     0.0000   112.0000 </r>
       <r>   -20.6248     0.0000   112.0000 </r>
       <r>   -20.3839     0.0000   112.0000 </r>
       <r>   -20.1431     0.0000   112.0000 </r>
       <r>   -19.9023     0.0000   112.0000 </r>
       <r>   -19.6614     0.0000   112.0000 </r>
       <r>   -19.4206     0.0000   112.0000 </r>
       <r>   -19.1798     0.0000   112.0000 </r>
       <r>   -18.9389     0.0000   112.0000 </r>
       <r>   -18.6981     0.0000   112.0000 </r>
       <r>   -18.4573     0.0000   112.0000 </r>
       <r>   -18.2165     0.0000   112.0000 </r>
       <r>   -17.9756     0.0000   112.0000 </r>
       <r>   -17.7348     0.0000   112.0000 </r>
       <r>   -17.4940     0.0000   112.0000 </r>
       <r>   -17.2531     0.0000   112.0000 </r>
       <r>   -17.0123     0.0000   112.0000 </r>
       <r>   -16.7715     0.0000   112.0000 </r>
       <r>   -16.5306     0.0000   112.0000 </r>
       <r>   -16.2898     0.0000   112.0000 </r>
       <r>   -16.0490     0.0000   112.0000 </r>
       <r>   -15.8081     0.0000   112.0000 </r>
       <r>   -15.5673     0.0000   112.0000 </r>
       <r>   -15.3265     0.0000   112.0000 </r>
       <r>   -15.0856     0.0000   112.0000 </r>
       <r>   -14.8448     0.0000   112.0000 </r>
       <r>   -14.6040     0.0000   112.0000 </r>
       <r>   -14.3631     0.0000   112.0000 </r>
       <r>   -14.1223     0.0000   112.0000 </r>
       <r>   -13.8815     0.0000   112.0000 </r>
       <r>   -13.6406     0.0000   112.0000 </r>
       <r>   -13.3998     0.0000   112.0000 </r>
       <r>   -13.1590     0.0000   112.0000 </r>
       <r>   -12.9181     0.0081   112.0019 </r>
       <r>   -12.6773    42.2814   122.1847 </r>
       <r>   -12.4365    24.1468   128.0000 </r>
       <r>   -12.1956     0.0000   128.0000 </r>
       <r>   -11.9548     0.0000   128.0000 </r>
       <r>   -11.7140     0.0000   128.0000 </r>
       <r>   -11.4732     0.0000   128.0000 </r>
       <r>   -11.2323     0.0000   128.0000 </r>
       <r>   -10.9915     0.0000   128.0000 </r>
       <r>   -10.7507     0.0000   128.0000 </r>
       <r>   -10.5098     0.0000   128.0000 </r>
       <r>   -10.2690     0.0000   128.0000 </r>
       <r>   -10.0282     0.0000   128.0000 </r>
       <r>    -9.7873     0.0000   128.0000 </r>
       <r>    -9.5465     0.0000   128.0000 </r>
       <r>    -9.3057     0.0000   128.0000 </r>
       <r>    -9.0648     0.0000   128.0000 </r>
       <r>    -8.8240     0.0000   128.0000 </r>
       <r>    -8.5832     0.0000   128.0000 </r>
       <r>    -8.3423     0.0000   128.0000 </r>
       <r>    -8.1015     0.0000   128.0000 </r>
       <r>    -7.8607     0.0000   128.0000 </r>
       <r>    -7.6198     0.0000   128.0000 </r>
       <r>    -7.3790     0.5421   128.1306 </r>
       <r>    -7.1382    13.9502   131.4902 </r>
       <r>    -6.8973    29.4862   138.5914 </r>
       <r>    -6.6565    26.4124   144.9524 </r>
       <r>    -6.4157    29.2147   151.9883 </r>
       <r>    -6.1748     0.0488   152.0000 </r>
       <r>    -5.9340     0.0000   152.0000 </r>
       <r>    -5.6932     0.0000   152.0000 </r>
       <r>    -5.4523     0.0000   152.0000 </r>
       <r>    -5.2115     0.0000   152.0000 </r>
       <r>    -4.9707     0.0000   152.0000 </r>
       <r>    -4.7298     0.0000   152.0000 </r>
       <r>    -4.4890     0.0000   152.0000 </r>
       <r>    -4.2482     0.0000   152.0000 </r>
       <r>    -4.0074     0.0000   152.0000 </r>
       <r>    -3.7665     0.0000   152.0000 </r>
       <r>    -3.5257     0.0000   152.0000 </r>
       <r>    -3.2849     0.0000   152.0000 </r>
       <r>    -3.0440     0.0000   152.0000 </r>
       <r>    -2.8032     0.0000   152.0000 </r>
       <r>    -2.5624     0.0000   152.0000 </r>
       <r>    -2.3215     0.0000   152.0000 </r>
       <r>    -2.0807     0.0000   152.0000 </r>
       <r>    -1.8399     0.0000   152.0000 </r>
       <r>    -1.5990     0.0000   152.0000 </r>
       <r>    -1.3582     0.0000   152.0000 </r>
       <r>    -1.1174     0.0000   152.0000 </r>
       <r>    -0.8765     0.0000   152.0000 </r>
       <r>    -0.6357     0.0000   152.0000 </r>
       <r>    -0.3949     4.2080   153.0134 </r>
       <r>    -0.1540    20.3306   157.9097 </r>
       <r>     0.0868    12.2557   160.8613 </r>
       <r>     0.3276    18.5875   165.3377 </r>
       <r>     0.5685    29.5728   172.4598 </r>
       <r>     0.8093    39.1772   181.8950 </r>
       <r>     1.0501    37.2854   190.8745 </r>
       <r>     1.2910    31.1828   198.3843 </r>
       <r>     1.5318    20.8132   203.3968 </r>
       <r>     1.7726    28.9353   210.3653 </r>
       <r>     2.0135    36.9678   219.2684 </r>
       <r>     2.2543    27.5498   225.9033 </r>
       <r>     2.4951    27.0242   232.4116 </r>
       <r>     2.7359    30.9021   239.8538 </r>
       <r>     2.9768    44.4485   250.5584 </r>
       <r>     3.2176    45.5072   261.5180 </r>
       <r>     3.4584    31.9747   269.2186 </r>
       <r>     3.6993    12.3748   272.1988 </r>
       <r>     3.9401    17.8343   276.4939 </r>
       <r>     4.1809    52.4228   289.1190 </r>
       <r>     4.4218    45.0119   299.9593 </r>
       <r>     4.6626    16.7736   303.9989 </r>
       <r>     4.9034     0.0045   304.0000 </r>
       <r>     5.1443     0.0000   304.0000 </r>
       <r>     5.3851     0.0000   304.0000 </r>
       <r>     5.6259     0.0000   304.0000 </r>
       <r>     5.8668     0.0000   304.0000 </r>
       <r>     6.1076     0.0000   304.0000 </r>
       <r>     6.3484     0.4101   304.0988 </r>
       <r>     6.5893     4.2035   305.1111 </r>
       <r>     6.8301     7.9233   307.0193 </r>
       <r>     7.0709    19.4557   311.7048 </r>
       <r>     7.3118    44.2395   322.3591 </r>
       <r>     7.5526    53.4644   335.2351 </r>
       <r>     7.7934    63.2068   350.4573 </r>
       <r>     8.0343    66.0330   366.3602 </r>
       <r>     8.2751    70.1987   383.2663 </r>
       <r>     8.5159    58.9867   397.4722 </r>
       <r>     8.7568    58.7288   411.6160 </r>
       <r>     8.9976    47.7389   423.1130 </r>
       <r>     9.2384    29.7375   430.2748 </r>
       <r>     9.4792     8.8234   432.3997 </r>
       <r>     9.7201     3.0553   433.1356 </r>
       <r>     9.9609     8.3762   435.1528 </r>
       <r>    10.2017    18.7189   439.6610 </r>
       <r>    10.4426    17.9593   443.9861 </r>
       <r>    10.6834    17.1861   448.1251 </r>
       <r>    10.9242    27.5875   454.7691 </r>
       <r>    11.1651    18.9676   459.3371 </r>
       <r>    11.4059    24.0137   465.1204 </r>
       <r>    11.6467    14.7360   468.6693 </r>
       <r>    11.8876    13.8190   471.9973 </r>
       <r>    12.1284    16.0993   475.8746 </r>
       <r>    12.3692    36.8779   484.7560 </r>
       <r>    12.6101    32.5869   492.6040 </r>
       <r>    12.8509    29.7669   499.7728 </r>
       <r>    13.0917    20.2443   504.6483 </r>
       <r>    13.3326    22.2483   510.0064 </r>
       <r>    13.5734    27.2337   516.5651 </r>
       <r>    13.8142    23.7169   522.2769 </r>
       <r>    14.0551    26.2699   528.6035 </r>
       <r>    14.2959    19.1596   533.2178 </r>
       <r>    14.5367    16.6985   537.2393 </r>
       <r>    14.7776     3.1585   538.0000 </r>
       <r>    15.0184     0.0000   538.0000 </r>
       <r>    15.2592     0.0000   538.0000 </r>
       <r>    15.5001     0.0000   538.0000 </r>
       <r>    15.7409     0.0000   538.0000 </r>
       <r>    15.9817     0.0000   538.0000 </r>
       <r>    16.2226     0.0000   538.0000 </r>
       <r>    16.4634     0.0000   538.0000 </r>
       <r>    16.7042     0.0000   538.0000 </r>
       <r>    16.9450     0.0000   538.0000 </r>
       <r>    17.1859     0.0000   538.0000 </r>
       <r>    17.4267     0.0000   538.0000 </r>
       <r>    17.6675     0.0000   538.0000 </r>
       <r>    17.9084     0.0000   538.0000 </r>
      </set>
     </set>
    </array>
   </total>
  </dos>
 </calculation>
 <structure name="finalpos" >
  <crystal>
   <varray name="basis" >
    <v>      11.11223374       0.00000000      -0.00029034 </v>
    <v>       0.00000000      11.11745194       0.00000000 </v>
    <v>      -2.77510898       0.00000000      10.19872221 </v>
   </varray>
   <i name="volume">   1259.93837498 </i>
   <varray name="rec_basis" >
    <v>       0.08999155       0.00000000       0.02448702 </v>
    <v>       0.00000000       0.08994867       0.00000000 </v>
    <v>       0.00000256       0.00000000       0.09805220 </v>
   </varray>
  </crystal>
  <varray name="positions" >
   <v>       0.28894969       0.46933910       0.15583616 </v>
   <v>       0.78894969       0.46933910       0.15583616 </v>
   <v>       0.28894969       0.96933910       0.15583616 </v>
   <v>       0.78894969       0.96933910       0.15583616 </v>
   <v>       0.04646972       0.21934976       0.18586770 </v>
   <v>       0.54646972       0.21934976       0.18586770 </v>
   <v>       0.04646972       0.71934976       0.18586770 </v>
   <v>       0.54646972       0.71934976       0.18586770 </v>
   <v>       0.45353028       0.46934976       0.81413230 </v>
   <v>       0.95353028       0.46934976       0.81413230 </v>
   <v>       0.45353028       0.96934976       0.81413230 </v>
   <v>       0.95353028       0.96934976       0.81413230 </v>
   <v>       0.21105031       0.21933910       0.84416384 </v>
   <v>       0.71105031       0.21933910       0.84416384 </v>
   <v>       0.21105031       0.71933910       0.84416384 </v>
   <v>       0.71105031       0.71933910       0.84416384 </v>
   <v>       0.07654971       0.09530995       0.80250593 </v>
   <v>       0.57654971       0.09530995       0.80250593 </v>
   <v>       0.07654971       0.59530995       0.80250593 </v>
   <v>       0.57654971       0.59530995       0.80250593 </v>
   <v>       0.32470466       0.34338175       0.80250383 </v>
   <v>       0.82470466       0.34338175       0.80250383 </v>
   <v>       0.32470466       0.84338175       0.80250383 </v>
   <v>       0.82470466       0.84338175       0.80250383 </v>
   <v>       0.17529534       0.09338175       0.19749617 </v>
   <v>       0.67529534       0.09338175       0.19749617 </v>
   <v>       0.17529534       0.59338175       0.19749617 </v>
   <v>       0.67529534       0.59338175       0.19749617 </v>
   <v>       0.42345029       0.34530995       0.19749407 </v>
   <v>       0.92345029       0.34530995       0.19749407 </v>
   <v>       0.42345029       0.84530995       0.19749407 </v>
   <v>       0.92345029       0.84530995       0.19749407 </v>
   <v>       0.21868463       0.34523395       0.37102476 </v>
   <v>       0.71868463       0.34523395       0.37102476 </v>
   <v>       0.21868463       0.84523395       0.37102476 </v>
   <v>       0.71868463       0.84523395       0.37102476 </v>
   <v>       0.46681660       0.09344897       0.37102399 </v>
   <v>       0.96681660       0.09344897       0.37102399 </v>
   <v>       0.46681660       0.59344897       0.37102399 </v>
   <v>       0.96681660       0.59344897       0.37102399 </v>
   <v>       0.03318340       0.34344897       0.62897601 </v>
   <v>       0.53318340       0.34344897       0.62897601 </v>
   <v>       0.03318340       0.84344897       0.62897601 </v>
   <v>       0.53318340       0.84344897       0.62897601 </v>
   <v>       0.28131537       0.09523395       0.62897524 </v>
   <v>       0.78131537       0.09523395       0.62897524 </v>
   <v>       0.28131537       0.59523395       0.62897524 </v>
   <v>       0.78131537       0.59523395       0.62897524 </v>
   <v>       0.12439279       0.34434306       0.00000412 </v>
   <v>       0.62439279       0.34434306       0.00000412 </v>
   <v>       0.12439279       0.84434306       0.00000412 </v>
   <v>       0.62439279       0.84434306       0.00000412 </v>
   <v>       0.37560721       0.09434306       0.99999588 </v>
   <v>       0.87560721       0.09434306       0.99999588 </v>
   <v>       0.37560721       0.59434306       0.99999588 </v>
   <v>       0.87560721       0.59434306       0.99999588 </v>
   <v>       0.03824426       0.10634799       0.60537695 </v>
   <v>       0.53824426       0.10634799       0.60632306 </v>
   <v>       0.03824426       0.60634799       0.60632306 </v>
   <v>       0.53824426       0.60634799       0.60632306 </v>
   <v>       0.26492712       0.33232651       0.60632763 </v>
   <v>       0.76492712       0.33232651       0.60632763 </v>
   <v>       0.26492712       0.83232651       0.60632763 </v>
   <v>       0.76492712       0.83232651       0.60632763 </v>
   <v>       0.23507288       0.08232651       0.39367237 </v>
   <v>       0.73507288       0.08232651       0.39367237 </v>
   <v>       0.23507288       0.58232651       0.39367237 </v>
   <v>       0.73507288       0.58232651       0.39367237 </v>
   <v>       0.46175574       0.35634799       0.39367694 </v>
   <v>       0.96175574       0.35634799       0.39367694 </v>
   <v>       0.46175574       0.85634799       0.39367694 </v>
   <v>       0.96175574       0.85634799       0.39367694 </v>
   <v>       0.03848398       0.46936404       0.15397331 </v>
   <v>       0.53848398       0.46936404       0.15397331 </v>
   <v>       0.03848398       0.96936404       0.15397331 </v>
   <v>       0.53848398       0.96936404       0.15397331 </v>
   <v>       0.28861657       0.21935690       0.15447525 </v>
   <v>       0.78861657       0.21935690       0.15447525 </v>
   <v>       0.28861657       0.71935690       0.15447525 </v>
   <v>       0.78861657       0.71935690       0.15447525 </v>
   <v>       0.21138343       0.46935690       0.84552475 </v>
   <v>       0.71138343       0.46935690       0.84552475 </v>
   <v>       0.21138343       0.96935690       0.84552475 </v>
   <v>       0.71138343       0.96935690       0.84552475 </v>
   <v>       0.46151602       0.21936404       0.84602669 </v>
   <v>       0.96151602       0.21936404       0.84602669 </v>
   <v>       0.46151602       0.71936404       0.84602669 </v>
   <v>       0.96151602       0.71936404       0.84602669 </v>
  </varray>
 </structure>
</modeling>
