  88  88   0   0
  0.1431748E+02  0.1111223E-08  0.1111745E-08  0.1056954E-08  0.5000000E-15
  1.000000000000000E-004
  CAR 
 unknown system                          
     17.94568743    -54.35498975  301      5.23281836      1.00000000
    -54.355  0.0000E+00  0.0000E+00  0.0000E+00  0.0000E+00
    -54.114  0.0000E+00  0.0000E+00  0.0000E+00  0.0000E+00
    -53.873  0.0000E+00  0.0000E+00  0.0000E+00  0.0000E+00
    -53.632  0.0000E+00  0.0000E+00  0.0000E+00  0.0000E+00
    -53.391  0.0000E+00  0.0000E+00  0.0000E+00  0.0000E+00
    -53.150  0.0000E+00  0.0000E+00  0.0000E+00  0.0000E+00
    -52.909  0.0000E+00  0.0000E+00  0.0000E+00  0.0000E+00
    -52.668  0.0000E+00  0.0000E+00  0.0000E+00  0.0000E+00
    -52.427  0.0000E+00  0.0000E+00  0.0000E+00  0.0000E+00
    -52.186  0.0000E+00  0.0000E+00  0.0000E+00  0.0000E+00
    -51.945  0.0000E+00  0.0000E+00  0.0000E+00  0.0000E+00
    -51.704  0.0000E+00  0.0000E+00  0.0000E+00  0.0000E+00
    -51.463  0.0000E+00  0.0000E+00  0.0000E+00  0.0000E+00
    -51.222  0.1040E-03  0.0000E+00  0.2507E-04  0.0000E+00
    -50.981  0.1285E+03  0.0000E+00  0.3097E+02  0.0000E+00
    -50.740  0.4272E+01  0.0000E+00  0.3200E+02  0.0000E+00
    -50.499  0.0000E+00  0.0000E+00  0.3200E+02  0.0000E+00
    -50.258  0.0000E+00  0.0000E+00  0.3200E+02  0.0000E+00
    -50.017  0.0000E+00  0.0000E+00  0.3200E+02  0.0000E+00
    -49.776  0.8870E+00  0.0000E+00  0.3221E+02  0.0000E+00
    -49.535  0.2248E+03  0.0000E+00  0.8640E+02  0.0000E+00
    -49.294  0.3982E+02  0.0000E+00  0.9600E+02  0.0000E+00
    -49.053  0.0000E+00  0.0000E+00  0.9600E+02  0.0000E+00
    -48.812  0.0000E+00  0.0000E+00  0.9600E+02  0.0000E+00
    -48.571  0.0000E+00  0.0000E+00  0.9600E+02  0.0000E+00
    -48.330  0.0000E+00  0.0000E+00  0.9600E+02  0.0000E+00
    -48.089  0.0000E+00  0.0000E+00  0.9600E+02  0.0000E+00
    -47.848  0.0000E+00  0.0000E+00  0.9600E+02  0.0000E+00
    -47.607  0.0000E+00  0.0000E+00  0.9600E+02  0.0000E+00
    -47.366  0.0000E+00  0.0000E+00  0.9600E+02  0.0000E+00
    -47.125  0.0000E+00  0.0000E+00  0.9600E+02  0.0000E+00
    -46.884  0.0000E+00  0.0000E+00  0.9600E+02  0.0000E+00
    -46.643  0.0000E+00  0.0000E+00  0.9600E+02  0.0000E+00
    -46.402  0.0000E+00  0.2194E+00  0.9600E+02  0.5289E-01
    -46.161  0.0000E+00  0.1325E+03  0.9600E+02  0.3197E+02
    -45.920  0.0000E+00  0.5077E+02  0.9600E+02  0.4421E+02
    -45.679  0.0000E+00  0.2149E+03  0.9600E+02  0.9600E+02
    -45.438  0.0000E+00  0.1859E-03  0.9600E+02  0.9600E+02
    -45.197  0.0000E+00  0.0000E+00  0.9600E+02  0.9600E+02
    -44.956  0.0000E+00  0.0000E+00  0.9600E+02  0.9600E+02
    -44.715  0.0000E+00  0.0000E+00  0.9600E+02  0.9600E+02
    -44.474  0.0000E+00  0.0000E+00  0.9600E+02  0.9600E+02
    -44.233  0.0000E+00  0.0000E+00  0.9600E+02  0.9600E+02
    -43.992  0.0000E+00  0.0000E+00  0.9600E+02  0.9600E+02
    -43.751  0.0000E+00  0.0000E+00  0.9600E+02  0.9600E+02
    -43.510  0.0000E+00  0.0000E+00  0.9600E+02  0.9600E+02
    -43.269  0.0000E+00  0.0000E+00  0.9600E+02  0.9600E+02
    -43.028  0.0000E+00  0.0000E+00  0.9600E+02  0.9600E+02
    -42.787  0.0000E+00  0.0000E+00  0.9600E+02  0.9600E+02
    -42.546  0.0000E+00  0.0000E+00  0.9600E+02  0.9600E+02
    -42.305  0.0000E+00  0.0000E+00  0.9600E+02  0.9600E+02
    -42.064  0.0000E+00  0.0000E+00  0.9600E+02  0.9600E+02
    -41.823  0.0000E+00  0.0000E+00  0.9600E+02  0.9600E+02
    -41.582  0.0000E+00  0.0000E+00  0.9600E+02  0.9600E+02
    -41.341  0.0000E+00  0.0000E+00  0.9600E+02  0.9600E+02
    -41.100  0.0000E+00  0.0000E+00  0.9600E+02  0.9600E+02
    -40.859  0.0000E+00  0.0000E+00  0.9600E+02  0.9600E+02
    -40.618  0.0000E+00  0.0000E+00  0.9600E+02  0.9600E+02
    -40.377  0.0000E+00  0.0000E+00  0.9600E+02  0.9600E+02
    -40.136  0.3778E-12  0.2315E-12  0.9600E+02  0.9600E+02
    -39.895  0.1202E+02  0.1096E+02  0.9890E+02  0.9864E+02
    -39.654  0.5437E+02  0.5543E+02  0.1120E+03  0.1120E+03
    -39.413  0.0000E+00  0.0000E+00  0.1120E+03  0.1120E+03
    -39.172  0.0000E+00  0.0000E+00  0.1120E+03  0.1120E+03
    -38.931  0.0000E+00  0.0000E+00  0.1120E+03  0.1120E+03
    -38.690  0.0000E+00  0.0000E+00  0.1120E+03  0.1120E+03
    -38.449  0.0000E+00  0.0000E+00  0.1120E+03  0.1120E+03
    -38.208  0.0000E+00  0.0000E+00  0.1120E+03  0.1120E+03
    -37.967  0.0000E+00  0.0000E+00  0.1120E+03  0.1120E+03
    -37.726  0.0000E+00  0.0000E+00  0.1120E+03  0.1120E+03
    -37.485  0.0000E+00  0.0000E+00  0.1120E+03  0.1120E+03
    -37.244  0.0000E+00  0.0000E+00  0.1120E+03  0.1120E+03
    -37.003  0.0000E+00  0.0000E+00  0.1120E+03  0.1120E+03
    -36.762  0.0000E+00  0.0000E+00  0.1120E+03  0.1120E+03
    -36.521  0.0000E+00  0.0000E+00  0.1120E+03  0.1120E+03
    -36.280  0.0000E+00  0.0000E+00  0.1120E+03  0.1120E+03
    -36.039  0.0000E+00  0.0000E+00  0.1120E+03  0.1120E+03
    -35.798  0.0000E+00  0.0000E+00  0.1120E+03  0.1120E+03
    -35.557  0.0000E+00  0.0000E+00  0.1120E+03  0.1120E+03
    -35.316  0.0000E+00  0.0000E+00  0.1120E+03  0.1120E+03
    -35.075  0.0000E+00  0.0000E+00  0.1120E+03  0.1120E+03
    -34.834  0.0000E+00  0.0000E+00  0.1120E+03  0.1120E+03
    -34.593  0.0000E+00  0.0000E+00  0.1120E+03  0.1120E+03
    -34.352  0.0000E+00  0.0000E+00  0.1120E+03  0.1120E+03
    -34.111  0.0000E+00  0.0000E+00  0.1120E+03  0.1120E+03
    -33.870  0.0000E+00  0.0000E+00  0.1120E+03  0.1120E+03
    -33.629  0.0000E+00  0.0000E+00  0.1120E+03  0.1120E+03
    -33.388  0.0000E+00  0.0000E+00  0.1120E+03  0.1120E+03
    -33.147  0.0000E+00  0.0000E+00  0.1120E+03  0.1120E+03
    -32.906  0.0000E+00  0.0000E+00  0.1120E+03  0.1120E+03
    -32.665  0.0000E+00  0.0000E+00  0.1120E+03  0.1120E+03
    -32.424  0.0000E+00  0.0000E+00  0.1120E+03  0.1120E+03
    -32.183  0.0000E+00  0.0000E+00  0.1120E+03  0.1120E+03
    -31.942  0.0000E+00  0.0000E+00  0.1120E+03  0.1120E+03
    -31.701  0.0000E+00  0.0000E+00  0.1120E+03  0.1120E+03
    -31.460  0.0000E+00  0.0000E+00  0.1120E+03  0.1120E+03
    -31.219  0.0000E+00  0.0000E+00  0.1120E+03  0.1120E+03
    -30.978  0.0000E+00  0.0000E+00  0.1120E+03  0.1120E+03
    -30.737  0.0000E+00  0.0000E+00  0.1120E+03  0.1120E+03
    -30.496  0.0000E+00  0.0000E+00  0.1120E+03  0.1120E+03
    -30.255  0.0000E+00  0.0000E+00  0.1120E+03  0.1120E+03
    -30.014  0.0000E+00  0.0000E+00  0.1120E+03  0.1120E+03
    -29.773  0.0000E+00  0.0000E+00  0.1120E+03  0.1120E+03
    -29.532  0.0000E+00  0.0000E+00  0.1120E+03  0.1120E+03
    -29.291  0.0000E+00  0.0000E+00  0.1120E+03  0.1120E+03
    -29.050  0.0000E+00  0.0000E+00  0.1120E+03  0.1120E+03
    -28.809  0.0000E+00  0.0000E+00  0.1120E+03  0.1120E+03
    -28.568  0.0000E+00  0.0000E+00  0.1120E+03  0.1120E+03
    -28.327  0.0000E+00  0.0000E+00  0.1120E+03  0.1120E+03
    -28.086  0.0000E+00  0.0000E+00  0.1120E+03  0.1120E+03
    -27.845  0.0000E+00  0.0000E+00  0.1120E+03  0.1120E+03
    -27.604  0.0000E+00  0.0000E+00  0.1120E+03  0.1120E+03
    -27.363  0.0000E+00  0.0000E+00  0.1120E+03  0.1120E+03
    -27.122  0.0000E+00  0.0000E+00  0.1120E+03  0.1120E+03
    -26.881  0.0000E+00  0.0000E+00  0.1120E+03  0.1120E+03
    -26.640  0.0000E+00  0.0000E+00  0.1120E+03  0.1120E+03
    -26.399  0.0000E+00  0.0000E+00  0.1120E+03  0.1120E+03
    -26.158  0.0000E+00  0.0000E+00  0.1120E+03  0.1120E+03
    -25.917  0.0000E+00  0.0000E+00  0.1120E+03  0.1120E+03
    -25.676  0.0000E+00  0.0000E+00  0.1120E+03  0.1120E+03
    -25.435  0.0000E+00  0.0000E+00  0.1120E+03  0.1120E+03
    -25.194  0.0000E+00  0.0000E+00  0.1120E+03  0.1120E+03
    -24.953  0.0000E+00  0.0000E+00  0.1120E+03  0.1120E+03
    -24.712  0.0000E+00  0.0000E+00  0.1120E+03  0.1120E+03
    -24.471  0.0000E+00  0.0000E+00  0.1120E+03  0.1120E+03
    -24.230  0.0000E+00  0.0000E+00  0.1120E+03  0.1120E+03
    -23.989  0.0000E+00  0.0000E+00  0.1120E+03  0.1120E+03
    -23.748  0.0000E+00  0.0000E+00  0.1120E+03  0.1120E+03
    -23.507  0.0000E+00  0.0000E+00  0.1120E+03  0.1120E+03
    -23.266  0.0000E+00  0.0000E+00  0.1120E+03  0.1120E+03
    -23.025  0.0000E+00  0.0000E+00  0.1120E+03  0.1120E+03
    -22.784  0.0000E+00  0.0000E+00  0.1120E+03  0.1120E+03
    -22.543  0.0000E+00  0.0000E+00  0.1120E+03  0.1120E+03
    -22.302  0.0000E+00  0.0000E+00  0.1120E+03  0.1120E+03
    -22.061  0.0000E+00  0.0000E+00  0.1120E+03  0.1120E+03
    -21.820  0.0000E+00  0.0000E+00  0.1120E+03  0.1120E+03
    -21.579  0.0000E+00  0.0000E+00  0.1120E+03  0.1120E+03
    -21.338  0.0000E+00  0.0000E+00  0.1120E+03  0.1120E+03
    -21.097  0.0000E+00  0.0000E+00  0.1120E+03  0.1120E+03
    -20.856  0.0000E+00  0.0000E+00  0.1120E+03  0.1120E+03
    -20.615  0.0000E+00  0.0000E+00  0.1120E+03  0.1120E+03
    -20.374  0.0000E+00  0.0000E+00  0.1120E+03  0.1120E+03
    -20.133  0.0000E+00  0.0000E+00  0.1120E+03  0.1120E+03
    -19.892  0.0000E+00  0.0000E+00  0.1120E+03  0.1120E+03
    -19.651  0.0000E+00  0.0000E+00  0.1120E+03  0.1120E+03
    -19.410  0.0000E+00  0.0000E+00  0.1120E+03  0.1120E+03
    -19.169  0.0000E+00  0.0000E+00  0.1120E+03  0.1120E+03
    -18.928  0.0000E+00  0.0000E+00  0.1120E+03  0.1120E+03
    -18.687  0.0000E+00  0.0000E+00  0.1120E+03  0.1120E+03
    -18.446  0.0000E+00  0.0000E+00  0.1120E+03  0.1120E+03
    -18.205  0.0000E+00  0.0000E+00  0.1120E+03  0.1120E+03
    -17.964  0.0000E+00  0.0000E+00  0.1120E+03  0.1120E+03
    -17.723  0.0000E+00  0.0000E+00  0.1120E+03  0.1120E+03
    -17.482  0.0000E+00  0.0000E+00  0.1120E+03  0.1120E+03
    -17.241  0.0000E+00  0.0000E+00  0.1120E+03  0.1120E+03
    -17.000  0.0000E+00  0.0000E+00  0.1120E+03  0.1120E+03
    -16.759  0.0000E+00  0.0000E+00  0.1120E+03  0.1120E+03
    -16.518  0.0000E+00  0.0000E+00  0.1120E+03  0.1120E+03
    -16.277  0.0000E+00  0.0000E+00  0.1120E+03  0.1120E+03
    -16.036  0.0000E+00  0.0000E+00  0.1120E+03  0.1120E+03
    -15.795  0.0000E+00  0.0000E+00  0.1120E+03  0.1120E+03
    -15.554  0.0000E+00  0.0000E+00  0.1120E+03  0.1120E+03
    -15.313  0.0000E+00  0.0000E+00  0.1120E+03  0.1120E+03
    -15.072  0.0000E+00  0.0000E+00  0.1120E+03  0.1120E+03
    -14.831  0.0000E+00  0.0000E+00  0.1120E+03  0.1120E+03
    -14.590  0.0000E+00  0.0000E+00  0.1120E+03  0.1120E+03
    -14.349  0.0000E+00  0.0000E+00  0.1120E+03  0.1120E+03
    -14.108  0.0000E+00  0.0000E+00  0.1120E+03  0.1120E+03
    -13.867  0.0000E+00  0.0000E+00  0.1120E+03  0.1120E+03
    -13.626  0.0000E+00  0.0000E+00  0.1120E+03  0.1120E+03
    -13.385  0.6360E-05  0.0000E+00  0.1120E+03  0.1120E+03
    -13.144  0.2258E+02  0.0000E+00  0.1174E+03  0.1120E+03
    -12.903  0.4321E+02  0.3504E-01  0.1279E+03  0.1120E+03
    -12.662  0.6076E+00  0.4682E+02  0.1280E+03  0.1233E+03
    -12.421  0.0000E+00  0.1954E+02  0.1280E+03  0.1280E+03
    -12.180  0.0000E+00  0.0000E+00  0.1280E+03  0.1280E+03
    -11.939  0.0000E+00  0.0000E+00  0.1280E+03  0.1280E+03
    -11.698  0.0000E+00  0.0000E+00  0.1280E+03  0.1280E+03
    -11.457  0.0000E+00  0.0000E+00  0.1280E+03  0.1280E+03
    -11.216  0.0000E+00  0.0000E+00  0.1280E+03  0.1280E+03
    -10.975  0.0000E+00  0.0000E+00  0.1280E+03  0.1280E+03
    -10.734  0.0000E+00  0.0000E+00  0.1280E+03  0.1280E+03
    -10.493  0.0000E+00  0.0000E+00  0.1280E+03  0.1280E+03
    -10.252  0.0000E+00  0.0000E+00  0.1280E+03  0.1280E+03
    -10.011  0.0000E+00  0.0000E+00  0.1280E+03  0.1280E+03
     -9.770  0.0000E+00  0.0000E+00  0.1280E+03  0.1280E+03
     -9.529  0.0000E+00  0.0000E+00  0.1280E+03  0.1280E+03
     -9.288  0.0000E+00  0.0000E+00  0.1280E+03  0.1280E+03
     -9.047  0.0000E+00  0.0000E+00  0.1280E+03  0.1280E+03
     -8.806  0.0000E+00  0.0000E+00  0.1280E+03  0.1280E+03
     -8.565  0.0000E+00  0.0000E+00  0.1280E+03  0.1280E+03
     -8.324  0.0000E+00  0.0000E+00  0.1280E+03  0.1280E+03
     -8.083  0.0000E+00  0.0000E+00  0.1280E+03  0.1280E+03
     -7.842  0.2644E-08  0.0000E+00  0.1280E+03  0.1280E+03
     -7.601  0.1039E+01  0.5946E-09  0.1283E+03  0.1280E+03
     -7.360  0.1433E+02  0.9661E+00  0.1317E+03  0.1282E+03
     -7.119  0.3012E+02  0.1578E+02  0.1390E+03  0.1320E+03
     -6.878  0.3765E+02  0.2909E+02  0.1480E+03  0.1390E+03
     -6.637  0.1644E+02  0.2886E+02  0.1520E+03  0.1460E+03
     -6.396  0.0000E+00  0.2488E+02  0.1520E+03  0.1520E+03
     -6.155  0.0000E+00  0.1121E-01  0.1520E+03  0.1520E+03
     -5.914  0.0000E+00  0.0000E+00  0.1520E+03  0.1520E+03
     -5.673  0.0000E+00  0.0000E+00  0.1520E+03  0.1520E+03
     -5.432  0.0000E+00  0.0000E+00  0.1520E+03  0.1520E+03
     -5.191  0.0000E+00  0.0000E+00  0.1520E+03  0.1520E+03
     -4.950  0.0000E+00  0.0000E+00  0.1520E+03  0.1520E+03
     -4.709  0.0000E+00  0.0000E+00  0.1520E+03  0.1520E+03
     -4.468  0.0000E+00  0.0000E+00  0.1520E+03  0.1520E+03
     -4.227  0.0000E+00  0.0000E+00  0.1520E+03  0.1520E+03
     -3.986  0.0000E+00  0.0000E+00  0.1520E+03  0.1520E+03
     -3.745  0.0000E+00  0.0000E+00  0.1520E+03  0.1520E+03
     -3.504  0.0000E+00  0.0000E+00  0.1520E+03  0.1520E+03
     -3.263  0.0000E+00  0.0000E+00  0.1520E+03  0.1520E+03
     -3.022  0.0000E+00  0.0000E+00  0.1520E+03  0.1520E+03
     -2.781  0.0000E+00  0.0000E+00  0.1520E+03  0.1520E+03
     -2.540  0.0000E+00  0.0000E+00  0.1520E+03  0.1520E+03
     -2.299  0.0000E+00  0.0000E+00  0.1520E+03  0.1520E+03
     -2.057  0.4679E-03  0.0000E+00  0.1520E+03  0.1520E+03
     -1.816  0.1870E+02  0.0000E+00  0.1565E+03  0.1520E+03
     -1.575  0.1844E+02  0.0000E+00  0.1610E+03  0.1520E+03
     -1.334  0.1409E+02  0.0000E+00  0.1643E+03  0.1520E+03
     -1.093  0.1838E+02  0.0000E+00  0.1688E+03  0.1520E+03
     -0.852  0.4878E+02  0.0000E+00  0.1805E+03  0.1520E+03
     -0.611  0.5936E+02  0.2531E-04  0.1948E+03  0.1520E+03
     -0.370  0.3943E+02  0.6213E+01  0.2043E+03  0.1535E+03
     -0.129  0.7006E+02  0.1983E+02  0.2212E+03  0.1583E+03
      0.112  0.7300E+02  0.1268E+02  0.2388E+03  0.1613E+03
      0.353  0.7765E+02  0.1955E+02  0.2575E+03  0.1660E+03
      0.594  0.7069E+02  0.2998E+02  0.2746E+03  0.1733E+03
      0.835  0.5129E+02  0.4036E+02  0.2869E+03  0.1830E+03
      1.076  0.3560E+02  0.3702E+02  0.2955E+03  0.1919E+03
      1.317  0.3159E+02  0.2937E+02  0.3031E+03  0.1990E+03
      1.558  0.4441E+02  0.2147E+02  0.3138E+03  0.2042E+03
      1.799  0.4593E+02  0.2847E+02  0.3249E+03  0.2110E+03
      2.040  0.7016E+02  0.3853E+02  0.3418E+03  0.2203E+03
      2.281  0.5180E+02  0.2487E+02  0.3543E+03  0.2263E+03
      2.522  0.2849E+02  0.2743E+02  0.3612E+03  0.2329E+03
      2.763  0.4316E+02  0.3401E+02  0.3716E+03  0.2411E+03
      3.004  0.2557E+02  0.4528E+02  0.3777E+03  0.2520E+03
      3.245  0.9275E+01  0.4530E+02  0.3800E+03  0.2629E+03
      3.486  0.3048E+02  0.2818E+02  0.3873E+03  0.2697E+03
      3.727  0.2564E+02  0.1084E+02  0.3935E+03  0.2723E+03
      3.968  0.3186E+02  0.2169E+02  0.4012E+03  0.2776E+03
      4.209  0.3581E+02  0.4983E+02  0.4098E+03  0.2896E+03
      4.450  0.3667E+02  0.4696E+02  0.4186E+03  0.3009E+03
      4.691  0.2945E+02  0.1285E+02  0.4257E+03  0.3040E+03
      4.932  0.2451E+02  0.2858E-03  0.4316E+03  0.3040E+03
      5.173  0.1521E+01  0.0000E+00  0.4320E+03  0.3040E+03
      5.414  0.0000E+00  0.0000E+00  0.4320E+03  0.3040E+03
      5.655  0.0000E+00  0.0000E+00  0.4320E+03  0.3040E+03
      5.896  0.0000E+00  0.0000E+00  0.4320E+03  0.3040E+03
      6.137  0.0000E+00  0.6024E-07  0.4320E+03  0.3040E+03
      6.378  0.0000E+00  0.6531E+00  0.4320E+03  0.3042E+03
      6.619  0.0000E+00  0.4257E+01  0.4320E+03  0.3052E+03
      6.860  0.0000E+00  0.8590E+01  0.4320E+03  0.3073E+03
      7.101  0.5301E-12  0.2277E+02  0.4320E+03  0.3127E+03
      7.342  0.7419E-01  0.4601E+02  0.4320E+03  0.3238E+03
      7.583  0.7948E-01  0.5595E+02  0.4320E+03  0.3373E+03
      7.824  0.4382E+00  0.6184E+02  0.4321E+03  0.3522E+03
      8.065  0.6450E+00  0.6687E+02  0.4323E+03  0.3683E+03
      8.306  0.2588E+01  0.7192E+02  0.4329E+03  0.3857E+03
      8.547  0.2842E+01  0.5721E+02  0.4336E+03  0.3995E+03
      8.788  0.9238E+01  0.5888E+02  0.4358E+03  0.4136E+03
      9.029  0.1312E+02  0.4363E+02  0.4390E+03  0.4242E+03
      9.270  0.1398E+02  0.2677E+02  0.4424E+03  0.4306E+03
      9.511  0.1832E+02  0.7696E+01  0.4468E+03  0.4325E+03
      9.752  0.1536E+02  0.3937E+01  0.4505E+03  0.4334E+03
      9.993  0.1569E+02  0.9060E+01  0.4543E+03  0.4356E+03
     10.234  0.2243E+02  0.1905E+02  0.4597E+03  0.4402E+03
     10.475  0.1487E+02  0.1806E+02  0.4633E+03  0.4445E+03
     10.716  0.1491E+02  0.1864E+02  0.4668E+03  0.4490E+03
     10.957  0.1415E+02  0.2645E+02  0.4703E+03  0.4554E+03
     11.198  0.2086E+02  0.1923E+02  0.4753E+03  0.4600E+03
     11.439  0.2630E+02  0.2395E+02  0.4816E+03  0.4658E+03
     11.680  0.2593E+02  0.1340E+02  0.4879E+03  0.4690E+03
     11.921  0.2624E+02  0.1421E+02  0.4942E+03  0.4725E+03
     12.162  0.3155E+02  0.1759E+02  0.5018E+03  0.4767E+03
     12.403  0.1988E+02  0.3874E+02  0.5066E+03  0.4860E+03
     12.644  0.2297E+02  0.3178E+02  0.5121E+03  0.4937E+03
     12.885  0.2224E+02  0.2740E+02  0.5175E+03  0.5003E+03
     13.126  0.1888E+02  0.2046E+02  0.5220E+03  0.5052E+03
     13.367  0.2629E+02  0.2342E+02  0.5284E+03  0.5109E+03
     13.608  0.2190E+02  0.2760E+02  0.5337E+03  0.5175E+03
     13.849  0.1239E+02  0.2376E+02  0.5366E+03  0.5233E+03
     14.090  0.5630E+01  0.2558E+02  0.5380E+03  0.5294E+03
     14.331  0.2745E-02  0.1810E+02  0.5380E+03  0.5338E+03
     14.572  0.0000E+00  0.1496E+02  0.5380E+03  0.5374E+03
     14.813  0.0000E+00  0.2526E+01  0.5380E+03  0.5380E+03
     15.054  0.0000E+00  0.3386E-05  0.5380E+03  0.5380E+03
     15.295  0.0000E+00  0.0000E+00  0.5380E+03  0.5380E+03
     15.536  0.0000E+00  0.0000E+00  0.5380E+03  0.5380E+03
     15.777  0.0000E+00  0.0000E+00  0.5380E+03  0.5380E+03
     16.018  0.0000E+00  0.0000E+00  0.5380E+03  0.5380E+03
     16.259  0.0000E+00  0.0000E+00  0.5380E+03  0.5380E+03
     16.500  0.0000E+00  0.0000E+00  0.5380E+03  0.5380E+03
     16.741  0.0000E+00  0.0000E+00  0.5380E+03  0.5380E+03
     16.982  0.0000E+00  0.0000E+00  0.5380E+03  0.5380E+03
     17.223  0.0000E+00  0.0000E+00  0.5380E+03  0.5380E+03
     17.464  0.0000E+00  0.0000E+00  0.5380E+03  0.5380E+03
     17.705  0.0000E+00  0.0000E+00  0.5380E+03  0.5380E+03
     17.946  0.0000E+00  0.0000E+00  0.5380E+03  0.5380E+03
