 vasp.5.4.4.18Apr17-6-g9f103f2a35 (build Oct 25 2017 14:42:18) complex          
  
 executed on             LinuxIFC date 2021.06.02  15:21:39
 running on   24 total cores
 distrk:  each k-point on   12 cores,    2 groups
 distr:  one band on NCORES_PER_BAND=   6 cores,    2 groups


--------------------------------------------------------------------------------------------------------


 INCAR:
 POTCAR:    PAW_PBE Li_sv 10Sep2004               
 POTCAR:    PAW_PBE O 08Apr2002                   
 POTCAR:    PAW_PBE S 06Sep2000                   
 POTCAR:    PAW_PBE Fe_pv 02Aug2007               

 ----------------------------------------------------------------------------- 
|                                                                             |
|           W    W    AA    RRRRR   N    N  II  N    N   GGGG   !!!           |
|           W    W   A  A   R    R  NN   N  II  NN   N  G    G  !!!           |
|           W    W  A    A  R    R  N N  N  II  N N  N  G       !!!           |
|           W WW W  AAAAAA  RRRRR   N  N N  II  N  N N  G  GGG   !            |
|           WW  WW  A    A  R   R   N   NN  II  N   NN  G    G                |
|           W    W  A    A  R    R  N    N  II  N    N   GGGG   !!!           |
|                                                                             |
|      You have enabled k-point parallelism (KPAR>1).                         |
|      This developmental code was originally  written by Paul Kent at ORNL,  |
|      and carefully double checked in Vienna.                                |
|      GW as well as linear response parallelism added by Martijn Marsman     |
|      and Georg Kresse.                                                      |
|      Carefully verify results versus KPAR=1.                                |
|      Report problems to Paul Kent and Vienna.                               |
|                                                                             |
 ----------------------------------------------------------------------------- 

 POTCAR:    PAW_PBE Li_sv 10Sep2004               
  local pseudopotential read in
  atomic valenz-charges read in
  non local Contribution for L=           0  read in
    real space projection operators read in
  non local Contribution for L=           0  read in
    real space projection operators read in
  non local Contribution for L=           1  read in
    real space projection operators read in
    PAW grid and wavefunctions read in
 
   number of l-projection  operators is LMAX  =           3
   number of lm-projection operators is LMMAX =           5
 
 POTCAR:    PAW_PBE O 08Apr2002                   
  local pseudopotential read in
  partial core-charges read in
  partial kinetic energy density read in
  kinetic energy density of atom read in
  atomic valenz-charges read in
  non local Contribution for L=           0  read in
    real space projection operators read in
  non local Contribution for L=           0  read in
    real space projection operators read in
  non local Contribution for L=           1  read in
    real space projection operators read in
  non local Contribution for L=           1  read in
    real space projection operators read in
    PAW grid and wavefunctions read in
 
   number of l-projection  operators is LMAX  =           4
   number of lm-projection operators is LMMAX =           8
 
 POTCAR:    PAW_PBE S 06Sep2000                   
  local pseudopotential read in
  partial core-charges read in
  partial kinetic energy density read in
  atomic valenz-charges read in
  non local Contribution for L=           0  read in
    real space projection operators read in
  non local Contribution for L=           0  read in
    real space projection operators read in
  non local Contribution for L=           1  read in
    real space projection operators read in
  non local Contribution for L=           1  read in
    real space projection operators read in
    PAW grid and wavefunctions read in
 
   number of l-projection  operators is LMAX  =           4
   number of lm-projection operators is LMMAX =           8
 
 POTCAR:    PAW_PBE Fe_pv 02Aug2007               
  local pseudopotential read in
  partial core-charges read in
  partial kinetic energy density read in
  atomic valenz-charges read in
  non local Contribution for L=           1  read in
    real space projection operators read in
  non local Contribution for L=           1  read in
    real space projection operators read in
  non local Contribution for L=           2  read in
    real space projection operators read in
  non local Contribution for L=           2  read in
    real space projection operators read in
  non local Contribution for L=           0  read in
    real space projection operators read in
  non local Contribution for L=           0  read in
    real space projection operators read in
    PAW grid and wavefunctions read in
 
   number of l-projection  operators is LMAX  =           6
   number of lm-projection operators is LMMAX =          18
 

 ----------------------------------------------------------------------------- 
|                                                                             |
|  ADVICE TO THIS USER RUNNING 'VASP/VAMP'   (HEAR YOUR MASTER'S VOICE ...):  |
|                                                                             |
|      You have a (more or less) 'large supercell' and for larger cells       |
|      it might be more efficient to use real space projection opertators     |
|      So try LREAL= Auto  in the INCAR   file.                               |
|      Mind:          For very  accurate calculation you might also keep the  |
|      reciprocal projection scheme          (i.e. LREAL=.FALSE.)             |
|                                                                             |
 ----------------------------------------------------------------------------- 

  PAW_PBE Li_sv 10Sep2004               :
 energy of atom  1       EATOM= -202.7858
 kinetic energy error for atom=    0.0072 (will be added to EATOM!!)
  PAW_PBE O 08Apr2002                   :
 energy of atom  2       EATOM= -432.3788
 kinetic energy error for atom=    0.0129 (will be added to EATOM!!)
  PAW_PBE S 06Sep2000                   :
 energy of atom  3       EATOM= -276.8230
 kinetic energy error for atom=    0.0008 (will be added to EATOM!!)
  PAW_PBE Fe_pv 02Aug2007               :
 energy of atom  4       EATOM=-2457.4239
 kinetic energy error for atom=    0.0041 (will be added to EATOM!!)
 
 
 POSCAR: # Compound: Li16O16S24Fe32. Old comment:
  positions in direct lattice
  No initial velocities read in
 exchange correlation table for  LEXCH =        8
   RHO(1)=    0.500       N(1)  =     2000
   RHO(2)=  100.500       N(2)  =     4000
 


--------------------------------------------------------------------------------------------------------


 ion  position               nearest neighbor table
   1  0.289  0.469  0.156-  27 2.00  29 2.00  55 2.53  49 2.53
   2  0.789  0.469  0.156-  28 2.00  30 2.00  56 2.53  50 2.53
   3  0.289  0.969  0.156-  25 2.00  31 2.00  53 2.53  51 2.53
   4  0.789  0.969  0.156-  26 2.00  32 2.00  54 2.53  52 2.53
   5  0.046  0.219  0.186-  30 1.98  25 1.98
   6  0.546  0.219  0.186-  29 1.98  26 1.98
   7  0.046  0.719  0.186-  32 1.98  27 1.98
   8  0.546  0.719  0.186-  31 1.98  28 1.98
   9  0.454  0.469  0.814-  20 1.98  21 1.98
  10  0.954  0.469  0.814-  19 1.98  22 1.98
  11  0.454  0.969  0.814-  18 1.98  23 1.98
  12  0.954  0.969  0.814-  17 1.98  24 1.98
  13  0.211  0.219  0.844-  17 2.00  21 2.00  49 2.53  53 2.53
  14  0.711  0.219  0.844-  22 2.00  18 2.00  50 2.53  54 2.53
  15  0.211  0.719  0.844-  23 2.00  19 2.00  51 2.53  55 2.53
  16  0.711  0.719  0.844-  24 2.00  20 2.00  52 2.53  56 2.53
  17  0.077  0.095  0.803-  12 1.98  13 2.00  86 2.01  83 2.01  57 2.02
  18  0.577  0.095  0.803-  11 1.98  14 2.00  58 2.01  84 2.01  85 2.01
  19  0.077  0.595  0.803-  10 1.98  15 2.00  59 2.01  81 2.01  88 2.01
  20  0.577  0.595  0.803-   9 1.98  16 2.00  60 2.01  82 2.01  87 2.01
  21  0.325  0.343  0.803-   9 1.98  13 2.00  61 2.01  81 2.01  85 2.01
  22  0.825  0.343  0.803-  10 1.98  14 2.00  62 2.01  82 2.01  86 2.01
  23  0.325  0.843  0.803-  11 1.98  15 2.00  63 2.01  83 2.01  87 2.01
  24  0.825  0.843  0.803-  12 1.98  16 2.00  64 2.01  84 2.01  88 2.01
  25  0.175  0.093  0.197-   5 1.98   3 2.00  65 2.01  77 2.01  75 2.01
  26  0.675  0.093  0.197-   6 1.98   4 2.00  66 2.01  78 2.01  76 2.01
  27  0.175  0.593  0.197-   7 1.98   1 2.00  67 2.01  79 2.01  73 2.01
  28  0.675  0.593  0.197-   8 1.98   2 2.00  68 2.01  80 2.01  74 2.01
  29  0.423  0.345  0.197-   6 1.98   1 2.00  69 2.01  77 2.01  74 2.01
  30  0.923  0.345  0.197-   5 1.98   2 2.00  70 2.01  78 2.01  73 2.01
  31  0.423  0.845  0.197-   8 1.98   3 2.00  71 2.01  79 2.01  76 2.01
  32  0.923  0.845  0.197-   7 1.98   4 2.00  72 2.01  80 2.01  75 2.01
  33  0.219  0.345  0.371-  61 2.41  67 2.65  69 2.65
  34  0.719  0.345  0.371-  62 2.41  68 2.65  70 2.65
  35  0.219  0.845  0.371-  63 2.41  65 2.65  71 2.65
  36  0.719  0.845  0.371-  64 2.41  66 2.65  72 2.65
  37  0.467  0.093  0.371-  58 2.41  71 2.65  65 2.65
  38  0.967  0.093  0.371-  57 2.41  72 2.65  66 2.65
  39  0.467  0.593  0.371-  60 2.41  69 2.65  67 2.65
  40  0.967  0.593  0.371-  59 2.41  70 2.65  68 2.65
  41  0.033  0.343  0.629-  70 2.41  57 2.65  61 2.65
  42  0.533  0.343  0.629-  69 2.41  58 2.65  62 2.65
  43  0.033  0.843  0.629-  72 2.41  59 2.65  63 2.65
  44  0.533  0.843  0.629-  71 2.41  60 2.65  64 2.65
  45  0.281  0.095  0.629-  65 2.41  61 2.65  57 2.65
  46  0.781  0.095  0.629-  66 2.41  62 2.65  58 2.65
  47  0.281  0.595  0.629-  67 2.41  63 2.65  59 2.65
  48  0.781  0.595  0.629-  68 2.41  64 2.65  60 2.65
  49  0.124  0.344  0.000-  73 2.51  86 2.51  81 2.52  77 2.52  13 2.53   1 2.53
  50  0.624  0.344  0.000-  74 2.51  85 2.51  82 2.52  78 2.52  14 2.53   2 2.53
  51  0.124  0.844  0.000-  75 2.51  88 2.51  83 2.52  79 2.52  15 2.53   3 2.53
  52  0.624  0.844  0.000-  76 2.51  87 2.51  84 2.52  80 2.52  16 2.53   4 2.53
  53  0.376  0.094  1.000-  85 2.51  76 2.51  77 2.52  83 2.52   3 2.53  13 2.53
  54  0.876  0.094  1.000-  86 2.51  75 2.51  78 2.52  84 2.52   4 2.53  14 2.53
  55  0.376  0.594  1.000-  87 2.51  74 2.51  79 2.52  81 2.52   1 2.53  15 2.53
  56  0.876  0.594  1.000-  88 2.51  73 2.51  80 2.52  82 2.52   2 2.53  16 2.53
  57  0.038  0.106  0.606-  17 2.02  38 2.41  41 2.65  45 2.65
  58  0.538  0.106  0.606-  18 2.01  37 2.41  42 2.65  46 2.65
  59  0.038  0.606  0.606-  19 2.01  40 2.41  43 2.65  47 2.65
  60  0.538  0.606  0.606-  20 2.01  39 2.41  44 2.65  48 2.65
  61  0.265  0.332  0.606-  21 2.01  33 2.41  45 2.65  41 2.65
  62  0.765  0.332  0.606-  22 2.01  34 2.41  46 2.65  42 2.65
  63  0.265  0.832  0.606-  23 2.01  35 2.41  47 2.65  43 2.65
  64  0.765  0.832  0.606-  24 2.01  36 2.41  48 2.65  44 2.65
  65  0.235  0.082  0.394-  25 2.01  45 2.41  35 2.65  37 2.65
  66  0.735  0.082  0.394-  26 2.01  46 2.41  36 2.65  38 2.65
  67  0.235  0.582  0.394-  27 2.01  47 2.41  33 2.65  39 2.65
  68  0.735  0.582  0.394-  28 2.01  48 2.41  34 2.65  40 2.65
  69  0.462  0.356  0.394-  29 2.01  42 2.41  39 2.65  33 2.65
  70  0.962  0.356  0.394-  30 2.01  41 2.41  40 2.65  34 2.65
  71  0.462  0.856  0.394-  31 2.01  44 2.41  37 2.65  35 2.65
  72  0.962  0.856  0.394-  32 2.01  43 2.41  38 2.65  36 2.65
  73  0.038  0.469  0.154-  30 2.01  27 2.01  49 2.51  56 2.51
  74  0.538  0.469  0.154-  29 2.01  28 2.01  50 2.51  55 2.51
  75  0.038  0.969  0.154-  32 2.01  25 2.01  51 2.51  54 2.51
  76  0.538  0.969  0.154-  31 2.01  26 2.01  52 2.51  53 2.51
  77  0.289  0.219  0.154-  25 2.01  29 2.01  53 2.52  49 2.52
  78  0.789  0.219  0.154-  26 2.01  30 2.01  54 2.52  50 2.52
  79  0.289  0.719  0.154-  27 2.01  31 2.01  55 2.52  51 2.52
  80  0.789  0.719  0.154-  28 2.01  32 2.01  56 2.52  52 2.52
  81  0.211  0.469  0.846-  21 2.01  19 2.01  49 2.52  55 2.52
  82  0.711  0.469  0.846-  22 2.01  20 2.01  50 2.52  56 2.52
  83  0.211  0.969  0.846-  17 2.01  23 2.01  51 2.52  53 2.52
  84  0.711  0.969  0.846-  24 2.01  18 2.01  52 2.52  54 2.52
  85  0.462  0.219  0.846-  18 2.01  21 2.01  53 2.51  50 2.51
  86  0.962  0.219  0.846-  17 2.01  22 2.01  54 2.51  49 2.51
  87  0.462  0.719  0.846-  20 2.01  23 2.01  55 2.51  52 2.51
  88  0.962  0.719  0.846-  19 2.01  24 2.01  56 2.51  51 2.51
 

IMPORTANT INFORMATION: All symmetrisations will be switched off!
NOSYMM: (Re-)initialisation of all symmetry stuff for point group C_1.

 
 
 KPOINTS: # No comment                            

Automatic generation of k-mesh.
Space group operators:
 irot       det(A)        alpha          n_x          n_y          n_z        tau_x        tau_y        tau_z
    1     1.000000     0.000000     1.000000     0.000000     0.000000     0.000000     0.000000     0.000000
 
 Subroutine IBZKPT returns following result:
 ===========================================
 
 Found     14 irreducible k-points:
 
 Following reciprocal coordinates:
            Coordinates               Weight
  0.000000  0.000000  0.000000      1.000000
  0.333333  0.000000  0.000000      2.000000
  0.000000  0.333333  0.000000      2.000000
  0.333333  0.333333  0.000000      2.000000
 -0.333333  0.333333 -0.000000      2.000000
  0.000000  0.000000  0.333333      2.000000
  0.333333  0.000000  0.333333      2.000000
 -0.333333  0.000000  0.333333      2.000000
  0.000000  0.333333  0.333333      2.000000
  0.333333  0.333333  0.333333      2.000000
 -0.333333  0.333333  0.333333      2.000000
  0.000000 -0.333333  0.333333      2.000000
  0.333333 -0.333333  0.333333      2.000000
 -0.333333 -0.333333  0.333333      2.000000
 
 Following cartesian coordinates:
            Coordinates               Weight
  0.000000  0.000000  0.000000      1.000000
  0.029997  0.000000  0.008162      2.000000
  0.000000  0.029983  0.000000      2.000000
  0.029997  0.029983  0.008162      2.000000
 -0.029997  0.029983 -0.008162      2.000000
  0.000001  0.000000  0.032684      2.000000
  0.029998  0.000000  0.040846      2.000000
 -0.029996  0.000000  0.024522      2.000000
  0.000001  0.029983  0.032684      2.000000
  0.029998  0.029983  0.040846      2.000000
 -0.029996  0.029983  0.024522      2.000000
  0.000001 -0.029983  0.032684      2.000000
  0.029998 -0.029983  0.040846      2.000000
 -0.029996 -0.029983  0.024522      2.000000
 


--------------------------------------------------------------------------------------------------------




 Dimension of arrays:
   k-points           NKPTS =     14   k-points in BZ     NKDIM =     14   number of bands    NBANDS=    538
   number of dos      NEDOS =    301   number of ions     NIONS =     88
   non local maximal  LDIM  =      6   non local SUM 2l+1 LMDIM =     18
   total plane-waves  NPLWV = 829440
   max r-space proj   IRMAX =      1   max aug-charges    IRDMAX= 166102
   dimension x,y,z NGX =    96 NGY =   96 NGZ =   90
   dimension x,y,z NGXF=   192 NGYF=  192 NGZF=  180
   support grid    NGXF=   384 NGYF=  384 NGZF=  360
   ions per type =              16  16  24  32
   NGX,Y,Z   is equivalent  to a cutoff of  14.36, 14.36, 14.16 a.u.
   NGXF,Y,Z  is equivalent  to a cutoff of  28.72, 28.71, 28.31 a.u.

 SYSTEM =  unknown system                          
 POSCAR =  # Compound: Li16O16S24Fe32. Old comment:

 Startparameter for this run:
   NWRITE =      1    write-flag & timer
   PREC   = accura    normal or accurate (medium, high low for compatibility)
   ISTART =      0    job   : 0-new  1-cont  2-samecut
   ICHARG =      1    charge: 1-file 2-atom 10-const
   ISPIN  =      2    spin polarized calculation?
   LNONCOLLINEAR =      F non collinear calculations
   LSORBIT =      F    spin-orbit coupling
   INIWAV =      1    electr: 0-lowe 1-rand  2-diag
   LASPH  =      T    aspherical Exc in radial PAW
   METAGGA=      F    non-selfconsistent MetaGGA calc.

 Electronic Relaxation 1
   ENCUT  =  650.0 eV  47.77 Ry    6.91 a.u.  23.10 23.11 21.97*2*pi/ulx,y,z
   ENINI  =  650.0     initial cutoff
   ENAUG  =  628.9 eV  augmentation charge cutoff
   NELM   =    200;   NELMIN=  8; NELMDL=  0     # of ELM steps 
   EDIFF  = 0.1E-05   stopping-criterion for ELM
   LREAL  =      F    real-space projection
   NLSPLINE    = F    spline interpolate recip. space projectors
   LCOMPAT=      F    compatible to vasp.4.4
   GGA_COMPAT  = T    GGA compatible to vasp.4.4-vasp.4.6
   LMAXPAW     = -100 max onsite density
   LMAXMIX     =    4 max onsite mixed and CHGCAR
   VOSKOWN=      0    Vosko Wilk Nusair interpolation
   ROPT   =    0.00000   0.00000   0.00000   0.00000
 Ionic relaxation
   EDIFFG = 0.1E-04   stopping-criterion for IOM
   NSW    =      0    number of steps for IOM
   NBLOCK =      1;   KBLOCK =      1    inner block; outer block 
   IBRION =     -1    ionic relax: 0-MD 1-quasi-New 2-CG
   NFREE  =      0    steps in history (QN), initial steepest desc. (CG)
   ISIF   =      2    stress and relaxation
   IWAVPR =     10    prediction:  0-non 1-charg 2-wave 3-comb
   ISYM   =      0    0-nonsym 1-usesym 2-fastsym
   LCORR  =      T    Harris-Foulkes like correction to forces

   POTIM  = 0.5000    time-step for ionic-motion
   TEIN   =    0.0    initial temperature
   TEBEG  =    0.0;   TEEND  =   0.0 temperature during run
   SMASS  =  -3.00    Nose mass-parameter (am)
   estimated Nose-frequenzy (Omega)   =  0.10E-29 period in steps =****** mass=  -0.282E-26a.u.
   SCALEE = 1.0000    scale energy and forces
   NPACO  =    256;   APACO  = 16.0  distance and # of slots for P.C.
   PSTRESS=    0.0 pullay stress

  Mass of Ions in am
   POMASS =   7.01 16.00 32.07 55.85
  Ionic Valenz
   ZVAL   =   3.00  6.00  6.00 14.00
  Atomic Wigner-Seitz radii
   RWIGS  =  -1.00 -1.00 -1.00 -1.00
  virtual crystal weights 
   VCA    =   1.00  1.00  1.00  1.00
   NELECT =     736.0000    total number of electrons
   NUPDOWN=      -1.0000    fix difference up-down

 DOS related values:
   EMIN   =  10.00;   EMAX   =-10.00  energy-range for DOS
   EFERMI =   0.00
   ISMEAR =     0;   SIGMA  =   0.05  broadening in eV -4-tet -1-fermi 0-gaus

 Electronic relaxation 2 (details)
   IALGO  =     38    algorithm
   LDIAG  =      T    sub-space diagonalisation (order eigenvalues)
   LSUBROT=      F    optimize rotation matrix (better conditioning)
   TURBO    =      0    0=normal 1=particle mesh
   IRESTART =      0    0=no restart 2=restart with 2 vectors
   NREBOOT  =      0    no. of reboots
   NMIN     =      0    reboot dimension
   EREF     =   0.00    reference energy to select bands
   IMIX   =      4    mixing-type and parameters
     AMIX     =   0.40;   BMIX     =  1.00
     AMIX_MAG =   1.60;   BMIX_MAG =  1.00
     AMIN     =   0.10
     WC   =   100.;   INIMIX=   1;  MIXPRE=   1;  MAXMIX= -45

 Intra band minimization:
   WEIMIN = 0.0000     energy-eigenvalue tresh-hold
   EBREAK =  0.46E-09  absolut break condition
   DEPER  =   0.30     relativ break condition  

   TIME   =   0.40     timestep for ELM

  volume/ion in A,a.u.               =      14.32        96.62
  Fermi-wavevector in a.u.,A,eV,Ry     =   1.368520  2.586127 25.481613  1.872846
  Thomas-Fermi vector in A             =   2.494476
 
 Write flags
   LWAVE        =      F    write WAVECAR
   LDOWNSAMPLE  =      F    k-point downsampling of WAVECAR
   LCHARG       =      T    write CHGCAR
   LVTOT        =      F    write LOCPOT, total local potential
   LVHAR        =      F    write LOCPOT, Hartree potential only
   LELF         =      F    write electronic localiz. function (ELF)
   LORBIT       =      0    0 simple, 1 ext, 2 COOP (PROOUT), +10 PAW based schemes


 Dipole corrections
   LMONO  =      F    monopole corrections only (constant potential shift)
   LDIPOL =      F    correct potential (dipole corrections)
   IDIPOL =      0    1-x, 2-y, 3-z, 4-all directions 
   EPSILON=  1.0000000 bulk dielectric constant

 LDA+U is selected, type is set to LDAUTYPE =  2
   angular momentum for each species LDAUL =    -1   -1   -1    2
   U (eV)           for each species LDAUU =   0.0  0.0  0.0  4.0
   J (eV)           for each species LDAUJ =   0.0  0.0  0.0  0.0
 Exchange correlation treatment:
   GGA     =    PE    GGA type
   LEXCH   =     8    internal setting for exchange type
   VOSKOWN=      0    Vosko Wilk Nusair interpolation
   LHFCALC =     F    Hartree Fock is set to
   LHFONE  =     F    Hartree Fock one center treatment
   AEXX    =    0.0000 exact exchange contribution

 Linear response parameters
   LEPSILON=     F    determine dielectric tensor
   LRPA    =     F    only Hartree local field effects (RPA)
   LNABLA  =     F    use nabla operator in PAW spheres
   LVEL    =     F    velocity operator in full k-point grid
   LINTERFAST=   F  fast interpolation
   KINTER  =     0    interpolate to denser k-point grid
   CSHIFT  =0.1000    complex shift for real part using Kramers Kronig
   OMEGAMAX=  -1.0    maximum frequency
   DEG_THRESHOLD= 0.2000000E-02 threshold for treating states as degnerate
   RTIME   =   -0.100 relaxation time in fs
  (WPLASMAI=    0.000 imaginary part of plasma frequency in eV, 0.658/RTIME)
   DFIELD  = 0.0000000 0.0000000 0.0000000 field for delta impulse in time
 
 Orbital magnetization related:
   ORBITALMAG=     F  switch on orbital magnetization
   LCHIMAG   =     F  perturbation theory with respect to B field
   DQ        =  0.001000  dq finite difference perturbation B field
   LLRAUG    =     F  two centre corrections for induced B field



--------------------------------------------------------------------------------------------------------


 Static calculation
 charge density and potential will be updated during run
 spin polarized calculation
 Variant of blocked Davidson
 Davidson routine will perform the subspace rotation
 perform sub-space diagonalisation
    after iterative eigenvector-optimisation
 modified Broyden-mixing scheme, WC =      100.0
 initial mixing is a Kerker type mixing with AMIX =  0.4000 and BMIX =      1.0000
 Hartree-type preconditioning will be used
 using additional bands          170
 reciprocal scheme for non local part
 use partial core corrections
 calculate Harris-corrections to forces 
   (improved forces if not selfconsistent)
 use gradient corrections 
 use of overlap-Matrix (Vanderbilt PP)
 Gauss-broadening in eV      SIGMA  =   0.05


--------------------------------------------------------------------------------------------------------


  energy-cutoff  :      650.00
  volume of cell :     1259.94
      direct lattice vectors                 reciprocal lattice vectors
    11.112233740  0.000000000 -0.000290340     0.089991547  0.000000000  0.024487024
     0.000000000 11.117451940  0.000000000     0.000000000  0.089948669  0.000000000
    -2.775108980  0.000000000 10.198722210     0.000002562  0.000000000  0.098052196

  length of vectors
    11.112233744 11.117451940 10.569539468     0.093263567  0.089948669  0.098052196


 
 k-points in units of 2pi/SCALE and weight: # No comment                            
   0.00000000  0.00000000  0.00000000       0.037
   0.02999718  0.00000000  0.00816234       0.074
   0.00000000  0.02998289  0.00000000       0.074
   0.02999718  0.02998289  0.00816234       0.074
  -0.02999718  0.02998289 -0.00816234       0.074
   0.00000085  0.00000000  0.03268407       0.074
   0.02999804  0.00000000  0.04084641       0.074
  -0.02999633  0.00000000  0.02452172       0.074
   0.00000085  0.02998289  0.03268407       0.074
   0.02999804  0.02998289  0.04084641       0.074
  -0.02999633  0.02998289  0.02452172       0.074
   0.00000085 -0.02998289  0.03268407       0.074
   0.02999804 -0.02998289  0.04084641       0.074
  -0.02999633 -0.02998289  0.02452172       0.074
 
 k-points in reciprocal lattice and weights: # No comment                            
   0.00000000  0.00000000  0.00000000       0.037
   0.33333333  0.00000000  0.00000000       0.074
   0.00000000  0.33333333  0.00000000       0.074
   0.33333333  0.33333333  0.00000000       0.074
  -0.33333333  0.33333333 -0.00000000       0.074
   0.00000000  0.00000000  0.33333333       0.074
   0.33333333  0.00000000  0.33333333       0.074
  -0.33333333  0.00000000  0.33333333       0.074
   0.00000000  0.33333333  0.33333333       0.074
   0.33333333  0.33333333  0.33333333       0.074
  -0.33333333  0.33333333  0.33333333       0.074
   0.00000000 -0.33333333  0.33333333       0.074
   0.33333333 -0.33333333  0.33333333       0.074
  -0.33333333 -0.33333333  0.33333333       0.074
 
 position of ions in fractional coordinates (direct lattice) 
   0.28894969  0.46933910  0.15583616
   0.78894969  0.46933910  0.15583616
   0.28894969  0.96933910  0.15583616
   0.78894969  0.96933910  0.15583616
   0.04646972  0.21934976  0.18586770
   0.54646972  0.21934976  0.18586770
   0.04646972  0.71934976  0.18586770
   0.54646972  0.71934976  0.18586770
   0.45353028  0.46934976  0.81413230
   0.95353028  0.46934976  0.81413230
   0.45353028  0.96934976  0.81413230
   0.95353028  0.96934976  0.81413230
   0.21105031  0.21933910  0.84416384
   0.71105031  0.21933910  0.84416384
   0.21105031  0.71933910  0.84416384
   0.71105031  0.71933910  0.84416384
   0.07654971  0.09530995  0.80345205
   0.57654971  0.09530995  0.80250593
   0.07654971  0.59530995  0.80250593
   0.57654971  0.59530995  0.80250593
   0.32470466  0.34338175  0.80250383
   0.82470466  0.34338175  0.80250383
   0.32470466  0.84338175  0.80250383
   0.82470466  0.84338175  0.80250383
   0.17529534  0.09338175  0.19749617
   0.67529534  0.09338175  0.19749617
   0.17529534  0.59338175  0.19749617
   0.67529534  0.59338175  0.19749617
   0.42345029  0.34530995  0.19749407
   0.92345029  0.34530995  0.19749407
   0.42345029  0.84530995  0.19749407
   0.92345029  0.84530995  0.19749407
   0.21868463  0.34523395  0.37102476
   0.71868463  0.34523395  0.37102476
   0.21868463  0.84523395  0.37102476
   0.71868463  0.84523395  0.37102476
   0.46681660  0.09344897  0.37102399
   0.96681660  0.09344897  0.37102399
   0.46681660  0.59344897  0.37102399
   0.96681660  0.59344897  0.37102399
   0.03318340  0.34344897  0.62897601
   0.53318340  0.34344897  0.62897601
   0.03318340  0.84344897  0.62897601
   0.53318340  0.84344897  0.62897601
   0.28131537  0.09523395  0.62897524
   0.78131537  0.09523395  0.62897524
   0.28131537  0.59523395  0.62897524
   0.78131537  0.59523395  0.62897524
   0.12439279  0.34434306  0.00000412
   0.62439279  0.34434306  0.00000412
   0.12439279  0.84434306  0.00000412
   0.62439279  0.84434306  0.00000412
   0.37560721  0.09434306  0.99999588
   0.87560721  0.09434306  0.99999588
   0.37560721  0.59434306  0.99999588
   0.87560721  0.59434306  0.99999588
   0.03824426  0.10634799  0.60632306
   0.53824426  0.10634799  0.60632306
   0.03824426  0.60634799  0.60632306
   0.53824426  0.60634799  0.60632306
   0.26492712  0.33232651  0.60632763
   0.76492712  0.33232651  0.60632763
   0.26492712  0.83232651  0.60632763
   0.76492712  0.83232651  0.60632763
   0.23507288  0.08232651  0.39367237
   0.73507288  0.08232651  0.39367237
   0.23507288  0.58232651  0.39367237
   0.73507288  0.58232651  0.39367237
   0.46175574  0.35634799  0.39367694
   0.96175574  0.35634799  0.39367694
   0.46175574  0.85634799  0.39367694
   0.96175574  0.85634799  0.39367694
   0.03848398  0.46936404  0.15397331
   0.53848398  0.46936404  0.15397331
   0.03848398  0.96936404  0.15397331
   0.53848398  0.96936404  0.15397331
   0.28861657  0.21935690  0.15447525
   0.78861657  0.21935690  0.15447525
   0.28861657  0.71935690  0.15447525
   0.78861657  0.71935690  0.15447525
   0.21138343  0.46935690  0.84552475
   0.71138343  0.46935690  0.84552475
   0.21138343  0.96935690  0.84552475
   0.71138343  0.96935690  0.84552475
   0.46151602  0.21936404  0.84602669
   0.96151602  0.21936404  0.84602669
   0.46151602  0.71936404  0.84602669
   0.96151602  0.71936404  0.84602669
 
 position of ions in cartesian coordinates  (Angst):
   2.77841422  5.21785483  1.58924581
   8.33453109  5.21785483  1.58910064
   2.77841422 10.77658080  1.58924581
   8.33453109 10.77658080  1.58910064
   0.00057921  2.43861041  1.89559955
   5.55669608  2.43861041  1.89545438
   0.00057921  7.99733638  1.89559955
   5.55669608  7.99733638  1.89545438
   2.78042868  5.21797340  8.30297749
   8.33654555  5.21797340  8.30283232
   2.78042868 10.77669937  8.30297749
   8.33654555 10.77669937  8.30283232
   0.00259367  2.43849185  8.60933123
   5.55871054  2.43849185  8.60918606
   0.00259367  7.99721782  8.60933123
   5.55871054  7.99721782  8.60918606
  -1.37902871  1.05960384  8.19416199
   4.17971373  1.05960384  8.18436766
  -1.37640314  6.61832981  8.18451283
   4.17971373  6.61832981  8.18436766
   1.38115855  3.81753010  8.18441936
   6.93727542  3.81753010  8.18427419
   1.38115855  9.37625607  8.18441936
   6.93727542  9.37625607  8.18427419
   1.39984934  1.03816712  2.01415768
   6.95596621  1.03816712  2.01401251
   1.39984934  6.59689309  2.01415768
   6.95596621  6.59689309  2.01401251
   4.15741103  3.83896683  2.01406421
   9.71352790  3.83896683  2.01391904
   4.15741103  9.39769280  2.01406421
   9.71352790  9.39769280  2.01391904
   1.40044058  3.83812185  3.78391497
   6.95655745  3.83812185  3.78376980
   1.40044058  9.39684782  3.78391497
   6.95655745  9.39684782  3.78376980
   4.15774317  1.03891443  3.78383507
   9.71386004  1.03891443  3.78368990
   4.15774317  6.59764040  3.78383507
   9.71386004  6.59764040  3.78368990
  -1.37673528  3.81827742  6.41474197
   4.17938159  3.81827742  6.41459680
  -1.37673528  9.37700339  6.41474197
   4.17938159  9.37700339  6.41459680
   1.38056731  1.05875886  6.41466207
   6.93668418  1.05875886  6.41451690
   1.38056731  6.61748483  6.41466207
   6.93668418  6.61748483  6.41451690
   1.38227032  3.82821742  0.00000590
   6.93838719  3.82821742 -0.00013927
   1.38227032  9.38694339  0.00000590
   6.93838719  9.38694339 -0.00013927
   1.39873757  1.04885444 10.19857114
   6.95485444  1.04885444 10.19842597
   1.39873757  6.60758041 10.19857114
   6.95485444  6.60758041 10.19842597
  -1.25763347  1.18231867  6.18370935
   4.29848340  1.18231867  6.18356418
  -1.25763347  6.74104464  6.18370935
   4.29848340  6.74104464  6.18356418
   1.26130689  3.69462400  6.18369015
   6.81742376  3.69462400  6.18354498
   1.26130689  9.25334997  6.18369015
   6.81742376  9.25334997  6.18354498
   1.51970100  0.91526102  4.01488689
   7.07581787  0.91526102  4.01474172
   1.51970100  6.47398699  4.01488689
   7.07581787  6.47398699  4.01474172
   4.03864136  3.96168165  4.01486769
   9.59475823  3.96168165  4.01472252
   4.03864136  9.52040762  4.01486769
   9.59475823  9.52040762  4.01472252
   0.00035027  5.21813216  1.57031984
   5.55646714  5.21813216  1.57017467
   0.00035027 10.77685813  1.57031984
   5.55646714 10.77685813  1.57017467
   2.77848919  2.43868979  1.57536637
   8.33460606  2.43868979  1.57522120
   2.77848919  7.99741576  1.57536637
   8.33460606  7.99741576  1.57522120
   0.00251870  5.21805278  8.62321067
   5.55863557  5.21805278  8.62306550
   0.00251870 10.77677875  8.62321067
   5.55863557 10.77677875  8.62306550
   2.78065762  2.43876917  8.62825720
   8.33677449  2.43876917  8.62811203
   2.78065762  7.99749514  8.62825720
   8.33677449  7.99749514  8.62811203
 


--------------------------------------------------------------------------------------------------------


 k-point  1 :   0.0000 0.0000 0.0000  plane waves:   47369
 k-point  2 :   0.3333 0.0000 0.0000  plane waves:   47373
 k-point  3 :   0.0000 0.3333 0.0000  plane waves:   47370
 k-point  4 :   0.3333 0.3333 0.0000  plane waves:   47404
 k-point  5 :  -0.3333 0.3333-0.0000  plane waves:   47404
 k-point  6 :   0.0000 0.0000 0.3333  plane waves:   47419
 k-point  7 :   0.3333 0.0000 0.3333  plane waves:   47399
 k-point  8 :  -0.3333 0.0000 0.3333  plane waves:   47417
 k-point  9 :   0.0000 0.3333 0.3333  plane waves:   47409
 k-point 10 :   0.3333 0.3333 0.3333  plane waves:   47422
 k-point 11 :  -0.3333 0.3333 0.3333  plane waves:   47440
 k-point 12 :   0.0000-0.3333 0.3333  plane waves:   47409
 k-point 13 :   0.3333-0.3333 0.3333  plane waves:   47422
 k-point 14 :  -0.3333-0.3333 0.3333  plane waves:   47440

 maximum and minimum number of plane-waves per node :      7942     7858

 maximum number of plane-waves:     47440
 maximum index in each direction: 
   IXMAX=   23   IYMAX=   23   IZMAX=   21
   IXMIN=  -23   IYMIN=  -23   IZMIN=  -22


 parallel 3D FFT for wavefunctions:
    minimum data exchange during FFTs selected (reduces bandwidth)
 parallel 3D FFT for charge:
    minimum data exchange during FFTs selected (reduces bandwidth)


 total amount of memory used by VASP MPI-rank0  1233264. kBytes
=======================================================================

   base      :      30000. kBytes
   nonl-proj :      75226. kBytes
   fftplans  :      85054. kBytes
   grid      :      64684. kBytes
   one-center:        466. kBytes
   wavefun   :     977834. kBytes
 
     INWAV:  cpu time    0.0000: real time    0.0000
 Broyden mixing: mesh for mixing (old mesh)
   NGX = 47   NGY = 47   NGZ = 43
  (NGX  =192   NGY  =192   NGZ  =180)
  gives a total of  94987 points

 initial charge density was supplied:
 number of electron     736.0000016 magnetization     127.9999885
 keeping initial charge density in first step


--------------------------------------------------------------------------------------------------------


 Maximum index for augmentation-charges        13229 (set IRDMAX)


--------------------------------------------------------------------------------------------------------


 First call to EWALD:  gamma=   0.164
 Maximum number of real-space cells 3x 3x 3
 Maximum number of reciprocal cells 3x 3x 3

    FEWALD:  cpu time    0.0047: real time    0.0047


--------------------------------------- Iteration      1(   1)  ---------------------------------------


    POTLOK:  cpu time    1.0633: real time    1.0764
    SETDIJ:  cpu time    2.2967: real time    2.3104
     EDDAV:  cpu time  314.7075: real time  318.0032
       DOS:  cpu time    0.0079: real time    0.0140
    --------------------------------------------
      LOOP:  cpu time  318.0755: real time  321.4040

 eigenvalue-minimisations  : 30944
 total energy-change (2. order) : 0.1040960E+05  (-0.4118844E+05)
 number of electron     736.0000016 magnetization     127.9999885
 augmentation part      736.0000016 magnetization     127.9999885

 Free energy of the ion-electron system (eV)
  ---------------------------------------------------
  alpha Z        PSCENC =      2314.49656628
  Ewald energy   TEWEN  =    -57724.33831190
  -Hartree energ DENC   =    -30347.65828307
  -exchange      EXHF   =         0.00000000
  -V(xc)+E(xc)   XCENC  =      3229.29413488
  PAW double counting   =     92679.89207989   -95535.38516353
  entropy T*S    EENTRO =        -0.01863812
  eigenvalues    EBANDS =       349.84174566
  atomic energy  EATOM  =     95443.47970955
  Solvation  Ediel_sol  =         0.00000000
  ---------------------------------------------------
  free energy    TOTEN  =     10409.60383963 eV

  energy without entropy =    10409.62247775  energy(sigma->0) =    10409.61315869


--------------------------------------------------------------------------------------------------------




--------------------------------------- Iteration      1(   2)  ---------------------------------------


     EDDAV:  cpu time  309.0222: real time  312.3280
       DOS:  cpu time    0.0086: real time    0.0086
    --------------------------------------------
      LOOP:  cpu time  309.0308: real time  312.3366

 eigenvalue-minimisations  : 30128
 total energy-change (2. order) :-0.9232131E+04  (-0.8658329E+04)
 number of electron     736.0000016 magnetization     127.9999885
 augmentation part      736.0000016 magnetization     127.9999885

 Free energy of the ion-electron system (eV)
  ---------------------------------------------------
  alpha Z        PSCENC =      2314.49656628
  Ewald energy   TEWEN  =    -57724.33831190
  -Hartree energ DENC   =    -30347.65828307
  -exchange      EXHF   =         0.00000000
  -V(xc)+E(xc)   XCENC  =      3229.29413488
  PAW double counting   =     92679.89207989   -95535.38516353
  entropy T*S    EENTRO =        -0.06591433
  eigenvalues    EBANDS =     -8882.24155046
  atomic energy  EATOM  =     95443.47970955
  Solvation  Ediel_sol  =         0.00000000
  ---------------------------------------------------
  free energy    TOTEN  =      1177.47326730 eV

  energy without entropy =     1177.53918163  energy(sigma->0) =     1177.50622446


--------------------------------------------------------------------------------------------------------




--------------------------------------- Iteration      1(   3)  ---------------------------------------


     EDDAV:  cpu time  326.3932: real time  329.7218
       DOS:  cpu time    0.0025: real time    0.0025
    --------------------------------------------
      LOOP:  cpu time  326.3956: real time  329.7242

 eigenvalue-minimisations  : 32384
 total energy-change (2. order) :-0.1485556E+04  (-0.1278912E+04)
 number of electron     736.0000016 magnetization     127.9999885
 augmentation part      736.0000016 magnetization     127.9999885

 Free energy of the ion-electron system (eV)
  ---------------------------------------------------
  alpha Z        PSCENC =      2314.49656628
  Ewald energy   TEWEN  =    -57724.33831190
  -Hartree energ DENC   =    -30347.65828307
  -exchange      EXHF   =         0.00000000
  -V(xc)+E(xc)   XCENC  =      3229.29413488
  PAW double counting   =     92679.89207989   -95535.38516353
  entropy T*S    EENTRO =        -0.00000000
  eigenvalues    EBANDS =    -10367.86327885
  atomic energy  EATOM  =     95443.47970955
  Solvation  Ediel_sol  =         0.00000000
  ---------------------------------------------------
  free energy    TOTEN  =      -308.08254676 eV

  energy without entropy =     -308.08254676  energy(sigma->0) =     -308.08254676


--------------------------------------------------------------------------------------------------------




--------------------------------------- Iteration      1(   4)  ---------------------------------------


     EDDAV:  cpu time  348.3805: real time  352.0395
       DOS:  cpu time    0.0025: real time    0.0025
    --------------------------------------------
      LOOP:  cpu time  348.3830: real time  352.0420

 eigenvalue-minimisations  : 35016
 total energy-change (2. order) :-0.1682185E+03  (-0.1654665E+03)
 number of electron     736.0000016 magnetization     127.9999885
 augmentation part      736.0000016 magnetization     127.9999885

 Free energy of the ion-electron system (eV)
  ---------------------------------------------------
  alpha Z        PSCENC =      2314.49656628
  Ewald energy   TEWEN  =    -57724.33831190
  -Hartree energ DENC   =    -30347.65828307
  -exchange      EXHF   =         0.00000000
  -V(xc)+E(xc)   XCENC  =      3229.29413488
  PAW double counting   =     92679.89207989   -95535.38516353
  entropy T*S    EENTRO =        -0.00000000
  eigenvalues    EBANDS =    -10536.08182048
  atomic energy  EATOM  =     95443.47970955
  Solvation  Ediel_sol  =         0.00000000
  ---------------------------------------------------
  free energy    TOTEN  =      -476.30108839 eV

  energy without entropy =     -476.30108839  energy(sigma->0) =     -476.30108839


--------------------------------------------------------------------------------------------------------




--------------------------------------- Iteration      1(   5)  ---------------------------------------


     EDDAV:  cpu time  461.6181: real time  466.0698
       DOS:  cpu time    0.0026: real time    0.0026
    CHARGE:  cpu time    9.0925: real time    9.2500
    MIXING:  cpu time    0.0348: real time    0.0370
    --------------------------------------------
      LOOP:  cpu time  470.7481: real time  475.3594

 eigenvalue-minimisations  : 49792
 total energy-change (2. order) :-0.1243292E+02  (-0.1230981E+02)
 number of electron     736.0000016 magnetization     127.9999932
 augmentation part      278.4624907 magnetization      84.1339097

 Broyden mixing:
  rms(total) = 0.20704E+00    rms(broyden)= 0.20687E+00
  rms(prec ) = 0.21055E+00
  weight for this iteration     100.00

 Free energy of the ion-electron system (eV)
  ---------------------------------------------------
  alpha Z        PSCENC =      2314.49656628
  Ewald energy   TEWEN  =    -57724.33831190
  -Hartree energ DENC   =    -30347.65828307
  -exchange      EXHF   =         0.00000000
  -V(xc)+E(xc)   XCENC  =      3229.29413488
  PAW double counting   =     92679.89207989   -95535.38516353
  entropy T*S    EENTRO =        -0.00000000
  eigenvalues    EBANDS =    -10548.51473671
  atomic energy  EATOM  =     95443.47970955
  Solvation  Ediel_sol  =         0.00000000
  ---------------------------------------------------
  free energy    TOTEN  =      -488.73400462 eV

  energy without entropy =     -488.73400462  energy(sigma->0) =     -488.73400462


--------------------------------------------------------------------------------------------------------




--------------------------------------- Iteration      1(   6)  ---------------------------------------


    POTLOK:  cpu time    1.0546: real time    1.0579
    SETDIJ:  cpu time    2.2783: real time    2.2809
     EDDAV:  cpu time  402.8789: real time  407.2040
       DOS:  cpu time    0.0026: real time    0.0026
    CHARGE:  cpu time    9.1732: real time    9.3726
    MIXING:  cpu time    0.0272: real time    0.0451
    --------------------------------------------
      LOOP:  cpu time  415.4150: real time  419.9632

 eigenvalue-minimisations  : 42072
 total energy-change (2. order) :-0.4662281E+00  (-0.4804994E+00)
 number of electron     736.0000016 magnetization     127.9999951
 augmentation part      277.9607794 magnetization      84.1628751

 Broyden mixing:
  rms(total) = 0.10233E+00    rms(broyden)= 0.10217E+00
  rms(prec ) = 0.10305E+00
  weight for this iteration     100.00

 eigenvalues of (default mixing * dielectric matrix)
  average eigenvalue GAMMA=   0.6575
  0.6575

 Free energy of the ion-electron system (eV)
  ---------------------------------------------------
  alpha Z        PSCENC =      2314.49656628
  Ewald energy   TEWEN  =    -57724.33831190
  -Hartree energ DENC   =    -30345.75982034
  -exchange      EXHF   =         0.00000000
  -V(xc)+E(xc)   XCENC  =      3228.99361846
  PAW double counting   =     92522.36062277   -95376.18868448
  entropy T*S    EENTRO =        -0.00000000
  eigenvalues    EBANDS =    -10552.24393303
  atomic energy  EATOM  =     95443.47970955
  Solvation  Ediel_sol  =         0.00000000
  ---------------------------------------------------
  free energy    TOTEN  =      -489.20023269 eV

  energy without entropy =     -489.20023269  energy(sigma->0) =     -489.20023269


--------------------------------------------------------------------------------------------------------




--------------------------------------- Iteration      1(   7)  ---------------------------------------


    POTLOK:  cpu time    1.0494: real time    1.0674
    SETDIJ:  cpu time    2.3243: real time    2.3549
     EDDAV:  cpu time  433.4314: real time  438.2495
       DOS:  cpu time    0.0027: real time    0.0027
    CHARGE:  cpu time    9.2754: real time    9.3691
    MIXING:  cpu time    0.0293: real time    0.0317
    --------------------------------------------
      LOOP:  cpu time  446.1125: real time  451.0753

 eigenvalue-minimisations  : 46216
 total energy-change (2. order) :-0.1674039E-01  (-0.1762731E-01)
 number of electron     736.0000016 magnetization     127.9999959
 augmentation part      277.8792205 magnetization      84.1549991

 Broyden mixing:
  rms(total) = 0.59442E-01    rms(broyden)= 0.59400E-01
  rms(prec ) = 0.60880E-01
  weight for this iteration     100.00

 eigenvalues of (default mixing * dielectric matrix)
  average eigenvalue GAMMA=   0.5654
  0.5654  0.5654

 Free energy of the ion-electron system (eV)
  ---------------------------------------------------
  alpha Z        PSCENC =      2314.49656628
  Ewald energy   TEWEN  =    -57724.33831190
  -Hartree energ DENC   =    -30346.69447455
  -exchange      EXHF   =         0.00000000
  -V(xc)+E(xc)   XCENC  =      3229.07881963
  PAW double counting   =     92579.70854814   -95434.11623879
  entropy T*S    EENTRO =        -0.00000000
  eigenvalues    EBANDS =    -10550.83159143
  atomic energy  EATOM  =     95443.47970955
  Solvation  Ediel_sol  =         0.00000000
  ---------------------------------------------------
  free energy    TOTEN  =      -489.21697308 eV

  energy without entropy =     -489.21697308  energy(sigma->0) =     -489.21697308


--------------------------------------------------------------------------------------------------------




--------------------------------------- Iteration      1(   8)  ---------------------------------------


    POTLOK:  cpu time    1.0563: real time    1.0736
    SETDIJ:  cpu time    2.2749: real time    2.3039
     EDDAV:  cpu time  406.6074: real time  410.9601
       DOS:  cpu time    0.0028: real time    0.0028
    CHARGE:  cpu time    9.3318: real time    9.3837
    MIXING:  cpu time    0.0371: real time    0.0372
    --------------------------------------------
      LOOP:  cpu time  419.3103: real time  423.7614

 eigenvalue-minimisations  : 42760
 total energy-change (2. order) : 0.4668558E-03  (-0.3664441E-03)
 number of electron     736.0000016 magnetization     127.9999964
 augmentation part      277.8708690 magnetization      84.1570089

 Broyden mixing:
  rms(total) = 0.52977E-01    rms(broyden)= 0.52973E-01
  rms(prec ) = 0.54248E-01
  weight for this iteration     100.00

 eigenvalues of (default mixing * dielectric matrix)
  average eigenvalue GAMMA=   0.5764
  0.6343  0.6343  0.4605

 Free energy of the ion-electron system (eV)
  ---------------------------------------------------
  alpha Z        PSCENC =      2314.49656628
  Ewald energy   TEWEN  =    -57724.33831190
  -Hartree energ DENC   =    -30346.64880462
  -exchange      EXHF   =         0.00000000
  -V(xc)+E(xc)   XCENC  =      3229.10688356
  PAW double counting   =     92592.93896300   -95447.47670336
  entropy T*S    EENTRO =        -0.00000000
  eigenvalues    EBANDS =    -10550.77480873
  atomic energy  EATOM  =     95443.47970955
  Solvation  Ediel_sol  =         0.00000000
  ---------------------------------------------------
  free energy    TOTEN  =      -489.21650622 eV

  energy without entropy =     -489.21650622  energy(sigma->0) =     -489.21650622


--------------------------------------------------------------------------------------------------------




--------------------------------------- Iteration      1(   9)  ---------------------------------------


    POTLOK:  cpu time    1.0532: real time    1.0560
    SETDIJ:  cpu time    2.2882: real time    2.2907
     EDDAV:  cpu time  453.3548: real time  457.8333
       DOS:  cpu time    0.0027: real time    0.0027
    CHARGE:  cpu time    9.2534: real time    9.4411
    MIXING:  cpu time    0.0324: real time    0.0333
    --------------------------------------------
      LOOP:  cpu time  465.9846: real time  470.6570

 eigenvalue-minimisations  : 48840
 total energy-change (2. order) : 0.5158038E-03  (-0.2189496E-04)
 number of electron     736.0000016 magnetization     127.9999988
 augmentation part      277.8733175 magnetization      84.1572009

 Broyden mixing:
  rms(total) = 0.45502E-01    rms(broyden)= 0.45502E-01
  rms(prec ) = 0.46551E-01
  weight for this iteration     100.00

 eigenvalues of (default mixing * dielectric matrix)
  average eigenvalue GAMMA=   0.8984
  1.2183  1.2183  0.5784  0.5784

 Free energy of the ion-electron system (eV)
  ---------------------------------------------------
  alpha Z        PSCENC =      2314.49656628
  Ewald energy   TEWEN  =    -57724.33831190
  -Hartree energ DENC   =    -30346.73357133
  -exchange      EXHF   =         0.00000000
  -V(xc)+E(xc)   XCENC  =      3229.13493806
  PAW double counting   =     92602.68960732   -95457.35822185
  entropy T*S    EENTRO =        -0.00000000
  eigenvalues    EBANDS =    -10550.58670654
  atomic energy  EATOM  =     95443.47970955
  Solvation  Ediel_sol  =         0.00000000
  ---------------------------------------------------
  free energy    TOTEN  =      -489.21599042 eV

  energy without entropy =     -489.21599042  energy(sigma->0) =     -489.21599042


--------------------------------------------------------------------------------------------------------




--------------------------------------- Iteration      1(  10)  ---------------------------------------


    POTLOK:  cpu time    1.0517: real time    1.0820
    SETDIJ:  cpu time    2.2854: real time    2.2902
     EDDAV:  cpu time  442.8247: real time  447.5587
       DOS:  cpu time    0.0031: real time    0.0035
    CHARGE:  cpu time    9.3833: real time    9.4620
    MIXING:  cpu time    0.0347: real time    0.0361
    --------------------------------------------
      LOOP:  cpu time  455.5828: real time  460.4325

 eigenvalue-minimisations  : 47144
 total energy-change (2. order) : 0.1057970E-02  (-0.1115474E-03)
 number of electron     736.0000016 magnetization     127.9999999
 augmentation part      277.8866118 magnetization      84.1586756

 Broyden mixing:
  rms(total) = 0.17305E-01    rms(broyden)= 0.17304E-01
  rms(prec ) = 0.17466E-01
  weight for this iteration     100.00

 eigenvalues of (default mixing * dielectric matrix)
  average eigenvalue GAMMA=   0.9387
  1.4978  1.4978  0.6173  0.6173  0.4631

 Free energy of the ion-electron system (eV)
  ---------------------------------------------------
  alpha Z        PSCENC =      2314.49656628
  Ewald energy   TEWEN  =    -57724.33831190
  -Hartree energ DENC   =    -30347.31336931
  -exchange      EXHF   =         0.00000000
  -V(xc)+E(xc)   XCENC  =      3229.25417351
  PAW double counting   =     92645.05009597   -95500.28461750
  entropy T*S    EENTRO =        -0.00000000
  eigenvalues    EBANDS =    -10549.55917904
  atomic energy  EATOM  =     95443.47970955
  Solvation  Ediel_sol  =         0.00000000
  ---------------------------------------------------
  free energy    TOTEN  =      -489.21493245 eV

  energy without entropy =     -489.21493245  energy(sigma->0) =     -489.21493245


--------------------------------------------------------------------------------------------------------




--------------------------------------- Iteration      1(  11)  ---------------------------------------


    POTLOK:  cpu time    1.0496: real time    1.0628
    SETDIJ:  cpu time    2.2775: real time    2.3078
     EDDAV:  cpu time  351.5503: real time  355.0199
       DOS:  cpu time    0.0026: real time    0.0026
    CHARGE:  cpu time    9.1980: real time    9.2540
    MIXING:  cpu time    0.0380: real time    0.0381
    --------------------------------------------
      LOOP:  cpu time  364.1161: real time  367.6851

 eigenvalue-minimisations  : 35640
 total energy-change (2. order) : 0.2954098E-04  (-0.5052799E-04)
 number of electron     736.0000016 magnetization     128.0000000
 augmentation part      277.8913821 magnetization      84.1585370

 Broyden mixing:
  rms(total) = 0.67935E-02    rms(broyden)= 0.67914E-02
  rms(prec ) = 0.68369E-02
  weight for this iteration     100.00

 eigenvalues of (default mixing * dielectric matrix)
  average eigenvalue GAMMA=   0.9083
  1.5120  1.5120  0.6759  0.6759  0.5371  0.5371

 Free energy of the ion-electron system (eV)
  ---------------------------------------------------
  alpha Z        PSCENC =      2314.49656628
  Ewald energy   TEWEN  =    -57724.33831190
  -Hartree energ DENC   =    -30347.53036495
  -exchange      EXHF   =         0.00000000
  -V(xc)+E(xc)   XCENC  =      3229.29784037
  PAW double counting   =     92664.97025980   -95520.42789562
  entropy T*S    EENTRO =        -0.00000000
  eigenvalues    EBANDS =    -10549.16270644
  atomic energy  EATOM  =     95443.47970955
  Solvation  Ediel_sol  =         0.00000000
  ---------------------------------------------------
  free energy    TOTEN  =      -489.21490291 eV

  energy without entropy =     -489.21490291  energy(sigma->0) =     -489.21490291


--------------------------------------------------------------------------------------------------------




--------------------------------------- Iteration      1(  12)  ---------------------------------------


    POTLOK:  cpu time    1.0417: real time    1.0539
    SETDIJ:  cpu time    2.2885: real time    2.2966
     EDDAV:  cpu time  397.7841: real time  402.1171
       DOS:  cpu time    0.0026: real time    0.0026
    CHARGE:  cpu time    9.2384: real time    9.4034
    MIXING:  cpu time    0.0300: real time    0.0303
    --------------------------------------------
      LOOP:  cpu time  410.3852: real time  414.9040

 eigenvalue-minimisations  : 41288
 total energy-change (2. order) :-0.1252293E-04  (-0.1174972E-04)
 number of electron     736.0000016 magnetization     128.0000001
 augmentation part      277.8941974 magnetization      84.1585475

 Broyden mixing:
  rms(total) = 0.55431E-02    rms(broyden)= 0.55414E-02
  rms(prec ) = 0.56162E-02
  weight for this iteration     100.00

 eigenvalues of (default mixing * dielectric matrix)
  average eigenvalue GAMMA=   0.9701
  1.4836  1.4836  1.0630  1.0630  0.5987  0.5987  0.4997

 Free energy of the ion-electron system (eV)
  ---------------------------------------------------
  alpha Z        PSCENC =      2314.49656628
  Ewald energy   TEWEN  =    -57724.33831190
  -Hartree energ DENC   =    -30347.53840012
  -exchange      EXHF   =         0.00000000
  -V(xc)+E(xc)   XCENC  =      3229.29838896
  PAW double counting   =     92668.32246423   -95523.78745961
  entropy T*S    EENTRO =        -0.00000000
  eigenvalues    EBANDS =    -10549.14787283
  atomic energy  EATOM  =     95443.47970955
  Solvation  Ediel_sol  =         0.00000000
  ---------------------------------------------------
  free energy    TOTEN  =      -489.21491543 eV

  energy without entropy =     -489.21491543  energy(sigma->0) =     -489.21491543


--------------------------------------------------------------------------------------------------------




--------------------------------------- Iteration      1(  13)  ---------------------------------------


    POTLOK:  cpu time    1.0482: real time    1.0493
    SETDIJ:  cpu time    2.2953: real time    2.2963
     EDDAV:  cpu time  267.7707: real time  270.5381
       DOS:  cpu time    0.0025: real time    0.0025
    --------------------------------------------
      LOOP:  cpu time  271.1166: real time  273.8862

 eigenvalue-minimisations  : 24832
 total energy-change (2. order) :-0.8065253E-06  (-0.2262208E-06)
 number of electron     736.0000016 magnetization     128.0000001
 augmentation part      277.8941974 magnetization      84.1585475

 Free energy of the ion-electron system (eV)
  ---------------------------------------------------
  alpha Z        PSCENC =      2314.49656628
  Ewald energy   TEWEN  =    -57724.33831190
  -Hartree energ DENC   =    -30347.51633074
  -exchange      EXHF   =         0.00000000
  -V(xc)+E(xc)   XCENC  =      3229.29336798
  PAW double counting   =     92670.70139086   -95526.15233141
  entropy T*S    EENTRO =        -0.00000000
  eigenvalues    EBANDS =    -10549.17897685
  atomic energy  EATOM  =     95443.47970955
  Solvation  Ediel_sol  =         0.00000000
  ---------------------------------------------------
  free energy    TOTEN  =      -489.21491624 eV

  energy without entropy =     -489.21491624  energy(sigma->0) =     -489.21491624


--------------------------------------------------------------------------------------------------------




 average (electrostatic) potential at core
  the test charge radii are     0.7079  0.7215  0.9698  0.9500
  (the norm of the test charge is              1.0000)
       1 -58.9466       2 -58.9476       3 -58.9467       4 -58.9467       5 -58.9457
       6 -58.9462       7 -58.9460       8 -58.9465       9 -58.9465      10 -58.9463
      11 -58.9469      12 -58.9403      13 -58.9455      14 -58.9469      15 -58.9474
      16 -58.9476      17 -69.8096      18 -69.8170      19 -69.8170      20 -69.8167
      21 -69.8168      22 -69.8155      23 -69.8168      24 -69.8164      25 -69.8159
      26 -69.8163      27 -69.8160      28 -69.8167      29 -69.8163      30 -69.8165
      31 -69.8164      32 -69.8166      33 -85.5801      34 -85.5801      35 -85.5802
      36 -85.5802      37 -85.5805      38 -85.5819      39 -85.5800      40 -85.5806
      41 -85.5826      42 -85.5803      43 -85.5827      44 -85.5803      45 -85.5839
      46 -85.5813      47 -85.5804      48 -85.5802      49 -85.6357      50 -85.6386
      51 -85.6365      52 -85.6387      53 -85.6372      54 -85.6352      55 -85.6386
      56 -85.6387      57 -78.5891      58 -78.5759      59 -78.5761      60 -78.5748
      61 -78.5754      62 -78.5747      63 -78.5753      64 -78.5748      65 -78.5755
      66 -78.5749      67 -78.5745      68 -78.5746      69 -78.5746      70 -78.5753
      71 -78.5747      72 -78.5754      73 -78.5813      74 -78.5821      75 -78.5812
      76 -78.5817      77 -78.5907      78 -78.5909      79 -78.5909      80 -78.5918
      81 -78.5915      82 -78.5915      83 -78.5897      84 -78.5913      85 -78.5823
      86 -78.5735      87 -78.5822      88 -78.5820
 
 
 
 E-fermi :   5.2328     XC(G=0): -10.4850     alpha+bet :-11.8156


 spin component 1

 k-point     1 :       0.0000    0.0000    0.0000
  band No.  band energies     occupation 
      1     -51.0686      1.00000
      2     -51.0558      1.00000
      3     -51.0554      1.00000
      4     -51.0552      1.00000
      5     -51.0549      1.00000
      6     -51.0548      1.00000
      7     -51.0544      1.00000
      8     -51.0543      1.00000
      9     -51.0538      1.00000
     10     -51.0535      1.00000
     11     -51.0534      1.00000
     12     -51.0533      1.00000
     13     -51.0530      1.00000
     14     -51.0524      1.00000
     15     -51.0520      1.00000
     16     -51.0513      1.00000
     17     -51.0445      1.00000
     18     -51.0444      1.00000
     19     -51.0440      1.00000
     20     -51.0440      1.00000
     21     -51.0438      1.00000
     22     -51.0436      1.00000
     23     -51.0436      1.00000
     24     -51.0425      1.00000
     25     -51.0399      1.00000
     26     -51.0397      1.00000
     27     -51.0396      1.00000
     28     -51.0396      1.00000
     29     -51.0392      1.00000
     30     -51.0389      1.00000
     31     -51.0388      1.00000
     32     -51.0303      1.00000
     33     -49.7019      1.00000
     34     -49.7016      1.00000
     35     -49.7016      1.00000
     36     -49.7013      1.00000
     37     -49.7010      1.00000
     38     -49.7010      1.00000
     39     -49.7009      1.00000
     40     -49.6996      1.00000
     41     -49.6944      1.00000
     42     -49.6943      1.00000
     43     -49.6941      1.00000
     44     -49.6941      1.00000
     45     -49.6938      1.00000
     46     -49.6934      1.00000
     47     -49.6933      1.00000
     48     -49.6854      1.00000
     49     -49.6109      1.00000
     50     -49.5995      1.00000
     51     -49.5989      1.00000
     52     -49.5985      1.00000
     53     -49.5984      1.00000
     54     -49.5983      1.00000
     55     -49.5980      1.00000
     56     -49.5979      1.00000
     57     -49.5976      1.00000
     58     -49.5975      1.00000
     59     -49.5972      1.00000
     60     -49.5971      1.00000
     61     -49.5968      1.00000
     62     -49.5968      1.00000
     63     -49.5967      1.00000
     64     -49.5966      1.00000
     65     -49.5797      1.00000
     66     -49.5683      1.00000
     67     -49.5677      1.00000
     68     -49.5672      1.00000
     69     -49.5671      1.00000
     70     -49.5670      1.00000
     71     -49.5667      1.00000
     72     -49.5666      1.00000
     73     -49.5658      1.00000
     74     -49.5657      1.00000
     75     -49.5654      1.00000
     76     -49.5652      1.00000
     77     -49.5651      1.00000
     78     -49.5649      1.00000
     79     -49.5649      1.00000
     80     -49.5647      1.00000
     81     -49.5544      1.00000
     82     -49.5541      1.00000
     83     -49.5541      1.00000
     84     -49.5538      1.00000
     85     -49.5535      1.00000
     86     -49.5534      1.00000
     87     -49.5533      1.00000
     88     -49.5529      1.00000
     89     -49.5397      1.00000
     90     -49.5397      1.00000
     91     -49.5395      1.00000
     92     -49.5395      1.00000
     93     -49.5391      1.00000
     94     -49.5387      1.00000
     95     -49.5385      1.00000
     96     -49.5321      1.00000
     97     -39.8641      1.00000
     98     -39.8639      1.00000
     99     -39.8637      1.00000
    100     -39.8634      1.00000
    101     -39.8633      1.00000
    102     -39.8632      1.00000
    103     -39.8631      1.00000
    104     -39.8631      1.00000
    105     -39.8628      1.00000
    106     -39.8628      1.00000
    107     -39.8627      1.00000
    108     -39.8627      1.00000
    109     -39.8623      1.00000
    110     -39.8622      1.00000
    111     -39.8615      1.00000
    112     -39.8570      1.00000
    113     -13.2247      1.00000
    114     -13.2239      1.00000
    115     -13.2098      1.00000
    116     -13.1829      1.00000
    117     -13.1007      1.00000
    118     -13.0989      1.00000
    119     -13.0978      1.00000
    120     -13.0921      1.00000
    121     -13.0856      1.00000
    122     -13.0800      1.00000
    123     -13.0790      1.00000
    124     -13.0760      1.00000
    125     -12.9873      1.00000
    126     -12.9765      1.00000
    127     -12.9417      1.00000
    128     -12.9400      1.00000
    129      -7.6462      1.00000
    130      -7.4058      1.00000
    131      -7.3259      1.00000
    132      -7.3258      1.00000
    133      -7.3089      1.00000
    134      -7.3083      1.00000
    135      -7.3078      1.00000
    136      -7.3068      1.00000
    137      -7.1702      1.00000
    138      -7.1574      1.00000
    139      -7.1240      1.00000
    140      -7.1238      1.00000
    141      -7.0355      1.00000
    142      -7.0231      1.00000
    143      -7.0034      1.00000
    144      -7.0029      1.00000
    145      -6.9417      1.00000
    146      -6.9413      1.00000
    147      -6.8885      1.00000
    148      -6.8882      1.00000
    149      -6.8668      1.00000
    150      -6.8625      1.00000
    151      -6.8357      1.00000
    152      -6.8046      1.00000
    153      -1.9364      1.00000
    154      -1.9353      1.00000
    155      -1.9108      1.00000
    156      -1.8939      1.00000
    157      -1.6662      1.00000
    158      -1.6656      1.00000
    159      -1.6580      1.00000
    160      -1.6566      1.00000
    161      -1.5991      1.00000
    162      -1.5975      1.00000
    163      -1.5861      1.00000
    164      -1.5851      1.00000
    165      -1.2976      1.00000
    166      -1.1752      1.00000
    167      -1.1740      1.00000
    168      -1.1136      1.00000
    169      -1.1120      1.00000
    170      -1.1067      1.00000
    171      -1.0488      1.00000
    172      -0.9805      1.00000
    173      -0.9638      1.00000
    174      -0.9590      1.00000
    175      -0.9578      1.00000
    176      -0.9572      1.00000
    177      -0.9468      1.00000
    178      -0.9454      1.00000
    179      -0.9224      1.00000
    180      -0.8712      1.00000
    181      -0.8690      1.00000
    182      -0.8036      1.00000
    183      -0.8024      1.00000
    184      -0.8022      1.00000
    185      -0.7753      1.00000
    186      -0.7741      1.00000
    187      -0.7736      1.00000
    188      -0.7609      1.00000
    189      -0.7163      1.00000
    190      -0.7162      1.00000
    191      -0.7064      1.00000
    192      -0.7047      1.00000
    193      -0.6997      1.00000
    194      -0.6996      1.00000
    195      -0.6098      1.00000
    196      -0.6096      1.00000
    197      -0.5620      1.00000
    198      -0.5618      1.00000
    199      -0.5497      1.00000
    200      -0.5485      1.00000
    201      -0.4085      1.00000
    202      -0.4078      1.00000
    203      -0.3575      1.00000
    204      -0.3479      1.00000
    205      -0.3305      1.00000
    206      -0.3293      1.00000
    207      -0.2993      1.00000
    208      -0.2989      1.00000
    209      -0.2811      1.00000
    210      -0.2697      1.00000
    211      -0.2630      1.00000
    212      -0.2566      1.00000
    213      -0.2553      1.00000
    214      -0.2097      1.00000
    215      -0.2090      1.00000
    216      -0.1890      1.00000
    217      -0.1865      1.00000
    218      -0.1862      1.00000
    219      -0.1762      1.00000
    220      -0.1584      1.00000
    221      -0.1257      1.00000
    222      -0.1255      1.00000
    223      -0.1094      1.00000
    224      -0.0715      1.00000
    225      -0.0701      1.00000
    226      -0.0616      1.00000
    227      -0.0444      1.00000
    228      -0.0187      1.00000
    229      -0.0179      1.00000
    230      -0.0111      1.00000
    231       0.0010      1.00000
    232       0.0016      1.00000
    233       0.0460      1.00000
    234       0.0484      1.00000
    235       0.0494      1.00000
    236       0.0910      1.00000
    237       0.0940      1.00000
    238       0.1174      1.00000
    239       0.1181      1.00000
    240       0.1585      1.00000
    241       0.1622      1.00000
    242       0.1770      1.00000
    243       0.1783      1.00000
    244       0.1818      1.00000
    245       0.1822      1.00000
    246       0.1844      1.00000
    247       0.1883      1.00000
    248       0.1941      1.00000
    249       0.1944      1.00000
    250       0.2005      1.00000
    251       0.2013      1.00000
    252       0.2390      1.00000
    253       0.2504      1.00000
    254       0.2563      1.00000
    255       0.2566      1.00000
    256       0.2762      1.00000
    257       0.3364      1.00000
    258       0.3466      1.00000
    259       0.3588      1.00000
    260       0.3590      1.00000
    261       0.3605      1.00000
    262       0.3606      1.00000
    263       0.3884      1.00000
    264       0.4019      1.00000
    265       0.4513      1.00000
    266       0.4515      1.00000
    267       0.5785      1.00000
    268       0.5790      1.00000
    269       0.5843      1.00000
    270       0.6009      1.00000
    271       0.6010      1.00000
    272       0.6063      1.00000
    273       0.6069      1.00000
    274       0.6396      1.00000
    275       0.6511      1.00000
    276       0.6516      1.00000
    277       0.6621      1.00000
    278       0.6623      1.00000
    279       0.6641      1.00000
    280       0.6720      1.00000
    281       0.6734      1.00000
    282       0.6742      1.00000
    283       0.6966      1.00000
    284       0.7227      1.00000
    285       0.7816      1.00000
    286       0.8194      1.00000
    287       0.8286      1.00000
    288       0.8310      1.00000
    289       0.8317      1.00000
    290       0.8606      1.00000
    291       0.8611      1.00000
    292       0.9079      1.00000
    293       0.9402      1.00000
    294       0.9484      1.00000
    295       0.9489      1.00000
    296       0.9829      1.00000
    297       1.0255      1.00000
    298       1.0694      1.00000
    299       1.2686      1.00000
    300       1.2976      1.00000
    301       1.2978      1.00000
    302       1.3111      1.00000
    303       1.3324      1.00000
    304       1.3330      1.00000
    305       1.3370      1.00000
    306       1.3839      1.00000
    307       1.4043      1.00000
    308       1.4275      1.00000
    309       1.4661      1.00000
    310       1.4679      1.00000
    311       1.4680      1.00000
    312       1.4809      1.00000
    313       1.5108      1.00000
    314       1.5111      1.00000
    315       1.5408      1.00000
    316       1.5616      1.00000
    317       1.5771      1.00000
    318       1.6447      1.00000
    319       1.6553      1.00000
    320       1.7546      1.00000
    321       1.7556      1.00000
    322       1.7625      1.00000
    323       1.7766      1.00000
    324       1.8029      1.00000
    325       1.8036      1.00000
    326       1.8115      1.00000
    327       1.8230      1.00000
    328       1.8365      1.00000
    329       1.8369      1.00000
    330       1.8449      1.00000
    331       1.8462      1.00000
    332       1.8791      1.00000
    333       1.8897      1.00000
    334       1.9464      1.00000
    335       1.9926      1.00000
    336       1.9935      1.00000
    337       2.0058      1.00000
    338       2.0062      1.00000
    339       2.0086      1.00000
    340       2.0172      1.00000
    341       2.0187      1.00000
    342       2.0198      1.00000
    343       2.0395      1.00000
    344       2.0451      1.00000
    345       2.0461      1.00000
    346       2.0564      1.00000
    347       2.0679      1.00000
    348       2.0683      1.00000
    349       2.0914      1.00000
    350       2.1125      1.00000
    351       2.1885      1.00000
    352       2.1910      1.00000
    353       2.2471      1.00000
    354       2.2477      1.00000
    355       2.2706      1.00000
    356       2.2737      1.00000
    357       2.2843      1.00000
    358       2.4277      1.00000
    359       2.4661      1.00000
    360       2.4669      1.00000
    361       2.4783      1.00000
    362       2.5041      1.00000
    363       2.5280      1.00000
    364       2.5544      1.00000
    365       2.5926      1.00000
    366       2.6272      1.00000
    367       2.6272      1.00000
    368       2.6556      1.00000
    369       2.7386      1.00000
    370       2.7391      1.00000
    371       2.7609      1.00000
    372       2.7613      1.00000
    373       2.8331      1.00000
    374       2.8719      1.00000
    375       2.9262      1.00000
    376       2.9340      1.00000
    377       2.9342      1.00000
    378       2.9686      1.00000
    379       3.0264      1.00000
    380       3.0272      1.00000
    381       3.0609      1.00000
    382       3.0957      1.00000
    383       3.3081      1.00000
    384       3.3108      1.00000
    385       3.3474      1.00000
    386       3.3745      1.00000
    387       3.4219      1.00000
    388       3.4219      1.00000
    389       3.4390      1.00000
    390       3.4581      1.00000
    391       3.4584      1.00000
    392       3.5309      1.00000
    393       3.7476      1.00000
    394       3.8083      1.00000
    395       3.8094      1.00000
    396       3.8152      1.00000
    397       3.8156      1.00000
    398       3.8831      1.00000
    399       3.8834      1.00000
    400       3.9326      1.00000
    401       3.9356      1.00000
    402       3.9413      1.00000
    403       3.9415      1.00000
    404       4.0392      1.00000
    405       4.0402      1.00000
    406       4.0714      1.00000
    407       4.1390      1.00000
    408       4.1484      1.00000
    409       4.1505      1.00000
    410       4.3157      1.00000
    411       4.3180      1.00000
    412       4.3388      1.00000
    413       4.3589      1.00000
    414       4.3596      1.00000
    415       4.4277      1.00000
    416       4.4451      1.00000
    417       4.4468      1.00000
    418       4.4532      1.00000
    419       4.4549      1.00000
    420       4.4557      1.00000
    421       4.6355      1.00000
    422       4.6355      1.00000
    423       4.7311      1.00000
    424       4.7319      1.00000
    425       4.7624      1.00000
    426       4.7636      1.00000
    427       4.7678      1.00000
    428       4.7688      1.00000
    429       4.8089      1.00000
    430       4.8523      1.00000
    431       4.8529      1.00000
    432       4.8568      1.00000
    433       7.3431      0.00000
    434       8.1271      0.00000
    435       8.4426      0.00000
    436       8.6419      0.00000
    437       8.6425      0.00000
    438       8.8557      0.00000
    439       9.0838      0.00000
    440       9.0848      0.00000
    441       9.2606      0.00000
    442       9.2733      0.00000
    443       9.2871      0.00000
    444       9.2886      0.00000
    445       9.7263      0.00000
    446       9.7717      0.00000
    447       9.7723      0.00000
    448       9.7890      0.00000
    449       9.8539      0.00000
    450       9.8545      0.00000
    451       9.8612      0.00000
    452       9.8808      0.00000
    453       9.8903      0.00000
    454      10.0601      0.00000
    455      10.0816      0.00000
    456      10.1345      0.00000
    457      10.1358      0.00000
    458      10.3064      0.00000
    459      10.3074      0.00000
    460      10.4153      0.00000
    461      10.5258      0.00000
    462      10.5708      0.00000
    463      10.5722      0.00000
    464      10.5724      0.00000
    465      10.5778      0.00000
    466      10.5779      0.00000
    467      10.6761      0.00000
    468      10.9756      0.00000
    469      11.0182      0.00000
    470      11.0189      0.00000
    471      11.0398      0.00000
    472      11.0409      0.00000
    473      11.0766      0.00000
    474      11.1280      0.00000
    475      11.1784      0.00000
    476      11.1877      0.00000
    477      11.2284      0.00000
    478      11.2483      0.00000
    479      11.2489      0.00000
    480      11.2922      0.00000
    481      11.3066      0.00000
    482      11.4158      0.00000
    483      11.4175      0.00000
    484      11.4586      0.00000
    485      11.5197      0.00000
    486      11.5200      0.00000
    487      11.5302      0.00000
    488      11.5761      0.00000
    489      11.6804      0.00000
    490      11.6814      0.00000
    491      11.7967      0.00000
    492      11.7973      0.00000
    493      11.8166      0.00000
    494      11.8167      0.00000
    495      11.8836      0.00000
    496      11.9422      0.00000
    497      11.9744      0.00000
    498      11.9763      0.00000
    499      11.9824      0.00000
    500      12.0276      0.00000
    501      12.0288      0.00000
    502      12.0587      0.00000
    503      12.1617      0.00000
    504      12.2419      0.00000
    505      12.2567      0.00000
    506      12.2571      0.00000
    507      12.3152      0.00000
    508      12.3162      0.00000
    509      12.3220      0.00000
    510      12.3473      0.00000
    511      12.4613      0.00000
    512      12.4800      0.00000
    513      12.5170      0.00000
    514      12.5174      0.00000
    515      12.6139      0.00000
    516      12.6144      0.00000
    517      12.6609      0.00000
    518      12.6636      0.00000
    519      12.6642      0.00000
    520      12.6907      0.00000
    521      12.7466      0.00000
    522      12.8316      0.00000
    523      12.8714      0.00000
    524      12.8726      0.00000
    525      12.8727      0.00000
    526      13.1196      0.00000
    527      13.1202      0.00000
    528      13.1994      0.00000
    529      13.3852      0.00000
    530      13.4086      0.00000
    531      13.4123      0.00000
    532      13.4350      0.00000
    533      13.4401      0.00000
    534      13.4587      0.00000
    535      13.4991      0.00000
    536      13.5128      0.00000
    537      13.5476      0.00000
    538      13.5603      0.00000

 k-point     2 :       0.3333    0.0000    0.0000
  band No.  band energies     occupation 
      1     -51.0686      1.00000
      2     -51.0557      1.00000
      3     -51.0553      1.00000
      4     -51.0552      1.00000
      5     -51.0550      1.00000
      6     -51.0549      1.00000
      7     -51.0547      1.00000
      8     -51.0544      1.00000
      9     -51.0540      1.00000
     10     -51.0536      1.00000
     11     -51.0534      1.00000
     12     -51.0529      1.00000
     13     -51.0526      1.00000
     14     -51.0524      1.00000
     15     -51.0522      1.00000
     16     -51.0515      1.00000
     17     -51.0444      1.00000
     18     -51.0443      1.00000
     19     -51.0441      1.00000
     20     -51.0440      1.00000
     21     -51.0437      1.00000
     22     -51.0436      1.00000
     23     -51.0436      1.00000
     24     -51.0425      1.00000
     25     -51.0399      1.00000
     26     -51.0397      1.00000
     27     -51.0396      1.00000
     28     -51.0396      1.00000
     29     -51.0392      1.00000
     30     -51.0389      1.00000
     31     -51.0388      1.00000
     32     -51.0303      1.00000
     33     -49.7019      1.00000
     34     -49.7016      1.00000
     35     -49.7016      1.00000
     36     -49.7013      1.00000
     37     -49.7010      1.00000
     38     -49.7010      1.00000
     39     -49.7009      1.00000
     40     -49.6996      1.00000
     41     -49.6944      1.00000
     42     -49.6943      1.00000
     43     -49.6941      1.00000
     44     -49.6941      1.00000
     45     -49.6938      1.00000
     46     -49.6934      1.00000
     47     -49.6933      1.00000
     48     -49.6854      1.00000
     49     -49.6109      1.00000
     50     -49.5994      1.00000
     51     -49.5991      1.00000
     52     -49.5985      1.00000
     53     -49.5984      1.00000
     54     -49.5983      1.00000
     55     -49.5981      1.00000
     56     -49.5977      1.00000
     57     -49.5976      1.00000
     58     -49.5975      1.00000
     59     -49.5972      1.00000
     60     -49.5971      1.00000
     61     -49.5969      1.00000
     62     -49.5968      1.00000
     63     -49.5967      1.00000
     64     -49.5966      1.00000
     65     -49.5797      1.00000
     66     -49.5682      1.00000
     67     -49.5679      1.00000
     68     -49.5672      1.00000
     69     -49.5671      1.00000
     70     -49.5670      1.00000
     71     -49.5668      1.00000
     72     -49.5664      1.00000
     73     -49.5659      1.00000
     74     -49.5657      1.00000
     75     -49.5654      1.00000
     76     -49.5652      1.00000
     77     -49.5651      1.00000
     78     -49.5649      1.00000
     79     -49.5649      1.00000
     80     -49.5647      1.00000
     81     -49.5544      1.00000
     82     -49.5541      1.00000
     83     -49.5541      1.00000
     84     -49.5538      1.00000
     85     -49.5535      1.00000
     86     -49.5534      1.00000
     87     -49.5533      1.00000
     88     -49.5529      1.00000
     89     -49.5397      1.00000
     90     -49.5397      1.00000
     91     -49.5395      1.00000
     92     -49.5395      1.00000
     93     -49.5391      1.00000
     94     -49.5387      1.00000
     95     -49.5385      1.00000
     96     -49.5321      1.00000
     97     -39.8640      1.00000
     98     -39.8639      1.00000
     99     -39.8637      1.00000
    100     -39.8635      1.00000
    101     -39.8633      1.00000
    102     -39.8632      1.00000
    103     -39.8631      1.00000
    104     -39.8630      1.00000
[...]
   -.496E-02 -.757E-02 -.259E+02   0.426E-02 0.667E-02 0.256E+02   0.454E-03 0.205E-03 0.250E+00   0.293E-04 0.121E-03 -.320E-03
   0.149E-01 -.416E-02 -.259E+02   -.146E-01 0.415E-02 0.256E+02   -.190E-03 -.209E-03 0.250E+00   0.366E-04 -.175E-04 -.288E-03
   0.941E-01 0.185E+00 -.256E+02   -.840E-01 -.170E+00 0.254E+02   -.114E-01 -.146E-01 0.241E+00   -.395E-03 -.333E-03 -.261E-03
   -.996E-01 -.575E-02 -.417E+02   0.913E-01 0.260E-02 0.417E+02   0.521E-02 0.182E-02 0.226E-02   0.314E-03 0.279E-03 -.102E-03
   0.317E-01 0.495E-02 -.420E+02   -.292E-01 -.374E-02 0.420E+02   -.150E-02 -.122E-02 0.995E-02   -.134E-03 -.137E-04 -.247E-03
   -.991E-03 0.146E-01 -.420E+02   0.963E-03 -.127E-01 0.420E+02   -.166E-03 -.153E-02 0.982E-02   0.554E-04 -.912E-04 -.268E-03
   0.115E-01 0.170E-01 -.420E+02   -.108E-01 -.157E-01 0.420E+02   -.528E-03 -.126E-02 0.106E-01   -.904E-04 -.633E-04 -.153E-03
   0.151E+02 0.155E+02 -.124E+03   -.155E+02 -.159E+02 0.129E+03   0.391E+00 0.411E+00 -.470E+01   0.208E-04 0.125E-03 -.132E-02
   0.159E+02 0.149E+02 -.126E+03   -.163E+02 -.153E+02 0.131E+03   0.384E+00 0.380E+00 -.464E+01   -.276E-03 -.107E-03 0.385E-03
   0.159E+02 0.149E+02 -.126E+03   -.163E+02 -.153E+02 0.131E+03   0.387E+00 0.381E+00 -.464E+01   -.710E-04 0.669E-04 0.440E-03
   0.159E+02 0.149E+02 -.126E+03   -.163E+02 -.153E+02 0.131E+03   0.386E+00 0.380E+00 -.463E+01   -.245E-03 -.575E-04 0.472E-03
   -.159E+02 -.149E+02 -.126E+03   0.163E+02 0.152E+02 0.131E+03   -.389E+00 -.380E+00 -.463E+01   0.428E-03 0.204E-03 0.475E-03
   -.159E+02 -.149E+02 -.126E+03   0.163E+02 0.153E+02 0.131E+03   -.394E+00 -.374E+00 -.463E+01   0.328E-03 -.186E-04 0.258E-03
   -.159E+02 -.149E+02 -.126E+03   0.163E+02 0.153E+02 0.131E+03   -.389E+00 -.379E+00 -.463E+01   0.151E-03 0.464E-05 0.208E-03
   -.159E+02 -.149E+02 -.126E+03   0.163E+02 0.152E+02 0.131E+03   -.391E+00 -.382E+00 -.463E+01   0.383E-04 -.114E-04 0.350E-03
   0.159E+02 -.149E+02 0.126E+03   -.163E+02 0.153E+02 -.130E+03   0.389E+00 -.380E+00 0.464E+01   -.629E-04 -.256E-04 -.344E-03
   0.159E+02 -.149E+02 0.126E+03   -.163E+02 0.153E+02 -.131E+03   0.389E+00 -.380E+00 0.463E+01   -.933E-04 -.909E-04 -.378E-03
   0.159E+02 -.149E+02 0.126E+03   -.163E+02 0.153E+02 -.131E+03   0.389E+00 -.379E+00 0.463E+01   -.193E-03 0.540E-04 -.274E-03
   0.159E+02 -.149E+02 0.126E+03   -.163E+02 0.153E+02 -.131E+03   0.390E+00 -.379E+00 0.463E+01   -.122E-03 -.804E-04 -.479E-03
   -.159E+02 0.149E+02 0.126E+03   0.163E+02 -.153E+02 -.131E+03   -.385E+00 0.381E+00 0.463E+01   0.295E-03 0.461E-04 -.363E-03
   -.159E+02 0.149E+02 0.126E+03   0.162E+02 -.153E+02 -.131E+03   -.388E+00 0.381E+00 0.463E+01   -.346E-05 0.723E-04 -.369E-03
   -.159E+02 0.149E+02 0.126E+03   0.163E+02 -.153E+02 -.131E+03   -.386E+00 0.380E+00 0.463E+01   0.325E-03 -.233E-04 -.386E-03
   -.159E+02 0.149E+02 0.126E+03   0.162E+02 -.153E+02 -.131E+03   -.388E+00 0.379E+00 0.463E+01   0.721E-04 -.157E-03 -.405E-03
   0.280E+02 0.282E+02 0.333E+02   -.284E+02 -.285E+02 -.338E+02   0.350E+00 0.352E+00 0.521E+00   -.148E-03 -.293E-04 -.521E-03
   0.280E+02 0.282E+02 0.333E+02   -.283E+02 -.286E+02 -.338E+02   0.351E+00 0.353E+00 0.520E+00   -.179E-03 0.334E-05 -.571E-03
   0.280E+02 0.282E+02 0.333E+02   -.284E+02 -.285E+02 -.338E+02   0.350E+00 0.354E+00 0.521E+00   -.100E-03 -.819E-04 -.498E-03
   0.280E+02 0.282E+02 0.333E+02   -.283E+02 -.285E+02 -.338E+02   0.351E+00 0.354E+00 0.520E+00   -.216E-03 -.130E-03 -.574E-03
   -.279E+02 -.282E+02 0.333E+02   0.283E+02 0.286E+02 -.338E+02   -.350E+00 -.354E+00 0.522E+00   0.145E-03 -.581E-05 -.546E-03
   -.279E+02 -.282E+02 0.332E+02   0.283E+02 0.286E+02 -.337E+02   -.348E+00 -.354E+00 0.524E+00   0.139E-03 0.399E-04 -.925E-03
   -.279E+02 -.282E+02 0.333E+02   0.283E+02 0.286E+02 -.338E+02   -.349E+00 -.354E+00 0.520E+00   0.243E-03 0.103E-03 -.507E-03
   -.279E+02 -.282E+02 0.333E+02   0.283E+02 0.286E+02 -.338E+02   -.349E+00 -.354E+00 0.522E+00   0.114E-03 0.638E-04 -.557E-03
   0.279E+02 -.280E+02 -.333E+02   -.282E+02 0.284E+02 0.338E+02   0.351E+00 -.368E+00 -.517E+00   -.282E-03 0.623E-03 0.465E-03
   0.279E+02 -.282E+02 -.333E+02   -.283E+02 0.286E+02 0.338E+02   0.348E+00 -.355E+00 -.519E+00   -.139E-03 0.178E-03 0.570E-03
   0.279E+02 -.284E+02 -.333E+02   -.282E+02 0.288E+02 0.338E+02   0.350E+00 -.339E+00 -.516E+00   -.151E-03 -.418E-03 0.505E-03
   0.279E+02 -.282E+02 -.333E+02   -.283E+02 0.286E+02 0.338E+02   0.349E+00 -.353E+00 -.519E+00   -.185E-03 0.478E-04 0.582E-03
   -.278E+02 0.282E+02 -.334E+02   0.281E+02 -.285E+02 0.339E+02   -.371E+00 0.354E+00 -.512E+00   0.837E-03 -.182E-03 0.449E-03
   -.281E+02 0.282E+02 -.333E+02   0.285E+02 -.285E+02 0.338E+02   -.342E+00 0.352E+00 -.520E+00   -.220E-03 -.920E-04 0.578E-03
   -.280E+02 0.282E+02 -.333E+02   0.283E+02 -.285E+02 0.339E+02   -.352E+00 0.353E+00 -.519E+00   0.218E-03 -.127E-04 0.668E-03
   -.280E+02 0.282E+02 -.333E+02   0.284E+02 -.285E+02 0.338E+02   -.349E+00 0.354E+00 -.519E+00   0.826E-04 -.681E-04 0.520E-03
   0.987E+01 -.131E+00 -.342E-01   -.999E+01 0.124E+00 0.318E-01   0.117E+00 0.132E-01 0.629E-02   0.646E-04 -.485E-04 -.496E-04
   0.991E+01 0.385E-01 -.461E-02   -.100E+02 -.395E-01 0.479E-02   0.114E+00 0.114E-02 -.181E-03   0.739E-04 0.159E-03 0.273E-04
   0.987E+01 0.222E+00 -.324E-01   -.999E+01 -.216E+00 0.304E-01   0.114E+00 -.109E-01 0.495E-02   0.116E-03 -.735E-04 -.102E-04
   0.991E+01 0.559E-01 -.467E-02   -.100E+02 -.555E-01 0.481E-02   0.114E+00 -.647E-03 -.759E-04   0.578E-04 -.131E-03 -.416E-04
   -.100E+02 0.467E-01 0.339E-01   0.101E+02 -.479E-01 -.348E-01   -.106E+00 0.112E-02 0.242E-02   -.369E-04 -.699E-04 0.204E-04
   -.968E+01 0.500E-01 -.708E-01   0.980E+01 -.484E-01 0.661E-01   -.130E+00 -.199E-02 0.995E-02   -.899E-04 -.157E-04 -.738E-04
   -.991E+01 0.469E-01 0.193E-01   0.100E+02 -.474E-01 -.191E-01   -.114E+00 0.461E-03 -.330E-03   0.453E-05 0.660E-05 -.105E-03
   -.989E+01 0.468E-01 0.104E-01   0.100E+02 -.473E-01 -.106E-01   -.116E+00 0.741E-03 0.191E-03   -.269E-03 -.501E-04 0.747E-05
   0.189E+02 0.192E+02 0.182E+03   -.178E+02 -.181E+02 -.180E+03   -.107E+01 -.111E+01 -.223E+01   -.156E-04 0.252E-03 -.397E-02
   0.191E+02 0.189E+02 0.185E+03   -.180E+02 -.179E+02 -.183E+03   -.107E+01 -.109E+01 -.241E+01   -.184E-03 -.887E-04 -.241E-03
   0.190E+02 0.189E+02 0.185E+03   -.179E+02 -.178E+02 -.183E+03   -.106E+01 -.108E+01 -.241E+01   0.187E-04 0.219E-04 -.353E-03
   0.190E+02 0.189E+02 0.185E+03   -.180E+02 -.179E+02 -.183E+03   -.106E+01 -.108E+01 -.241E+01   0.513E-04 0.108E-04 -.215E-03
   -.188E+02 -.187E+02 0.185E+03   0.177E+02 0.176E+02 -.183E+03   0.106E+01 0.108E+01 -.241E+01   0.404E-03 0.903E-06 -.532E-03
   -.190E+02 -.188E+02 0.185E+03   0.179E+02 0.177E+02 -.183E+03   0.107E+01 0.108E+01 -.241E+01   -.124E-03 -.220E-04 -.876E-03
   -.188E+02 -.190E+02 0.185E+03   0.177E+02 0.179E+02 -.183E+03   0.106E+01 0.109E+01 -.241E+01   0.257E-03 -.274E-03 -.177E-03
   -.190E+02 -.189E+02 0.185E+03   0.179E+02 0.178E+02 -.183E+03   0.107E+01 0.109E+01 -.241E+01   -.202E-03 -.376E-03 -.824E-03
   0.190E+02 -.189E+02 -.185E+03   -.179E+02 0.178E+02 0.183E+03   -.106E+01 0.109E+01 0.242E+01   0.135E-03 -.333E-03 0.938E-03
   0.188E+02 -.189E+02 -.185E+03   -.177E+02 0.178E+02 0.183E+03   -.106E+01 0.109E+01 0.241E+01   -.203E-03 -.340E-03 0.639E-03
   0.189E+02 -.189E+02 -.185E+03   -.179E+02 0.178E+02 0.183E+03   -.106E+01 0.108E+01 0.241E+01   -.629E-04 -.130E-03 0.890E-03
   0.189E+02 -.189E+02 -.185E+03   -.178E+02 0.178E+02 0.183E+03   -.106E+01 0.109E+01 0.241E+01   -.706E-04 -.145E-03 0.567E-03
   -.190E+02 0.189E+02 -.185E+03   0.180E+02 -.179E+02 0.183E+03   0.106E+01 -.108E+01 0.241E+01   0.123E-03 0.149E-03 0.853E-03
   -.190E+02 0.190E+02 -.185E+03   0.180E+02 -.179E+02 0.183E+03   0.106E+01 -.108E+01 0.241E+01   -.180E-03 0.446E-03 0.530E-03
   -.190E+02 0.189E+02 -.185E+03   0.180E+02 -.179E+02 0.183E+03   0.106E+01 -.108E+01 0.241E+01   0.469E-04 0.608E-04 0.686E-03
   -.190E+02 0.188E+02 -.185E+03   0.180E+02 -.178E+02 0.183E+03   0.106E+01 -.108E+01 0.241E+01   -.136E-03 -.235E-03 0.448E-03
   0.538E-01 -.131E+00 0.209E+03   -.459E-01 0.125E+00 -.211E+03   -.607E-02 0.579E-02 0.207E+01   -.565E-03 0.365E-03 0.871E-03
   0.388E-03 -.827E-01 0.209E+03   -.239E-02 0.793E-01 -.211E+03   0.138E-02 0.299E-02 0.207E+01   0.361E-03 0.268E-03 0.289E-03
   0.159E+00 0.787E-01 0.208E+03   -.158E+00 -.782E-01 -.211E+03   -.520E-03 0.140E-03 0.207E+01   0.631E-04 -.139E-03 0.933E-03
   -.337E-01 -.510E-01 0.209E+03   0.307E-01 0.527E-01 -.211E+03   0.268E-02 -.625E-03 0.207E+01   0.205E-04 -.565E-03 0.673E-03
   -.134E+00 -.176E+00 0.199E+03   0.130E+00 0.175E+00 -.201E+03   0.316E-02 0.903E-03 0.207E+01   -.213E-04 -.271E-03 0.514E-03
   0.934E-01 -.811E-01 0.199E+03   -.889E-01 0.717E-01 -.201E+03   -.371E-02 0.791E-02 0.207E+01   -.308E-03 0.576E-03 0.552E-03
   -.125E-01 -.137E-02 0.199E+03   0.587E-02 0.257E-02 -.201E+03   0.546E-02 -.786E-03 0.207E+01   0.290E-03 -.166E-03 0.373E-03
   0.430E-01 -.397E-01 0.199E+03   -.430E-01 0.384E-01 -.201E+03   0.231E-03 0.159E-02 0.206E+01   -.280E-03 -.137E-03 0.204E-03
   -.562E-01 -.611E-01 -.199E+03   0.539E-01 0.558E-01 0.201E+03   0.167E-02 0.417E-02 -.207E+01   0.413E-03 0.782E-03 -.538E-03
   0.621E-02 -.747E-01 -.199E+03   -.243E-02 0.690E-01 0.201E+03   -.270E-02 0.441E-02 -.206E+01   -.428E-03 0.555E-03 -.216E-03
   -.509E+00 0.492E-01 -.198E+03   0.482E+00 -.353E-01 0.200E+03   0.212E-01 -.888E-02 -.210E+01   0.110E-02 -.123E-02 0.945E-03
   0.933E-01 -.120E-01 -.199E+03   -.877E-01 0.123E-01 0.201E+03   -.426E-02 0.686E-05 -.207E+01   -.465E-03 -.118E-03 -.561E-03
   0.275E-01 -.555E-01 -.209E+03   -.275E-01 0.536E-01 0.211E+03   -.280E-03 0.208E-02 -.207E+01   0.369E-03 0.105E-03 -.766E-03
   0.873E+00 -.133E+01 -.208E+03   -.819E+00 0.126E+01 0.210E+03   -.628E-01 0.738E-01 -.208E+01   -.524E-03 0.151E-03 0.120E-03
   -.704E-02 -.769E-01 -.209E+03   0.799E-02 0.743E-01 0.211E+03   -.893E-03 0.260E-02 -.207E+01   0.483E-05 -.398E-04 -.549E-03
   -.247E-01 -.939E-02 -.209E+03   0.251E-01 0.105E-01 0.211E+03   -.807E-03 -.102E-03 -.207E+01   0.188E-03 -.516E-03 -.796E-03
 -----------------------------------------------------------------------------------------------
   0.820E-01 -.940E-01 -.134E+00   0.582E-13 -.283E-12 -.512E-12   -.825E-01 0.943E-01 0.136E+00   0.504E-03 -.165E-02 -.176E-02
 
 
 POSITION                                       TOTAL-FORCE (eV/Angst)
 -----------------------------------------------------------------------------------
      2.77841      5.21785      1.58925        -0.000567     -0.000281     -0.000792
      8.33453      5.21785      1.58910         0.000065     -0.000088     -0.000324
      2.77841     10.77658      1.58925        -0.000255      0.000104     -0.000956
      8.33453     10.77658      1.58910         0.000286      0.000607     -0.001220
      0.00058      2.43861      1.89560         0.000306      0.000051     -0.001520
      5.55670      2.43861      1.89545        -0.000142     -0.000151     -0.000601
      0.00058      7.99734      1.89560         0.000470      0.000168     -0.000759
      5.55670      7.99734      1.89545        -0.000155      0.000050     -0.000239
      2.78043      5.21797      8.30298         0.000072      0.000019      0.000345
      8.33655      5.21797      8.30283        -0.000218     -0.000554      0.001028
      2.78043     10.77670      8.30298         0.000160     -0.000222      0.000982
      8.33655     10.77670      8.30283        -0.001666     -0.000172      0.004632
      0.00259      2.43849      8.60933        -0.002788     -0.001040      0.004542
      5.55871      2.43849      8.60919         0.000810     -0.000016      0.000894
      0.00259      7.99722      8.60933        -0.000139      0.000244      0.000965
      5.55871      7.99722      8.60919         0.000011      0.000064      0.000288
     -1.37903      1.05960      8.19416         0.031403     -0.008102     -0.097896
      4.17971      1.05960      8.18437        -0.000471      0.000150     -0.002315
     -1.37640      6.61833      8.18451         0.000252      0.000118     -0.002393
      4.17971      6.61833      8.18437         0.000118      0.000080     -0.000770
      1.38116      3.81753      8.18442         0.000045     -0.000212     -0.001597
      6.93728      3.81753      8.18427        -0.001850      0.001891     -0.002200
      1.38116      9.37626      8.18442        -0.000180      0.000313     -0.001749
      6.93728      9.37626      8.18427        -0.000542     -0.000699     -0.001423
      1.39985      1.03817      2.01416         0.000102     -0.000141      0.002943
      6.95597      1.03817      2.01401         0.000004     -0.000091      0.002036
      1.39985      6.59689      2.01416         0.000124      0.000179      0.001730
      6.95597      6.59689      2.01401         0.000357      0.000099      0.000570
      4.15741      3.83897      2.01406         0.000272      0.000183      0.001061
      9.71353      3.83897      2.01392        -0.000524      0.000122      0.001704
      4.15741      9.39769      2.01406         0.000094      0.000048      0.001012
      9.71353      9.39769      2.01392        -0.000612     -0.000200      0.001683
      1.40044      3.83812      3.78391        -0.000263     -0.000520      0.001335
      6.95656      3.83812      3.78377         0.000274     -0.000191      0.000671
      1.40044      9.39685      3.78391        -0.000336      0.000303      0.001279
      6.95656      9.39685      3.78377         0.000360     -0.000029      0.000623
      4.15774      1.03891      3.78384        -0.000461      0.000125      0.001922
      9.71386      1.03891      3.78369         0.000379      0.000201      0.003886
      4.15774      6.59764      3.78384         0.000112      0.000130      0.000705
      9.71386      6.59764      3.78369        -0.000007      0.000260      0.001691
     -1.37674      3.81828      6.41474         0.000788     -0.007424      0.001080
      4.17938      3.81828      6.41460        -0.000368     -0.000430     -0.000513
     -1.37674      9.37700      6.41474         0.000151      0.007384      0.001415
      4.17938      9.37700      6.41460        -0.000232      0.000558     -0.000440
      1.38057      1.05876      6.41466        -0.010098      0.000006      0.004090
      6.93668      1.05876      6.41452         0.004757     -0.000527     -0.000925
      1.38057      6.61748      6.41466        -0.000562     -0.000067     -0.000310
      6.93668      6.61748      6.41452         0.000531      0.000020     -0.000456
      1.38227      3.82822      0.00001         0.000724      0.005716      0.003787
      6.93839      3.82822     -0.00014        -0.000280      0.000332      0.000023
      1.38227      9.38694      0.00001         0.000432     -0.004897      0.002929
      6.93839      9.38694     -0.00014        -0.000154     -0.000373      0.000021
      1.39874      1.04885     10.19857         0.003836     -0.000164      0.001552
      6.95485      1.04885     10.19843        -0.006825     -0.000409      0.005156
      1.39874      6.60758     10.19857         0.000459      0.000013     -0.000296
      6.95485      6.60758     10.19843        -0.000343      0.000145     -0.000027
     -1.25763      1.18232      6.18371        -0.005533     -0.003167      0.057423
      4.29848      1.18232      6.18356         0.000733      0.000182      0.000432
     -1.25763      6.74104      6.18371        -0.000103     -0.000339      0.000579
      4.29848      6.74104      6.18356        -0.000267      0.000023      0.000170
      1.26131      3.69462      6.18369         0.001087      0.001299      0.000085
      6.81742      3.69462      6.18354        -0.000206      0.000217      0.001206
      1.26131      9.25335      6.18369         0.001014     -0.000966      0.000146
      6.81742      9.25335      6.18354        -0.000283     -0.000266      0.000523
      1.51970      0.91526      4.01489         0.000003     -0.000145     -0.003364
      7.07582      0.91526      4.01474        -0.001111     -0.000073     -0.001127
      1.51970      6.47399      4.01489        -0.000086     -0.000072     -0.000896
      7.07582      6.47399      4.01474        -0.000511     -0.000062     -0.000325
      4.03864      3.96168      4.01487         0.000276      0.000171     -0.000606
      9.59476      3.96168      4.01472         0.000222      0.000294     -0.001949
      4.03864      9.52041      4.01487         0.000317     -0.000199     -0.000598
      9.59476      9.52041      4.01472         0.000192     -0.000594     -0.001882
      0.00035      5.21813      1.57032         0.001337     -0.000521     -0.001552
      5.55647      5.21813      1.57017        -0.000262     -0.000169     -0.000354
      0.00035     10.77686      1.57032         0.000573      0.000484     -0.002890
      5.55647     10.77686      1.57017        -0.000282      0.000510     -0.001074
      2.77849      2.43869      1.57537        -0.000739      0.000054     -0.002144
      8.33461      2.43869      1.57522         0.000434     -0.000923     -0.002267
      2.77849      7.99742      1.57537        -0.000927      0.000266     -0.001349
      8.33461      7.99742      1.57522         0.000004      0.000099     -0.000639
      0.00252      5.21805      8.62321        -0.000256     -0.000371      0.001989
      5.55864      5.21805      8.62307         0.000646     -0.000734      0.000388
      0.00252     10.77678      8.62321        -0.005582      0.003779      0.006052
      5.55864     10.77678      8.62307         0.000870      0.000230      0.001800
      2.78066      2.43877      8.62826         0.000116      0.000249      0.001673
      8.33677      2.43877      8.62811        -0.009324      0.007595      0.009646
      2.78066      7.99750      8.62826         0.000056     -0.000048      0.000501
      8.33677      7.99750      8.62811        -0.000124      0.000512      0.001544
 -----------------------------------------------------------------------------------
    total drift:                               -0.000002     -0.001348      0.000026


--------------------------------------------------------------------------------------------------------



  FREE ENERGIE OF THE ION-ELECTRON SYSTEM (eV)
  ---------------------------------------------------
  free  energy   TOTEN  =      -489.21491624 eV

  energy  without entropy=     -489.21491624  energy(sigma->0) =     -489.21491624
 


--------------------------------------------------------------------------------------------------------


    POTLOK:  cpu time    3.2908: real time    3.3606


--------------------------------------------------------------------------------------------------------


     LOOP+:  cpu time 5555.9888: real time 5615.9655
    4ORBIT:  cpu time    0.0000: real time    0.0000

 total amount of memory used by VASP MPI-rank0  1233264. kBytes
=======================================================================

   base      :      30000. kBytes
   nonl-proj :      75226. kBytes
   fftplans  :      85054. kBytes
   grid      :      64684. kBytes
   one-center:        466. kBytes
   wavefun   :     977834. kBytes
 
  
  
 General timing and accounting informations for this job:
 ========================================================
  
                  Total CPU time used (sec):     5653.378
                            User time (sec):     5595.624
                          System time (sec):       57.754
                         Elapsed time (sec):     5719.391
  
                   Maximum memory used (kb):     1433340.
                   Average memory used (kb):           0.
  
                          Minor page faults:       863918
                          Major page faults:           28
                 Voluntary context switches:        56782
