 224 224   0   0
  0.1357572E+02  0.1537960E-08  0.1537962E-08  0.1395899E-08  0.5000000E-15
  1.000000000000000E-004
  CAR 
 unknown system                          
     17.69795980    -54.42391845  301      5.25693580      1.00000000
    -54.424  0.0000E+00  0.0000E+00  0.0000E+00  0.0000E+00
    -54.184  0.0000E+00  0.0000E+00  0.0000E+00  0.0000E+00
    -53.943  0.0000E+00  0.0000E+00  0.0000E+00  0.0000E+00
    -53.703  0.0000E+00  0.0000E+00  0.0000E+00  0.0000E+00
    -53.462  0.0000E+00  0.0000E+00  0.0000E+00  0.0000E+00
    -53.222  0.0000E+00  0.0000E+00  0.0000E+00  0.0000E+00
    -52.981  0.0000E+00  0.0000E+00  0.0000E+00  0.0000E+00
    -52.741  0.0000E+00  0.0000E+00  0.0000E+00  0.0000E+00
    -52.501  0.0000E+00  0.0000E+00  0.0000E+00  0.0000E+00
    -52.260  0.0000E+00  0.0000E+00  0.0000E+00  0.0000E+00
    -52.020  0.0000E+00  0.0000E+00  0.0000E+00  0.0000E+00
    -51.779  0.0000E+00  0.0000E+00  0.0000E+00  0.0000E+00
    -51.539  0.0000E+00  0.0000E+00  0.0000E+00  0.0000E+00
    -51.299  0.1024E-02  0.0000E+00  0.2463E-03  0.0000E+00
    -51.058  0.2635E+03  0.0000E+00  0.6335E+02  0.0000E+00
    -50.818  0.2707E+01  0.0000E+00  0.6400E+02  0.0000E+00
    -50.577  0.0000E+00  0.0000E+00  0.6400E+02  0.0000E+00
    -50.337  0.0000E+00  0.0000E+00  0.6400E+02  0.0000E+00
    -50.097  0.0000E+00  0.0000E+00  0.6400E+02  0.0000E+00
    -49.856  0.7245E-06  0.0000E+00  0.6400E+02  0.0000E+00
    -49.616  0.4261E+03  0.0000E+00  0.1664E+03  0.0000E+00
    -49.375  0.1063E+03  0.0000E+00  0.1920E+03  0.0000E+00
    -49.135  0.0000E+00  0.0000E+00  0.1920E+03  0.0000E+00
    -48.895  0.0000E+00  0.0000E+00  0.1920E+03  0.0000E+00
    -48.654  0.0000E+00  0.0000E+00  0.1920E+03  0.0000E+00
    -48.414  0.0000E+00  0.0000E+00  0.1920E+03  0.0000E+00
    -48.173  0.0000E+00  0.0000E+00  0.1920E+03  0.0000E+00
    -47.933  0.0000E+00  0.0000E+00  0.1920E+03  0.0000E+00
    -47.693  0.0000E+00  0.0000E+00  0.1920E+03  0.0000E+00
    -47.452  0.0000E+00  0.0000E+00  0.1920E+03  0.0000E+00
    -47.212  0.0000E+00  0.0000E+00  0.1920E+03  0.0000E+00
    -46.971  0.0000E+00  0.0000E+00  0.1920E+03  0.0000E+00
    -46.731  0.0000E+00  0.0000E+00  0.1920E+03  0.0000E+00
    -46.491  0.0000E+00  0.5607E+00  0.1920E+03  0.1348E+00
    -46.250  0.0000E+00  0.2656E+03  0.1920E+03  0.6400E+02
    -46.010  0.0000E+00  0.5278E+01  0.1920E+03  0.6527E+02
    -45.769  0.0000E+00  0.5272E+03  0.1920E+03  0.1920E+03
    -45.529  0.0000E+00  0.2040E-02  0.1920E+03  0.1920E+03
    -45.288  0.0000E+00  0.0000E+00  0.1920E+03  0.1920E+03
    -45.048  0.0000E+00  0.0000E+00  0.1920E+03  0.1920E+03
    -44.808  0.0000E+00  0.0000E+00  0.1920E+03  0.1920E+03
    -44.567  0.0000E+00  0.0000E+00  0.1920E+03  0.1920E+03
    -44.327  0.0000E+00  0.0000E+00  0.1920E+03  0.1920E+03
    -44.086  0.0000E+00  0.0000E+00  0.1920E+03  0.1920E+03
    -43.846  0.0000E+00  0.0000E+00  0.1920E+03  0.1920E+03
    -43.606  0.0000E+00  0.0000E+00  0.1920E+03  0.1920E+03
    -43.365  0.0000E+00  0.0000E+00  0.1920E+03  0.1920E+03
    -43.125  0.0000E+00  0.0000E+00  0.1920E+03  0.1920E+03
    -42.884  0.0000E+00  0.0000E+00  0.1920E+03  0.1920E+03
    -42.644  0.0000E+00  0.0000E+00  0.1920E+03  0.1920E+03
    -42.404  0.0000E+00  0.0000E+00  0.1920E+03  0.1920E+03
    -42.163  0.0000E+00  0.0000E+00  0.1920E+03  0.1920E+03
    -41.923  0.0000E+00  0.0000E+00  0.1920E+03  0.1920E+03
    -41.682  0.0000E+00  0.0000E+00  0.1920E+03  0.1920E+03
    -41.442  0.0000E+00  0.0000E+00  0.1920E+03  0.1920E+03
    -41.202  0.0000E+00  0.0000E+00  0.1920E+03  0.1920E+03
    -40.961  0.0000E+00  0.0000E+00  0.1920E+03  0.1920E+03
    -40.721  0.0000E+00  0.0000E+00  0.1920E+03  0.1920E+03
    -40.480  0.0000E+00  0.0000E+00  0.1920E+03  0.1920E+03
    -40.240  0.0000E+00  0.0000E+00  0.1920E+03  0.1920E+03
    -40.000  0.0000E+00  0.0000E+00  0.1920E+03  0.1920E+03
    -39.759  0.1623E-01  0.1477E-01  0.1920E+03  0.1920E+03
    -39.519  0.2650E+03  0.2649E+03  0.2557E+03  0.2557E+03
    -39.278  0.1214E+01  0.1286E+01  0.2560E+03  0.2560E+03
    -39.038  0.0000E+00  0.0000E+00  0.2560E+03  0.2560E+03
    -38.798  0.0000E+00  0.0000E+00  0.2560E+03  0.2560E+03
    -38.557  0.0000E+00  0.0000E+00  0.2560E+03  0.2560E+03
    -38.317  0.0000E+00  0.0000E+00  0.2560E+03  0.2560E+03
    -38.076  0.0000E+00  0.0000E+00  0.2560E+03  0.2560E+03
    -37.836  0.0000E+00  0.0000E+00  0.2560E+03  0.2560E+03
    -37.595  0.0000E+00  0.0000E+00  0.2560E+03  0.2560E+03
    -37.355  0.0000E+00  0.0000E+00  0.2560E+03  0.2560E+03
    -37.115  0.0000E+00  0.0000E+00  0.2560E+03  0.2560E+03
    -36.874  0.0000E+00  0.0000E+00  0.2560E+03  0.2560E+03
    -36.634  0.0000E+00  0.0000E+00  0.2560E+03  0.2560E+03
    -36.393  0.0000E+00  0.0000E+00  0.2560E+03  0.2560E+03
    -36.153  0.0000E+00  0.0000E+00  0.2560E+03  0.2560E+03
    -35.913  0.0000E+00  0.0000E+00  0.2560E+03  0.2560E+03
    -35.672  0.0000E+00  0.0000E+00  0.2560E+03  0.2560E+03
    -35.432  0.0000E+00  0.0000E+00  0.2560E+03  0.2560E+03
    -35.191  0.0000E+00  0.0000E+00  0.2560E+03  0.2560E+03
    -34.951  0.0000E+00  0.0000E+00  0.2560E+03  0.2560E+03
    -34.711  0.0000E+00  0.0000E+00  0.2560E+03  0.2560E+03
    -34.470  0.0000E+00  0.0000E+00  0.2560E+03  0.2560E+03
    -34.230  0.0000E+00  0.0000E+00  0.2560E+03  0.2560E+03
    -33.989  0.0000E+00  0.0000E+00  0.2560E+03  0.2560E+03
    -33.749  0.0000E+00  0.0000E+00  0.2560E+03  0.2560E+03
    -33.509  0.0000E+00  0.0000E+00  0.2560E+03  0.2560E+03
    -33.268  0.0000E+00  0.0000E+00  0.2560E+03  0.2560E+03
    -33.028  0.0000E+00  0.0000E+00  0.2560E+03  0.2560E+03
    -32.787  0.0000E+00  0.0000E+00  0.2560E+03  0.2560E+03
    -32.547  0.0000E+00  0.0000E+00  0.2560E+03  0.2560E+03
    -32.307  0.0000E+00  0.0000E+00  0.2560E+03  0.2560E+03
    -32.066  0.0000E+00  0.0000E+00  0.2560E+03  0.2560E+03
    -31.826  0.0000E+00  0.0000E+00  0.2560E+03  0.2560E+03
    -31.585  0.0000E+00  0.0000E+00  0.2560E+03  0.2560E+03
    -31.345  0.0000E+00  0.0000E+00  0.2560E+03  0.2560E+03
    -31.105  0.0000E+00  0.0000E+00  0.2560E+03  0.2560E+03
    -30.864  0.0000E+00  0.0000E+00  0.2560E+03  0.2560E+03
    -30.624  0.0000E+00  0.0000E+00  0.2560E+03  0.2560E+03
    -30.383  0.0000E+00  0.0000E+00  0.2560E+03  0.2560E+03
    -30.143  0.0000E+00  0.0000E+00  0.2560E+03  0.2560E+03
    -29.902  0.0000E+00  0.0000E+00  0.2560E+03  0.2560E+03
    -29.662  0.0000E+00  0.0000E+00  0.2560E+03  0.2560E+03
    -29.422  0.0000E+00  0.0000E+00  0.2560E+03  0.2560E+03
    -29.181  0.0000E+00  0.0000E+00  0.2560E+03  0.2560E+03
    -28.941  0.0000E+00  0.0000E+00  0.2560E+03  0.2560E+03
    -28.700  0.0000E+00  0.0000E+00  0.2560E+03  0.2560E+03
    -28.460  0.0000E+00  0.0000E+00  0.2560E+03  0.2560E+03
    -28.220  0.0000E+00  0.0000E+00  0.2560E+03  0.2560E+03
    -27.979  0.0000E+00  0.0000E+00  0.2560E+03  0.2560E+03
    -27.739  0.0000E+00  0.0000E+00  0.2560E+03  0.2560E+03
    -27.498  0.0000E+00  0.0000E+00  0.2560E+03  0.2560E+03
    -27.258  0.0000E+00  0.0000E+00  0.2560E+03  0.2560E+03
    -27.018  0.0000E+00  0.0000E+00  0.2560E+03  0.2560E+03
    -26.777  0.0000E+00  0.0000E+00  0.2560E+03  0.2560E+03
    -26.537  0.0000E+00  0.0000E+00  0.2560E+03  0.2560E+03
    -26.296  0.0000E+00  0.0000E+00  0.2560E+03  0.2560E+03
    -26.056  0.0000E+00  0.0000E+00  0.2560E+03  0.2560E+03
    -25.816  0.0000E+00  0.0000E+00  0.2560E+03  0.2560E+03
    -25.575  0.0000E+00  0.0000E+00  0.2560E+03  0.2560E+03
    -25.335  0.0000E+00  0.0000E+00  0.2560E+03  0.2560E+03
    -25.094  0.0000E+00  0.0000E+00  0.2560E+03  0.2560E+03
    -24.854  0.0000E+00  0.0000E+00  0.2560E+03  0.2560E+03
    -24.614  0.0000E+00  0.0000E+00  0.2560E+03  0.2560E+03
    -24.373  0.0000E+00  0.0000E+00  0.2560E+03  0.2560E+03
    -24.133  0.0000E+00  0.0000E+00  0.2560E+03  0.2560E+03
    -23.892  0.0000E+00  0.0000E+00  0.2560E+03  0.2560E+03
    -23.652  0.0000E+00  0.0000E+00  0.2560E+03  0.2560E+03
    -23.412  0.0000E+00  0.0000E+00  0.2560E+03  0.2560E+03
    -23.171  0.0000E+00  0.0000E+00  0.2560E+03  0.2560E+03
    -22.931  0.0000E+00  0.0000E+00  0.2560E+03  0.2560E+03
    -22.690  0.0000E+00  0.0000E+00  0.2560E+03  0.2560E+03
    -22.450  0.0000E+00  0.0000E+00  0.2560E+03  0.2560E+03
    -22.209  0.0000E+00  0.0000E+00  0.2560E+03  0.2560E+03
    -21.969  0.0000E+00  0.0000E+00  0.2560E+03  0.2560E+03
    -21.729  0.0000E+00  0.0000E+00  0.2560E+03  0.2560E+03
    -21.488  0.0000E+00  0.0000E+00  0.2560E+03  0.2560E+03
    -21.248  0.0000E+00  0.0000E+00  0.2560E+03  0.2560E+03
    -21.007  0.0000E+00  0.0000E+00  0.2560E+03  0.2560E+03
    -20.767  0.0000E+00  0.0000E+00  0.2560E+03  0.2560E+03
    -20.527  0.0000E+00  0.0000E+00  0.2560E+03  0.2560E+03
    -20.286  0.0000E+00  0.0000E+00  0.2560E+03  0.2560E+03
    -20.046  0.0000E+00  0.0000E+00  0.2560E+03  0.2560E+03
    -19.805  0.0000E+00  0.0000E+00  0.2560E+03  0.2560E+03
    -19.565  0.0000E+00  0.0000E+00  0.2560E+03  0.2560E+03
    -19.325  0.0000E+00  0.0000E+00  0.2560E+03  0.2560E+03
    -19.084  0.0000E+00  0.0000E+00  0.2560E+03  0.2560E+03
    -18.844  0.0000E+00  0.0000E+00  0.2560E+03  0.2560E+03
    -18.603  0.0000E+00  0.0000E+00  0.2560E+03  0.2560E+03
    -18.363  0.0000E+00  0.0000E+00  0.2560E+03  0.2560E+03
    -18.123  0.0000E+00  0.0000E+00  0.2560E+03  0.2560E+03
    -17.882  0.0000E+00  0.0000E+00  0.2560E+03  0.2560E+03
    -17.642  0.0000E+00  0.0000E+00  0.2560E+03  0.2560E+03
    -17.401  0.0000E+00  0.0000E+00  0.2560E+03  0.2560E+03
    -17.161  0.0000E+00  0.0000E+00  0.2560E+03  0.2560E+03
    -16.921  0.0000E+00  0.0000E+00  0.2560E+03  0.2560E+03
    -16.680  0.0000E+00  0.0000E+00  0.2560E+03  0.2560E+03
    -16.440  0.0000E+00  0.0000E+00  0.2560E+03  0.2560E+03
    -16.199  0.0000E+00  0.0000E+00  0.2560E+03  0.2560E+03
    -15.959  0.0000E+00  0.0000E+00  0.2560E+03  0.2560E+03
    -15.719  0.0000E+00  0.0000E+00  0.2560E+03  0.2560E+03
    -15.478  0.0000E+00  0.0000E+00  0.2560E+03  0.2560E+03
    -15.238  0.0000E+00  0.0000E+00  0.2560E+03  0.2560E+03
    -14.997  0.0000E+00  0.0000E+00  0.2560E+03  0.2560E+03
    -14.757  0.0000E+00  0.0000E+00  0.2560E+03  0.2560E+03
    -14.516  0.0000E+00  0.0000E+00  0.2560E+03  0.2560E+03
    -14.276  0.0000E+00  0.0000E+00  0.2560E+03  0.2560E+03
    -14.036  0.0000E+00  0.0000E+00  0.2560E+03  0.2560E+03
    -13.795  0.0000E+00  0.0000E+00  0.2560E+03  0.2560E+03
    -13.555  0.0000E+00  0.0000E+00  0.2560E+03  0.2560E+03
    -13.314  0.0000E+00  0.0000E+00  0.2560E+03  0.2560E+03
    -13.074  0.0000E+00  0.0000E+00  0.2560E+03  0.2560E+03
    -12.834  0.7389E-01  0.0000E+00  0.2560E+03  0.2560E+03
    -12.593  0.1320E+03  0.1423E-02  0.2877E+03  0.2560E+03
    -12.353  0.1079E+01  0.1234E+03  0.2880E+03  0.2857E+03
    -12.112  0.0000E+00  0.9697E+01  0.2880E+03  0.2880E+03
    -11.872  0.0000E+00  0.0000E+00  0.2880E+03  0.2880E+03
    -11.632  0.0000E+00  0.0000E+00  0.2880E+03  0.2880E+03
    -11.391  0.0000E+00  0.0000E+00  0.2880E+03  0.2880E+03
    -11.151  0.0000E+00  0.0000E+00  0.2880E+03  0.2880E+03
    -10.910  0.0000E+00  0.0000E+00  0.2880E+03  0.2880E+03
    -10.670  0.0000E+00  0.0000E+00  0.2880E+03  0.2880E+03
    -10.430  0.0000E+00  0.0000E+00  0.2880E+03  0.2880E+03
    -10.189  0.0000E+00  0.0000E+00  0.2880E+03  0.2880E+03
     -9.949  0.0000E+00  0.0000E+00  0.2880E+03  0.2880E+03
     -9.708  0.0000E+00  0.0000E+00  0.2880E+03  0.2880E+03
     -9.468  0.0000E+00  0.0000E+00  0.2880E+03  0.2880E+03
     -9.228  0.0000E+00  0.0000E+00  0.2880E+03  0.2880E+03
     -8.987  0.0000E+00  0.0000E+00  0.2880E+03  0.2880E+03
     -8.747  0.0000E+00  0.0000E+00  0.2880E+03  0.2880E+03
     -8.506  0.0000E+00  0.0000E+00  0.2880E+03  0.2880E+03
     -8.266  0.0000E+00  0.0000E+00  0.2880E+03  0.2880E+03
     -8.026  0.4737E-10  0.0000E+00  0.2880E+03  0.2880E+03
     -7.785  0.9223E+00  0.3841E-07  0.2882E+03  0.2880E+03
     -7.545  0.1878E+02  0.2831E+01  0.2927E+03  0.2887E+03
     -7.304  0.2815E+02  0.2231E+02  0.2995E+03  0.2940E+03
     -7.064  0.5367E+02  0.3102E+02  0.3124E+03  0.3015E+03
     -6.823  0.1469E+03  0.4886E+02  0.3477E+03  0.3132E+03
     -6.583  0.1779E+02  0.1389E+03  0.3520E+03  0.3466E+03
     -6.343  0.0000E+00  0.2227E+02  0.3520E+03  0.3520E+03
     -6.102  0.0000E+00  0.1197E-04  0.3520E+03  0.3520E+03
     -5.862  0.0000E+00  0.0000E+00  0.3520E+03  0.3520E+03
     -5.621  0.0000E+00  0.0000E+00  0.3520E+03  0.3520E+03
     -5.381  0.0000E+00  0.0000E+00  0.3520E+03  0.3520E+03
     -5.141  0.0000E+00  0.0000E+00  0.3520E+03  0.3520E+03
     -4.900  0.0000E+00  0.0000E+00  0.3520E+03  0.3520E+03
     -4.660  0.0000E+00  0.0000E+00  0.3520E+03  0.3520E+03
     -4.419  0.0000E+00  0.0000E+00  0.3520E+03  0.3520E+03
     -4.179  0.0000E+00  0.0000E+00  0.3520E+03  0.3520E+03
     -3.939  0.0000E+00  0.0000E+00  0.3520E+03  0.3520E+03
     -3.698  0.0000E+00  0.0000E+00  0.3520E+03  0.3520E+03
     -3.458  0.0000E+00  0.0000E+00  0.3520E+03  0.3520E+03
     -3.217  0.0000E+00  0.0000E+00  0.3520E+03  0.3520E+03
     -2.977  0.0000E+00  0.0000E+00  0.3520E+03  0.3520E+03
     -2.737  0.0000E+00  0.0000E+00  0.3520E+03  0.3520E+03
     -2.496  0.0000E+00  0.0000E+00  0.3520E+03  0.3520E+03
     -2.256  0.0000E+00  0.0000E+00  0.3520E+03  0.3520E+03
     -2.015  0.0000E+00  0.0000E+00  0.3520E+03  0.3520E+03
     -1.775  0.4850E-12  0.0000E+00  0.3520E+03  0.3520E+03
     -1.535  0.1238E+01  0.0000E+00  0.3523E+03  0.3520E+03
     -1.294  0.9991E+02  0.0000E+00  0.3763E+03  0.3520E+03
     -1.054  0.3196E+02  0.0000E+00  0.3840E+03  0.3520E+03
     -0.813  0.1244E+02  0.0000E+00  0.3870E+03  0.3520E+03
     -0.573  0.8940E+02  0.7753E-05  0.4085E+03  0.3520E+03
     -0.333  0.2237E+03  0.4058E+01  0.4623E+03  0.3530E+03
     -0.092  0.2017E+03  0.2468E+02  0.5108E+03  0.3589E+03
      0.148  0.1767E+03  0.4104E+02  0.5532E+03  0.3688E+03
      0.389  0.1518E+03  0.4236E+02  0.5897E+03  0.3790E+03
      0.629  0.1198E+03  0.7192E+02  0.6185E+03  0.3962E+03
      0.870  0.5443E+02  0.6050E+02  0.6316E+03  0.4108E+03
      1.110  0.6963E+02  0.6533E+02  0.6484E+03  0.4265E+03
      1.350  0.7346E+02  0.6772E+02  0.6660E+03  0.4428E+03
      1.591  0.6802E+02  0.7761E+02  0.6824E+03  0.4614E+03
      1.831  0.1106E+03  0.1110E+03  0.7089E+03  0.4881E+03
      2.072  0.2136E+03  0.6216E+02  0.7603E+03  0.5031E+03
      2.312  0.1399E+03  0.3783E+02  0.7939E+03  0.5122E+03
      2.552  0.8452E+02  0.7745E+02  0.8142E+03  0.5308E+03
      2.793  0.6869E+02  0.1040E+03  0.8307E+03  0.5558E+03
      3.033  0.3529E+02  0.7077E+02  0.8392E+03  0.5728E+03
      3.274  0.4043E+02  0.1313E+03  0.8490E+03  0.6044E+03
      3.514  0.5191E+02  0.1173E+03  0.8614E+03  0.6326E+03
      3.754  0.6738E+02  0.2513E+02  0.8776E+03  0.6386E+03
      3.995  0.7975E+02  0.4393E+02  0.8968E+03  0.6492E+03
      4.235  0.8007E+02  0.1786E+03  0.9161E+03  0.6921E+03
      4.476  0.7579E+02  0.4789E+02  0.9343E+03  0.7036E+03
      4.716  0.2870E+02  0.1668E+01  0.9412E+03  0.7040E+03
      4.956  0.6461E+02  0.0000E+00  0.9567E+03  0.7040E+03
      5.197  0.1370E+02  0.0000E+00  0.9600E+03  0.7040E+03
      5.437  0.0000E+00  0.0000E+00  0.9600E+03  0.7040E+03
      5.678  0.0000E+00  0.0000E+00  0.9600E+03  0.7040E+03
      5.918  0.0000E+00  0.0000E+00  0.9600E+03  0.7040E+03
      6.158  0.0000E+00  0.8799E-07  0.9600E+03  0.7040E+03
      6.399  0.0000E+00  0.1032E+01  0.9600E+03  0.7042E+03
      6.639  0.0000E+00  0.1013E+02  0.9600E+03  0.7067E+03
      6.880  0.0000E+00  0.2654E+02  0.9600E+03  0.7131E+03
      7.120  0.2886E-16  0.6586E+02  0.9600E+03  0.7289E+03
      7.360  0.5853E-01  0.1114E+03  0.9600E+03  0.7557E+03
      7.601  0.1501E+01  0.1393E+03  0.9604E+03  0.7892E+03
      7.841  0.5136E+01  0.1182E+03  0.9616E+03  0.8176E+03
      8.082  0.7084E+01  0.1786E+03  0.9633E+03  0.8605E+03
      8.322  0.9300E+01  0.1458E+03  0.9655E+03  0.8956E+03
      8.563  0.1252E+02  0.6197E+02  0.9686E+03  0.9105E+03
      8.803  0.1448E+02  0.8256E+02  0.9720E+03  0.9303E+03
      9.043  0.2715E+02  0.7297E+02  0.9786E+03  0.9479E+03
      9.284  0.3345E+02  0.5733E+02  0.9866E+03  0.9616E+03
      9.524  0.3536E+02  0.2316E+02  0.9951E+03  0.9672E+03
      9.765  0.5323E+02  0.3405E+02  0.1008E+04  0.9754E+03
     10.005  0.5113E+02  0.2267E+02  0.1020E+04  0.9808E+03
     10.245  0.3389E+02  0.3876E+02  0.1028E+04  0.9902E+03
     10.486  0.2155E+02  0.4340E+02  0.1034E+04  0.1001E+04
     10.726  0.4557E+02  0.6109E+02  0.1044E+04  0.1015E+04
     10.967  0.3309E+02  0.4348E+02  0.1052E+04  0.1026E+04
     11.207  0.4357E+02  0.4019E+02  0.1063E+04  0.1035E+04
     11.447  0.7797E+02  0.3451E+02  0.1082E+04  0.1044E+04
     11.688  0.4285E+02  0.4374E+02  0.1092E+04  0.1054E+04
     11.928  0.6449E+02  0.5191E+02  0.1107E+04  0.1067E+04
     12.169  0.6671E+02  0.5748E+02  0.1123E+04  0.1081E+04
     12.409  0.6928E+02  0.5324E+02  0.1140E+04  0.1093E+04
     12.649  0.6092E+02  0.6693E+02  0.1155E+04  0.1109E+04
     12.890  0.5273E+02  0.7975E+02  0.1167E+04  0.1129E+04
     13.130  0.5856E+02  0.6460E+02  0.1182E+04  0.1144E+04
     13.371  0.4843E+02  0.6629E+02  0.1193E+04  0.1160E+04
     13.611  0.4022E+02  0.6460E+02  0.1203E+04  0.1176E+04
     13.851  0.1883E+02  0.5724E+02  0.1207E+04  0.1189E+04
     14.092  0.2541E+01  0.5309E+02  0.1208E+04  0.1202E+04
     14.332  0.0000E+00  0.2148E+02  0.1208E+04  0.1207E+04
     14.573  0.0000E+00  0.3108E+01  0.1208E+04  0.1208E+04
     14.813  0.0000E+00  0.3928E-05  0.1208E+04  0.1208E+04
     15.053  0.0000E+00  0.0000E+00  0.1208E+04  0.1208E+04
     15.294  0.0000E+00  0.0000E+00  0.1208E+04  0.1208E+04
     15.534  0.0000E+00  0.0000E+00  0.1208E+04  0.1208E+04
     15.775  0.0000E+00  0.0000E+00  0.1208E+04  0.1208E+04
     16.015  0.0000E+00  0.0000E+00  0.1208E+04  0.1208E+04
     16.256  0.0000E+00  0.0000E+00  0.1208E+04  0.1208E+04
     16.496  0.0000E+00  0.0000E+00  0.1208E+04  0.1208E+04
     16.736  0.0000E+00  0.0000E+00  0.1208E+04  0.1208E+04
     16.977  0.0000E+00  0.0000E+00  0.1208E+04  0.1208E+04
     17.217  0.0000E+00  0.0000E+00  0.1208E+04  0.1208E+04
     17.458  0.0000E+00  0.0000E+00  0.1208E+04  0.1208E+04
     17.698  0.0000E+00  0.0000E+00  0.1208E+04  0.1208E+04
