  224  224    1    2
  0.1357572E+02  0.1537960E-08  0.1537962E-08  0.1395899E-08  0.5000000E-15
  1.000000000000000E-004
  CAR 
 unknown system                          
   1664      8   1208
 
  0.0000000E+00  0.0000000E+00  0.0000000E+00  0.1250000E+00
    1      -51.145647    -46.394431   1.000000   1.000000
    2      -51.145547    -46.394251   1.000000   1.000000
    3      -51.141937    -46.391294   1.000000   1.000000
    4      -51.141741    -46.390948   1.000000   1.000000
    5      -51.141606    -46.390830   1.000000   1.000000
    6      -51.141568    -46.390812   1.000000   1.000000
    7      -51.141466    -46.390555   1.000000   1.000000
    8      -51.141324    -46.390461   1.000000   1.000000
    9      -51.141279    -46.390423   1.000000   1.000000
   10      -51.141187    -46.390416   1.000000   1.000000
   11      -51.141156    -46.390330   1.000000   1.000000
   12      -51.141136    -46.390225   1.000000   1.000000
   13      -51.141091    -46.390132   1.000000   1.000000
   14      -51.141051    -46.390109   1.000000   1.000000
   15      -51.140989    -46.390041   1.000000   1.000000
   16      -51.140909    -46.390031   1.000000   1.000000
   17      -51.140885    -46.389983   1.000000   1.000000
   18      -51.140843    -46.389959   1.000000   1.000000
   19      -51.140789    -46.389864   1.000000   1.000000
   20      -51.140755    -46.389789   1.000000   1.000000
   21      -51.140740    -46.389720   1.000000   1.000000
   22      -51.140680    -46.389683   1.000000   1.000000
   23      -51.140629    -46.389591   1.000000   1.000000
   24      -51.140539    -46.389576   1.000000   1.000000
   25      -51.140525    -46.389529   1.000000   1.000000
   26      -51.140514    -46.389502   1.000000   1.000000
   27      -51.140486    -46.389451   1.000000   1.000000
   28      -51.140460    -46.389440   1.000000   1.000000
   29      -51.140443    -46.389330   1.000000   1.000000
   30      -51.140424    -46.389300   1.000000   1.000000
   31      -51.140350    -46.389255   1.000000   1.000000
   32      -51.140328    -46.389237   1.000000   1.000000
   33      -51.140279    -46.389200   1.000000   1.000000
   34      -51.140271    -46.389156   1.000000   1.000000
   35      -51.140211    -46.389103   1.000000   1.000000
   36      -51.140207    -46.389067   1.000000   1.000000
   37      -51.140196    -46.389009   1.000000   1.000000
   38      -51.140151    -46.388931   1.000000   1.000000
   39      -51.140143    -46.388916   1.000000   1.000000
   40      -51.140126    -46.388873   1.000000   1.000000
   41      -51.140108    -46.388860   1.000000   1.000000
   42      -51.140046    -46.388831   1.000000   1.000000
   43      -51.139983    -46.388755   1.000000   1.000000
   44      -51.139931    -46.388674   1.000000   1.000000
   45      -51.139908    -46.388659   1.000000   1.000000
   46      -51.139903    -46.388626   1.000000   1.000000
   47      -51.139836    -46.388554   1.000000   1.000000
   48      -51.139778    -46.388530   1.000000   1.000000
   49      -51.139774    -46.388482   1.000000   1.000000
   50      -51.139700    -46.388416   1.000000   1.000000
   51      -51.139689    -46.388363   1.000000   1.000000
   52      -51.139647    -46.388339   1.000000   1.000000
   53      -51.139596    -46.388279   1.000000   1.000000
   54      -51.139537    -46.388214   1.000000   1.000000
   55      -51.139477    -46.388108   1.000000   1.000000
   56      -51.139430    -46.388051   1.000000   1.000000
   57      -51.139340    -46.387975   1.000000   1.000000
   58      -51.139154    -46.387875   1.000000   1.000000
   59      -51.139076    -46.387749   1.000000   1.000000
   60      -51.139019    -46.387659   1.000000   1.000000
   61      -51.138846    -46.387549   1.000000   1.000000
   62      -51.138745    -46.387307   1.000000   1.000000
   63      -51.135046    -46.384138   1.000000   1.000000
   64      -51.135020    -46.384077   1.000000   1.000000
   65      -49.652835    -45.933292   1.000000   1.000000
   66      -49.652284    -45.932950   1.000000   1.000000
   67      -49.650003    -45.932103   1.000000   1.000000
   68      -49.649179    -45.931725   1.000000   1.000000
   69      -49.648054    -45.929437   1.000000   1.000000
   70      -49.647864    -45.929338   1.000000   1.000000
   71      -49.647751    -45.929287   1.000000   1.000000
   72      -49.647708    -45.929244   1.000000   1.000000
   73      -49.647649    -45.928987   1.000000   1.000000
   74      -49.647597    -45.928965   1.000000   1.000000
   75      -49.647577    -45.928870   1.000000   1.000000
   76      -49.647518    -45.928812   1.000000   1.000000
   77      -49.647505    -45.928753   1.000000   1.000000
   78      -49.647454    -45.928723   1.000000   1.000000
   79      -49.647418    -45.928706   1.000000   1.000000
   80      -49.647410    -45.928665   1.000000   1.000000
   81      -49.647358    -45.928640   1.000000   1.000000
   82      -49.647342    -45.928609   1.000000   1.000000
   83      -49.647316    -45.928602   1.000000   1.000000
   84      -49.647293    -45.928550   1.000000   1.000000
   85      -49.647186    -45.928525   1.000000   1.000000
   86      -49.647140    -45.928514   1.000000   1.000000
   87      -49.647124    -45.928466   1.000000   1.000000
   88      -49.647073    -45.928400   1.000000   1.000000
   89      -49.647044    -45.928383   1.000000   1.000000
   90      -49.647026    -45.928365   1.000000   1.000000
   91      -49.646981    -45.928348   1.000000   1.000000
   92      -49.646905    -45.928294   1.000000   1.000000
   93      -49.646885    -45.928244   1.000000   1.000000
   94      -49.646867    -45.928225   1.000000   1.000000
   95      -49.646822    -45.928223   1.000000   1.000000
   96      -49.646737    -45.928155   1.000000   1.000000
   97      -49.646711    -45.928144   1.000000   1.000000
   98      -49.646662    -45.928077   1.000000   1.000000
   99      -49.646625    -45.928060   1.000000   1.000000
  100      -49.646609    -45.928033   1.000000   1.000000
  101      -49.646538    -45.927994   1.000000   1.000000
  102      -49.646502    -45.927982   1.000000   1.000000
  103      -49.646470    -45.927961   1.000000   1.000000
  104      -49.646407    -45.927938   1.000000   1.000000
  105      -49.646395    -45.927870   1.000000   1.000000
  106      -49.646388    -45.927835   1.000000   1.000000
  107      -49.646306    -45.927812   1.000000   1.000000
  108      -49.646240    -45.927763   1.000000   1.000000
  109      -49.646191    -45.927715   1.000000   1.000000
  110      -49.646165    -45.927686   1.000000   1.000000
  111      -49.646152    -45.927671   1.000000   1.000000
  112      -49.646125    -45.927595   1.000000   1.000000
  113      -49.646064    -45.927559   1.000000   1.000000
  114      -49.646051    -45.927533   1.000000   1.000000
  115      -49.645990    -45.927501   1.000000   1.000000
  116      -49.645975    -45.927448   1.000000   1.000000
  117      -49.645952    -45.927411   1.000000   1.000000
  118      -49.645933    -45.927400   1.000000   1.000000
  119      -49.645931    -45.927359   1.000000   1.000000
  120      -49.645875    -45.927341   1.000000   1.000000
  121      -49.645861    -45.927328   1.000000   1.000000
  122      -49.645746    -45.927276   1.000000   1.000000
  123      -49.645720    -45.927240   1.000000   1.000000
  124      -49.645706    -45.927232   1.000000   1.000000
  125      -49.645659    -45.927219   1.000000   1.000000
  126      -49.645624    -45.927208   1.000000   1.000000
  127      -49.645606    -45.927187   1.000000   1.000000
  128      -49.645573    -45.927174   1.000000   1.000000
  129      -49.645521    -45.927151   1.000000   1.000000
  130      -49.645461    -45.927107   1.000000   1.000000
  131      -49.645459    -45.927098   1.000000   1.000000
  132      -49.645448    -45.927069   1.000000   1.000000
  133      -49.645350    -45.927026   1.000000   1.000000
  134      -49.645333    -45.926997   1.000000   1.000000
  135      -49.645328    -45.926975   1.000000   1.000000
  136      -49.645309    -45.926959   1.000000   1.000000
  137      -49.645245    -45.926943   1.000000   1.000000
  138      -49.645236    -45.926905   1.000000   1.000000
  139      -49.645222    -45.926884   1.000000   1.000000
  140      -49.645213    -45.926831   1.000000   1.000000
  141      -49.645168    -45.926801   1.000000   1.000000
  142      -49.645157    -45.926796   1.000000   1.000000
  143      -49.645137    -45.926775   1.000000   1.000000
  144      -49.645127    -45.926768   1.000000   1.000000
  145      -49.645113    -45.926712   1.000000   1.000000
  146      -49.645050    -45.926692   1.000000   1.000000
  147      -49.645036    -45.926674   1.000000   1.000000
  148      -49.644991    -45.926630   1.000000   1.000000
  149      -49.644971    -45.926592   1.000000   1.000000
  150      -49.644962    -45.926568   1.000000   1.000000
  151      -49.644916    -45.926554   1.000000   1.000000
  152      -49.644903    -45.926546   1.000000   1.000000
  153      -49.644870    -45.926534   1.000000   1.000000
  154      -49.644827    -45.926528   1.000000   1.000000
  155      -49.644785    -45.926512   1.000000   1.000000
  156      -49.644753    -45.926476   1.000000   1.000000
  157      -49.644738    -45.926456   1.000000   1.000000
  158      -49.644728    -45.926431   1.000000   1.000000
  159      -49.644643    -45.926429   1.000000   1.000000
  160      -49.644608    -45.926380   1.000000   1.000000
  161      -49.644602    -45.926364   1.000000   1.000000
  162      -49.644567    -45.926350   1.000000   1.000000
  163      -49.644493    -45.926319   1.000000   1.000000
  164      -49.644440    -45.926266   1.000000   1.000000
  165      -49.644438    -45.926251   1.000000   1.000000
  166      -49.644424    -45.926173   1.000000   1.000000
  167      -49.644364    -45.926136   1.000000   1.000000
  168      -49.644338    -45.926121   1.000000   1.000000
  169      -49.644291    -45.926111   1.000000   1.000000
  170      -49.644213    -45.926075   1.000000   1.000000
  171      -49.644193    -45.926065   1.000000   1.000000
  172      -49.644181    -45.925989   1.000000   1.000000
  173      -49.644097    -45.925966   1.000000   1.000000
  174      -49.644080    -45.925958   1.000000   1.000000
  175      -49.644056    -45.925872   1.000000   1.000000
  176      -49.643999    -45.925859   1.000000   1.000000
  177      -49.643982    -45.925815   1.000000   1.000000
  178      -49.643928    -45.925784   1.000000   1.000000
  179      -49.643870    -45.925744   1.000000   1.000000
  180      -49.643826    -45.925663   1.000000   1.000000
  181      -49.643749    -45.925538   1.000000   1.000000
  182      -49.643721    -45.925469   1.000000   1.000000
  183      -49.643581    -45.925446   1.000000   1.000000
  184      -49.643529    -45.925416   1.000000   1.000000
  185      -49.643493    -45.925280   1.000000   1.000000
  186      -49.643417    -45.925267   1.000000   1.000000
  187      -49.643005    -45.925194   1.000000   1.000000
  188      -49.642931    -45.925163   1.000000   1.000000
  189      -49.641209    -45.922877   1.000000   1.000000
  190      -49.640871    -45.922361   1.000000   1.000000
  191      -49.639536    -45.921330   1.000000   1.000000
  192      -49.639043    -45.921018   1.000000   1.000000
  193      -39.641209    -39.640293   1.000000   1.000000
  194      -39.641076    -39.640158   1.000000   1.000000
  195      -39.634279    -39.633409   1.000000   1.000000
  196      -39.633623    -39.632751   1.000000   1.000000
  197      -39.633500    -39.632627   1.000000   1.000000
  198      -39.633459    -39.632586   1.000000   1.000000
  199      -39.633422    -39.632549   1.000000   1.000000
  200      -39.633387    -39.632514   1.000000   1.000000
  201      -39.633188    -39.632315   1.000000   1.000000
  202      -39.632797    -39.631924   1.000000   1.000000
  203      -39.628227    -39.627391   1.000000   1.000000
  204      -39.627927    -39.627088   1.000000   1.000000
  205      -39.627854    -39.627017   1.000000   1.000000
  206      -39.627811    -39.626973   1.000000   1.000000
  207      -39.627699    -39.626861   1.000000   1.000000
  208      -39.627651    -39.626813   1.000000   1.000000
  209      -39.627562    -39.626724   1.000000   1.000000
  210      -39.627300    -39.626460   1.000000   1.000000
  211      -39.617344    -39.616577   1.000000   1.000000
  212      -39.616256    -39.615481   1.000000   1.000000
  213      -39.616172    -39.615397   1.000000   1.000000
  214      -39.616056    -39.615279   1.000000   1.000000
  215      -39.616044    -39.615266   1.000000   1.000000
  216      -39.615924    -39.615149   1.000000   1.000000
  217      -39.615771    -39.615001   1.000000   1.000000
  218      -39.615562    -39.614784   1.000000   1.000000
  219      -39.615497    -39.614717   1.000000   1.000000
  220      -39.615357    -39.614585   1.000000   1.000000
  221      -39.615331    -39.614562   1.000000   1.000000
  222      -39.615249    -39.614481   1.000000   1.000000
  223      -39.615236    -39.614467   1.000000   1.000000
  224      -39.615232    -39.614464   1.000000   1.000000
  225      -39.615136    -39.614369   1.000000   1.000000
  226      -39.615086    -39.614319   1.000000   1.000000
  227      -39.615006    -39.614237   1.000000   1.000000
  228      -39.614936    -39.614167   1.000000   1.000000
  229      -39.614926    -39.614158   1.000000   1.000000
  230      -39.614906    -39.614138   1.000000   1.000000
  231      -39.614843    -39.614077   1.000000   1.000000
  232      -39.614813    -39.614045   1.000000   1.000000
  233      -39.614741    -39.613969   1.000000   1.000000
  234      -39.614549    -39.613784   1.000000   1.000000
  235      -39.614135    -39.613373   1.000000   1.000000
  236      -39.614103    -39.613343   1.000000   1.000000
  237      -39.613782    -39.613019   1.000000   1.000000
  238      -39.612986    -39.612217   1.000000   1.000000
  239      -39.604303    -39.603585   1.000000   1.000000
  240      -39.604024    -39.603304   1.000000   1.000000
  241      -39.603950    -39.603232   1.000000   1.000000
  242      -39.603875    -39.603156   1.000000   1.000000
  243      -39.603771    -39.603051   1.000000   1.000000
  244      -39.603712    -39.602992   1.000000   1.000000
  245      -39.603666    -39.602946   1.000000   1.000000
  246      -39.603387    -39.602666   1.000000   1.000000
  247      -39.600155    -39.599449   1.000000   1.000000
  248      -39.599764    -39.599058   1.000000   1.000000
  249      -39.599577    -39.598872   1.000000   1.000000
  250      -39.599538    -39.598832   1.000000   1.000000
  251      -39.599489    -39.598782   1.000000   1.000000
  252      -39.599417    -39.598711   1.000000   1.000000
  253      -39.599340    -39.598634   1.000000   1.000000
  254      -39.598632    -39.597922   1.000000   1.000000
  255      -39.593267    -39.592584   1.000000   1.000000
  256      -39.593082    -39.592398   1.000000   1.000000
  257      -12.747248    -12.467784   1.000000   1.000000
  258      -12.747198    -12.467728   1.000000   1.000000
  259      -12.720356    -12.440665   1.000000   1.000000
  260      -12.719504    -12.439748   1.000000   1.000000
  261      -12.719387    -12.439641   1.000000   1.000000
  262      -12.719340    -12.439586   1.000000   1.000000
  263      -12.719331    -12.439579   1.000000   1.000000
  264      -12.719311    -12.439561   1.000000   1.000000
  265      -12.719154    -12.439406   1.000000   1.000000
  266      -12.718375    -12.438572   1.000000   1.000000
  267      -12.697293    -12.417158   1.000000   1.000000
  268      -12.697244    -12.417104   1.000000   1.000000
  269      -12.694916    -12.415299   1.000000   1.000000
  270      -12.694767    -12.415158   1.000000   1.000000
  271      -12.694751    -12.415144   1.000000   1.000000
  272      -12.694747    -12.415139   1.000000   1.000000
  273      -12.692517    -12.413358   1.000000   1.000000
  274      -12.692303    -12.413221   1.000000   1.000000
  275      -12.691252    -12.411218   1.000000   1.000000
  276      -12.691227    -12.411199   1.000000   1.000000
  277      -12.691099    -12.411098   1.000000   1.000000
  278      -12.690934    -12.410949   1.000000   1.000000
  279      -12.673196    -12.393220   1.000000   1.000000
  280      -12.672718    -12.392701   1.000000   1.000000
  281      -12.672616    -12.392599   1.000000   1.000000
  282      -12.672133    -12.392108   1.000000   1.000000
  283      -12.668059    -12.389174   1.000000   1.000000
  284      -12.667648    -12.388754   1.000000   1.000000
  285      -12.667549    -12.388657   1.000000   1.000000
  286      -12.666988    -12.388051   1.000000   1.000000
  287      -12.654488    -12.374531   1.000000   1.000000
  288      -12.643720    -12.365991   1.000000   1.000000
  289       -7.800027     -7.599028   1.000000   1.000000
  290       -7.748234     -7.551513   1.000000   1.000000
  291       -7.505570     -7.319326   1.000000   1.000000
  292       -7.505407     -7.319153   1.000000   1.000000
  293       -7.505331     -7.319078   1.000000   1.000000
  294       -7.505158     -7.318892   1.000000   1.000000
  295       -7.501114     -7.308987   1.000000   1.000000
  296       -7.500978     -7.308832   1.000000   1.000000
  297       -7.500905     -7.308758   1.000000   1.000000
  298       -7.500729     -7.308583   1.000000   1.000000
  299       -7.315281     -7.117839   1.000000   1.000000
  300       -7.315027     -7.117565   1.000000   1.000000
  301       -7.297085     -7.093824   1.000000   1.000000
  302       -7.296830     -7.093547   1.000000   1.000000
  303       -7.296795     -7.093511   1.000000   1.000000
  304       -7.296549     -7.093244   1.000000   1.000000
  305       -7.269379     -7.062092   1.000000   1.000000
  306       -7.269092     -7.061782   1.000000   1.000000
  307       -7.088644     -6.894027   1.000000   1.000000
  308       -7.084814     -6.893848   1.000000   1.000000
  309       -7.084656     -6.893837   1.000000   1.000000
  310       -7.084637     -6.893661   1.000000   1.000000
  311       -7.084477     -6.796735   1.000000   1.000000
  312       -7.046572     -6.783805   1.000000   1.000000
  313       -7.000374     -6.768133   1.000000   1.000000
  314       -7.000152     -6.767987   1.000000   1.000000
  315       -6.999908     -6.767974   1.000000   1.000000
  316       -6.999773     -6.767744   1.000000   1.000000
  317       -6.999764     -6.766686   1.000000   1.000000
  318       -6.999661     -6.766463   1.000000   1.000000
  319       -6.999392     -6.766196   1.000000   1.000000
  320       -6.999190     -6.766087   1.000000   1.000000
  321       -6.994488     -6.766063   1.000000   1.000000
  322       -6.994214     -6.765951   1.000000   1.000000
  323       -6.994129     -6.765636   1.000000   1.000000
  324       -6.993829     -6.765398   1.000000   1.000000
  325       -6.955929     -6.745244   1.000000   1.000000
  326       -6.955773     -6.744916   1.000000   1.000000
  327       -6.955746     -6.744839   1.000000   1.000000
  328       -6.955601     -6.744503   1.000000   1.000000
  329       -6.948344     -6.697486   1.000000   1.000000
  330       -6.948279     -6.697426   1.000000   1.000000
  331       -6.928932     -6.689420   1.000000   1.000000
  332       -6.928633     -6.689089   1.000000   1.000000
  333       -6.928550     -6.689008   1.000000   1.000000
  334       -6.928293     -6.688715   1.000000   1.000000
  335       -6.911322     -6.639878   1.000000   1.000000
  336       -6.911299     -6.639484   1.000000   1.000000
  337       -6.885752     -6.639331   1.000000   1.000000
  338       -6.885644     -6.639094   1.000000   1.000000
  339       -6.885642     -6.639023   1.000000   1.000000
  340       -6.885583     -6.638959   1.000000   1.000000
  341       -6.877383     -6.638812   1.000000   1.000000
  342       -6.877181     -6.638591   1.000000   1.000000
  343       -6.876929     -6.638345   1.000000   1.000000
  344       -6.876810     -6.638306   1.000000   1.000000
  345       -6.876804     -6.638108   1.000000   1.000000
  346       -6.876672     -6.637783   1.000000   1.000000
  347       -6.876414     -6.628056   1.000000   1.000000
  348       -6.876180     -6.628038   1.000000   1.000000
  349       -6.832630     -6.586669   1.000000   1.000000
  350       -6.832555     -6.586590   1.000000   1.000000
  351       -6.794268     -6.499090   1.000000   1.000000
  352       -6.794249     -6.499070   1.000000   1.000000
  353       -1.525521     -0.414646   1.000000   1.000000
  354       -1.468113     -0.414578   1.000000   1.000000
  355       -1.467758     -0.414517   1.000000   1.000000
  356       -1.467617     -0.414314   1.000000   1.000000
  357       -1.467198      0.026027   1.000000   1.000000
  358       -1.460369      0.026266   1.000000   1.000000
  359       -1.460240      0.026409   1.000000   1.000000
  360       -1.460200      0.026844   1.000000   1.000000
  361       -1.460149      0.037710   1.000000   1.000000
  362       -1.421388      0.037819   1.000000   1.000000
  363       -1.421332      0.037843   1.000000   1.000000
  364       -1.382823      0.038027   1.000000   1.000000
  365       -1.382775      0.038097   1.000000   1.000000
  366       -1.382764      0.038133   1.000000   1.000000
  367       -1.382730      0.038321   1.000000   1.000000
  368       -1.333350      0.038494   1.000000   1.000000
  369       -1.332709      0.102900   1.000000   1.000000
  370       -1.332552      0.102907   1.000000   1.000000
  371       -1.332520      0.207409   1.000000   1.000000
  372       -1.332486      0.207538   1.000000   1.000000
  373       -1.332429      0.207547   1.000000   1.000000
  374       -1.332268      0.207699   1.000000   1.000000
  375       -1.331622      0.304167   1.000000   1.000000
  376       -1.292964      0.392074   1.000000   1.000000
  377       -1.292543      0.392489   1.000000   1.000000
  378       -1.292426      0.392646   1.000000   1.000000
  379       -1.291963      0.393015   1.000000   1.000000
  380       -1.256789      0.490789   1.000000   1.000000
  381       -1.256775      0.491004   1.000000   1.000000
  382       -1.232169      0.497417   1.000000   1.000000
  383       -1.232148      0.497672   1.000000   1.000000
  384       -1.220366      0.497716   1.000000   1.000000
  385       -0.822814      0.497871   1.000000   1.000000
  386       -0.822742      0.510668   1.000000   1.000000
  387       -0.822689      0.510703   1.000000   1.000000
  388       -0.822531      0.531018   1.000000   1.000000
  389       -0.722712      0.531268   1.000000   1.000000
  390       -0.722586      0.531291   1.000000   1.000000
  391       -0.699336      0.531419   1.000000   1.000000
  392       -0.699017      0.574115   1.000000   1.000000
  393       -0.698972      0.574230   1.000000   1.000000
  394       -0.698907      0.574310   1.000000   1.000000
  395       -0.688466      0.574362   1.000000   1.000000
  396       -0.688430      0.574400   1.000000   1.000000
  397       -0.688178      0.574492   1.000000   1.000000
  398       -0.688159      0.574554   1.000000   1.000000
  399       -0.666711      0.574615   1.000000   1.000000
  400       -0.666634      0.638616   1.000000   1.000000
  401       -0.666500      0.666263   1.000000   1.000000
  402       -0.666241      0.666376   1.000000   1.000000
  403       -0.652057      0.733085   1.000000   1.000000
  404       -0.651942      0.733104   1.000000   1.000000
  405       -0.651883      0.931374   1.000000   1.000000
  406       -0.651693      0.932550   1.000000   1.000000
  407       -0.589424      0.935477   1.000000   1.000000
  408       -0.589393      0.935760   1.000000   1.000000
  409       -0.576642      0.948829   1.000000   1.000000
  410       -0.576542      0.948968   1.000000   1.000000
  411       -0.576505      0.948984   1.000000   1.000000
  412       -0.576464      0.949154   1.000000   1.000000
  413       -0.553489      0.986127   1.000000   1.000000
  414       -0.553227      0.986191   1.000000   1.000000
  415       -0.553025      0.986209   1.000000   1.000000
  416       -0.552998      0.986304   1.000000   1.000000
  417       -0.497625      0.992779   1.000000   1.000000
  418       -0.496875      0.992977   1.000000   1.000000
  419       -0.472910      1.008766   1.000000   1.000000
  420       -0.472684      1.008948   1.000000   1.000000
  421       -0.461654      1.008959   1.000000   1.000000
  422       -0.461467      1.009115   1.000000   1.000000
  423       -0.461209      1.018463   1.000000   1.000000
  424       -0.461146      1.049096   1.000000   1.000000
  425       -0.459860      1.049148   1.000000   1.000000
  426       -0.459654      1.051651   1.000000   1.000000
  427       -0.459419      1.051688   1.000000   1.000000
  428       -0.459365      1.051730   1.000000   1.000000
  429       -0.410012      1.051866   1.000000   1.000000
  430       -0.409998      1.078611   1.000000   1.000000
  431       -0.407584      1.078636   1.000000   1.000000
  432       -0.407548      1.078909   1.000000   1.000000
  433       -0.407465      1.079008   1.000000   1.000000
  434       -0.407411      1.079767   1.000000   1.000000
  435       -0.407395      1.079832   1.000000   1.000000
  436       -0.407344      1.079976   1.000000   1.000000
  437       -0.383299      1.080176   1.000000   1.000000
  438       -0.383260      1.192793   1.000000   1.000000
  439       -0.378167      1.192936   1.000000   1.000000
  440       -0.369021      1.376462   1.000000   1.000000
  441       -0.368920      1.390367   1.000000   1.000000
  442       -0.368768      1.390976   1.000000   1.000000
  443       -0.368677      1.391276   1.000000   1.000000
  444       -0.368665      1.391433   1.000000   1.000000
  445       -0.368628      1.391584   1.000000   1.000000
  446       -0.368480      1.437312   1.000000   1.000000
  447       -0.368381      1.450204   1.000000   1.000000
  448       -0.353546      1.526195   1.000000   1.000000
  449       -0.353526      1.526343   1.000000   1.000000
  450       -0.349050      1.526407   1.000000   1.000000
  451       -0.341789      1.526596   1.000000   1.000000
  452       -0.335799      1.528795   1.000000   1.000000
  453       -0.335760      1.528889   1.000000   1.000000
  454       -0.335449      1.528943   1.000000   1.000000
  455       -0.335370      1.529169   1.000000   1.000000
  456       -0.334170      1.558173   1.000000   1.000000
  457       -0.334147      1.558321   1.000000   1.000000
  458       -0.334112      1.558342   1.000000   1.000000
  459       -0.333999      1.558501   1.000000   1.000000
  460       -0.324234      1.566565   1.000000   1.000000
  461       -0.324231      1.566735   1.000000   1.000000
  462       -0.324062      1.566853   1.000000   1.000000
  463       -0.323640      1.567082   1.000000   1.000000
  464       -0.321653      1.568101   1.000000   1.000000
  465       -0.321646      1.568185   1.000000   1.000000
  466       -0.321398      1.568463   1.000000   1.000000
  467       -0.320901      1.568777   1.000000   1.000000
  468       -0.303822      1.586351   1.000000   1.000000
  469       -0.295895      1.586883   1.000000   1.000000
  470       -0.288093      1.695644   1.000000   1.000000
  471       -0.287928      1.695796   1.000000   1.000000
  472       -0.287789      1.740875   1.000000   1.000000
  473       -0.287479      1.740946   1.000000   1.000000
  474       -0.280399      1.741139   1.000000   1.000000
  475       -0.280366      1.741304   1.000000   1.000000
  476       -0.275174      1.746858   1.000000   1.000000
  477       -0.274972      1.746860   1.000000   1.000000
  478       -0.274821      1.746898   1.000000   1.000000
  479       -0.274767      1.746913   1.000000   1.000000
  480       -0.241897      1.779027   1.000000   1.000000
  481       -0.241735      1.780630   1.000000   1.000000
  482       -0.241601      1.780641   1.000000   1.000000
  483       -0.241539      1.836631   1.000000   1.000000
  484       -0.241372      1.836889   1.000000   1.000000
  485       -0.241333      1.837354   1.000000   1.000000
  486       -0.241260      1.837399   1.000000   1.000000
  487       -0.241141      1.837780   1.000000   1.000000
  488       -0.207394      1.838084   1.000000   1.000000
  489       -0.207387      1.838424   1.000000   1.000000
  490       -0.199718      1.838459   1.000000   1.000000
  491       -0.199569      1.866213   1.000000   1.000000
  492       -0.199553      1.866415   1.000000   1.000000
  493       -0.199391      1.913204   1.000000   1.000000
  494       -0.194079      1.913288   1.000000   1.000000
  495       -0.193916      1.913416   1.000000   1.000000
  496       -0.164166      1.913490   1.000000   1.000000
  497       -0.163789      1.913636   1.000000   1.000000
  498       -0.163730      1.913750   1.000000   1.000000
  499       -0.163701      1.913898   1.000000   1.000000
  500       -0.156854      1.914000   1.000000   1.000000
  501       -0.156479      1.926630   1.000000   1.000000
  502       -0.156176      1.926977   1.000000   1.000000
  503       -0.156160      1.927070   1.000000   1.000000
  504       -0.139042      1.927450   1.000000   1.000000
  505       -0.139016      2.133193   1.000000   1.000000
  506       -0.138824      2.133308   1.000000   1.000000
  507       -0.138821      2.191256   1.000000   1.000000
  508       -0.090973      2.193189   1.000000   1.000000
  509       -0.090940      2.300424   1.000000   1.000000
  510       -0.082528      2.300787   1.000000   1.000000
  511       -0.082501      2.301115   1.000000   1.000000
  512       -0.082480      2.301202   1.000000   1.000000