  88  88   0   0
  0.1431748E+02  0.1111223E-08  0.1111745E-08  0.1056954E-08  0.5000000E-15
  1.000000000000000E-004
  CAR 
 unknown system                          
     17.91198859    -54.33953073  301      5.20776311      1.00000000
    -54.340  0.0000E+00  0.0000E+00  0.0000E+00  0.0000E+00
    -54.099  0.0000E+00  0.0000E+00  0.0000E+00  0.0000E+00
    -53.858  0.0000E+00  0.0000E+00  0.0000E+00  0.0000E+00
    -53.617  0.0000E+00  0.0000E+00  0.0000E+00  0.0000E+00
    -53.376  0.0000E+00  0.0000E+00  0.0000E+00  0.0000E+00
    -53.135  0.0000E+00  0.0000E+00  0.0000E+00  0.0000E+00
    -52.895  0.0000E+00  0.0000E+00  0.0000E+00  0.0000E+00
    -52.654  0.0000E+00  0.0000E+00  0.0000E+00  0.0000E+00
    -52.413  0.0000E+00  0.0000E+00  0.0000E+00  0.0000E+00
    -52.172  0.0000E+00  0.0000E+00  0.0000E+00  0.0000E+00
    -51.931  0.0000E+00  0.0000E+00  0.0000E+00  0.0000E+00
    -51.690  0.0000E+00  0.0000E+00  0.0000E+00  0.0000E+00
    -51.449  0.0000E+00  0.0000E+00  0.0000E+00  0.0000E+00
    -51.209  0.4484E-03  0.0000E+00  0.1080E-03  0.0000E+00
    -50.968  0.1311E+03  0.0000E+00  0.3158E+02  0.0000E+00
    -50.727  0.1760E+01  0.0000E+00  0.3200E+02  0.0000E+00
    -50.486  0.0000E+00  0.0000E+00  0.3200E+02  0.0000E+00
    -50.245  0.0000E+00  0.0000E+00  0.3200E+02  0.0000E+00
    -50.004  0.0000E+00  0.0000E+00  0.3200E+02  0.0000E+00
    -49.764  0.2140E+01  0.0000E+00  0.3252E+02  0.0000E+00
    -49.523  0.2379E+03  0.0000E+00  0.8981E+02  0.0000E+00
    -49.282  0.2568E+02  0.0000E+00  0.9600E+02  0.0000E+00
    -49.041  0.0000E+00  0.0000E+00  0.9600E+02  0.0000E+00
    -48.800  0.0000E+00  0.0000E+00  0.9600E+02  0.0000E+00
    -48.559  0.0000E+00  0.0000E+00  0.9600E+02  0.0000E+00
    -48.319  0.0000E+00  0.0000E+00  0.9600E+02  0.0000E+00
    -48.078  0.0000E+00  0.0000E+00  0.9600E+02  0.0000E+00
    -47.837  0.0000E+00  0.0000E+00  0.9600E+02  0.0000E+00
    -47.596  0.0000E+00  0.0000E+00  0.9600E+02  0.0000E+00
    -47.355  0.0000E+00  0.0000E+00  0.9600E+02  0.0000E+00
    -47.114  0.0000E+00  0.0000E+00  0.9600E+02  0.0000E+00
    -46.874  0.0000E+00  0.0000E+00  0.9600E+02  0.0000E+00
    -46.633  0.0000E+00  0.0000E+00  0.9600E+02  0.0000E+00
    -46.392  0.0000E+00  0.4217E+00  0.9600E+02  0.1016E+00
    -46.151  0.0000E+00  0.1324E+03  0.9600E+02  0.3199E+02
    -45.910  0.0000E+00  0.6231E+02  0.9600E+02  0.4700E+02
    -45.669  0.0000E+00  0.2035E+03  0.9600E+02  0.9600E+02
    -45.429  0.0000E+00  0.0000E+00  0.9600E+02  0.9600E+02
    -45.188  0.0000E+00  0.0000E+00  0.9600E+02  0.9600E+02
    -44.947  0.0000E+00  0.0000E+00  0.9600E+02  0.9600E+02
    -44.706  0.0000E+00  0.0000E+00  0.9600E+02  0.9600E+02
    -44.465  0.0000E+00  0.0000E+00  0.9600E+02  0.9600E+02
    -44.224  0.0000E+00  0.0000E+00  0.9600E+02  0.9600E+02
    -43.983  0.0000E+00  0.0000E+00  0.9600E+02  0.9600E+02
    -43.743  0.0000E+00  0.0000E+00  0.9600E+02  0.9600E+02
    -43.502  0.0000E+00  0.0000E+00  0.9600E+02  0.9600E+02
    -43.261  0.0000E+00  0.0000E+00  0.9600E+02  0.9600E+02
    -43.020  0.0000E+00  0.0000E+00  0.9600E+02  0.9600E+02
    -42.779  0.0000E+00  0.0000E+00  0.9600E+02  0.9600E+02
    -42.538  0.0000E+00  0.0000E+00  0.9600E+02  0.9600E+02
    -42.298  0.0000E+00  0.0000E+00  0.9600E+02  0.9600E+02
    -42.057  0.0000E+00  0.0000E+00  0.9600E+02  0.9600E+02
    -41.816  0.0000E+00  0.0000E+00  0.9600E+02  0.9600E+02
    -41.575  0.0000E+00  0.0000E+00  0.9600E+02  0.9600E+02
    -41.334  0.0000E+00  0.0000E+00  0.9600E+02  0.9600E+02
    -41.093  0.0000E+00  0.0000E+00  0.9600E+02  0.9600E+02
    -40.853  0.0000E+00  0.0000E+00  0.9600E+02  0.9600E+02
    -40.612  0.0000E+00  0.0000E+00  0.9600E+02  0.9600E+02
    -40.371  0.0000E+00  0.0000E+00  0.9600E+02  0.9600E+02
    -40.130  0.2239E-11  0.1433E-11  0.9600E+02  0.9600E+02
    -39.889  0.1643E+02  0.1523E+02  0.9996E+02  0.9967E+02
    -39.648  0.5000E+02  0.5121E+02  0.1120E+03  0.1120E+03
    -39.408  0.0000E+00  0.0000E+00  0.1120E+03  0.1120E+03
    -39.167  0.0000E+00  0.0000E+00  0.1120E+03  0.1120E+03
    -38.926  0.0000E+00  0.0000E+00  0.1120E+03  0.1120E+03
    -38.685  0.0000E+00  0.0000E+00  0.1120E+03  0.1120E+03
    -38.444  0.0000E+00  0.0000E+00  0.1120E+03  0.1120E+03
    -38.203  0.0000E+00  0.0000E+00  0.1120E+03  0.1120E+03
    -37.963  0.0000E+00  0.0000E+00  0.1120E+03  0.1120E+03
    -37.722  0.0000E+00  0.0000E+00  0.1120E+03  0.1120E+03
    -37.481  0.0000E+00  0.0000E+00  0.1120E+03  0.1120E+03
    -37.240  0.0000E+00  0.0000E+00  0.1120E+03  0.1120E+03
    -36.999  0.0000E+00  0.0000E+00  0.1120E+03  0.1120E+03
    -36.758  0.0000E+00  0.0000E+00  0.1120E+03  0.1120E+03
    -36.517  0.0000E+00  0.0000E+00  0.1120E+03  0.1120E+03
    -36.277  0.0000E+00  0.0000E+00  0.1120E+03  0.1120E+03
    -36.036  0.0000E+00  0.0000E+00  0.1120E+03  0.1120E+03
    -35.795  0.0000E+00  0.0000E+00  0.1120E+03  0.1120E+03
    -35.554  0.0000E+00  0.0000E+00  0.1120E+03  0.1120E+03
    -35.313  0.0000E+00  0.0000E+00  0.1120E+03  0.1120E+03
    -35.072  0.0000E+00  0.0000E+00  0.1120E+03  0.1120E+03
    -34.832  0.0000E+00  0.0000E+00  0.1120E+03  0.1120E+03
    -34.591  0.0000E+00  0.0000E+00  0.1120E+03  0.1120E+03
    -34.350  0.0000E+00  0.0000E+00  0.1120E+03  0.1120E+03
    -34.109  0.0000E+00  0.0000E+00  0.1120E+03  0.1120E+03
    -33.868  0.0000E+00  0.0000E+00  0.1120E+03  0.1120E+03
    -33.627  0.0000E+00  0.0000E+00  0.1120E+03  0.1120E+03
    -33.387  0.0000E+00  0.0000E+00  0.1120E+03  0.1120E+03
    -33.146  0.0000E+00  0.0000E+00  0.1120E+03  0.1120E+03
    -32.905  0.0000E+00  0.0000E+00  0.1120E+03  0.1120E+03
    -32.664  0.0000E+00  0.0000E+00  0.1120E+03  0.1120E+03
    -32.423  0.0000E+00  0.0000E+00  0.1120E+03  0.1120E+03
    -32.182  0.0000E+00  0.0000E+00  0.1120E+03  0.1120E+03
    -31.942  0.0000E+00  0.0000E+00  0.1120E+03  0.1120E+03
    -31.701  0.0000E+00  0.0000E+00  0.1120E+03  0.1120E+03
    -31.460  0.0000E+00  0.0000E+00  0.1120E+03  0.1120E+03
    -31.219  0.0000E+00  0.0000E+00  0.1120E+03  0.1120E+03
    -30.978  0.0000E+00  0.0000E+00  0.1120E+03  0.1120E+03
    -30.737  0.0000E+00  0.0000E+00  0.1120E+03  0.1120E+03
    -30.497  0.0000E+00  0.0000E+00  0.1120E+03  0.1120E+03
    -30.256  0.0000E+00  0.0000E+00  0.1120E+03  0.1120E+03
    -30.015  0.0000E+00  0.0000E+00  0.1120E+03  0.1120E+03
    -29.774  0.0000E+00  0.0000E+00  0.1120E+03  0.1120E+03
    -29.533  0.0000E+00  0.0000E+00  0.1120E+03  0.1120E+03
    -29.292  0.0000E+00  0.0000E+00  0.1120E+03  0.1120E+03
    -29.051  0.0000E+00  0.0000E+00  0.1120E+03  0.1120E+03
    -28.811  0.0000E+00  0.0000E+00  0.1120E+03  0.1120E+03
    -28.570  0.0000E+00  0.0000E+00  0.1120E+03  0.1120E+03
    -28.329  0.0000E+00  0.0000E+00  0.1120E+03  0.1120E+03
    -28.088  0.0000E+00  0.0000E+00  0.1120E+03  0.1120E+03
    -27.847  0.0000E+00  0.0000E+00  0.1120E+03  0.1120E+03
    -27.606  0.0000E+00  0.0000E+00  0.1120E+03  0.1120E+03
    -27.366  0.0000E+00  0.0000E+00  0.1120E+03  0.1120E+03
    -27.125  0.0000E+00  0.0000E+00  0.1120E+03  0.1120E+03
    -26.884  0.0000E+00  0.0000E+00  0.1120E+03  0.1120E+03
    -26.643  0.0000E+00  0.0000E+00  0.1120E+03  0.1120E+03
    -26.402  0.0000E+00  0.0000E+00  0.1120E+03  0.1120E+03
    -26.161  0.0000E+00  0.0000E+00  0.1120E+03  0.1120E+03
    -25.921  0.0000E+00  0.0000E+00  0.1120E+03  0.1120E+03
    -25.680  0.0000E+00  0.0000E+00  0.1120E+03  0.1120E+03
    -25.439  0.0000E+00  0.0000E+00  0.1120E+03  0.1120E+03
    -25.198  0.0000E+00  0.0000E+00  0.1120E+03  0.1120E+03
    -24.957  0.0000E+00  0.0000E+00  0.1120E+03  0.1120E+03
    -24.716  0.0000E+00  0.0000E+00  0.1120E+03  0.1120E+03
    -24.476  0.0000E+00  0.0000E+00  0.1120E+03  0.1120E+03
    -24.235  0.0000E+00  0.0000E+00  0.1120E+03  0.1120E+03
    -23.994  0.0000E+00  0.0000E+00  0.1120E+03  0.1120E+03
    -23.753  0.0000E+00  0.0000E+00  0.1120E+03  0.1120E+03
    -23.512  0.0000E+00  0.0000E+00  0.1120E+03  0.1120E+03
    -23.271  0.0000E+00  0.0000E+00  0.1120E+03  0.1120E+03
    -23.031  0.0000E+00  0.0000E+00  0.1120E+03  0.1120E+03
    -22.790  0.0000E+00  0.0000E+00  0.1120E+03  0.1120E+03
    -22.549  0.0000E+00  0.0000E+00  0.1120E+03  0.1120E+03
    -22.308  0.0000E+00  0.0000E+00  0.1120E+03  0.1120E+03
    -22.067  0.0000E+00  0.0000E+00  0.1120E+03  0.1120E+03
    -21.826  0.0000E+00  0.0000E+00  0.1120E+03  0.1120E+03
    -21.586  0.0000E+00  0.0000E+00  0.1120E+03  0.1120E+03
    -21.345  0.0000E+00  0.0000E+00  0.1120E+03  0.1120E+03
    -21.104  0.0000E+00  0.0000E+00  0.1120E+03  0.1120E+03
    -20.863  0.0000E+00  0.0000E+00  0.1120E+03  0.1120E+03
    -20.622  0.0000E+00  0.0000E+00  0.1120E+03  0.1120E+03
    -20.381  0.0000E+00  0.0000E+00  0.1120E+03  0.1120E+03
    -20.140  0.0000E+00  0.0000E+00  0.1120E+03  0.1120E+03
    -19.900  0.0000E+00  0.0000E+00  0.1120E+03  0.1120E+03
    -19.659  0.0000E+00  0.0000E+00  0.1120E+03  0.1120E+03
    -19.418  0.0000E+00  0.0000E+00  0.1120E+03  0.1120E+03
    -19.177  0.0000E+00  0.0000E+00  0.1120E+03  0.1120E+03
    -18.936  0.0000E+00  0.0000E+00  0.1120E+03  0.1120E+03
    -18.695  0.0000E+00  0.0000E+00  0.1120E+03  0.1120E+03
    -18.455  0.0000E+00  0.0000E+00  0.1120E+03  0.1120E+03
    -18.214  0.0000E+00  0.0000E+00  0.1120E+03  0.1120E+03
    -17.973  0.0000E+00  0.0000E+00  0.1120E+03  0.1120E+03
    -17.732  0.0000E+00  0.0000E+00  0.1120E+03  0.1120E+03
    -17.491  0.0000E+00  0.0000E+00  0.1120E+03  0.1120E+03
    -17.250  0.0000E+00  0.0000E+00  0.1120E+03  0.1120E+03
    -17.010  0.0000E+00  0.0000E+00  0.1120E+03  0.1120E+03
    -16.769  0.0000E+00  0.0000E+00  0.1120E+03  0.1120E+03
    -16.528  0.0000E+00  0.0000E+00  0.1120E+03  0.1120E+03
    -16.287  0.0000E+00  0.0000E+00  0.1120E+03  0.1120E+03
    -16.046  0.0000E+00  0.0000E+00  0.1120E+03  0.1120E+03
    -15.805  0.0000E+00  0.0000E+00  0.1120E+03  0.1120E+03
    -15.565  0.0000E+00  0.0000E+00  0.1120E+03  0.1120E+03
    -15.324  0.0000E+00  0.0000E+00  0.1120E+03  0.1120E+03
    -15.083  0.0000E+00  0.0000E+00  0.1120E+03  0.1120E+03
    -14.842  0.0000E+00  0.0000E+00  0.1120E+03  0.1120E+03
    -14.601  0.0000E+00  0.0000E+00  0.1120E+03  0.1120E+03
    -14.360  0.0000E+00  0.0000E+00  0.1120E+03  0.1120E+03
    -14.120  0.0000E+00  0.0000E+00  0.1120E+03  0.1120E+03
    -13.879  0.0000E+00  0.0000E+00  0.1120E+03  0.1120E+03
    -13.638  0.0000E+00  0.0000E+00  0.1120E+03  0.1120E+03
    -13.397  0.1169E-05  0.0000E+00  0.1120E+03  0.1120E+03
    -13.156  0.1997E+02  0.0000E+00  0.1168E+03  0.1120E+03
    -12.915  0.4533E+02  0.1165E-01  0.1277E+03  0.1120E+03
    -12.674  0.1134E+01  0.4351E+02  0.1280E+03  0.1225E+03
    -12.434  0.0000E+00  0.2292E+02  0.1280E+03  0.1280E+03
    -12.193  0.0000E+00  0.0000E+00  0.1280E+03  0.1280E+03
    -11.952  0.0000E+00  0.0000E+00  0.1280E+03  0.1280E+03
    -11.711  0.0000E+00  0.0000E+00  0.1280E+03  0.1280E+03
    -11.470  0.0000E+00  0.0000E+00  0.1280E+03  0.1280E+03
    -11.229  0.0000E+00  0.0000E+00  0.1280E+03  0.1280E+03
    -10.989  0.0000E+00  0.0000E+00  0.1280E+03  0.1280E+03
    -10.748  0.0000E+00  0.0000E+00  0.1280E+03  0.1280E+03
    -10.507  0.0000E+00  0.0000E+00  0.1280E+03  0.1280E+03
    -10.266  0.0000E+00  0.0000E+00  0.1280E+03  0.1280E+03
    -10.025  0.0000E+00  0.0000E+00  0.1280E+03  0.1280E+03
     -9.784  0.0000E+00  0.0000E+00  0.1280E+03  0.1280E+03
     -9.544  0.0000E+00  0.0000E+00  0.1280E+03  0.1280E+03
     -9.303  0.0000E+00  0.0000E+00  0.1280E+03  0.1280E+03
     -9.062  0.0000E+00  0.0000E+00  0.1280E+03  0.1280E+03
     -8.821  0.0000E+00  0.0000E+00  0.1280E+03  0.1280E+03
     -8.580  0.0000E+00  0.0000E+00  0.1280E+03  0.1280E+03
     -8.339  0.0000E+00  0.0000E+00  0.1280E+03  0.1280E+03
     -8.099  0.0000E+00  0.0000E+00  0.1280E+03  0.1280E+03
     -7.858  0.1481E-09  0.0000E+00  0.1280E+03  0.1280E+03
     -7.617  0.6483E+00  0.2746E-10  0.1282E+03  0.1280E+03
     -7.376  0.1296E+02  0.5774E+00  0.1313E+03  0.1281E+03
     -7.135  0.3025E+02  0.1424E+02  0.1386E+03  0.1316E+03
     -6.894  0.3467E+02  0.2941E+02  0.1469E+03  0.1387E+03
     -6.654  0.2113E+02  0.2658E+02  0.1520E+03  0.1451E+03
     -6.413  0.1253E-04  0.2880E+02  0.1520E+03  0.1520E+03
     -6.172  0.0000E+00  0.4260E-01  0.1520E+03  0.1520E+03
     -5.931  0.0000E+00  0.0000E+00  0.1520E+03  0.1520E+03
     -5.690  0.0000E+00  0.0000E+00  0.1520E+03  0.1520E+03
     -5.449  0.0000E+00  0.0000E+00  0.1520E+03  0.1520E+03
     -5.208  0.0000E+00  0.0000E+00  0.1520E+03  0.1520E+03
     -4.968  0.0000E+00  0.0000E+00  0.1520E+03  0.1520E+03
     -4.727  0.0000E+00  0.0000E+00  0.1520E+03  0.1520E+03
     -4.486  0.0000E+00  0.0000E+00  0.1520E+03  0.1520E+03
     -4.245  0.0000E+00  0.0000E+00  0.1520E+03  0.1520E+03
     -4.004  0.0000E+00  0.0000E+00  0.1520E+03  0.1520E+03
     -3.763  0.0000E+00  0.0000E+00  0.1520E+03  0.1520E+03
     -3.523  0.0000E+00  0.0000E+00  0.1520E+03  0.1520E+03
     -3.282  0.0000E+00  0.0000E+00  0.1520E+03  0.1520E+03
     -3.041  0.0000E+00  0.0000E+00  0.1520E+03  0.1520E+03
     -2.800  0.0000E+00  0.0000E+00  0.1520E+03  0.1520E+03
     -2.559  0.0000E+00  0.0000E+00  0.1520E+03  0.1520E+03
     -2.318  0.0000E+00  0.0000E+00  0.1520E+03  0.1520E+03
     -2.078  0.4276E-04  0.0000E+00  0.1520E+03  0.1520E+03
     -1.837  0.1649E+02  0.0000E+00  0.1560E+03  0.1520E+03
     -1.596  0.1937E+02  0.0000E+00  0.1606E+03  0.1520E+03
     -1.355  0.1465E+02  0.0000E+00  0.1642E+03  0.1520E+03
     -1.114  0.1727E+02  0.0000E+00  0.1683E+03  0.1520E+03
     -0.873  0.4643E+02  0.0000E+00  0.1795E+03  0.1520E+03
     -0.633  0.5909E+02  0.1680E-05  0.1937E+03  0.1520E+03
     -0.392  0.3870E+02  0.4495E+01  0.2031E+03  0.1531E+03
     -0.151  0.6838E+02  0.2032E+02  0.2195E+03  0.1580E+03
      0.090  0.7353E+02  0.1225E+02  0.2372E+03  0.1609E+03
      0.331  0.7763E+02  0.1874E+02  0.2559E+03  0.1654E+03
      0.572  0.6999E+02  0.2964E+02  0.2728E+03  0.1726E+03
      0.812  0.5483E+02  0.3937E+02  0.2860E+03  0.1821E+03
      1.053  0.3633E+02  0.3730E+02  0.2947E+03  0.1910E+03
      1.294  0.3072E+02  0.3090E+02  0.3021E+03  0.1985E+03
      1.535  0.4505E+02  0.2081E+02  0.3130E+03  0.2035E+03
      1.776  0.4274E+02  0.2882E+02  0.3233E+03  0.2104E+03
      2.017  0.6907E+02  0.3725E+02  0.3399E+03  0.2194E+03
      2.257  0.5707E+02  0.2719E+02  0.3537E+03  0.2260E+03
      2.498  0.2700E+02  0.2708E+02  0.3602E+03  0.2325E+03
      2.739  0.4279E+02  0.3117E+02  0.3705E+03  0.2400E+03
      2.980  0.2945E+02  0.4456E+02  0.3776E+03  0.2507E+03
      3.221  0.8718E+01  0.4546E+02  0.3797E+03  0.2617E+03
      3.462  0.2842E+02  0.3156E+02  0.3865E+03  0.2693E+03
      3.703  0.2691E+02  0.1223E+02  0.3930E+03  0.2722E+03
      3.943  0.3109E+02  0.1820E+02  0.4005E+03  0.2766E+03
      4.184  0.3591E+02  0.5222E+02  0.4091E+03  0.2892E+03
      4.425  0.3637E+02  0.4530E+02  0.4179E+03  0.3001E+03
      4.666  0.3008E+02  0.1625E+02  0.4251E+03  0.3040E+03
      4.907  0.2566E+02  0.3254E-02  0.4313E+03  0.3040E+03
      5.148  0.2867E+01  0.0000E+00  0.4320E+03  0.3040E+03
      5.388  0.0000E+00  0.0000E+00  0.4320E+03  0.3040E+03
      5.629  0.0000E+00  0.0000E+00  0.4320E+03  0.3040E+03
      5.870  0.0000E+00  0.0000E+00  0.4320E+03  0.3040E+03
      6.111  0.0000E+00  0.8086E-09  0.4320E+03  0.3040E+03
      6.352  0.0000E+00  0.4278E+00  0.4320E+03  0.3041E+03
      6.593  0.0000E+00  0.4210E+01  0.4320E+03  0.3051E+03
      6.833  0.0000E+00  0.7987E+01  0.4320E+03  0.3070E+03
      7.074  0.1955E-14  0.1972E+02  0.4320E+03  0.3118E+03
      7.315  0.3223E-01  0.4450E+02  0.4320E+03  0.3225E+03
      7.556  0.1216E+00  0.5375E+02  0.4320E+03  0.3355E+03
      7.797  0.2748E+00  0.6306E+02  0.4321E+03  0.3506E+03
      8.038  0.7140E+00  0.6617E+02  0.4323E+03  0.3666E+03
      8.278  0.2203E+01  0.7034E+02  0.4328E+03  0.3835E+03
      8.519  0.2653E+01  0.5879E+02  0.4334E+03  0.3977E+03
      8.760  0.8957E+01  0.5880E+02  0.4356E+03  0.4118E+03
      9.001  0.1259E+02  0.4727E+02  0.4386E+03  0.4232E+03
      9.242  0.1314E+02  0.2944E+02  0.4418E+03  0.4303E+03
      9.483  0.1811E+02  0.8699E+01  0.4462E+03  0.4324E+03
      9.723  0.1617E+02  0.3129E+01  0.4501E+03  0.4332E+03
      9.964  0.1574E+02  0.8425E+01  0.4538E+03  0.4352E+03
     10.205  0.2248E+02  0.1880E+02  0.4593E+03  0.4397E+03
     10.446  0.1486E+02  0.1796E+02  0.4628E+03  0.4440E+03
     10.687  0.1526E+02  0.1728E+02  0.4665E+03  0.4482E+03
     10.928  0.1330E+02  0.2756E+02  0.4697E+03  0.4548E+03
     11.169  0.2068E+02  0.1895E+02  0.4747E+03  0.4594E+03
     11.409  0.2495E+02  0.2407E+02  0.4807E+03  0.4652E+03
     11.650  0.2707E+02  0.1456E+02  0.4872E+03  0.4687E+03
     11.891  0.2489E+02  0.1387E+02  0.4932E+03  0.4720E+03
     12.132  0.3324E+02  0.1624E+02  0.5012E+03  0.4760E+03
     12.373  0.1984E+02  0.3709E+02  0.5060E+03  0.4849E+03
     12.614  0.2309E+02  0.3253E+02  0.5116E+03  0.4927E+03
     12.854  0.2150E+02  0.2952E+02  0.5167E+03  0.4998E+03
     13.095  0.2008E+02  0.2020E+02  0.5216E+03  0.5047E+03
     13.336  0.2427E+02  0.2242E+02  0.5274E+03  0.5101E+03
     13.577  0.2396E+02  0.2726E+02  0.5332E+03  0.5167E+03
     13.818  0.1335E+02  0.2373E+02  0.5364E+03  0.5224E+03
     14.059  0.6591E+01  0.2619E+02  0.5380E+03  0.5287E+03
     14.299  0.2248E-02  0.1919E+02  0.5380E+03  0.5333E+03
     14.540  0.0000E+00  0.1648E+02  0.5380E+03  0.5373E+03
     14.781  0.0000E+00  0.2989E+01  0.5380E+03  0.5380E+03
     15.022  0.0000E+00  0.2243E-05  0.5380E+03  0.5380E+03
     15.263  0.0000E+00  0.0000E+00  0.5380E+03  0.5380E+03
     15.504  0.0000E+00  0.0000E+00  0.5380E+03  0.5380E+03
     15.744  0.0000E+00  0.0000E+00  0.5380E+03  0.5380E+03
     15.985  0.0000E+00  0.0000E+00  0.5380E+03  0.5380E+03
     16.226  0.0000E+00  0.0000E+00  0.5380E+03  0.5380E+03
     16.467  0.0000E+00  0.0000E+00  0.5380E+03  0.5380E+03
     16.708  0.0000E+00  0.0000E+00  0.5380E+03  0.5380E+03
     16.949  0.0000E+00  0.0000E+00  0.5380E+03  0.5380E+03
     17.189  0.0000E+00  0.0000E+00  0.5380E+03  0.5380E+03
     17.430  0.0000E+00  0.0000E+00  0.5380E+03  0.5380E+03
     17.671  0.0000E+00  0.0000E+00  0.5380E+03  0.5380E+03
     17.912  0.0000E+00  0.0000E+00  0.5380E+03  0.5380E+03
