  224  224    1    2
  0.1357572E+02  0.1537960E-08  0.1537962E-08  0.1395899E-08  0.5000000E-15
  1.000000000000000E-004
  CAR 
 unknown system                          
   1664      8   1208
 
  0.0000000E+00  0.0000000E+00  0.0000000E+00  0.1250000E+00
    1      -51.142910    -46.392173   1.000000   1.000000
    2      -51.142721    -46.391815   1.000000   1.000000
    3      -51.142516    -46.391561   1.000000   1.000000
    4      -51.142021    -46.391003   1.000000   1.000000
    5      -51.141889    -46.390953   1.000000   1.000000
    6      -51.141650    -46.390883   1.000000   1.000000
    7      -51.141482    -46.390674   1.000000   1.000000
    8      -51.141364    -46.390608   1.000000   1.000000
    9      -51.141268    -46.390477   1.000000   1.000000
   10      -51.141231    -46.390438   1.000000   1.000000
   11      -51.141164    -46.390340   1.000000   1.000000
   12      -51.141092    -46.390267   1.000000   1.000000
   13      -51.141073    -46.390232   1.000000   1.000000
   14      -51.140959    -46.390075   1.000000   1.000000
   15      -51.140921    -46.390055   1.000000   1.000000
   16      -51.140888    -46.389987   1.000000   1.000000
   17      -51.140853    -46.389955   1.000000   1.000000
   18      -51.140829    -46.389873   1.000000   1.000000
   19      -51.140826    -46.389849   1.000000   1.000000
   20      -51.140773    -46.389746   1.000000   1.000000
   21      -51.140706    -46.389689   1.000000   1.000000
   22      -51.140669    -46.389645   1.000000   1.000000
   23      -51.140613    -46.389617   1.000000   1.000000
   24      -51.140573    -46.389597   1.000000   1.000000
   25      -51.140557    -46.389536   1.000000   1.000000
   26      -51.140522    -46.389524   1.000000   1.000000
   27      -51.140502    -46.389465   1.000000   1.000000
   28      -51.140451    -46.389446   1.000000   1.000000
   29      -51.140431    -46.389363   1.000000   1.000000
   30      -51.140360    -46.389307   1.000000   1.000000
   31      -51.140352    -46.389270   1.000000   1.000000
   32      -51.140297    -46.389242   1.000000   1.000000
   33      -51.140277    -46.389183   1.000000   1.000000
   34      -51.140247    -46.389113   1.000000   1.000000
   35      -51.140243    -46.389098   1.000000   1.000000
   36      -51.140222    -46.389039   1.000000   1.000000
   37      -51.140194    -46.388970   1.000000   1.000000
   38      -51.140159    -46.388930   1.000000   1.000000
   39      -51.140141    -46.388899   1.000000   1.000000
   40      -51.140125    -46.388873   1.000000   1.000000
   41      -51.140113    -46.388864   1.000000   1.000000
   42      -51.140022    -46.388834   1.000000   1.000000
   43      -51.139963    -46.388743   1.000000   1.000000
   44      -51.139945    -46.388693   1.000000   1.000000
   45      -51.139882    -46.388690   1.000000   1.000000
   46      -51.139871    -46.388597   1.000000   1.000000
   47      -51.139849    -46.388556   1.000000   1.000000
   48      -51.139805    -46.388515   1.000000   1.000000
   49      -51.139752    -46.388481   1.000000   1.000000
   50      -51.139724    -46.388418   1.000000   1.000000
   51      -51.139692    -46.388391   1.000000   1.000000
   52      -51.139668    -46.388338   1.000000   1.000000
   53      -51.139616    -46.388301   1.000000   1.000000
   54      -51.139579    -46.388235   1.000000   1.000000
   55      -51.139539    -46.388152   1.000000   1.000000
   56      -51.139465    -46.388076   1.000000   1.000000
   57      -51.139344    -46.387979   1.000000   1.000000
   58      -51.139300    -46.387924   1.000000   1.000000
   59      -51.139124    -46.387702   1.000000   1.000000
   60      -51.138653    -46.387426   1.000000   1.000000
   61      -51.138485    -46.387321   1.000000   1.000000
   62      -51.138129    -46.386881   1.000000   1.000000
   63      -51.137886    -46.386602   1.000000   1.000000
   64      -51.137779    -46.386381   1.000000   1.000000
   65      -49.649635    -45.930548   1.000000   1.000000
   66      -49.649415    -45.930307   1.000000   1.000000
   67      -49.648692    -45.930134   1.000000   1.000000
   68      -49.648410    -45.929753   1.000000   1.000000
   69      -49.647807    -45.929691   1.000000   1.000000
   70      -49.647753    -45.929422   1.000000   1.000000
   71      -49.647681    -45.929263   1.000000   1.000000
   72      -49.647625    -45.929225   1.000000   1.000000
   73      -49.647528    -45.929162   1.000000   1.000000
   74      -49.647488    -45.928998   1.000000   1.000000
   75      -49.647427    -45.928939   1.000000   1.000000
   76      -49.647359    -45.928861   1.000000   1.000000
   77      -49.647353    -45.928845   1.000000   1.000000
   78      -49.647320    -45.928746   1.000000   1.000000
   79      -49.647296    -45.928716   1.000000   1.000000
   80      -49.647274    -45.928710   1.000000   1.000000
   81      -49.647264    -45.928697   1.000000   1.000000
   82      -49.647196    -45.928591   1.000000   1.000000
   83      -49.647178    -45.928563   1.000000   1.000000
   84      -49.647104    -45.928524   1.000000   1.000000
   85      -49.647084    -45.928512   1.000000   1.000000
   86      -49.647057    -45.928498   1.000000   1.000000
   87      -49.647024    -45.928462   1.000000   1.000000
   88      -49.647004    -45.928406   1.000000   1.000000
   89      -49.646989    -45.928401   1.000000   1.000000
   90      -49.646961    -45.928375   1.000000   1.000000
   91      -49.646950    -45.928333   1.000000   1.000000
   92      -49.646917    -45.928321   1.000000   1.000000
   93      -49.646879    -45.928290   1.000000   1.000000
   94      -49.646850    -45.928261   1.000000   1.000000
   95      -49.646829    -45.928240   1.000000   1.000000
   96      -49.646800    -45.928210   1.000000   1.000000
   97      -49.646719    -45.928196   1.000000   1.000000
   98      -49.646699    -45.928097   1.000000   1.000000
   99      -49.646645    -45.928054   1.000000   1.000000
  100      -49.646640    -45.928012   1.000000   1.000000
  101      -49.646589    -45.927997   1.000000   1.000000
  102      -49.646510    -45.927984   1.000000   1.000000
  103      -49.646499    -45.927909   1.000000   1.000000
  104      -49.646446    -45.927888   1.000000   1.000000
  105      -49.646386    -45.927881   1.000000   1.000000
  106      -49.646376    -45.927848   1.000000   1.000000
  107      -49.646357    -45.927822   1.000000   1.000000
  108      -49.646335    -45.927820   1.000000   1.000000
  109      -49.646254    -45.927804   1.000000   1.000000
  110      -49.646225    -45.927799   1.000000   1.000000
  111      -49.646215    -45.927687   1.000000   1.000000
  112      -49.646145    -45.927528   1.000000   1.000000
  113      -49.646136    -45.927498   1.000000   1.000000
  114      -49.646089    -45.927486   1.000000   1.000000
  115      -49.646051    -45.927421   1.000000   1.000000
  116      -49.646010    -45.927411   1.000000   1.000000
  117      -49.645902    -45.927408   1.000000   1.000000
  118      -49.645882    -45.927387   1.000000   1.000000
  119      -49.645870    -45.927374   1.000000   1.000000
  120      -49.645858    -45.927350   1.000000   1.000000
  121      -49.645821    -45.927334   1.000000   1.000000
  122      -49.645810    -45.927315   1.000000   1.000000
  123      -49.645744    -45.927288   1.000000   1.000000
  124      -49.645733    -45.927276   1.000000   1.000000
  125      -49.645699    -45.927250   1.000000   1.000000
  126      -49.645662    -45.927185   1.000000   1.000000
  127      -49.645619    -45.927135   1.000000   1.000000
  128      -49.645583    -45.927111   1.000000   1.000000
  129      -49.645552    -45.927104   1.000000   1.000000
  130      -49.645491    -45.927095   1.000000   1.000000
  131      -49.645484    -45.927085   1.000000   1.000000
  132      -49.645468    -45.927047   1.000000   1.000000
  133      -49.645419    -45.927026   1.000000   1.000000
  134      -49.645402    -45.927007   1.000000   1.000000
  135      -49.645373    -45.926981   1.000000   1.000000
  136      -49.645328    -45.926962   1.000000   1.000000
  137      -49.645303    -45.926926   1.000000   1.000000
  138      -49.645294    -45.926919   1.000000   1.000000
  139      -49.645293    -45.926911   1.000000   1.000000
  140      -49.645237    -45.926872   1.000000   1.000000
  141      -49.645220    -45.926829   1.000000   1.000000
  142      -49.645180    -45.926803   1.000000   1.000000
  143      -49.645138    -45.926755   1.000000   1.000000
  144      -49.645129    -45.926723   1.000000   1.000000
  145      -49.645112    -45.926694   1.000000   1.000000
  146      -49.645082    -45.926682   1.000000   1.000000
  147      -49.645059    -45.926648   1.000000   1.000000
  148      -49.645016    -45.926633   1.000000   1.000000
  149      -49.645004    -45.926593   1.000000   1.000000
  150      -49.644968    -45.926566   1.000000   1.000000
  151      -49.644927    -45.926555   1.000000   1.000000
  152      -49.644918    -45.926539   1.000000   1.000000
  153      -49.644889    -45.926530   1.000000   1.000000
  154      -49.644830    -45.926491   1.000000   1.000000
  155      -49.644766    -45.926482   1.000000   1.000000
  156      -49.644734    -45.926477   1.000000   1.000000
  157      -49.644709    -45.926454   1.000000   1.000000
  158      -49.644684    -45.926414   1.000000   1.000000
  159      -49.644644    -45.926407   1.000000   1.000000
  160      -49.644575    -45.926364   1.000000   1.000000
  161      -49.644537    -45.926351   1.000000   1.000000
  162      -49.644489    -45.926327   1.000000   1.000000
  163      -49.644485    -45.926307   1.000000   1.000000
  164      -49.644452    -45.926268   1.000000   1.000000
  165      -49.644447    -45.926257   1.000000   1.000000
  166      -49.644413    -45.926209   1.000000   1.000000
  167      -49.644367    -45.926156   1.000000   1.000000
  168      -49.644312    -45.926141   1.000000   1.000000
  169      -49.644282    -45.926099   1.000000   1.000000
  170      -49.644228    -45.926089   1.000000   1.000000
  171      -49.644182    -45.926062   1.000000   1.000000
  172      -49.644162    -45.925989   1.000000   1.000000
  173      -49.644110    -45.925961   1.000000   1.000000
  174      -49.644067    -45.925945   1.000000   1.000000
  175      -49.644048    -45.925931   1.000000   1.000000
  176      -49.643979    -45.925837   1.000000   1.000000
  177      -49.643954    -45.925769   1.000000   1.000000
  178      -49.643946    -45.925738   1.000000   1.000000
  179      -49.643931    -45.925636   1.000000   1.000000
  180      -49.643900    -45.925634   1.000000   1.000000
  181      -49.643760    -45.925588   1.000000   1.000000
  182      -49.643754    -45.925579   1.000000   1.000000
  183      -49.643620    -45.925543   1.000000   1.000000
  184      -49.643542    -45.925421   1.000000   1.000000
  185      -49.643485    -45.925237   1.000000   1.000000
  186      -49.643392    -45.924984   1.000000   1.000000
  187      -49.643336    -45.924911   1.000000   1.000000
  188      -49.643314    -45.924822   1.000000   1.000000
  189      -49.642930    -45.924731   1.000000   1.000000
  190      -49.642514    -45.924333   1.000000   1.000000
  191      -49.641991    -45.924248   1.000000   1.000000
  192      -49.641979    -45.923812   1.000000   1.000000
  193      -39.641191    -39.640275   1.000000   1.000000
  194      -39.641059    -39.640142   1.000000   1.000000
  195      -39.634090    -39.633224   1.000000   1.000000
  196      -39.633536    -39.632664   1.000000   1.000000
  197      -39.633473    -39.632601   1.000000   1.000000
  198      -39.633421    -39.632548   1.000000   1.000000
  199      -39.633420    -39.632548   1.000000   1.000000
  200      -39.633396    -39.632523   1.000000   1.000000
  201      -39.633335    -39.632463   1.000000   1.000000
  202      -39.632871    -39.631997   1.000000   1.000000
  203      -39.628151    -39.627318   1.000000   1.000000
  204      -39.627926    -39.627087   1.000000   1.000000
  205      -39.627832    -39.626995   1.000000   1.000000
  206      -39.627774    -39.626936   1.000000   1.000000
  207      -39.627755    -39.626918   1.000000   1.000000
  208      -39.627677    -39.626839   1.000000   1.000000
  209      -39.627550    -39.626713   1.000000   1.000000
  210      -39.627306    -39.626464   1.000000   1.000000
  211      -39.616903    -39.616143   1.000000   1.000000
  212      -39.616628    -39.615855   1.000000   1.000000
  213      -39.616126    -39.615350   1.000000   1.000000
  214      -39.615977    -39.615200   1.000000   1.000000
  215      -39.615958    -39.615180   1.000000   1.000000
  216      -39.615719    -39.614941   1.000000   1.000000
  217      -39.615678    -39.614901   1.000000   1.000000
  218      -39.615603    -39.614823   1.000000   1.000000
  219      -39.615537    -39.614766   1.000000   1.000000
  220      -39.615372    -39.614602   1.000000   1.000000
  221      -39.615325    -39.614558   1.000000   1.000000
  222      -39.615227    -39.614458   1.000000   1.000000
  223      -39.615166    -39.614399   1.000000   1.000000
  224      -39.615158    -39.614391   1.000000   1.000000
  225      -39.615156    -39.614389   1.000000   1.000000
  226      -39.615147    -39.614380   1.000000   1.000000
  227      -39.615005    -39.614236   1.000000   1.000000
  228      -39.614989    -39.614220   1.000000   1.000000
  229      -39.614961    -39.614194   1.000000   1.000000
  230      -39.614944    -39.614176   1.000000   1.000000
  231      -39.614923    -39.614155   1.000000   1.000000
  232      -39.614897    -39.614128   1.000000   1.000000
  233      -39.614834    -39.614066   1.000000   1.000000
  234      -39.614423    -39.613656   1.000000   1.000000
  235      -39.614324    -39.613566   1.000000   1.000000
  236      -39.614157    -39.613398   1.000000   1.000000
  237      -39.613769    -39.613007   1.000000   1.000000
  238      -39.613012    -39.612237   1.000000   1.000000
  239      -39.604300    -39.603585   1.000000   1.000000
  240      -39.603979    -39.603260   1.000000   1.000000
  241      -39.603908    -39.603189   1.000000   1.000000
  242      -39.603823    -39.603104   1.000000   1.000000
  243      -39.603806    -39.603087   1.000000   1.000000
  244      -39.603756    -39.603037   1.000000   1.000000
  245      -39.603674    -39.602955   1.000000   1.000000
  246      -39.603444    -39.602720   1.000000   1.000000
  247      -39.600042    -39.599338   1.000000   1.000000
  248      -39.599629    -39.598924   1.000000   1.000000
  249      -39.599566    -39.598860   1.000000   1.000000
  250      -39.599546    -39.598840   1.000000   1.000000
  251      -39.599525    -39.598819   1.000000   1.000000
  252      -39.599492    -39.598786   1.000000   1.000000
  253      -39.599372    -39.598666   1.000000   1.000000
  254      -39.598835    -39.598122   1.000000   1.000000
  255      -39.593290    -39.592608   1.000000   1.000000
  256      -39.593102    -39.592417   1.000000   1.000000
  257      -12.747221    -12.467751   1.000000   1.000000
  258      -12.747199    -12.467728   1.000000   1.000000
  259      -12.719674    -12.439925   1.000000   1.000000
  260      -12.719427    -12.439663   1.000000   1.000000
  261      -12.719362    -12.439611   1.000000   1.000000
  262      -12.719341    -12.439589   1.000000   1.000000
  263      -12.719334    -12.439582   1.000000   1.000000
  264      -12.719320    -12.439566   1.000000   1.000000
  265      -12.719228    -12.439489   1.000000   1.000000
  266      -12.718996    -12.439242   1.000000   1.000000
  267      -12.697186    -12.417013   1.000000   1.000000
  268      -12.697183    -12.417011   1.000000   1.000000
  269      -12.694783    -12.415173   1.000000   1.000000
  270      -12.694765    -12.415157   1.000000   1.000000
  271      -12.694757    -12.415150   1.000000   1.000000
  272      -12.694751    -12.415143   1.000000   1.000000
  273      -12.692395    -12.413327   1.000000   1.000000
  274      -12.692358    -12.413309   1.000000   1.000000
  275      -12.691270    -12.411240   1.000000   1.000000
  276      -12.691256    -12.411224   1.000000   1.000000
  277      -12.691246    -12.411213   1.000000   1.000000
  278      -12.691154    -12.411141   1.000000   1.000000
  279      -12.672870    -12.392849   1.000000   1.000000
  280      -12.672694    -12.392684   1.000000   1.000000
  281      -12.672639    -12.392627   1.000000   1.000000
  282      -12.672476    -12.392461   1.000000   1.000000
  283      -12.667795    -12.388896   1.000000   1.000000
  284      -12.667627    -12.388741   1.000000   1.000000
  285      -12.667571    -12.388685   1.000000   1.000000
  286      -12.667402    -12.388509   1.000000   1.000000
  287      -12.654520    -12.374567   1.000000   1.000000
  288      -12.643747    -12.366022   1.000000   1.000000
  289       -7.800034     -7.599035   1.000000   1.000000
  290       -7.748243     -7.551521   1.000000   1.000000
  291       -7.506277     -7.319943   1.000000   1.000000
  292       -7.505383     -7.319128   1.000000   1.000000
  293       -7.505342     -7.319087   1.000000   1.000000
  294       -7.504706     -7.318394   1.000000   1.000000
  295       -7.501608     -7.309530   1.000000   1.000000
  296       -7.500964     -7.308819   1.000000   1.000000
  297       -7.500912     -7.308771   1.000000   1.000000
  298       -7.500051     -7.307981   1.000000   1.000000
  299       -7.315215     -7.117761   1.000000   1.000000
  300       -7.315150     -7.117683   1.000000   1.000000
  301       -7.296883     -7.093618   1.000000   1.000000
  302       -7.296830     -7.093547   1.000000   1.000000
  303       -7.296795     -7.093511   1.000000   1.000000
  304       -7.296745     -7.093449   1.000000   1.000000
  305       -7.269258     -7.061970   1.000000   1.000000
  306       -7.269187     -7.061882   1.000000   1.000000
  307       -7.088763     -6.893891   1.000000   1.000000
  308       -7.084708     -6.893876   1.000000   1.000000
  309       -7.084668     -6.893845   1.000000   1.000000
  310       -7.084638     -6.893796   1.000000   1.000000
  311       -7.084530     -6.796770   1.000000   1.000000
  312       -7.046589     -6.783863   1.000000   1.000000
  313       -7.001314     -6.768863   1.000000   1.000000
  314       -6.999967     -6.767981   1.000000   1.000000
  315       -6.999893     -6.767919   1.000000   1.000000
  316       -6.999782     -6.767871   1.000000   1.000000
  317       -6.999764     -6.766875   1.000000   1.000000
  318       -6.999743     -6.766217   1.000000   1.000000
  319       -6.999625     -6.766137   1.000000   1.000000
  320       -6.998502     -6.766085   1.000000   1.000000
  321       -6.994862     -6.766050   1.000000   1.000000
  322       -6.994162     -6.766035   1.000000   1.000000
  323       -6.994024     -6.765916   1.000000   1.000000
  324       -6.993357     -6.764493   1.000000   1.000000
  325       -6.955827     -6.745580   1.000000   1.000000
  326       -6.955798     -6.744885   1.000000   1.000000
  327       -6.955760     -6.744837   1.000000   1.000000
  328       -6.955729     -6.744103   1.000000   1.000000
  329       -6.948342     -6.697497   1.000000   1.000000
  330       -6.948261     -6.697475   1.000000   1.000000
  331       -6.929344     -6.689784   1.000000   1.000000
  332       -6.928660     -6.689088   1.000000   1.000000
  333       -6.928595     -6.689046   1.000000   1.000000
  334       -6.927802     -6.688276   1.000000   1.000000
  335       -6.911318     -6.640763   1.000000   1.000000
  336       -6.911282     -6.639693   1.000000   1.000000
  337       -6.885741     -6.639203   1.000000   1.000000
  338       -6.885723     -6.639068   1.000000   1.000000
  339       -6.885642     -6.639056   1.000000   1.000000
  340       -6.885637     -6.638998   1.000000   1.000000
  341       -6.878094     -6.638921   1.000000   1.000000
  342       -6.876954     -6.638607   1.000000   1.000000
  343       -6.876840     -6.638366   1.000000   1.000000
  344       -6.876805     -6.638361   1.000000   1.000000
  345       -6.876784     -6.637616   1.000000   1.000000
  346       -6.876680     -6.637046   1.000000   1.000000
  347       -6.876641     -6.628067   1.000000   1.000000
  348       -6.875246     -6.627883   1.000000   1.000000
  349       -6.832577     -6.586613   1.000000   1.000000
  350       -6.832547     -6.586591   1.000000   1.000000
  351       -6.794267     -6.499089   1.000000   1.000000
  352       -6.794205     -6.499047   1.000000   1.000000
  353       -1.525517     -0.414590   1.000000   1.000000
  354       -1.467945     -0.414570   1.000000   1.000000
  355       -1.467711     -0.414461   1.000000   1.000000
  356       -1.467566     -0.414447   1.000000   1.000000
  357       -1.467488      0.026126   1.000000   1.000000
  358       -1.460335      0.026348   1.000000   1.000000
  359       -1.460322      0.026435   1.000000   1.000000
  360       -1.460170      0.026508   1.000000   1.000000
  361       -1.460146      0.037561   1.000000   1.000000
  362       -1.421395      0.037815   1.000000   1.000000
  363       -1.421324      0.037964   1.000000   1.000000
  364       -1.382806      0.038014   1.000000   1.000000
  365       -1.382793      0.038029   1.000000   1.000000
  366       -1.382756      0.038095   1.000000   1.000000
  367       -1.382738      0.038270   1.000000   1.000000
  368       -1.332825      0.038688   1.000000   1.000000
  369       -1.332774      0.102883   1.000000   1.000000
  370       -1.332560      0.102921   1.000000   1.000000
  371       -1.332495      0.207530   1.000000   1.000000
  372       -1.332460      0.207535   1.000000   1.000000
  373       -1.332428      0.207550   1.000000   1.000000
  374       -1.332231      0.207565   1.000000   1.000000
  375       -1.332183      0.304163   1.000000   1.000000
  376       -1.292736      0.392388   1.000000   1.000000
  377       -1.292527      0.392556   1.000000   1.000000
  378       -1.292360      0.392671   1.000000   1.000000
  379       -1.292263      0.392765   1.000000   1.000000
  380       -1.256791      0.490879   1.000000   1.000000
  381       -1.256781      0.490897   1.000000   1.000000
  382       -1.232202      0.497320   1.000000   1.000000
  383       -1.232125      0.497705   1.000000   1.000000
  384       -1.220379      0.497741   1.000000   1.000000
  385       -0.822789      0.498010   1.000000   1.000000
  386       -0.822705      0.510644   1.000000   1.000000
  387       -0.822668      0.510693   1.000000   1.000000
  388       -0.822625      0.531172   1.000000   1.000000
  389       -0.722695      0.531205   1.000000   1.000000
  390       -0.722613      0.531288   1.000000   1.000000
  391       -0.699188      0.531316   1.000000   1.000000
  392       -0.699080      0.573479   1.000000   1.000000
  393       -0.698997      0.574169   1.000000   1.000000
  394       -0.698858      0.574305   1.000000   1.000000
  395       -0.688514      0.574356   1.000000   1.000000
  396       -0.688372      0.574399   1.000000   1.000000
  397       -0.688199      0.574486   1.000000   1.000000
  398       -0.688161      0.574554   1.000000   1.000000
  399       -0.666819      0.575350   1.000000   1.000000
  400       -0.666584      0.638612   1.000000   1.000000
  401       -0.666467      0.666294   1.000000   1.000000
  402       -0.666351      0.666347   1.000000   1.000000
  403       -0.652034      0.733082   1.000000   1.000000
  404       -0.651862      0.733102   1.000000   1.000000
  405       -0.651756      0.931368   1.000000   1.000000
  406       -0.651715      0.932541   1.000000   1.000000
  407       -0.589439      0.935601   1.000000   1.000000
  408       -0.589384      0.935643   1.000000   1.000000
  409       -0.576600      0.948805   1.000000   1.000000
  410       -0.576574      0.948867   1.000000   1.000000
  411       -0.576494      0.949005   1.000000   1.000000
  412       -0.576487      0.949112   1.000000   1.000000
  413       -0.553437      0.986154   1.000000   1.000000
  414       -0.553358      0.986200   1.000000   1.000000
  415       -0.553190      0.986211   1.000000   1.000000
  416       -0.552876      0.986263   1.000000   1.000000
  417       -0.497626      0.992780   1.000000   1.000000
  418       -0.496873      0.992973   1.000000   1.000000
  419       -0.472904      1.008872   1.000000   1.000000
  420       -0.472680      1.008923   1.000000   1.000000
  421       -0.461666      1.008951   1.000000   1.000000
  422       -0.461552      1.009016   1.000000   1.000000
  423       -0.461291      1.018476   1.000000   1.000000
  424       -0.461065      1.049076   1.000000   1.000000
  425       -0.459773      1.049099   1.000000   1.000000
  426       -0.459689      1.051607   1.000000   1.000000
  427       -0.459475      1.051622   1.000000   1.000000
  428       -0.459246      1.051876   1.000000   1.000000
  429       -0.410040      1.051902   1.000000   1.000000
  430       -0.409971      1.078555   1.000000   1.000000
  431       -0.407601      1.078725   1.000000   1.000000
  432       -0.407581      1.078873   1.000000   1.000000
  433       -0.407498      1.078939   1.000000   1.000000
  434       -0.407382      1.079823   1.000000   1.000000
  435       -0.407356      1.079853   1.000000   1.000000
  436       -0.407329      1.079928   1.000000   1.000000
  437       -0.383334      1.080070   1.000000   1.000000
  438       -0.383228      1.192850   1.000000   1.000000
  439       -0.378174      1.192874   1.000000   1.000000
  440       -0.369220      1.376456   1.000000   1.000000
  441       -0.368872      1.390348   1.000000   1.000000
  442       -0.368791      1.391104   1.000000   1.000000
  443       -0.368727      1.391200   1.000000   1.000000
  444       -0.368682      1.391213   1.000000   1.000000
  445       -0.368627      1.391603   1.000000   1.000000
  446       -0.368491      1.437310   1.000000   1.000000
  447       -0.368213      1.450200   1.000000   1.000000
  448       -0.353539      1.526330   1.000000   1.000000
  449       -0.353521      1.526408   1.000000   1.000000
  450       -0.349051      1.526432   1.000000   1.000000
  451       -0.341782      1.526496   1.000000   1.000000
  452       -0.335882      1.528850   1.000000   1.000000
  453       -0.335775      1.528957   1.000000   1.000000
  454       -0.335385      1.529021   1.000000   1.000000
  455       -0.335333      1.529086   1.000000   1.000000
  456       -0.334242      1.558253   1.000000   1.000000
  457       -0.334189      1.558296   1.000000   1.000000
  458       -0.334059      1.558331   1.000000   1.000000
  459       -0.333964      1.558362   1.000000   1.000000
  460       -0.324347      1.566388   1.000000   1.000000
  461       -0.324211      1.566782   1.000000   1.000000
  462       -0.323854      1.566885   1.000000   1.000000
  463       -0.323825      1.567096   1.000000   1.000000
  464       -0.321704      1.567970   1.000000   1.000000
  465       -0.321485      1.568274   1.000000   1.000000
  466       -0.321188      1.568480   1.000000   1.000000
  467       -0.321186      1.568731   1.000000   1.000000
  468       -0.303828      1.586601   1.000000   1.000000
  469       -0.295900      1.586678   1.000000   1.000000
  470       -0.288074      1.695671   1.000000   1.000000
  471       -0.287881      1.695761   1.000000   1.000000
  472       -0.287766      1.740834   1.000000   1.000000
  473       -0.287688      1.741028   1.000000   1.000000
  474       -0.280405      1.741210   1.000000   1.000000
  475       -0.280357      1.741380   1.000000   1.000000
  476       -0.275069      1.746856   1.000000   1.000000
  477       -0.275066      1.746860   1.000000   1.000000
  478       -0.274816      1.746893   1.000000   1.000000
  479       -0.274783      1.746896   1.000000   1.000000
  480       -0.241755      1.779032   1.000000   1.000000
  481       -0.241623      1.780596   1.000000   1.000000
  482       -0.241593      1.780662   1.000000   1.000000
  483       -0.241589      1.836824   1.000000   1.000000
  484       -0.241563      1.837026   1.000000   1.000000
  485       -0.241381      1.837088   1.000000   1.000000
  486       -0.241136      1.837376   1.000000   1.000000
  487       -0.241029      1.837723   1.000000   1.000000
  488       -0.207391      1.837762   1.000000   1.000000
  489       -0.207385      1.838434   1.000000   1.000000
  490       -0.199634      1.838766   1.000000   1.000000
  491       -0.199596      1.866212   1.000000   1.000000
  492       -0.199514      1.866415   1.000000   1.000000
  493       -0.199484      1.913258   1.000000   1.000000
  494       -0.194068      1.913423   1.000000   1.000000
  495       -0.193943      1.913526   1.000000   1.000000
  496       -0.163975      1.913556   1.000000   1.000000
  497       -0.163928      1.913608   1.000000   1.000000
  498       -0.163920      1.913648   1.000000   1.000000
  499       -0.163642      1.913707   1.000000   1.000000
  500       -0.156675      1.913781   1.000000   1.000000
  501       -0.156639      1.926954   1.000000   1.000000
  502       -0.156329      1.926999   1.000000   1.000000
  503       -0.155901      1.927036   1.000000   1.000000
  504       -0.139062      1.927138   1.000000   1.000000
  505       -0.139006      2.133221   1.000000   1.000000
  506       -0.138833      2.133273   1.000000   1.000000
  507       -0.138801      2.191256   1.000000   1.000000
  508       -0.091017      2.193184   1.000000   1.000000
  509       -0.090898      2.300399   1.000000   1.000000
  510       -0.082647      2.300856   1.000000   1.000000
  511       -0.082487      2.300970   1.000000   1.000000
  512       -0.082447      2.301348   1.000000   1.000000