 144 144   0   0
  0.1325381E+02  0.1546422E-08  0.1214491E-08  0.1054520E-08  0.5000000E-15
  1.000000000000000E-004
  CAR 
 unknown system                          
     17.00967307    -54.87307842  301      5.08911679      1.00000000
    -54.873  0.0000E+00  0.0000E+00  0.0000E+00  0.0000E+00
    -54.633  0.0000E+00  0.0000E+00  0.0000E+00  0.0000E+00
    -54.394  0.0000E+00  0.0000E+00  0.0000E+00  0.0000E+00
    -54.154  0.0000E+00  0.0000E+00  0.0000E+00  0.0000E+00
    -53.915  0.0000E+00  0.0000E+00  0.0000E+00  0.0000E+00
    -53.675  0.0000E+00  0.0000E+00  0.0000E+00  0.0000E+00
    -53.435  0.0000E+00  0.0000E+00  0.0000E+00  0.0000E+00
    -53.196  0.0000E+00  0.0000E+00  0.0000E+00  0.0000E+00
    -52.956  0.0000E+00  0.0000E+00  0.0000E+00  0.0000E+00
    -52.717  0.0000E+00  0.0000E+00  0.0000E+00  0.0000E+00
    -52.477  0.0000E+00  0.0000E+00  0.0000E+00  0.0000E+00
    -52.237  0.0000E+00  0.0000E+00  0.0000E+00  0.0000E+00
    -51.998  0.0000E+00  0.0000E+00  0.0000E+00  0.0000E+00
    -51.758  0.2754E-03  0.0000E+00  0.6599E-04  0.0000E+00
    -51.519  0.4975E+02  0.0000E+00  0.1192E+02  0.0000E+00
    -51.279  0.8554E+02  0.0000E+00  0.3242E+02  0.0000E+00
    -51.039  0.1496E+02  0.0000E+00  0.3600E+02  0.0000E+00
    -50.800  0.0000E+00  0.0000E+00  0.3600E+02  0.0000E+00
    -50.560  0.0000E+00  0.0000E+00  0.3600E+02  0.0000E+00
    -50.321  0.1005E-03  0.0000E+00  0.3600E+02  0.0000E+00
    -50.081  0.6607E+02  0.0000E+00  0.5183E+02  0.0000E+00
    -49.841  0.2081E+03  0.0000E+00  0.1017E+03  0.0000E+00
    -49.602  0.2637E+02  0.0000E+00  0.1080E+03  0.0000E+00
    -49.362  0.0000E+00  0.0000E+00  0.1080E+03  0.0000E+00
    -49.122  0.0000E+00  0.0000E+00  0.1080E+03  0.0000E+00
    -48.883  0.0000E+00  0.0000E+00  0.1080E+03  0.0000E+00
    -48.643  0.0000E+00  0.0000E+00  0.1080E+03  0.0000E+00
    -48.404  0.0000E+00  0.0000E+00  0.1080E+03  0.0000E+00
    -48.164  0.0000E+00  0.0000E+00  0.1080E+03  0.0000E+00
    -47.924  0.0000E+00  0.0000E+00  0.1080E+03  0.0000E+00
    -47.685  0.0000E+00  0.0000E+00  0.1080E+03  0.0000E+00
    -47.445  0.0000E+00  0.0000E+00  0.1080E+03  0.0000E+00
    -47.206  0.0000E+00  0.0000E+00  0.1080E+03  0.0000E+00
    -46.966  0.0000E+00  0.5547E-01  0.1080E+03  0.1329E-01
    -46.726  0.0000E+00  0.5083E+02  0.1080E+03  0.1219E+02
    -46.487  0.0000E+00  0.9514E+02  0.1080E+03  0.3499E+02
    -46.247  0.0000E+00  0.1445E+03  0.1080E+03  0.6960E+02
    -46.008  0.0000E+00  0.1602E+03  0.1080E+03  0.1080E+03
    -45.768  0.0000E+00  0.5531E-02  0.1080E+03  0.1080E+03
    -45.528  0.0000E+00  0.0000E+00  0.1080E+03  0.1080E+03
    -45.289  0.0000E+00  0.0000E+00  0.1080E+03  0.1080E+03
    -45.049  0.0000E+00  0.0000E+00  0.1080E+03  0.1080E+03
    -44.809  0.0000E+00  0.0000E+00  0.1080E+03  0.1080E+03
    -44.570  0.0000E+00  0.0000E+00  0.1080E+03  0.1080E+03
    -44.330  0.0000E+00  0.0000E+00  0.1080E+03  0.1080E+03
    -44.091  0.0000E+00  0.0000E+00  0.1080E+03  0.1080E+03
    -43.851  0.0000E+00  0.0000E+00  0.1080E+03  0.1080E+03
    -43.611  0.0000E+00  0.0000E+00  0.1080E+03  0.1080E+03
    -43.372  0.0000E+00  0.0000E+00  0.1080E+03  0.1080E+03
    -43.132  0.0000E+00  0.0000E+00  0.1080E+03  0.1080E+03
    -42.893  0.0000E+00  0.0000E+00  0.1080E+03  0.1080E+03
    -42.653  0.0000E+00  0.0000E+00  0.1080E+03  0.1080E+03
    -42.413  0.0000E+00  0.0000E+00  0.1080E+03  0.1080E+03
    -42.174  0.0000E+00  0.0000E+00  0.1080E+03  0.1080E+03
    -41.934  0.0000E+00  0.0000E+00  0.1080E+03  0.1080E+03
    -41.695  0.0000E+00  0.0000E+00  0.1080E+03  0.1080E+03
    -41.455  0.0000E+00  0.0000E+00  0.1080E+03  0.1080E+03
    -41.215  0.0000E+00  0.0000E+00  0.1080E+03  0.1080E+03
    -40.976  0.0000E+00  0.0000E+00  0.1080E+03  0.1080E+03
    -40.736  0.1199E-08  0.3912E-09  0.1080E+03  0.1080E+03
    -40.497  0.2884E+02  0.2558E+02  0.1149E+03  0.1141E+03
    -40.257  0.4641E+02  0.5009E+02  0.1260E+03  0.1261E+03
    -40.017  0.9998E+02  0.9993E+02  0.1500E+03  0.1501E+03
    -39.778  0.2510E+02  0.2473E+02  0.1560E+03  0.1560E+03
    -39.538  0.0000E+00  0.0000E+00  0.1560E+03  0.1560E+03
    -39.298  0.0000E+00  0.0000E+00  0.1560E+03  0.1560E+03
    -39.059  0.0000E+00  0.0000E+00  0.1560E+03  0.1560E+03
    -38.819  0.0000E+00  0.0000E+00  0.1560E+03  0.1560E+03
    -38.580  0.0000E+00  0.0000E+00  0.1560E+03  0.1560E+03
    -38.340  0.0000E+00  0.0000E+00  0.1560E+03  0.1560E+03
    -38.100  0.0000E+00  0.0000E+00  0.1560E+03  0.1560E+03
    -37.861  0.0000E+00  0.0000E+00  0.1560E+03  0.1560E+03
    -37.621  0.0000E+00  0.0000E+00  0.1560E+03  0.1560E+03
    -37.382  0.0000E+00  0.0000E+00  0.1560E+03  0.1560E+03
    -37.142  0.0000E+00  0.0000E+00  0.1560E+03  0.1560E+03
    -36.902  0.0000E+00  0.0000E+00  0.1560E+03  0.1560E+03
    -36.663  0.0000E+00  0.0000E+00  0.1560E+03  0.1560E+03
    -36.423  0.0000E+00  0.0000E+00  0.1560E+03  0.1560E+03
    -36.184  0.0000E+00  0.0000E+00  0.1560E+03  0.1560E+03
    -35.944  0.0000E+00  0.0000E+00  0.1560E+03  0.1560E+03
    -35.704  0.0000E+00  0.0000E+00  0.1560E+03  0.1560E+03
    -35.465  0.0000E+00  0.0000E+00  0.1560E+03  0.1560E+03
    -35.225  0.0000E+00  0.0000E+00  0.1560E+03  0.1560E+03
    -34.986  0.0000E+00  0.0000E+00  0.1560E+03  0.1560E+03
    -34.746  0.0000E+00  0.0000E+00  0.1560E+03  0.1560E+03
    -34.506  0.0000E+00  0.0000E+00  0.1560E+03  0.1560E+03
    -34.267  0.0000E+00  0.0000E+00  0.1560E+03  0.1560E+03
    -34.027  0.0000E+00  0.0000E+00  0.1560E+03  0.1560E+03
    -33.787  0.0000E+00  0.0000E+00  0.1560E+03  0.1560E+03
    -33.548  0.0000E+00  0.0000E+00  0.1560E+03  0.1560E+03
    -33.308  0.0000E+00  0.0000E+00  0.1560E+03  0.1560E+03
    -33.069  0.0000E+00  0.0000E+00  0.1560E+03  0.1560E+03
    -32.829  0.0000E+00  0.0000E+00  0.1560E+03  0.1560E+03
    -32.589  0.0000E+00  0.0000E+00  0.1560E+03  0.1560E+03
    -32.350  0.0000E+00  0.0000E+00  0.1560E+03  0.1560E+03
    -32.110  0.0000E+00  0.0000E+00  0.1560E+03  0.1560E+03
    -31.871  0.0000E+00  0.0000E+00  0.1560E+03  0.1560E+03
    -31.631  0.0000E+00  0.0000E+00  0.1560E+03  0.1560E+03
    -31.391  0.0000E+00  0.0000E+00  0.1560E+03  0.1560E+03
    -31.152  0.0000E+00  0.0000E+00  0.1560E+03  0.1560E+03
    -30.912  0.0000E+00  0.0000E+00  0.1560E+03  0.1560E+03
    -30.673  0.0000E+00  0.0000E+00  0.1560E+03  0.1560E+03
    -30.433  0.0000E+00  0.0000E+00  0.1560E+03  0.1560E+03
    -30.193  0.0000E+00  0.0000E+00  0.1560E+03  0.1560E+03
    -29.954  0.0000E+00  0.0000E+00  0.1560E+03  0.1560E+03
    -29.714  0.0000E+00  0.0000E+00  0.1560E+03  0.1560E+03
    -29.475  0.0000E+00  0.0000E+00  0.1560E+03  0.1560E+03
    -29.235  0.0000E+00  0.0000E+00  0.1560E+03  0.1560E+03
    -28.995  0.0000E+00  0.0000E+00  0.1560E+03  0.1560E+03
    -28.756  0.0000E+00  0.0000E+00  0.1560E+03  0.1560E+03
    -28.516  0.0000E+00  0.0000E+00  0.1560E+03  0.1560E+03
    -28.276  0.0000E+00  0.0000E+00  0.1560E+03  0.1560E+03
    -28.037  0.0000E+00  0.0000E+00  0.1560E+03  0.1560E+03
    -27.797  0.0000E+00  0.0000E+00  0.1560E+03  0.1560E+03
    -27.558  0.0000E+00  0.0000E+00  0.1560E+03  0.1560E+03
    -27.318  0.0000E+00  0.0000E+00  0.1560E+03  0.1560E+03
    -27.078  0.0000E+00  0.0000E+00  0.1560E+03  0.1560E+03
    -26.839  0.0000E+00  0.0000E+00  0.1560E+03  0.1560E+03
    -26.599  0.0000E+00  0.0000E+00  0.1560E+03  0.1560E+03
    -26.360  0.0000E+00  0.0000E+00  0.1560E+03  0.1560E+03
    -26.120  0.0000E+00  0.0000E+00  0.1560E+03  0.1560E+03
    -25.880  0.0000E+00  0.0000E+00  0.1560E+03  0.1560E+03
    -25.641  0.0000E+00  0.0000E+00  0.1560E+03  0.1560E+03
    -25.401  0.0000E+00  0.0000E+00  0.1560E+03  0.1560E+03
    -25.162  0.0000E+00  0.0000E+00  0.1560E+03  0.1560E+03
    -24.922  0.0000E+00  0.0000E+00  0.1560E+03  0.1560E+03
    -24.682  0.0000E+00  0.0000E+00  0.1560E+03  0.1560E+03
    -24.443  0.0000E+00  0.0000E+00  0.1560E+03  0.1560E+03
    -24.203  0.0000E+00  0.0000E+00  0.1560E+03  0.1560E+03
    -23.963  0.0000E+00  0.0000E+00  0.1560E+03  0.1560E+03
    -23.724  0.0000E+00  0.0000E+00  0.1560E+03  0.1560E+03
    -23.484  0.0000E+00  0.0000E+00  0.1560E+03  0.1560E+03
    -23.245  0.0000E+00  0.0000E+00  0.1560E+03  0.1560E+03
    -23.005  0.0000E+00  0.0000E+00  0.1560E+03  0.1560E+03
    -22.765  0.0000E+00  0.0000E+00  0.1560E+03  0.1560E+03
    -22.526  0.0000E+00  0.0000E+00  0.1560E+03  0.1560E+03
    -22.286  0.0000E+00  0.0000E+00  0.1560E+03  0.1560E+03
    -22.047  0.0000E+00  0.0000E+00  0.1560E+03  0.1560E+03
    -21.807  0.0000E+00  0.0000E+00  0.1560E+03  0.1560E+03
    -21.567  0.0000E+00  0.0000E+00  0.1560E+03  0.1560E+03
    -21.328  0.0000E+00  0.0000E+00  0.1560E+03  0.1560E+03
    -21.088  0.0000E+00  0.0000E+00  0.1560E+03  0.1560E+03
    -20.849  0.0000E+00  0.0000E+00  0.1560E+03  0.1560E+03
    -20.609  0.0000E+00  0.0000E+00  0.1560E+03  0.1560E+03
    -20.369  0.0000E+00  0.0000E+00  0.1560E+03  0.1560E+03
    -20.130  0.0000E+00  0.0000E+00  0.1560E+03  0.1560E+03
    -19.890  0.0000E+00  0.0000E+00  0.1560E+03  0.1560E+03
    -19.651  0.0000E+00  0.0000E+00  0.1560E+03  0.1560E+03
    -19.411  0.0000E+00  0.0000E+00  0.1560E+03  0.1560E+03
    -19.171  0.0000E+00  0.0000E+00  0.1560E+03  0.1560E+03
    -18.932  0.0000E+00  0.0000E+00  0.1560E+03  0.1560E+03
    -18.692  0.0000E+00  0.0000E+00  0.1560E+03  0.1560E+03
    -18.452  0.0000E+00  0.0000E+00  0.1560E+03  0.1560E+03
    -18.213  0.0000E+00  0.0000E+00  0.1560E+03  0.1560E+03
    -17.973  0.0000E+00  0.0000E+00  0.1560E+03  0.1560E+03
    -17.734  0.0000E+00  0.0000E+00  0.1560E+03  0.1560E+03
    -17.494  0.0000E+00  0.0000E+00  0.1560E+03  0.1560E+03
    -17.254  0.0000E+00  0.0000E+00  0.1560E+03  0.1560E+03
    -17.015  0.0000E+00  0.0000E+00  0.1560E+03  0.1560E+03
    -16.775  0.0000E+00  0.0000E+00  0.1560E+03  0.1560E+03
    -16.536  0.0000E+00  0.0000E+00  0.1560E+03  0.1560E+03
    -16.296  0.0000E+00  0.0000E+00  0.1560E+03  0.1560E+03
    -16.056  0.0000E+00  0.0000E+00  0.1560E+03  0.1560E+03
    -15.817  0.0000E+00  0.0000E+00  0.1560E+03  0.1560E+03
    -15.577  0.0000E+00  0.0000E+00  0.1560E+03  0.1560E+03
    -15.338  0.0000E+00  0.0000E+00  0.1560E+03  0.1560E+03
    -15.098  0.0000E+00  0.0000E+00  0.1560E+03  0.1560E+03
    -14.858  0.0000E+00  0.0000E+00  0.1560E+03  0.1560E+03
    -14.619  0.0000E+00  0.0000E+00  0.1560E+03  0.1560E+03
    -14.379  0.0000E+00  0.0000E+00  0.1560E+03  0.1560E+03
    -14.140  0.0000E+00  0.0000E+00  0.1560E+03  0.1560E+03
    -13.900  0.1176E-02  0.0000E+00  0.1560E+03  0.1560E+03
    -13.660  0.2211E+02  0.5117E-13  0.1613E+03  0.1560E+03
    -13.421  0.2778E+02  0.1753E+01  0.1680E+03  0.1564E+03
    -13.181  0.8887E+01  0.4444E+02  0.1701E+03  0.1671E+03
    -12.941  0.3148E+02  0.4590E+01  0.1776E+03  0.1682E+03
    -12.702  0.9904E+01  0.4204E+02  0.1800E+03  0.1782E+03
    -12.462  0.0000E+00  0.7340E+01  0.1800E+03  0.1800E+03
    -12.223  0.0000E+00  0.0000E+00  0.1800E+03  0.1800E+03
    -11.983  0.0000E+00  0.0000E+00  0.1800E+03  0.1800E+03
    -11.743  0.0000E+00  0.0000E+00  0.1800E+03  0.1800E+03
    -11.504  0.0000E+00  0.0000E+00  0.1800E+03  0.1800E+03
    -11.264  0.0000E+00  0.0000E+00  0.1800E+03  0.1800E+03
    -11.025  0.0000E+00  0.0000E+00  0.1800E+03  0.1800E+03
    -10.785  0.0000E+00  0.0000E+00  0.1800E+03  0.1800E+03
    -10.545  0.0000E+00  0.0000E+00  0.1800E+03  0.1800E+03
    -10.306  0.0000E+00  0.0000E+00  0.1800E+03  0.1800E+03
    -10.066  0.0000E+00  0.0000E+00  0.1800E+03  0.1800E+03
     -9.827  0.0000E+00  0.0000E+00  0.1800E+03  0.1800E+03
     -9.587  0.0000E+00  0.0000E+00  0.1800E+03  0.1800E+03
     -9.347  0.0000E+00  0.0000E+00  0.1800E+03  0.1800E+03
     -9.108  0.0000E+00  0.0000E+00  0.1800E+03  0.1800E+03
     -8.868  0.0000E+00  0.0000E+00  0.1800E+03  0.1800E+03
     -8.629  0.0000E+00  0.0000E+00  0.1800E+03  0.1800E+03
     -8.389  0.0000E+00  0.0000E+00  0.1800E+03  0.1800E+03
     -8.149  0.0000E+00  0.0000E+00  0.1800E+03  0.1800E+03
     -7.910  0.2233E-02  0.0000E+00  0.1800E+03  0.1800E+03
     -7.670  0.9396E+01  0.1676E-01  0.1823E+03  0.1800E+03
     -7.430  0.2309E+02  0.1197E+02  0.1878E+03  0.1829E+03
     -7.191  0.5572E+02  0.2855E+02  0.2011E+03  0.1897E+03
     -6.951  0.5804E+02  0.5989E+02  0.2150E+03  0.2041E+03
     -6.712  0.3995E+01  0.4648E+02  0.2160E+03  0.2152E+03
     -6.472  0.0000E+00  0.3334E+01  0.2160E+03  0.2160E+03
     -6.232  0.0000E+00  0.0000E+00  0.2160E+03  0.2160E+03
     -5.993  0.0000E+00  0.0000E+00  0.2160E+03  0.2160E+03
     -5.753  0.0000E+00  0.0000E+00  0.2160E+03  0.2160E+03
     -5.514  0.0000E+00  0.0000E+00  0.2160E+03  0.2160E+03
     -5.274  0.0000E+00  0.0000E+00  0.2160E+03  0.2160E+03
     -5.034  0.0000E+00  0.0000E+00  0.2160E+03  0.2160E+03
     -4.795  0.0000E+00  0.0000E+00  0.2160E+03  0.2160E+03
     -4.555  0.0000E+00  0.0000E+00  0.2160E+03  0.2160E+03
     -4.316  0.0000E+00  0.0000E+00  0.2160E+03  0.2160E+03
     -4.076  0.0000E+00  0.0000E+00  0.2160E+03  0.2160E+03
     -3.836  0.0000E+00  0.0000E+00  0.2160E+03  0.2160E+03
     -3.597  0.0000E+00  0.0000E+00  0.2160E+03  0.2160E+03
     -3.357  0.0000E+00  0.0000E+00  0.2160E+03  0.2160E+03
     -3.117  0.0000E+00  0.0000E+00  0.2160E+03  0.2160E+03
     -2.878  0.1655E-13  0.0000E+00  0.2160E+03  0.2160E+03
     -2.638  0.8431E+00  0.0000E+00  0.2162E+03  0.2160E+03
     -2.399  0.1029E+02  0.0000E+00  0.2187E+03  0.2160E+03
     -2.159  0.2048E+02  0.0000E+00  0.2236E+03  0.2160E+03
     -1.919  0.1856E+01  0.0000E+00  0.2240E+03  0.2160E+03
     -1.680  0.3459E+02  0.0000E+00  0.2323E+03  0.2160E+03
     -1.440  0.1952E+02  0.4376E-15  0.2370E+03  0.2160E+03
     -1.201  0.4420E+02  0.8727E-01  0.2476E+03  0.2160E+03
     -0.961  0.4964E+02  0.4414E+01  0.2595E+03  0.2171E+03
     -0.721  0.7501E+02  0.1409E+02  0.2774E+03  0.2205E+03
     -0.482  0.1033E+03  0.1532E+02  0.3022E+03  0.2241E+03
     -0.242  0.8550E+02  0.1958E+02  0.3227E+03  0.2288E+03
     -0.003  0.1105E+03  0.4126E+02  0.3492E+03  0.2387E+03
      0.237  0.6973E+02  0.3395E+02  0.3659E+03  0.2468E+03
      0.477  0.3823E+02  0.4213E+02  0.3750E+03  0.2569E+03
      0.716  0.4570E+02  0.3372E+02  0.3860E+03  0.2650E+03
      0.956  0.4868E+02  0.5300E+02  0.3976E+03  0.2777E+03
      1.195  0.5554E+02  0.6041E+02  0.4109E+03  0.2922E+03
      1.435  0.6435E+02  0.4443E+02  0.4264E+03  0.3028E+03
      1.675  0.1008E+03  0.4005E+02  0.4505E+03  0.3124E+03
      1.914  0.5241E+02  0.3846E+02  0.4631E+03  0.3216E+03
      2.154  0.3882E+02  0.3739E+02  0.4724E+03  0.3306E+03
      2.394  0.4652E+02  0.3829E+02  0.4835E+03  0.3398E+03
      2.633  0.4782E+02  0.4944E+02  0.4950E+03  0.3516E+03
      2.873  0.4351E+02  0.6287E+02  0.5054E+03  0.3667E+03
      3.112  0.4012E+02  0.5875E+02  0.5150E+03  0.3808E+03
      3.352  0.4750E+02  0.4796E+02  0.5264E+03  0.3923E+03
      3.592  0.5250E+02  0.2999E+02  0.5390E+03  0.3994E+03
      3.831  0.4538E+02  0.6136E+02  0.5499E+03  0.4141E+03
      4.071  0.3199E+02  0.7319E+02  0.5575E+03  0.4317E+03
      4.310  0.4240E+02  0.1361E+01  0.5677E+03  0.4320E+03
      4.550  0.2360E+02  0.0000E+00  0.5733E+03  0.4320E+03
      4.790  0.1021E+02  0.0000E+00  0.5758E+03  0.4320E+03
      5.029  0.8889E+00  0.0000E+00  0.5760E+03  0.4320E+03
      5.269  0.0000E+00  0.0000E+00  0.5760E+03  0.4320E+03
      5.508  0.0000E+00  0.0000E+00  0.5760E+03  0.4320E+03
      5.748  0.0000E+00  0.0000E+00  0.5760E+03  0.4320E+03
      5.988  0.0000E+00  0.5476E-11  0.5760E+03  0.4320E+03
      6.227  0.0000E+00  0.1458E+00  0.5760E+03  0.4320E+03
      6.467  0.0000E+00  0.8165E+01  0.5760E+03  0.4340E+03
      6.706  0.0000E+00  0.3029E+02  0.5760E+03  0.4412E+03
      6.946  0.8051E-12  0.4346E+02  0.5760E+03  0.4517E+03
      7.186  0.1084E+00  0.7326E+02  0.5760E+03  0.4692E+03
      7.425  0.1301E+00  0.8080E+02  0.5761E+03  0.4886E+03
      7.665  0.8988E+00  0.6539E+02  0.5763E+03  0.5042E+03
      7.905  0.3506E+01  0.8790E+02  0.5771E+03  0.5253E+03
      8.144  0.4266E+01  0.7126E+02  0.5781E+03  0.5424E+03
      8.384  0.7046E+01  0.5439E+02  0.5798E+03  0.5554E+03
      8.623  0.1640E+02  0.3721E+02  0.5838E+03  0.5643E+03
      8.863  0.2526E+02  0.3912E+02  0.5898E+03  0.5737E+03
      9.103  0.1923E+02  0.1934E+02  0.5944E+03  0.5783E+03
      9.342  0.2541E+02  0.1393E+02  0.6005E+03  0.5817E+03
      9.582  0.3126E+02  0.2059E+02  0.6080E+03  0.5866E+03
      9.821  0.2659E+02  0.3001E+02  0.6144E+03  0.5938E+03
     10.061  0.2964E+02  0.2655E+02  0.6215E+03  0.6002E+03
     10.301  0.2276E+02  0.3477E+02  0.6269E+03  0.6085E+03
     10.540  0.2040E+02  0.3541E+02  0.6318E+03  0.6170E+03
     10.780  0.2858E+02  0.2795E+02  0.6387E+03  0.6237E+03
     11.019  0.3895E+02  0.2242E+02  0.6480E+03  0.6290E+03
     11.259  0.3941E+02  0.2162E+02  0.6574E+03  0.6342E+03
     11.499  0.3726E+02  0.3230E+02  0.6664E+03  0.6420E+03
     11.738  0.4486E+02  0.3874E+02  0.6771E+03  0.6512E+03
     11.978  0.3851E+02  0.4261E+02  0.6863E+03  0.6615E+03
     12.217  0.3854E+02  0.5198E+02  0.6956E+03  0.6739E+03
     12.457  0.3992E+02  0.4679E+02  0.7051E+03  0.6851E+03
     12.697  0.3649E+02  0.3595E+02  0.7139E+03  0.6937E+03
     12.936  0.3441E+02  0.4129E+02  0.7221E+03  0.7036E+03
     13.176  0.2277E+02  0.3970E+02  0.7276E+03  0.7131E+03
     13.416  0.1778E+01  0.3425E+02  0.7280E+03  0.7213E+03
     13.655  0.0000E+00  0.2395E+02  0.7280E+03  0.7271E+03
     13.895  0.0000E+00  0.3828E+01  0.7280E+03  0.7280E+03
     14.134  0.0000E+00  0.3738E-05  0.7280E+03  0.7280E+03
     14.374  0.0000E+00  0.0000E+00  0.7280E+03  0.7280E+03
     14.614  0.0000E+00  0.0000E+00  0.7280E+03  0.7280E+03
     14.853  0.0000E+00  0.0000E+00  0.7280E+03  0.7280E+03
     15.093  0.0000E+00  0.0000E+00  0.7280E+03  0.7280E+03
     15.332  0.0000E+00  0.0000E+00  0.7280E+03  0.7280E+03
     15.572  0.0000E+00  0.0000E+00  0.7280E+03  0.7280E+03
     15.812  0.0000E+00  0.0000E+00  0.7280E+03  0.7280E+03
     16.051  0.0000E+00  0.0000E+00  0.7280E+03  0.7280E+03
     16.291  0.0000E+00  0.0000E+00  0.7280E+03  0.7280E+03
     16.530  0.0000E+00  0.0000E+00  0.7280E+03  0.7280E+03
     16.770  0.0000E+00  0.0000E+00  0.7280E+03  0.7280E+03
     17.010  0.0000E+00  0.0000E+00  0.7280E+03  0.7280E+03
