 vasp.5.4.4.18Apr17-6-g9f103f2a35 (build Oct 25 2017 14:42:18) complex          
  
 executed on             LinuxIFC date 2021.04.18  02:41:16
 running on   48 total cores
 distrk:  each k-point on   24 cores,    2 groups
 distr:  one band on NCORES_PER_BAND=   6 cores,    4 groups


--------------------------------------------------------------------------------------------------------


 INCAR:
 POTCAR:    PAW_PBE Li_sv 10Sep2004               
 POTCAR:    PAW_PBE Fe_pv 02Aug2007               
 POTCAR:    PAW_PBE S 06Sep2000                   
 POTCAR:    PAW_PBE O 08Apr2002                   

 ----------------------------------------------------------------------------- 
|                                                                             |
|           W    W    AA    RRRRR   N    N  II  N    N   GGGG   !!!           |
|           W    W   A  A   R    R  NN   N  II  NN   N  G    G  !!!           |
|           W    W  A    A  R    R  N N  N  II  N N  N  G       !!!           |
|           W WW W  AAAAAA  RRRRR   N  N N  II  N  N N  G  GGG   !            |
|           WW  WW  A    A  R   R   N   NN  II  N   NN  G    G                |
|           W    W  A    A  R    R  N    N  II  N    N   GGGG   !!!           |
|                                                                             |
|      You have enabled k-point parallelism (KPAR>1).                         |
|      This developmental code was originally  written by Paul Kent at ORNL,  |
|      and carefully double checked in Vienna.                                |
|      GW as well as linear response parallelism added by Martijn Marsman     |
|      and Georg Kresse.                                                      |
|      Carefully verify results versus KPAR=1.                                |
|      Report problems to Paul Kent and Vienna.                               |
|                                                                             |
 ----------------------------------------------------------------------------- 

 POTCAR:    PAW_PBE Li_sv 10Sep2004               
  local pseudopotential read in
  atomic valenz-charges read in
  non local Contribution for L=           0  read in
    real space projection operators read in
  non local Contribution for L=           0  read in
    real space projection operators read in
  non local Contribution for L=           1  read in
    real space projection operators read in
    PAW grid and wavefunctions read in
 
   number of l-projection  operators is LMAX  =           3
   number of lm-projection operators is LMMAX =           5
 
 POTCAR:    PAW_PBE Fe_pv 02Aug2007               
  local pseudopotential read in
  partial core-charges read in
  partial kinetic energy density read in
  atomic valenz-charges read in
  non local Contribution for L=           1  read in
    real space projection operators read in
  non local Contribution for L=           1  read in
    real space projection operators read in
  non local Contribution for L=           2  read in
    real space projection operators read in
  non local Contribution for L=           2  read in
    real space projection operators read in
  non local Contribution for L=           0  read in
    real space projection operators read in
  non local Contribution for L=           0  read in
    real space projection operators read in
    PAW grid and wavefunctions read in
 
   number of l-projection  operators is LMAX  =           6
   number of lm-projection operators is LMMAX =          18
 
 POTCAR:    PAW_PBE S 06Sep2000                   
  local pseudopotential read in
  partial core-charges read in
  partial kinetic energy density read in
  atomic valenz-charges read in
  non local Contribution for L=           0  read in
    real space projection operators read in
  non local Contribution for L=           0  read in
    real space projection operators read in
  non local Contribution for L=           1  read in
    real space projection operators read in
  non local Contribution for L=           1  read in
    real space projection operators read in
    PAW grid and wavefunctions read in
 
   number of l-projection  operators is LMAX  =           4
   number of lm-projection operators is LMMAX =           8
 
 POTCAR:    PAW_PBE O 08Apr2002                   
  local pseudopotential read in
  partial core-charges read in
  partial kinetic energy density read in
  kinetic energy density of atom read in
  atomic valenz-charges read in
  non local Contribution for L=           0  read in
    real space projection operators read in
  non local Contribution for L=           0  read in
    real space projection operators read in
  non local Contribution for L=           1  read in
    real space projection operators read in
  non local Contribution for L=           1  read in
    real space projection operators read in
    PAW grid and wavefunctions read in
 
   number of l-projection  operators is LMAX  =           4
   number of lm-projection operators is LMMAX =           8
 

 ----------------------------------------------------------------------------- 
|                                                                             |
|  ADVICE TO THIS USER RUNNING 'VASP/VAMP'   (HEAR YOUR MASTER'S VOICE ...):  |
|                                                                             |
|      You have a (more or less) 'large supercell' and for larger cells       |
|      it might be more efficient to use real space projection opertators     |
|      So try LREAL= Auto  in the INCAR   file.                               |
|      Mind:          For very  accurate calculation you might also keep the  |
|      reciprocal projection scheme          (i.e. LREAL=.FALSE.)             |
|                                                                             |
 ----------------------------------------------------------------------------- 

  PAW_PBE Li_sv 10Sep2004               :
 energy of atom  1       EATOM= -202.7858
 kinetic energy error for atom=    0.0072 (will be added to EATOM!!)
  PAW_PBE Fe_pv 02Aug2007               :
 energy of atom  2       EATOM=-2457.4239
 kinetic energy error for atom=    0.0041 (will be added to EATOM!!)
  PAW_PBE S 06Sep2000                   :
 energy of atom  3       EATOM= -276.8230
 kinetic energy error for atom=    0.0008 (will be added to EATOM!!)
  PAW_PBE O 08Apr2002                   :
 energy of atom  4       EATOM= -432.3788
 kinetic energy error for atom=    0.0129 (will be added to EATOM!!)
 
 
 POSCAR: # Compound: Li48Fe36S36O24. Old comment:
  positions in direct lattice
  No initial velocities read in
 exchange correlation table for  LEXCH =        8
   RHO(1)=    0.500       N(1)  =     2000
   RHO(2)=  100.500       N(2)  =     4000
 


--------------------------------------------------------------------------------------------------------


 ion  position               nearest neighbor table
   1  0.475  0.001  0.004- 134 1.97 131 2.03  91 2.54  95 2.54
   2  0.975  0.001  0.004- 133 1.97 132 2.03  92 2.54  96 2.54
   3  0.475  0.334  0.004- 136 1.97 127 2.03  93 2.54  91 2.54
   4  0.975  0.334  0.004- 135 1.97 128 2.03  94 2.54  92 2.54
   5  0.475  0.667  0.004- 138 1.97 129 2.03  95 2.54  93 2.54
   6  0.975  0.667  0.004- 137 1.97 130 2.03  96 2.54  94 2.54
   7  0.275  0.333  0.996- 121 1.97 141 2.03  91 2.54  93 2.54
   8  0.775  0.333  0.996- 122 1.97 142 2.03  92 2.54  94 2.54
   9  0.275  0.666  0.996- 123 1.97 143 2.03  93 2.54  95 2.54
  10  0.775  0.666  0.996- 124 1.97 144 2.03  94 2.54  96 2.54
  11  0.275  0.999  0.996- 125 1.97 139 2.03  95 2.54  91 2.54
  12  0.775  0.999  0.996- 126 1.97 140 2.03  96 2.54  92 2.54
  13  0.178  0.268  0.608- 121 2.04  97 2.47 111 2.63 109 2.63
  14  0.678  0.268  0.608- 122 2.04  98 2.47 112 2.63 110 2.63
  15  0.178  0.601  0.608- 123 2.04  99 2.47 113 2.63 111 2.63
  16  0.678  0.601  0.608- 124 2.04 100 2.47 114 2.63 112 2.63
  17  0.178  0.935  0.608- 125 2.04 101 2.47 109 2.63 113 2.63
  18  0.678  0.935  0.608- 126 2.04 102 2.47 110 2.63 114 2.63
  19  0.072  0.065  0.392- 133 2.04 109 2.47 101 2.63  97 2.63
  20  0.572  0.065  0.392- 134 2.04 110 2.47 102 2.63  98 2.63
  21  0.072  0.399  0.392- 135 2.04 111 2.47  97 2.63  99 2.63
  22  0.572  0.399  0.392- 136 2.04 112 2.47  98 2.63 100 2.63
  23  0.072  0.732  0.392- 137 2.04 113 2.47  99 2.63 101 2.63
  24  0.572  0.732  0.392- 138 2.04 114 2.47 100 2.63 102 2.63
  25  0.107  0.308  0.846- 121 1.95 128 1.99  85 2.56  87 2.56
  26  0.607  0.308  0.846- 122 1.95 127 1.99  86 2.56  88 2.56
  27  0.107  0.641  0.846- 123 1.95 130 1.99  87 2.56  89 2.56
  28  0.607  0.641  0.846- 124 1.95 129 1.99  88 2.56  90 2.56
  29  0.107  0.974  0.846- 125 1.95 132 1.99  89 2.56  85 2.56
  30  0.607  0.974  0.846- 126 1.95 131 1.99  90 2.56  86 2.56
  31  0.345  0.295  0.772- 121 1.94 127 2.00 117 2.48 115 2.48
  32  0.845  0.295  0.772- 122 1.94 128 2.00 118 2.48 116 2.48
  33  0.345  0.629  0.772- 123 1.94 129 2.00 119 2.48 117 2.48
  34  0.845  0.629  0.772- 124 1.94 130 2.00 120 2.48 118 2.48
  35  0.345  0.962  0.772- 125 1.94 131 2.00 115 2.48 119 2.48
  36  0.845  0.962  0.772- 126 1.94 132 2.00 116 2.48 120 2.48
  37  0.143  0.026  0.154- 133 1.95 139 1.99  85 2.56  89 2.56
  38  0.643  0.026  0.154- 134 1.95 140 1.99  86 2.56  90 2.56
  39  0.143  0.359  0.154- 135 1.95 141 1.99  87 2.56  85 2.56
  40  0.643  0.359  0.154- 136 1.95 142 1.99  88 2.56  86 2.56
  41  0.143  0.692  0.154- 137 1.95 143 1.99  89 2.56  87 2.56
  42  0.643  0.692  0.154- 138 1.95 144 1.99  90 2.56  88 2.56
  43  0.405  0.038  0.228- 134 1.94 139 2.00 103 2.47 107 2.48
  44  0.905  0.038  0.228- 133 1.94 140 2.00 108 2.48 104 2.48
  45  0.405  0.371  0.228- 136 1.94 141 2.00 105 2.48 103 2.48
  46  0.905  0.371  0.228- 135 1.94 142 2.00 104 2.48 106 2.48
  47  0.405  0.705  0.228- 138 1.94 143 2.00 105 2.48 107 2.48
  48  0.905  0.705  0.228- 137 1.94 144 2.00 106 2.48 108 2.48
  49  0.465  0.267  0.601- 127 2.12 103 2.40 110 2.61 112 2.61
  50  0.965  0.267  0.601- 128 2.12 104 2.40 109 2.61 111 2.61
  51  0.465  0.600  0.601- 129 2.12 105 2.40 112 2.61 114 2.61
  52  0.965  0.600  0.601- 130 2.12 106 2.40 111 2.61 113 2.61
  53  0.465  0.934  0.601- 131 2.12 107 2.40 114 2.61 110 2.61
  54  0.965  0.934  0.601- 132 2.12 108 2.40 113 2.61 109 2.61
  55  0.285  0.066  0.399- 139 2.12 115 2.40  97 2.61 101 2.61
  56  0.785  0.066  0.399- 140 2.12 116 2.40  98 2.61 102 2.61
  57  0.285  0.400  0.399- 141 2.12 117 2.40  99 2.61  97 2.61
  58  0.785  0.400  0.399- 142 2.12 118 2.40 100 2.61  98 2.61
  59  0.285  0.733  0.399- 143 2.12 119 2.40 101 2.61  99 2.61
  60  0.785  0.733  0.399- 144 2.12 120 2.40 102 2.61 100 2.61
  61  0.224  0.134  0.801- 125 2.02 121 2.02 109 2.64 115 2.66  85 2.79
  62  0.724  0.134  0.801- 126 2.02 122 2.02 110 2.64 116 2.66  86 2.79
  63  0.224  0.467  0.801- 121 2.02 123 2.02 111 2.64 117 2.66  87 2.79
  64  0.724  0.467  0.801- 122 2.02 124 2.02 112 2.64 118 2.66  88 2.79
  65  0.224  0.800  0.801- 123 2.02 125 2.02 113 2.64 119 2.66  89 2.79
  66  0.724  0.800  0.801- 124 2.02 126 2.02 114 2.64 120 2.66  90 2.79
  67  0.478  0.136  0.815- 127 2.03 131 2.03 110 2.62 115 2.63  86 2.68  91 2.71
  68  0.978  0.136  0.815- 128 2.03 132 2.03 109 2.62 116 2.63  85 2.68  92 2.71
  69  0.478  0.469  0.815- 127 2.03 129 2.03 112 2.62 117 2.63  88 2.68  93 2.71
  70  0.978  0.469  0.815- 128 2.03 130 2.03 111 2.62 118 2.63  87 2.68  94 2.71
  71  0.478  0.802  0.815- 131 2.03 129 2.03 114 2.62 119 2.63  90 2.68  95 2.71
  72  0.978  0.802  0.815- 132 2.03 130 2.03 113 2.62 120 2.63  89 2.68  96 2.71
  73  0.026  0.200  0.199- 135 2.02 133 2.02  97 2.64 104 2.66  85 2.79
  74  0.526  0.200  0.199- 136 2.02 134 2.02  98 2.64 103 2.66  86 2.79
  75  0.026  0.533  0.199- 137 2.02 135 2.02  99 2.64 106 2.66  87 2.79
  76  0.526  0.533  0.199- 138 2.02 136 2.02 100 2.64 105 2.66  88 2.79
  77  0.026  0.866  0.199- 133 2.02 137 2.02 101 2.64 108 2.66  89 2.79
  78  0.526  0.866  0.199- 134 2.02 138 2.02 102 2.64 107 2.66  90 2.79
  79  0.272  0.198  0.185- 139 2.03 141 2.03  97 2.62 103 2.63  85 2.68  91 2.71
  80  0.772  0.198  0.185- 140 2.03 142 2.03  98 2.62 104 2.63  86 2.68  92 2.71
  81  0.272  0.531  0.185- 143 2.03 141 2.03  99 2.62 105 2.63  87 2.68  93 2.71
  82  0.772  0.531  0.185- 144 2.03 142 2.03 100 2.62 106 2.63  88 2.68  94 2.71
  83  0.272  0.864  0.185- 143 2.03 139 2.03 101 2.62 107 2.63  89 2.68  95 2.71
  84  0.772  0.864  0.185- 144 2.03 140 2.03 102 2.62 108 2.63  90 2.68  96 2.71
  85  0.125  0.167  0.000-  25 2.56  37 2.56  39 2.56  29 2.56  68 2.68  79 2.68  73 2.79  61 2.79

  86  0.625  0.167  0.000-  26 2.56  38 2.56  40 2.56  30 2.56  67 2.68  80 2.68  74 2.79  62 2.79

  87  0.125  0.500  0.000-  27 2.56  39 2.56  25 2.56  41 2.56  70 2.68  81 2.68  75 2.79  63 2.79

  88  0.625  0.500  0.000-  28 2.56  40 2.56  26 2.56  42 2.56  69 2.68  82 2.68  76 2.79  64 2.79

  89  0.125  0.833  0.000-  41 2.56  29 2.56  27 2.56  37 2.56  83 2.68  72 2.68  77 2.79  65 2.79

  90  0.625  0.833  0.000-  42 2.56  30 2.56  28 2.56  38 2.56  84 2.68  71 2.68  78 2.79  66 2.79

  91  0.375  0.167  0.000-   7 2.54   1 2.54   3 2.54  11 2.54  67 2.71  79 2.71
  92  0.875  0.167  0.000-   8 2.54   2 2.54   4 2.54  12 2.54  68 2.71  80 2.71
  93  0.375  0.500  0.000-   3 2.54   9 2.54   7 2.54   5 2.54  69 2.71  81 2.71
  94  0.875  0.500  0.000-   4 2.54  10 2.54   8 2.54   6 2.54  70 2.71  82 2.71
  95  0.375  0.833  0.000-   5 2.54  11 2.54   9 2.54   1 2.54  71 2.71  83 2.71
  96  0.875  0.833  0.000-   6 2.54  12 2.54  10 2.54   2 2.54  72 2.71  84 2.71
  97  0.176  0.228  0.369-  13 2.47  55 2.61  57 2.61  79 2.62  21 2.63  19 2.63  73 2.64
  98  0.676  0.228  0.369-  14 2.47  56 2.61  58 2.61  80 2.62  22 2.63  20 2.63  74 2.64
  99  0.176  0.561  0.369-  15 2.47  57 2.61  59 2.61  81 2.62  23 2.63  21 2.63  75 2.64
 100  0.676  0.561  0.369-  16 2.47  58 2.61  60 2.61  82 2.62  24 2.63  22 2.63  76 2.64
 101  0.176  0.895  0.369-  17 2.47  59 2.61  55 2.61  83 2.62  19 2.63  23 2.63  77 2.64
 102  0.676  0.895  0.369-  18 2.47  60 2.61  56 2.61  84 2.62  20 2.63  24 2.63  78 2.64
 103  0.415  0.227  0.368-  49 2.40  43 2.47  45 2.48  79 2.63  74 2.66
 104  0.915  0.228  0.368-  50 2.40  46 2.48  44 2.48  80 2.63  73 2.66
 105  0.415  0.561  0.368-  51 2.40  47 2.48  45 2.48  81 2.63  76 2.66
 106  0.915  0.561  0.368-  52 2.40  48 2.48  46 2.48  82 2.63  75 2.66
 107  0.415  0.895  0.368-  53 2.40  43 2.48  47 2.48  83 2.63  78 2.66
 108  0.915  0.895  0.368-  54 2.40  44 2.48  48 2.48  84 2.63  77 2.66
 109  0.074  0.105  0.631-  19 2.47  50 2.61  54 2.61  68 2.62  17 2.63  13 2.63  61 2.64
 110  0.574  0.105  0.631-  20 2.47  49 2.61  53 2.61  67 2.62  18 2.63  14 2.63  62 2.64
 111  0.074  0.439  0.631-  21 2.47  52 2.61  50 2.61  70 2.62  13 2.63  15 2.63  63 2.64
 112  0.574  0.439  0.631-  22 2.47  51 2.61  49 2.61  69 2.62  14 2.63  16 2.63  64 2.64
 113  0.074  0.772  0.631-  23 2.47  54 2.61  52 2.61  72 2.62  15 2.63  17 2.63  65 2.64
 114  0.574  0.772  0.631-  24 2.47  53 2.61  51 2.61  71 2.62  16 2.63  18 2.63  66 2.64
 115  0.335  0.105  0.632-  55 2.40  35 2.48  31 2.48  67 2.63  61 2.66
 116  0.835  0.105  0.632-  56 2.40  36 2.48  32 2.48  68 2.63  62 2.66
 117  0.335  0.439  0.632-  57 2.40  31 2.48  33 2.48  69 2.63  63 2.66
 118  0.835  0.439  0.632-  58 2.40  32 2.48  34 2.48  70 2.63  64 2.66
 119  0.335  0.772  0.632-  59 2.40  33 2.48  35 2.48  71 2.63  65 2.66
 120  0.835  0.772  0.632-  60 2.40  34 2.48  36 2.48  72 2.63  66 2.66
 121  0.225  0.301  0.806-  31 1.94  25 1.95   7 1.97  63 2.02  61 2.02  13 2.04
 122  0.725  0.301  0.806-  32 1.94  26 1.95   8 1.97  64 2.02  62 2.02  14 2.04
 123  0.225  0.634  0.806-  33 1.94  27 1.95   9 1.97  65 2.02  63 2.02  15 2.04
 124  0.725  0.634  0.806-  34 1.94  28 1.95  10 1.97  66 2.02  64 2.02  16 2.04
 125  0.225  0.968  0.806-  35 1.94  29 1.95  11 1.97  61 2.02  65 2.02  17 2.04
 126  0.725  0.968  0.806-  36 1.94  30 1.95  12 1.97  62 2.02  66 2.02  18 2.04
 127  0.476  0.301  0.809-  26 1.99  31 2.00  69 2.03  67 2.03   3 2.03  49 2.12
 128  0.976  0.301  0.809-  25 1.99  32 2.00  70 2.03  68 2.03   4 2.03  50 2.12
 129  0.476  0.635  0.809-  28 1.99  33 2.00  69 2.03  71 2.03   5 2.03  51 2.12
 130  0.976  0.635  0.809-  27 1.99  34 2.00  70 2.03  72 2.03   6 2.03  52 2.12
 131  0.476  0.968  0.809-  30 1.99  35 2.00  71 2.03  67 2.03   1 2.03  53 2.12
 132  0.976  0.968  0.809-  29 1.99  36 2.00  72 2.03  68 2.03   2 2.03  54 2.12
 133  0.025  0.032  0.194-  44 1.94  37 1.95   2 1.97  77 2.02  73 2.02  19 2.04
 134  0.525  0.032  0.194-  43 1.94  38 1.95   1 1.97  78 2.02  74 2.02  20 2.04
 135  0.025  0.366  0.194-  46 1.94  39 1.95   4 1.97  73 2.02  75 2.02  21 2.04
 136  0.525  0.366  0.194-  45 1.94  40 1.95   3 1.97  74 2.02  76 2.02  22 2.04
 137  0.025  0.699  0.194-  48 1.94  41 1.95   6 1.97  75 2.02  77 2.02  23 2.04
 138  0.525  0.699  0.194-  47 1.94  42 1.95   5 1.97  76 2.02  78 2.02  24 2.04
 139  0.274  0.032  0.191-  37 1.99  43 2.00  79 2.03  83 2.03  11 2.03  55 2.12
 140  0.774  0.032  0.191-  38 1.99  44 2.00  80 2.03  84 2.03  12 2.03  56 2.12
 141  0.274  0.365  0.191-  39 1.99  45 2.00  81 2.03  79 2.03   7 2.03  57 2.12
 142  0.774  0.365  0.191-  40 1.99  46 2.00  82 2.03  80 2.03   8 2.03  58 2.12
 143  0.274  0.699  0.191-  41 1.99  47 2.00  81 2.03  83 2.03   9 2.03  59 2.12
 144  0.774  0.699  0.191-  42 1.99  48 2.00  82 2.03  84 2.03  10 2.03  60 2.12
 

IMPORTANT INFORMATION: All symmetrisations will be switched off!
NOSYMM: (Re-)initialisation of all symmetry stuff for point group C_1.

 
 
 KPOINTS: # No comment                            

Automatic generation of k-mesh.
Space group operators:
 irot       det(A)        alpha          n_x          n_y          n_z        tau_x        tau_y        tau_z
    1     1.000000     0.000000     1.000000     0.000000     0.000000     0.000000     0.000000     0.000000
 
 Subroutine IBZKPT returns following result:
 ===========================================
 
 Found     10 irreducible k-points:
 
 Following reciprocal coordinates:
            Coordinates               Weight
  0.000000  0.000000  0.000000      1.000000
  0.500000 -0.000000  0.000000      1.000000
 -0.000000  0.333333 -0.000000      2.000000
  0.500000  0.333333 -0.000000      2.000000
 -0.000000  0.000000  0.333333      2.000000
  0.500000  0.000000  0.333333      2.000000
 -0.000000  0.333333  0.333333      2.000000
  0.500000  0.333333  0.333333      2.000000
 -0.000000 -0.333333  0.333333      2.000000
  0.500000 -0.333333  0.333333      2.000000
 
 Following cartesian coordinates:
            Coordinates               Weight
  0.000000  0.000000  0.000000      1.000000
  0.032907  0.001163  0.000205      1.000000
  0.000045  0.027984  0.000297      2.000000
  0.032951  0.029147  0.000502      2.000000
  0.005801  0.006063  0.031710      2.000000
  0.038707  0.007225  0.031916      2.000000
  0.005845  0.034047  0.032007      2.000000
  0.038752  0.035209  0.032212      2.000000
  0.005756 -0.021921  0.031414      2.000000
  0.038663 -0.020758  0.031619      2.000000
 


--------------------------------------------------------------------------------------------------------




 Dimension of arrays:
   k-points           NKPTS =     10   k-points in BZ     NKDIM =     10   number of bands    NBANDS=    728
   number of dos      NEDOS =    301   number of ions     NIONS =    144
   non local maximal  LDIM  =      6   non local SUM 2l+1 LMDIM =     18
   total plane-waves  NPLWV = ******
   max r-space proj   IRMAX =      1   max aug-charges    IRDMAX= 179883
   dimension x,y,z NGX =   140 NGY =  108 NGZ =   90
   dimension x,y,z NGXF=   280 NGYF=  216 NGZF=  180
   support grid    NGXF=   560 NGYF=  432 NGZF=  360
   ions per type =              48  36  36  24
   NGX,Y,Z   is equivalent  to a cutoff of  15.05, 14.78, 14.19 a.u.
   NGXF,Y,Z  is equivalent  to a cutoff of  30.10, 29.57, 28.38 a.u.

 SYSTEM =  unknown system                          
 POSCAR =  # Compound: Li48Fe36S36O24. Old comment:

 Startparameter for this run:
   NWRITE =      1    write-flag & timer
   PREC   = accura    normal or accurate (medium, high low for compatibility)
   ISTART =      0    job   : 0-new  1-cont  2-samecut
   ICHARG =      1    charge: 1-file 2-atom 10-const
   ISPIN  =      2    spin polarized calculation?
   LNONCOLLINEAR =      F non collinear calculations
   LSORBIT =      F    spin-orbit coupling
   INIWAV =      1    electr: 0-lowe 1-rand  2-diag
   LASPH  =      T    aspherical Exc in radial PAW
   METAGGA=      F    non-selfconsistent MetaGGA calc.

 Electronic Relaxation 1
   ENCUT  =  650.0 eV  47.77 Ry    6.91 a.u.  32.15 25.25 21.92*2*pi/ulx,y,z
   ENINI  =  650.0     initial cutoff
   ENAUG  =  628.9 eV  augmentation charge cutoff
   NELM   =    200;   NELMIN=  8; NELMDL=  0     # of ELM steps 
   EDIFF  = 0.1E-05   stopping-criterion for ELM
   LREAL  =      F    real-space projection
   NLSPLINE    = F    spline interpolate recip. space projectors
   LCOMPAT=      F    compatible to vasp.4.4
   GGA_COMPAT  = T    GGA compatible to vasp.4.4-vasp.4.6
   LMAXPAW     = -100 max onsite density
   LMAXMIX     =    4 max onsite mixed and CHGCAR
   VOSKOWN=      0    Vosko Wilk Nusair interpolation
   ROPT   =    0.00000   0.00000   0.00000   0.00000
 Ionic relaxation
   EDIFFG = 0.1E-04   stopping-criterion for IOM
   NSW    =      0    number of steps for IOM
   NBLOCK =      1;   KBLOCK =      1    inner block; outer block 
   IBRION =     -1    ionic relax: 0-MD 1-quasi-New 2-CG
   NFREE  =      0    steps in history (QN), initial steepest desc. (CG)
   ISIF   =      2    stress and relaxation
   IWAVPR =     10    prediction:  0-non 1-charg 2-wave 3-comb
   ISYM   =      0    0-nonsym 1-usesym 2-fastsym
   LCORR  =      T    Harris-Foulkes like correction to forces

   POTIM  = 0.5000    time-step for ionic-motion
   TEIN   =    0.0    initial temperature
   TEBEG  =    0.0;   TEEND  =   0.0 temperature during run
   SMASS  =  -3.00    Nose mass-parameter (am)
   estimated Nose-frequenzy (Omega)   =  0.10E-29 period in steps =****** mass=  -0.547E-26a.u.
   SCALEE = 1.0000    scale energy and forces
   NPACO  =    256;   APACO  = 16.0  distance and # of slots for P.C.
   PSTRESS=    0.0 pullay stress

  Mass of Ions in am
   POMASS =   7.01 55.85 32.07 16.00
  Ionic Valenz
   ZVAL   =   3.00 14.00  6.00  6.00
  Atomic Wigner-Seitz radii
   RWIGS  =  -1.00 -1.00 -1.00 -1.00
  virtual crystal weights 
   VCA    =   1.00  1.00  1.00  1.00
   NELECT =    1008.0000    total number of electrons
   NUPDOWN=      -1.0000    fix difference up-down

 DOS related values:
   EMIN   =  10.00;   EMAX   =-10.00  energy-range for DOS
   EFERMI =   0.00
   ISMEAR =     0;   SIGMA  =   0.05  broadening in eV -4-tet -1-fermi 0-gaus

 Electronic relaxation 2 (details)
   IALGO  =     38    algorithm
   LDIAG  =      T    sub-space diagonalisation (order eigenvalues)
   LSUBROT=      F    optimize rotation matrix (better conditioning)
   TURBO    =      0    0=normal 1=particle mesh
   IRESTART =      0    0=no restart 2=restart with 2 vectors
   NREBOOT  =      0    no. of reboots
   NMIN     =      0    reboot dimension
   EREF     =   0.00    reference energy to select bands
   IMIX   =      4    mixing-type and parameters
     AMIX     =   0.40;   BMIX     =  1.00
     AMIX_MAG =   1.60;   BMIX_MAG =  1.00
     AMIN     =   0.10
     WC   =   100.;   INIMIX=   1;  MIXPRE=   1;  MAXMIX= -45

 Intra band minimization:
   WEIMIN = 0.0000     energy-eigenvalue tresh-hold
   EBREAK =  0.34E-09  absolut break condition
   DEPER  =   0.30     relativ break condition  

   TIME   =   0.40     timestep for ELM

  volume/ion in A,a.u.               =      13.25        89.44
  Fermi-wavevector in a.u.,A,eV,Ry     =   1.323307  2.500688 23.825724  1.751141
  Thomas-Fermi vector in A             =   2.452925
 
 Write flags
   LWAVE        =      F    write WAVECAR
   LDOWNSAMPLE  =      F    k-point downsampling of WAVECAR
   LCHARG       =      T    write CHGCAR
   LVTOT        =      F    write LOCPOT, total local potential
   LVHAR        =      F    write LOCPOT, Hartree potential only
   LELF         =      F    write electronic localiz. function (ELF)
   LORBIT       =      0    0 simple, 1 ext, 2 COOP (PROOUT), +10 PAW based schemes


 Dipole corrections
   LMONO  =      F    monopole corrections only (constant potential shift)
   LDIPOL =      F    correct potential (dipole corrections)
   IDIPOL =      0    1-x, 2-y, 3-z, 4-all directions 
   EPSILON=  1.0000000 bulk dielectric constant

 LDA+U is selected, type is set to LDAUTYPE =  2
   angular momentum for each species LDAUL =    -1    2   -1   -1
   U (eV)           for each species LDAUU =   0.0  4.0  0.0  0.0
   J (eV)           for each species LDAUJ =   0.0  0.0  0.0  0.0
 Exchange correlation treatment:
   GGA     =    PE    GGA type
   LEXCH   =     8    internal setting for exchange type
   VOSKOWN=      0    Vosko Wilk Nusair interpolation
   LHFCALC =     F    Hartree Fock is set to
   LHFONE  =     F    Hartree Fock one center treatment
   AEXX    =    0.0000 exact exchange contribution

 Linear response parameters
   LEPSILON=     F    determine dielectric tensor
   LRPA    =     F    only Hartree local field effects (RPA)
   LNABLA  =     F    use nabla operator in PAW spheres
   LVEL    =     F    velocity operator in full k-point grid
   LINTERFAST=   F  fast interpolation
   KINTER  =     0    interpolate to denser k-point grid
   CSHIFT  =0.1000    complex shift for real part using Kramers Kronig
   OMEGAMAX=  -1.0    maximum frequency
   DEG_THRESHOLD= 0.2000000E-02 threshold for treating states as degnerate
   RTIME   =   -0.100 relaxation time in fs
  (WPLASMAI=    0.000 imaginary part of plasma frequency in eV, 0.658/RTIME)
   DFIELD  = 0.0000000 0.0000000 0.0000000 field for delta impulse in time
 
 Orbital magnetization related:
   ORBITALMAG=     F  switch on orbital magnetization
   LCHIMAG   =     F  perturbation theory with respect to B field
   DQ        =  0.001000  dq finite difference perturbation B field
   LLRAUG    =     F  two centre corrections for induced B field



--------------------------------------------------------------------------------------------------------


 Static calculation
 charge density and potential will be updated during run
 spin polarized calculation
 Variant of blocked Davidson
 Davidson routine will perform the subspace rotation
 perform sub-space diagonalisation
    after iterative eigenvector-optimisation
 modified Broyden-mixing scheme, WC =      100.0
 initial mixing is a Kerker type mixing with AMIX =  0.4000 and BMIX =      1.0000
 Hartree-type preconditioning will be used
 using additional bands          224
 reciprocal scheme for non local part
 use partial core corrections
 calculate Harris-corrections to forces 
   (improved forces if not selfconsistent)
 use gradient corrections 
 use of overlap-Matrix (Vanderbilt PP)
 Gauss-broadening in eV      SIGMA  =   0.05


--------------------------------------------------------------------------------------------------------


  energy-cutoff  :      650.00
  volume of cell :     1908.55
      direct lattice vectors                 reciprocal lattice vectors
    15.211628300  0.005169560 -2.783615920     0.065813433  0.002325485  0.000410081
    -0.407986650 11.935657740 -2.207358840     0.000134327  0.083951744  0.000889967
    -0.061755670 -0.111681970 10.544426380     0.017402163  0.018188271  0.095131394

  length of vectors
    15.464222575 12.144908886 10.545198638     0.065855782  0.083956568  0.098405440


 
 k-points in units of 2pi/SCALE and weight: # No comment                            
   0.00000000  0.00000000  0.00000000       0.056
   0.03290672  0.00116274  0.00020504       0.056
   0.00004478  0.02798391  0.00029666       0.111
   0.03295149  0.02914666  0.00050170       0.111
   0.00580072  0.00606276  0.03171046       0.111
   0.03870744  0.00722550  0.03191551       0.111
   0.00584550  0.03404667  0.03200712       0.111
   0.03875221  0.03520941  0.03221216       0.111
   0.00575595 -0.02192116  0.03141381       0.111
   0.03866266 -0.02075841  0.03161885       0.111
 
 k-points in reciprocal lattice and weights: # No comment                            
   0.00000000  0.00000000  0.00000000       0.056
   0.50000000 -0.00000000  0.00000000       0.056
  -0.00000000  0.33333333 -0.00000000       0.111
   0.50000000  0.33333333 -0.00000000       0.111
  -0.00000000  0.00000000  0.33333333       0.111
   0.50000000  0.00000000  0.33333333       0.111
  -0.00000000  0.33333333  0.33333333       0.111
   0.50000000  0.33333333  0.33333333       0.111
  -0.00000000 -0.33333333  0.33333333       0.111
   0.50000000 -0.33333333  0.33333333       0.111
 
 position of ions in fractional coordinates (direct lattice) 
   0.47527516  0.00074367  0.00446200
   0.97527516  0.00074367  0.00446200
   0.47527516  0.33407700  0.00446200
   0.97527516  0.33407700  0.00446200
   0.47527516  0.66741034  0.00446200
   0.97527516  0.66741034  0.00446200
   0.27472484  0.33258966  0.99553800
   0.77472484  0.33258966  0.99553800
   0.27472484  0.66592300  0.99553800
   0.77472484  0.66592300  0.99553800
   0.27472484  0.99925633  0.99553800
   0.77472484  0.99925633  0.99553800
   0.17788805  0.26797179  0.60783074
   0.67788805  0.26797179  0.60783074
   0.17788805  0.60130513  0.60783074
   0.67788805  0.60130513  0.60783074
   0.17788805  0.93463846  0.60783074
   0.67788805  0.93463846  0.60783074
   0.07211195  0.06536154  0.39216926
   0.57211195  0.06536154  0.39216926
   0.07211195  0.39869487  0.39216926
   0.57211195  0.39869487  0.39216926
   0.07211195  0.73202821  0.39216926
   0.57211195  0.73202821  0.39216926
   0.10733875  0.30765571  0.84593428
   0.60733875  0.30765571  0.84593428
   0.10733875  0.64098905  0.84593428
   0.60733875  0.64098905  0.84593428
   0.10733875  0.97432238  0.84593428
   0.60733875  0.97432238  0.84593428
   0.34464416  0.29539312  0.77235872
   0.84464416  0.29539312  0.77235872
   0.34464416  0.62872645  0.77235872
   0.84464416  0.62872645  0.77235872
   0.34464416  0.96205979  0.77235872
   0.84464416  0.96205979  0.77235872
   0.14266125  0.02567762  0.15406572
   0.64266125  0.02567762  0.15406572
   0.14266125  0.35901095  0.15406572
   0.64266125  0.35901095  0.15406572
   0.14266125  0.69234429  0.15406572
   0.64266125  0.69234429  0.15406572
   0.40535584  0.03794021  0.22764128
   0.90535584  0.03794021  0.22764128
   0.40535584  0.37127355  0.22764128
   0.90535584  0.37127355  0.22764128
   0.40535584  0.70460688  0.22764128
   0.90535584  0.70460688  0.22764128
   0.46517249  0.26691416  0.60148498
   0.96517249  0.26691416  0.60148498
   0.46517249  0.60024750  0.60148498
   0.96517249  0.60024750  0.60148498
   0.46517249  0.93358083  0.60148498
   0.96517249  0.93358083  0.60148498
   0.28482751  0.06641917  0.39851502
   0.78482751  0.06641917  0.39851502
   0.28482751  0.39975250  0.39851502
   0.78482751  0.39975250  0.39851502
   0.28482751  0.73308584  0.39851502
   0.78482751  0.73308584  0.39851502
   0.22447416  0.13353711  0.80122268
   0.72447416  0.13353711  0.80122268
   0.22447416  0.46687045  0.80122268
   0.72447416  0.46687045  0.80122268
   0.22447416  0.80020378  0.80122268
   0.72447416  0.80020378  0.80122268
   0.47796479  0.13582521  0.81495126
   0.97796479  0.13582521  0.81495126
   0.47796479  0.46915854  0.81495126
   0.97796479  0.46915854  0.81495126
   0.47796479  0.80249188  0.81495126
   0.97796479  0.80249188  0.81495126
   0.02552584  0.19979622  0.19877732
   0.52552584  0.19979622  0.19877732
   0.02552584  0.53312955  0.19877732
   0.52552584  0.53312955  0.19877732
   0.02552584  0.86646289  0.19877732
   0.52552584  0.86646289  0.19877732
   0.27203521  0.19750812  0.18504874
   0.77203521  0.19750812  0.18504874
   0.27203521  0.53084146  0.18504874
   0.77203521  0.53084146  0.18504874
   0.27203521  0.86417479  0.18504874
   0.77203521  0.86417479  0.18504874
   0.12500000  0.16666667  0.00000000
   0.62500000  0.16666667  0.00000000
   0.12500000  0.50000000  0.00000000
   0.62500000  0.50000000  0.00000000
   0.12500000  0.83333333  0.00000000
   0.62500000  0.83333333  0.00000000
   0.37500000  0.16666667  0.00000000
   0.87500000  0.16666667  0.00000000
   0.37500000  0.50000000  0.00000000
   0.87500000  0.50000000  0.00000000
   0.37500000  0.83333333  0.00000000
   0.87500000  0.83333333  0.00000000
   0.17614737  0.22809805  0.36858830
   0.67614737  0.22809805  0.36858830
   0.17614737  0.56143138  0.36858830
   0.67614737  0.56143138  0.36858830
   0.17614737  0.89476472  0.36858830
   0.67614737  0.89476472  0.36858830
   0.41542106  0.22711304  0.36761855
   0.91542106  0.22793643  0.36761855
   0.41542106  0.56126976  0.36761855
   0.91542106  0.56126976  0.36761855
   0.41542106  0.89460309  0.36761855
   0.91542106  0.89460309  0.36761855
   0.07385263  0.10523528  0.63141170
   0.57385263  0.10523528  0.63141170
   0.07385263  0.43856862  0.63141170
   0.57385263  0.43856862  0.63141170
   0.07385263  0.77190195  0.63141170
   0.57385263  0.77190195  0.63141170
   0.33457894  0.10539691  0.63238145
   0.83457894  0.10539691  0.63238145
   0.33457894  0.43873024  0.63238145
   0.83457894  0.43873024  0.63238145
   0.33457894  0.77206357  0.63238145
   0.83457894  0.77206357  0.63238145
   0.22527003  0.30093342  0.80560053
   0.72527003  0.30093342  0.80560053
   0.22527003  0.63426676  0.80560053
   0.72527003  0.63426676  0.80560053
   0.22527003  0.96760009  0.80560053
   0.72527003  0.96760009  0.80560053
   0.47618324  0.30143353  0.80860116
   0.97618324  0.30143353  0.80860116
   0.47618324  0.63476686  0.80860116
   0.97618324  0.63476686  0.80860116
   0.47618324  0.96810019  0.80860116
   0.97618324  0.96810019  0.80860116
   0.02472997  0.03239991  0.19439947
   0.52472997  0.03239991  0.19439947
   0.02472997  0.36573324  0.19439947
   0.52472997  0.36573324  0.19439947
   0.02472997  0.69906658  0.19439947
   0.52472997  0.69906658  0.19439947
   0.27381676  0.03189981  0.19139884
   0.77381676  0.03189981  0.19139884
   0.27381676  0.36523314  0.19139884
   0.77381676  0.36523314  0.19139884
   0.27381676  0.69856647  0.19139884
   0.77381676  0.69856647  0.19139884
 
 position of ions in cartesian coordinates  (Angst):
   7.22913011  0.01083483 -1.27757582
  14.83494426  0.01341961 -2.66938378
   7.09313456  3.98938741 -2.01336210
  14.69894871  3.99197219 -3.40517006
   6.95713901  7.96793999 -2.74914838
  14.56295316  7.97052477 -4.14095634
   3.98183989  3.85991295  8.99850398
  11.58765404  3.86249773  7.60669602
   3.84584434  7.83846553  8.26271770
  11.45165849  7.84105031  6.87090974
   3.70984879 11.81701811  7.52693142
  11.31566294 11.81960289  6.13512346
   2.55910106  3.13145548  5.32254456
  10.16491521  3.13404026  3.93073660
   2.42310551  7.11000806  4.58675828
  10.02891966  7.11259284  3.19495032
   2.28710996 11.08856064  3.85097200
   9.89292411 11.09114542  2.45916404
   1.04605479  0.73670752  3.79019156
   8.65186894  0.73929230  2.39838360
   0.91005924  4.71526010  3.05440528
   8.51587339  4.71784488  1.66259732
   0.77406369  8.69381268  2.31861900
   8.37987784  8.69639746  0.92681104
   1.45503651  3.57815258  7.94199533
   9.06085066  3.58073736  6.55018737
   1.31904096  7.55670516  7.20620905
   8.92485511  7.55928994  5.81440109
   1.18304541 11.53525774  6.47042277
   8.78885956 11.53784252  5.07861481
   5.07438488  3.44123429  6.53268408
  12.68019903  3.44381907  5.14087612
   4.93838933  7.41978687  5.79689780
  12.54420348  7.42237165  4.40508984
   4.80239378 11.39833945  5.06111152
  12.40820793 11.40092423  3.66930356
   2.15011935  0.29001042  1.17074079
   9.75593350  0.29259520 -0.22106717
   2.01412380  4.26856300  0.43495451
   9.61993795  4.27114778 -0.95685345
   1.87812825  8.24711558 -0.30083177
   9.48394240  8.24970036 -1.69263973
   6.13658513  0.42951349  1.18824408
  13.74239928  0.43209827 -0.20356388
   6.00058958  4.40806607  0.45245780
  13.60640373  4.41065085 -0.93935016
   5.86459403  8.38661865 -0.28332848
  13.47040818  8.38920343 -1.67513644
   6.92998849  3.12102581  4.45827720
  14.53580264  3.12361059  3.06646924
   6.79399294  7.09957839  3.72249092
  14.39980709  7.10216317  2.33068296
   6.65799739 11.07813097  2.98670464
  14.26381154 11.08071575  1.59489668
   4.28098152  0.74972197  3.26265096
  11.88679567  0.75230675  1.87084300
   4.14498597  4.72827455  2.52686468
  11.75080012  4.73085933  1.13505672
   4.00899041  8.70682713  1.79107840
  11.61480456  8.70941191  0.39927044
   3.31065601  1.50553159  7.52881940
  10.91647016  1.50811637  6.13701144
   3.17466046  5.48408417  6.79303312
  10.78047461  5.48666895  5.40122516
   3.03866491  9.46263675  6.05724684
  10.64447906  9.46522153  4.66543888
   7.16488007  1.53261872  6.96290817
  14.77069422  1.53520350  5.57110021
   7.02888452  5.51117130  6.22712189
  14.63469867  5.51375608  4.83531393
   6.89288897  9.48972388  5.49133561
  14.49870312  9.49230866  4.09952765
   0.29449985  2.36263141  1.58391672
   7.90031400  2.36521619  0.19210876
   0.15850430  6.34118399  0.84813044
   7.76431845  6.34376877 -0.54367752
   0.02250875 10.31973657  0.11234416
   7.62832290 10.32232135 -1.27946380
   4.04608994  2.33812906  0.75801999
  11.65190409  2.34071384 -0.63378797
   3.91009439  6.31668164  0.02223371
  11.51590854  6.31926642 -1.36957425
   3.77409884 10.29523422 -0.71355257
  11.37991299 10.29781900 -2.10536053
   1.83345576  1.98992249 -0.71584513
   9.43926991  1.99250727 -2.10765309
   1.69746021  5.96847506 -1.45163141
   9.30327436  5.97105985 -2.84343937
   1.56146466  9.94702764 -2.18741769
   9.16727881  9.94961242 -3.57922565
   5.63636284  1.99121488 -1.41174911
  13.24217699  1.99379966 -2.80355707
   5.50036729  5.96976746 -2.14753539
  13.10618144  5.97235223 -3.53934335
   5.36437174  9.94832003 -2.88332167
  12.97018589  9.95090481 -4.27512963
   2.56366502  2.68224619  2.89273131
  10.16947917  2.68483097  1.50092335
   2.42766947  6.66079877  2.15694503
  10.03348362  6.66338355  0.76513707
   2.29167392 10.63935135  1.42115875
   9.89748807 10.64193613  0.02935079
   6.20386921  2.67183465  2.21863408
  13.80934743  2.68424714  0.82500860
   6.06753773  6.66021494  1.48103028
  13.67335188  6.66279972  0.08922232
   5.93154218 10.63876752  0.74524400
  13.53735633 10.64135230 -0.64656396
   1.04149084  1.18591681  6.22000481
   8.64730499  1.18850159  4.82819685
   0.90549529  5.16446939  5.48421853
   8.51130944  5.16705417  4.09241057
   0.76949974  9.14302197  4.74843225
   8.37531389  9.14560675  3.35662429
   5.00743673  1.18908542  5.50411160
  12.61325088  1.19167020  4.11230364
   4.87144118  5.16763800  4.76832532
  12.47725533  5.17022278  3.37651736
   4.73544563  9.14619058  4.03253904
  12.34125978  9.14877536  2.64073108
   3.25419674  3.50303184  7.20326219
  10.86001089  3.50561662  5.81145423
   3.11820119  7.48158442  6.46747591
  10.72401534  7.48416920  5.07566795
   2.98220564 11.46013700  5.73168963
  10.58801979 11.46272178  4.33988167
   7.07060589  3.50996289  6.53535219
  14.67642004  3.51254767  5.14354423
   6.93461034  7.48851547  5.79956591
  14.54042449  7.49110025  4.40775795
   6.79861479 11.46706805  5.06377964
  14.40442894 11.46965283  3.67197168
   0.35095911  0.36513116  1.90947393
   7.95677326  0.36771594  0.51766597
   0.21496356  4.34368374  1.17368765
   7.82077771  4.34626852 -0.21812031
   0.07896801  8.32223632  0.43790137
   7.68478216  8.32482110 -0.95390659
   4.14036412  0.36078489  1.18557596
  11.74617827  0.36336967 -0.20623200
   4.00436857  4.33933747  0.44978969
  11.61018272  4.34192225 -0.94201827
   3.86837302  8.31789005 -0.28599659
  11.47418717  8.32047483 -1.67780455
 


--------------------------------------------------------------------------------------------------------


 k-point  1 :   0.0000 0.0000 0.0000  plane waves:   71753
 k-point  2 :   0.5000-0.0000 0.0000  plane waves:   71808
 k-point  3 :  -0.0000 0.3333-0.0000  plane waves:   71807
 k-point  4 :   0.5000 0.3333-0.0000  plane waves:   71794
 k-point  5 :  -0.0000 0.0000 0.3333  plane waves:   71835
 k-point  6 :   0.5000 0.0000 0.3333  plane waves:   71814
 k-point  7 :  -0.0000 0.3333 0.3333  plane waves:   71857
 k-point  8 :   0.5000 0.3333 0.3333  plane waves:   71843
 k-point  9 :  -0.0000-0.3333 0.3333  plane waves:   71798
 k-point 10 :   0.5000-0.3333 0.3333  plane waves:   71816

 maximum and minimum number of plane-waves per node :     12032    11922

 maximum number of plane-waves:     71857
 maximum index in each direction: 
   IXMAX=   32   IYMAX=   25   IZMAX=   21
   IXMIN=  -32   IYMIN=  -25   IZMIN=  -22


 parallel 3D FFT for wavefunctions:
    minimum data exchange during FFTs selected (reduces bandwidth)
 parallel 3D FFT for charge:
    minimum data exchange during FFTs selected (reduces bandwidth)


 total amount of memory used by VASP MPI-rank0   980488. kBytes
=======================================================================

   base      :      30000. kBytes
   nonl-proj :      97026. kBytes
   fftplans  :      74745. kBytes
   grid      :      63949. kBytes
   one-center:        746. kBytes
   wavefun   :     714022. kBytes
 
     INWAV:  cpu time    0.0000: real time    0.0000
 Broyden mixing: mesh for mixing (old mesh)
   NGX = 65   NGY = 51   NGZ = 43
  (NGX  =280   NGY  =216   NGZ  =180)
  gives a total of 142545 points

 initial charge density was supplied:
 number of electron    1008.0000022 magnetization     143.9995912
 keeping initial charge density in first step


--------------------------------------------------------------------------------------------------------


 Maximum index for augmentation-charges         8931 (set IRDMAX)


--------------------------------------------------------------------------------------------------------


 First call to EWALD:  gamma=   0.143
 Maximum number of real-space cells 2x 3x 3
 Maximum number of reciprocal cells 3x 3x 2

    FEWALD:  cpu time    0.0113: real time    0.0113


--------------------------------------- Iteration      1(   1)  ---------------------------------------


    POTLOK:  cpu time    0.8157: real time    0.8260
    SETDIJ:  cpu time    1.7723: real time    1.7752
     EDDAV:  cpu time  338.1753: real time  341.1606
       DOS:  cpu time    0.0049: real time    0.0049
    --------------------------------------------
      LOOP:  cpu time  340.7682: real time  343.7666

 eigenvalue-minimisations  : 30512
 total energy-change (2. order) : 0.1337972E+05  (-0.5513867E+05)
 number of electron    1008.0000022 magnetization     143.9995912
 augmentation part     1008.0000022 magnetization     143.9995912

 Free energy of the ion-electron system (eV)
  ---------------------------------------------------
  alpha Z        PSCENC =      2668.72143546
  Ewald energy   TEWEN  =    -68025.90249929
  -Hartree energ DENC   =    -39875.37137053
  -exchange      EXHF   =         0.00000000
  -V(xc)+E(xc)   XCENC  =      4298.62078089
  PAW double counting   =    114383.84820647  -118048.71515856
  entropy T*S    EENTRO =        -0.02978666
  eigenvalues    EBANDS =      -564.32120080
  atomic energy  EATOM  =    118542.86816856
  Solvation  Ediel_sol  =         0.00000000
  ---------------------------------------------------
  free energy    TOTEN  =     13379.71857554 eV

  energy without entropy =    13379.74836221  energy(sigma->0) =    13379.73346888


--------------------------------------------------------------------------------------------------------




--------------------------------------- Iteration      1(   2)  ---------------------------------------


     EDDAV:  cpu time  324.5200: real time  329.2945
       DOS:  cpu time    0.0047: real time    0.0047
    --------------------------------------------
      LOOP:  cpu time  324.5247: real time  329.2992

 eigenvalue-minimisations  : 29120
 total energy-change (2. order) :-0.1195784E+05  (-0.1116173E+05)
 number of electron    1008.0000022 magnetization     143.9995912
 augmentation part     1008.0000022 magnetization     143.9995912

 Free energy of the ion-electron system (eV)
  ---------------------------------------------------
  alpha Z        PSCENC =      2668.72143546
  Ewald energy   TEWEN  =    -68025.90249929
  -Hartree energ DENC   =    -39875.37137053
  -exchange      EXHF   =         0.00000000
  -V(xc)+E(xc)   XCENC  =      4298.62078089
  PAW double counting   =    114383.84820647  -118048.71515856
  entropy T*S    EENTRO =        -0.08472216
  eigenvalues    EBANDS =    -12522.11043905
  atomic energy  EATOM  =    118542.86816856
  Solvation  Ediel_sol  =         0.00000000
  ---------------------------------------------------
  free energy    TOTEN  =      1421.87440180 eV

  energy without entropy =     1421.95912395  energy(sigma->0) =     1421.91676287


--------------------------------------------------------------------------------------------------------




--------------------------------------- Iteration      1(   3)  ---------------------------------------


     EDDAV:  cpu time  349.4736: real time  356.1005
       DOS:  cpu time    0.0018: real time    0.0019
    --------------------------------------------
      LOOP:  cpu time  349.4754: real time  356.1024

 eigenvalue-minimisations  : 32184
 total energy-change (2. order) :-0.1895278E+04  (-0.1678574E+04)
 number of electron    1008.0000022 magnetization     143.9995912
 augmentation part     1008.0000022 magnetization     143.9995912

 Free energy of the ion-electron system (eV)
  ---------------------------------------------------
  alpha Z        PSCENC =      2668.72143546
  Ewald energy   TEWEN  =    -68025.90249929
  -Hartree energ DENC   =    -39875.37137053
  -exchange      EXHF   =         0.00000000
  -V(xc)+E(xc)   XCENC  =      4298.62078089
  PAW double counting   =    114383.84820647  -118048.71515856
  entropy T*S    EENTRO =        -0.00000000
  eigenvalues    EBANDS =    -14417.47276269
  atomic energy  EATOM  =    118542.86816856
  Solvation  Ediel_sol  =         0.00000000
  ---------------------------------------------------
  free energy    TOTEN  =      -473.40319969 eV

  energy without entropy =     -473.40319969  energy(sigma->0) =     -473.40319969


--------------------------------------------------------------------------------------------------------




--------------------------------------- Iteration      1(   4)  ---------------------------------------


     EDDAV:  cpu time  392.3573: real time  400.0012
       DOS:  cpu time    0.0020: real time    0.0021
    --------------------------------------------
      LOOP:  cpu time  392.3592: real time  400.0033

 eigenvalue-minimisations  : 36992
 total energy-change (2. order) :-0.2425740E+03  (-0.2396595E+03)
 number of electron    1008.0000022 magnetization     143.9995912
 augmentation part     1008.0000022 magnetization     143.9995912

 Free energy of the ion-electron system (eV)
  ---------------------------------------------------
  alpha Z        PSCENC =      2668.72143546
  Ewald energy   TEWEN  =    -68025.90249929
  -Hartree energ DENC   =    -39875.37137053
  -exchange      EXHF   =         0.00000000
  -V(xc)+E(xc)   XCENC  =      4298.62078089
  PAW double counting   =    114383.84820647  -118048.71515856
  entropy T*S    EENTRO =        -0.00000000
  eigenvalues    EBANDS =    -14660.04680652
  atomic energy  EATOM  =    118542.86816856
  Solvation  Ediel_sol  =         0.00000000
  ---------------------------------------------------
  free energy    TOTEN  =      -715.97724352 eV

  energy without entropy =     -715.97724352  energy(sigma->0) =     -715.97724352


--------------------------------------------------------------------------------------------------------




--------------------------------------- Iteration      1(   5)  ---------------------------------------


     EDDAV:  cpu time  514.6672: real time  523.9288
       DOS:  cpu time    0.0022: real time    0.0024
    CHARGE:  cpu time   10.4339: real time   10.8130
    MIXING:  cpu time    0.0324: real time    0.0445
    --------------------------------------------
      LOOP:  cpu time  525.1358: real time  534.7887

 eigenvalue-minimisations  : 51776
 total energy-change (2. order) :-0.2938204E+02  (-0.2911495E+02)
 number of electron    1008.0000022 magnetization     143.9996870
 augmentation part      339.4263653 magnetization      94.9203850

 Broyden mixing:
  rms(total) = 0.35201E+00    rms(broyden)= 0.35183E+00
  rms(prec ) = 0.35503E+00
  weight for this iteration     100.00

 Free energy of the ion-electron system (eV)
  ---------------------------------------------------
  alpha Z        PSCENC =      2668.72143546
  Ewald energy   TEWEN  =    -68025.90249929
  -Hartree energ DENC   =    -39875.37137053
  -exchange      EXHF   =         0.00000000
  -V(xc)+E(xc)   XCENC  =      4298.62078089
  PAW double counting   =    114383.84820647  -118048.71515856
  entropy T*S    EENTRO =        -0.00000000
  eigenvalues    EBANDS =    -14689.42884756
  atomic energy  EATOM  =    118542.86816856
  Solvation  Ediel_sol  =         0.00000000
  ---------------------------------------------------
  free energy    TOTEN  =      -745.35928456 eV

  energy without entropy =     -745.35928456  energy(sigma->0) =     -745.35928456


--------------------------------------------------------------------------------------------------------




--------------------------------------- Iteration      1(   6)  ---------------------------------------


    POTLOK:  cpu time    0.8052: real time    0.8296
    SETDIJ:  cpu time    1.7282: real time    1.7758
     EDDAV:  cpu time  411.6945: real time  419.1671
       DOS:  cpu time    0.0025: real time    0.0028
    CHARGE:  cpu time   10.5090: real time   10.7579
    MIXING:  cpu time    0.0400: real time    0.0471
    --------------------------------------------
      LOOP:  cpu time  424.7794: real time  432.5803

 eigenvalue-minimisations  : 39472
 total energy-change (2. order) :-0.1222727E+01  (-0.1267924E+01)
 number of electron    1008.0000022 magnetization     143.9997390
 augmentation part      337.9551132 magnetization      94.7855048

 Broyden mixing:
  rms(total) = 0.14790E+00    rms(broyden)= 0.14771E+00
  rms(prec ) = 0.14873E+00
  weight for this iteration     100.00

 eigenvalues of (default mixing * dielectric matrix)
  average eigenvalue GAMMA=   0.6834
  0.6834

 Free energy of the ion-electron system (eV)
  ---------------------------------------------------
  alpha Z        PSCENC =      2668.72143546
  Ewald energy   TEWEN  =    -68025.90249929
  -Hartree energ DENC   =    -39867.89031273
  -exchange      EXHF   =         0.00000000
  -V(xc)+E(xc)   XCENC  =      4297.55444133
  PAW double counting   =    114125.94679777  -117785.66281364
  entropy T*S    EENTRO =        -0.00000000
  eigenvalues    EBANDS =    -14702.21722904
  atomic energy  EATOM  =    118542.86816856
  Solvation  Ediel_sol  =         0.00000000
  ---------------------------------------------------
  free energy    TOTEN  =      -746.58201159 eV

  energy without entropy =     -746.58201159  energy(sigma->0) =     -746.58201159


--------------------------------------------------------------------------------------------------------




--------------------------------------- Iteration      1(   7)  ---------------------------------------


    POTLOK:  cpu time    0.8109: real time    0.8140
    SETDIJ:  cpu time    1.7912: real time    1.8030
     EDDAV:  cpu time  466.4665: real time  474.1979
       DOS:  cpu time    0.0023: real time    0.0027
    CHARGE:  cpu time   10.6149: real time   10.7334
    MIXING:  cpu time    0.0331: real time    0.0442
    --------------------------------------------
      LOOP:  cpu time  479.7188: real time  487.5950

 eigenvalue-minimisations  : 46064
 total energy-change (2. order) :-0.5454213E-01  (-0.5552696E-01)
 number of electron    1008.0000022 magnetization     143.9997634
 augmentation part      337.7556004 magnetization      94.7545710

 Broyden mixing:
  rms(total) = 0.10333E+00    rms(broyden)= 0.10327E+00
  rms(prec ) = 0.10454E+00
  weight for this iteration     100.00

 eigenvalues of (default mixing * dielectric matrix)
  average eigenvalue GAMMA=   0.6097
  0.6097  0.6097

 Free energy of the ion-electron system (eV)
  ---------------------------------------------------
  alpha Z        PSCENC =      2668.72143546
  Ewald energy   TEWEN  =    -68025.90249929
  -Hartree energ DENC   =    -39870.68257243
  -exchange      EXHF   =         0.00000000
  -V(xc)+E(xc)   XCENC  =      4297.87730765
  PAW double counting   =    114193.93601695  -117855.13242136
  entropy T*S    EENTRO =        -0.00000000
  eigenvalues    EBANDS =    -14698.32198927
  atomic energy  EATOM  =    118542.86816856
  Solvation  Ediel_sol  =         0.00000000
  ---------------------------------------------------
  free energy    TOTEN  =      -746.63655372 eV

  energy without entropy =     -746.63655372  energy(sigma->0) =     -746.63655372


--------------------------------------------------------------------------------------------------------




--------------------------------------- Iteration      1(   8)  ---------------------------------------


    POTLOK:  cpu time    0.8145: real time    0.8302
    SETDIJ:  cpu time    1.7454: real time    1.7750
     EDDAV:  cpu time  440.4138: real time  449.1163
       DOS:  cpu time    0.0026: real time    0.0028
    CHARGE:  cpu time   10.5266: real time   10.7383
    MIXING:  cpu time    0.0269: real time    0.0355
    --------------------------------------------
      LOOP:  cpu time  453.5298: real time  462.4981

 eigenvalue-minimisations  : 42776
 total energy-change (2. order) : 0.7887948E-03  (-0.1841847E-02)
 number of electron    1008.0000022 magnetization     143.9997710
 augmentation part      337.7226877 magnetization      94.7324705

 Broyden mixing:
  rms(total) = 0.90400E-01    rms(broyden)= 0.90395E-01
  rms(prec ) = 0.91485E-01
  weight for this iteration     100.00

 eigenvalues of (default mixing * dielectric matrix)
  average eigenvalue GAMMA=   0.5265
  0.6148  0.6148  0.3498

 Free energy of the ion-electron system (eV)
  ---------------------------------------------------
  alpha Z        PSCENC =      2668.72143546
  Ewald energy   TEWEN  =    -68025.90249929
  -Hartree energ DENC   =    -39871.44568350
  -exchange      EXHF   =         0.00000000
  -V(xc)+E(xc)   XCENC  =      4298.00172506
  PAW double counting   =    114226.69245822  -117888.52405551
  entropy T*S    EENTRO =        -0.00000000
  eigenvalues    EBANDS =    -14697.04731392
  atomic energy  EATOM  =    118542.86816856
  Solvation  Ediel_sol  =         0.00000000
  ---------------------------------------------------
  free energy    TOTEN  =      -746.63576493 eV

  energy without entropy =     -746.63576493  energy(sigma->0) =     -746.63576493


--------------------------------------------------------------------------------------------------------




--------------------------------------- Iteration      1(   9)  ---------------------------------------


    POTLOK:  cpu time    0.8062: real time    0.8135
    SETDIJ:  cpu time    1.7654: real time    1.7730
     EDDAV:  cpu time  466.6660: real time  475.8737
       DOS:  cpu time    0.0023: real time    0.0026
    CHARGE:  cpu time   10.5480: real time   10.7603
    MIXING:  cpu time    0.0349: real time    0.0453
    --------------------------------------------
      LOOP:  cpu time  479.8228: real time  489.2685

 eigenvalue-minimisations  : 46152
 total energy-change (2. order) : 0.6231015E-03  (-0.1224157E-03)
 number of electron    1008.0000022 magnetization     143.9997872
 augmentation part      337.7315057 magnetization      94.7299476

 Broyden mixing:
  rms(total) = 0.84813E-01    rms(broyden)= 0.84813E-01
  rms(prec ) = 0.85813E-01
  weight for this iteration     100.00

 eigenvalues of (default mixing * dielectric matrix)
  average eigenvalue GAMMA=   0.5726
  0.6961  0.6961  0.4491  0.4491

 Free energy of the ion-electron system (eV)
  ---------------------------------------------------
  alpha Z        PSCENC =      2668.72143546
  Ewald energy   TEWEN  =    -68025.90249929
  -Hartree energ DENC   =    -39871.60861038
  -exchange      EXHF   =         0.00000000
  -V(xc)+E(xc)   XCENC  =      4298.03814496
  PAW double counting   =    114234.36912147  -117896.37521234
  entropy T*S    EENTRO =        -0.00000000
  eigenvalues    EBANDS =    -14696.74569026
  atomic energy  EATOM  =    118542.86816856
  Solvation  Ediel_sol  =         0.00000000
  ---------------------------------------------------
  free energy    TOTEN  =      -746.63514183 eV

  energy without entropy =     -746.63514183  energy(sigma->0) =     -746.63514183


--------------------------------------------------------------------------------------------------------




--------------------------------------- Iteration      1(  10)  ---------------------------------------


    POTLOK:  cpu time    0.8231: real time    0.8296
    SETDIJ:  cpu time    1.7760: real time    1.7937
     EDDAV:  cpu time  474.4920: real time  483.9126
       DOS:  cpu time    0.0025: real time    0.0034
    CHARGE:  cpu time   10.8429: real time   10.9016
    MIXING:  cpu time    0.0267: real time    0.0345
    --------------------------------------------
      LOOP:  cpu time  487.9632: real time  497.4754

 eigenvalue-minimisations  : 46560
 total energy-change (2. order) : 0.1036792E-02  (-0.1944530E-04)
 number of electron    1008.0000022 magnetization     143.9998379
 augmentation part      337.7386792 magnetization      94.7279475

 Broyden mixing:
  rms(total) = 0.75327E-01    rms(broyden)= 0.75327E-01
  rms(prec ) = 0.76180E-01
  weight for this iteration     100.00

 eigenvalues of (default mixing * dielectric matrix)
  average eigenvalue GAMMA=   0.7376
  1.0740  1.0740  0.5580  0.5580  0.4238

 Free energy of the ion-electron system (eV)
  ---------------------------------------------------
  alpha Z        PSCENC =      2668.72143546
  Ewald energy   TEWEN  =    -68025.90249929
  -Hartree energ DENC   =    -39872.06880063
  -exchange      EXHF   =         0.00000000
  -V(xc)+E(xc)   XCENC  =      4298.11280386
  PAW double counting   =    114249.74545271  -117912.10529708
  entropy T*S    EENTRO =        -0.00000000
  eigenvalues    EBANDS =    -14696.00536862
  atomic energy  EATOM  =    118542.86816856
  Solvation  Ediel_sol  =         0.00000000
  ---------------------------------------------------
  free energy    TOTEN  =      -746.63410503 eV

  energy without entropy =     -746.63410503  energy(sigma->0) =     -746.63410503


--------------------------------------------------------------------------------------------------------




--------------------------------------- Iteration      1(  11)  ---------------------------------------


    POTLOK:  cpu time    0.8023: real time    0.8174
    SETDIJ:  cpu time    1.7328: real time    1.7951
     EDDAV:  cpu time  482.0773: real time  490.6290
       DOS:  cpu time    0.0025: real time    0.0028
    CHARGE:  cpu time   10.8472: real time   10.9102
    MIXING:  cpu time    0.0277: real time    0.0347
    --------------------------------------------
      LOOP:  cpu time  495.4897: real time  504.1891

 eigenvalue-minimisations  : 47872
 total energy-change (2. order) : 0.2093761E-02  (-0.8491082E-04)
 number of electron    1008.0000022 magnetization     143.9998639
 augmentation part      337.7569068 magnetization      94.7274875

 Broyden mixing:
  rms(total) = 0.48424E-01    rms(broyden)= 0.48423E-01
  rms(prec ) = 0.48890E-01
  weight for this iteration     100.00

 eigenvalues of (default mixing * dielectric matrix)
  average eigenvalue GAMMA=   0.7915
  1.2828  1.2828  0.6219  0.6219  0.4699  0.4699

 Free energy of the ion-electron system (eV)
  ---------------------------------------------------
  alpha Z        PSCENC =      2668.72143546
  Ewald energy   TEWEN  =    -68025.90249929
  -Hartree energ DENC   =    -39873.36963084
  -exchange      EXHF   =         0.00000000
  -V(xc)+E(xc)   XCENC  =      4298.31802378
  PAW double counting   =    114295.25310077  -117958.60904718
  entropy T*S    EENTRO =        -0.00000000
  eigenvalues    EBANDS =    -14693.91156253
  atomic energy  EATOM  =    118542.86816856
  Solvation  Ediel_sol  =         0.00000000
  ---------------------------------------------------
  free energy    TOTEN  =      -746.63201127 eV

  energy without entropy =     -746.63201127  energy(sigma->0) =     -746.63201127


--------------------------------------------------------------------------------------------------------




--------------------------------------- Iteration      1(  12)  ---------------------------------------


    POTLOK:  cpu time    0.8069: real time    0.8074
    SETDIJ:  cpu time    1.8191: real time    1.8250
     EDDAV:  cpu time  372.4452: real time  379.4901
       DOS:  cpu time    0.0021: real time    0.0021
    CHARGE:  cpu time   10.7847: real time   10.9244
    MIXING:  cpu time    0.0273: real time    0.0350
    --------------------------------------------
      LOOP:  cpu time  385.8853: real time  393.0841

 eigenvalue-minimisations  : 35024
 total energy-change (2. order) : 0.4893861E-03  (-0.4987865E-04)
 number of electron    1008.0000022 magnetization     143.9998845
 augmentation part      337.7659562 magnetization      94.7262470

 Broyden mixing:
  rms(total) = 0.36801E-01    rms(broyden)= 0.36801E-01
  rms(prec ) = 0.37118E-01
  weight for this iteration     100.00

 eigenvalues of (default mixing * dielectric matrix)
  average eigenvalue GAMMA=   0.8368
  1.4669  1.4669  0.7260  0.7260  0.5128  0.5128  0.4464

 Free energy of the ion-electron system (eV)
  ---------------------------------------------------
  alpha Z        PSCENC =      2668.72143546
  Ewald energy   TEWEN  =    -68025.90249929
  -Hartree energ DENC   =    -39873.89003822
  -exchange      EXHF   =         0.00000000
  -V(xc)+E(xc)   XCENC  =      4298.39980219
  PAW double counting   =    114315.37672298  -117979.12932162
  entropy T*S    EENTRO =        -0.00000000
  eigenvalues    EBANDS =    -14693.07579195
  atomic energy  EATOM  =    118542.86816856
  Solvation  Ediel_sol  =         0.00000000
  ---------------------------------------------------
  free energy    TOTEN  =      -746.63152189 eV

  energy without entropy =     -746.63152189  energy(sigma->0) =     -746.63152189


--------------------------------------------------------------------------------------------------------




--------------------------------------- Iteration      1(  13)  ---------------------------------------


    POTLOK:  cpu time    0.8346: real time    0.8636
    SETDIJ:  cpu time    1.7669: real time    1.7680
     EDDAV:  cpu time  430.7726: real time  438.9531
       DOS:  cpu time    0.0020: real time    0.0023
    CHARGE:  cpu time   10.6326: real time   10.8883
    MIXING:  cpu time    0.0359: real time    0.0481
    --------------------------------------------
      LOOP:  cpu time  444.0446: real time  452.5233

 eigenvalue-minimisations  : 41824
 total energy-change (2. order) : 0.2319411E-03  (-0.1399426E-04)
 number of electron    1008.0000022 magnetization     143.9999037
 augmentation part      337.7710702 magnetization      94.7261758

 Broyden mixing:
  rms(total) = 0.29033E-01    rms(broyden)= 0.29033E-01
  rms(prec ) = 0.29265E-01
  weight for this iteration     100.00

 eigenvalues of (default mixing * dielectric matrix)
  average eigenvalue GAMMA=   0.8764
  1.6903  1.6903  0.8144  0.8144  0.5448  0.5448  0.4562  0.4562

 Free energy of the ion-electron system (eV)
  ---------------------------------------------------
  alpha Z        PSCENC =      2668.72143546
  Ewald energy   TEWEN  =    -68025.90249929
  -Hartree energ DENC   =    -39874.20232473
  -exchange      EXHF   =         0.00000000
  -V(xc)+E(xc)   XCENC  =      4298.45211547
  PAW double counting   =    114329.41935037  -117993.41986136
  entropy T*S    EENTRO =        -0.00000000
  eigenvalues    EBANDS =    -14692.56767442
  atomic energy  EATOM  =    118542.86816856
  Solvation  Ediel_sol  =         0.00000000
  ---------------------------------------------------
  free energy    TOTEN  =      -746.63128995 eV

  energy without entropy =     -746.63128995  energy(sigma->0) =     -746.63128995


--------------------------------------------------------------------------------------------------------




--------------------------------------- Iteration      1(  14)  ---------------------------------------


    POTLOK:  cpu time    0.8043: real time    0.8272
    SETDIJ:  cpu time    1.7806: real time    1.8136
     EDDAV:  cpu time  432.0171: real time  440.1598
       DOS:  cpu time    0.0020: real time    0.0020
    CHARGE:  cpu time   10.8027: real time   10.9347
    MIXING:  cpu time    0.0406: real time    0.0492
    --------------------------------------------
      LOOP:  cpu time  445.4473: real time  453.7866

 eigenvalue-minimisations  : 41944
 total energy-change (2. order) : 0.7626285E-04  (-0.1153472E-04)
 number of electron    1008.0000022 magnetization     143.9999244
 augmentation part      337.7780245 magnetization      94.7256121

 Broyden mixing:
  rms(total) = 0.23699E-01    rms(broyden)= 0.23699E-01
  rms(prec ) = 0.23888E-01
  weight for this iteration     100.00

 eigenvalues of (default mixing * dielectric matrix)
  average eigenvalue GAMMA=   0.9269
  1.9744  1.9744  0.9215  0.9215  0.5888  0.5888  0.4663  0.4663  0.4401

 Free energy of the ion-electron system (eV)
  ---------------------------------------------------
  alpha Z        PSCENC =      2668.72143546
  Ewald energy   TEWEN  =    -68025.90249929
  -Hartree energ DENC   =    -39874.39512751
  -exchange      EXHF   =         0.00000000
  -V(xc)+E(xc)   XCENC  =      4298.47949614
  PAW double counting   =    114339.21409043  -118003.33708750
  entropy T*S    EENTRO =        -0.00000000
  eigenvalues    EBANDS =    -14692.27968996
  atomic energy  EATOM  =    118542.86816856
  Solvation  Ediel_sol  =         0.00000000
  ---------------------------------------------------
  free energy    TOTEN  =      -746.63121368 eV

  energy without entropy =     -746.63121368  energy(sigma->0) =     -746.63121368


--------------------------------------------------------------------------------------------------------




--------------------------------------- Iteration      1(  15)  ---------------------------------------


    POTLOK:  cpu time    0.8187: real time    0.8245
    SETDIJ:  cpu time    1.7759: real time    1.7921
     EDDAV:  cpu time  338.3571: real time  343.9332
       DOS:  cpu time    0.0025: real time    0.0025
    CHARGE:  cpu time   10.7322: real time   10.9214
    MIXING:  cpu time    0.0307: real time    0.0412
    --------------------------------------------
      LOOP:  cpu time  351.7171: real time  357.5149

 eigenvalue-minimisations  : 30384
 total energy-change (2. order) : 0.9958688E-04  (-0.2929123E-05)
 number of electron    1008.0000022 magnetization     143.9999627
 augmentation part      337.7804314 magnetization      94.7251500

 Broyden mixing:
  rms(total) = 0.17407E-01    rms(broyden)= 0.17407E-01
  rms(prec ) = 0.17551E-01
  weight for this iteration     100.00

 eigenvalues of (default mixing * dielectric matrix)
  average eigenvalue GAMMA=   1.0319
  2.4011  2.4011  1.0525  1.0525  0.6993  0.6993  0.5386  0.5386  0.4682  0.4682

 Free energy of the ion-electron system (eV)
  ---------------------------------------------------
  alpha Z        PSCENC =      2668.72143546
  Ewald energy   TEWEN  =    -68025.90249929
  -Hartree energ DENC   =    -39874.65406319
  -exchange      EXHF   =         0.00000000
  -V(xc)+E(xc)   XCENC  =      4298.51689858
  PAW double counting   =    114351.07526756  -118015.37897632
  entropy T*S    EENTRO =        -0.00000000
  eigenvalues    EBANDS =    -14691.87734546
  atomic energy  EATOM  =    118542.86816856
  Solvation  Ediel_sol  =         0.00000000
  ---------------------------------------------------
  free energy    TOTEN  =      -746.63111410 eV

  energy without entropy =     -746.63111410  energy(sigma->0) =     -746.63111410


--------------------------------------------------------------------------------------------------------




--------------------------------------- Iteration      1(  16)  ---------------------------------------


    POTLOK:  cpu time    0.7929: real time    0.8129
    SETDIJ:  cpu time    1.7419: real time    1.7746
     EDDAV:  cpu time  419.8139: real time  427.3750
       DOS:  cpu time    0.0021: real time    0.0021
    CHARGE:  cpu time   10.5386: real time   10.8284
    MIXING:  cpu time    0.0590: real time    0.0754
    --------------------------------------------
      LOOP:  cpu time  432.9485: real time  440.8685

 eigenvalue-minimisations  : 40200
 total energy-change (2. order) : 0.1113542E-03  (-0.1163672E-04)
 number of electron    1008.0000022 magnetization     143.9999779
 augmentation part      337.7866297 magnetization      94.7244175

 Broyden mixing:
  rms(total) = 0.60031E-02    rms(broyden)= 0.60015E-02
  rms(prec ) = 0.60493E-02
  weight for this iteration     100.00

 eigenvalues of (default mixing * dielectric matrix)
  average eigenvalue GAMMA=   1.0710
  2.6211  2.6211  1.1713  1.1713  0.7898  0.7898  0.6007  0.6007  0.4803  0.4803
  0.4549

 Free energy of the ion-electron system (eV)
  ---------------------------------------------------
  alpha Z        PSCENC =      2668.72143546
  Ewald energy   TEWEN  =    -68025.90249929
  -Hartree energ DENC   =    -39875.15407904
  -exchange      EXHF   =         0.00000000
  -V(xc)+E(xc)   XCENC  =      4298.58780136
  PAW double counting   =    114372.31325554  -118036.96381296
  entropy T*S    EENTRO =        -0.00000000
  eigenvalues    EBANDS =    -14691.10127237
  atomic energy  EATOM  =    118542.86816856
  Solvation  Ediel_sol  =         0.00000000
  ---------------------------------------------------
  free energy    TOTEN  =      -746.63100274 eV

  energy without entropy =     -746.63100274  energy(sigma->0) =     -746.63100274


--------------------------------------------------------------------------------------------------------




--------------------------------------- Iteration      1(  17)  ---------------------------------------


    POTLOK:  cpu time    0.7980: real time    0.8119
    SETDIJ:  cpu time    1.7729: real time    1.8085
     EDDAV:  cpu time  405.5896: real time  413.2172
       DOS:  cpu time    0.0028: real time    0.0042
    CHARGE:  cpu time   10.8985: real time   10.9572
    MIXING:  cpu time    0.0382: real time    0.0478
    --------------------------------------------
      LOOP:  cpu time  419.1000: real time  426.8468

 eigenvalue-minimisations  : 38752
 total energy-change (2. order) : 0.8795527E-05  (-0.4059317E-05)
 number of electron    1008.0000022 magnetization     143.9999792
 augmentation part      337.7881136 magnetization      94.7241443

 Broyden mixing:
  rms(total) = 0.24741E-02    rms(broyden)= 0.24708E-02
  rms(prec ) = 0.24845E-02
  weight for this iteration     100.00

 eigenvalues of (default mixing * dielectric matrix)
  average eigenvalue GAMMA=   1.0323
  2.6836  2.6836  1.2162  1.2162  0.8055  0.8055  0.6059  0.6059  0.4488  0.4488
  0.4340  0.4340

 Free energy of the ion-electron system (eV)
  ---------------------------------------------------
  alpha Z        PSCENC =      2668.72143546
  Ewald energy   TEWEN  =    -68025.90249929
  -Hartree energ DENC   =    -39875.32428052
  -exchange      EXHF   =         0.00000000
  -V(xc)+E(xc)   XCENC  =      4298.61052522
  PAW double counting   =    114379.37735132  -118044.14442788
  entropy T*S    EENTRO =        -0.00000000
  eigenvalues    EBANDS =    -14690.83726681
  atomic energy  EATOM  =    118542.86816856
  Solvation  Ediel_sol  =         0.00000000
  ---------------------------------------------------
  free energy    TOTEN  =      -746.63099395 eV

  energy without entropy =     -746.63099395  energy(sigma->0) =     -746.63099395


--------------------------------------------------------------------------------------------------------




--------------------------------------- Iteration      1(  18)  ---------------------------------------


    POTLOK:  cpu time    0.7969: real time    0.8122
    SETDIJ:  cpu time    1.7412: real time    1.7746
     EDDAV:  cpu time  368.2545: real time  375.0239
       DOS:  cpu time    0.0025: real time    0.0026
    CHARGE:  cpu time   10.8203: real time   10.9439
    MIXING:  cpu time    0.0430: real time    0.0511
    --------------------------------------------
      LOOP:  cpu time  381.6583: real time  388.6084

 eigenvalue-minimisations  : 34184
 total energy-change (2. order) :-0.1946450E-05  (-0.1032371E-05)
 number of electron    1008.0000022 magnetization     143.9999795
 augmentation part      337.7897270 magnetization      94.7242013

 Broyden mixing:
  rms(total) = 0.24269E-02    rms(broyden)= 0.24236E-02
  rms(prec ) = 0.24352E-02
  weight for this iteration     100.00

 eigenvalues of (default mixing * dielectric matrix)
  average eigenvalue GAMMA=   0.9654
  2.7222  2.7222  1.2207  1.2207  0.8021  0.8021  0.6006  0.6006  0.4616  0.4616
  0.4120  0.2879  0.2357

 Free energy of the ion-electron system (eV)
  ---------------------------------------------------
  alpha Z        PSCENC =      2668.72143546
  Ewald energy   TEWEN  =    -68025.90249929
  -Hartree energ DENC   =    -39875.32096863
  -exchange      EXHF   =         0.00000000
  -V(xc)+E(xc)   XCENC  =      4298.60979611
  PAW double counting   =    114379.45198240  -118044.21929261
  entropy T*S    EENTRO =        -0.00000000
  eigenvalues    EBANDS =    -14690.83961790
  atomic energy  EATOM  =    118542.86816856
  Solvation  Ediel_sol  =         0.00000000
  ---------------------------------------------------
  free energy    TOTEN  =      -746.63099589 eV

  energy without entropy =     -746.63099589  energy(sigma->0) =     -746.63099589


--------------------------------------------------------------------------------------------------------




--------------------------------------- Iteration      1(  19)  ---------------------------------------


    POTLOK:  cpu time    0.8018: real time    0.8130
    SETDIJ:  cpu time    1.7509: real time    1.7911
     EDDAV:  cpu time  237.4452: real time  242.2932
       DOS:  cpu time    0.0017: real time    0.0019
    --------------------------------------------
      LOOP:  cpu time  239.9996: real time  244.8991

 eigenvalue-minimisations  : 18672
 total energy-change (2. order) :-0.3772293E-06  (-0.2313097E-07)
 number of electron    1008.0000022 magnetization     143.9999795
 augmentation part      337.7897270 magnetization      94.7242013

 Free energy of the ion-electron system (eV)
  ---------------------------------------------------
  alpha Z        PSCENC =      2668.72143546
  Ewald energy   TEWEN  =    -68025.90249929
  -Hartree energ DENC   =    -39875.31988128
  -exchange      EXHF   =         0.00000000
  -V(xc)+E(xc)   XCENC  =      4298.60946305
  PAW double counting   =    114379.45287341  -118044.21980371
  entropy T*S    EENTRO =        -0.00000000
  eigenvalues    EBANDS =    -14690.84075247
  atomic energy  EATOM  =    118542.86816856
  Solvation  Ediel_sol  =         0.00000000
  ---------------------------------------------------
  free energy    TOTEN  =      -746.63099627 eV

  energy without entropy =     -746.63099627  energy(sigma->0) =     -746.63099627


--------------------------------------------------------------------------------------------------------




 average (electrostatic) potential at core
  the test charge radii are     0.7079  0.9500  0.9698  0.7215
  (the norm of the test charge is              1.0000)
       1 -59.3408       2 -59.3408       3 -59.3426       4 -59.3420       5 -59.3420
       6 -59.3420       7 -59.3429       8 -59.3419       9 -59.3420      10 -59.3418
      11 -59.3411      12 -59.3418      13 -59.5854      14 -59.5853      15 -59.5857
      16 -59.5856      17 -59.5845      18 -59.5847      19 -59.5853      20 -59.5825
      21 -59.5854      22 -59.5881      23 -59.5851      24 -59.5853      25 -59.1666
      26 -59.1665      27 -59.1668      28 -59.1668      29 -59.1665      30 -59.1661
      31 -59.1058      32 -59.1058      33 -59.1064      34 -59.1059      35 -59.1050
      36 -59.1055      37 -59.1654      38 -59.1655      39 -59.1673      40 -59.1672
      41 -59.1664      42 -59.1667      43 -59.0987      44 -59.1058      45 -59.1127
      46 -59.1059      47 -59.1057      48 -59.1058      49 -79.1139      50 -79.1139
      51 -79.1148      52 -79.1140      53 -79.1130      54 -79.1138      55 -79.1106
      56 -79.1138      57 -79.1172      58 -79.1140      59 -79.1139      60 -79.1139
      61 -78.8415      62 -78.8416      63 -78.8428      64 -78.8426      65 -78.8419
      66 -78.8420      67 -78.9385      68 -78.9390      69 -78.9399      70 -78.9393
      71 -78.9390      72 -78.9390      73 -78.8420      74 -78.8420      75 -78.8424
      76 -78.8432      77 -78.8418      78 -78.8410      79 -78.9391      80 -78.9391
      81 -78.9403      82 -78.9394      83 -78.9380      84 -78.9390      85 -85.7923
      86 -85.7922      87 -85.7929      88 -85.7930      89 -85.7920      90 -85.7921
      91 -85.8156      92 -85.8158      93 -85.8168      94 -85.8161      95 -85.8153
      96 -85.8158      97 -85.8199      98 -85.8199      99 -85.8207     100 -85.8204
     101 -85.8192     102 -85.8195     103 -85.8436     104 -85.8437     105 -85.8459
     106 -85.8438     107 -85.8415     108 -85.8435     109 -85.8197     110 -85.8184
     111 -85.8202     112 -85.8214     113 -85.8199     114 -85.8199     115 -85.8417
     116 -85.8435     117 -85.8457     118 -85.8439     119 -85.8436     120 -85.8436
     121 -69.8787     122 -69.8787     123 -69.8790     124 -69.8789     125 -69.8781
     126 -69.8783     127 -70.3568     128 -70.3568     129 -70.3573     130 -70.3568
     131 -70.3562     132 -70.3566     133 -69.8783     134 -69.8758     135 -69.8787
     136 -69.8814     137 -69.8787     138 -69.8787     139 -70.3536     140 -70.3566
     141 -70.3599     142 -70.3569     143 -70.3568     144 -70.3568
 
 
 
 E-fermi :   5.0891     XC(G=0): -10.2425     alpha+bet :-12.3269


 spin component 1

 k-point     1 :       0.0000    0.0000    0.0000
  band No.  band energies     occupation 
      1     -51.6057      1.00000
      2     -51.6036      1.00000
      3     -51.6029      1.00000
      4     -51.6028      1.00000
      5     -51.6026      1.00000
      6     -51.6026      1.00000
      7     -51.6026      1.00000
      8     -51.6026      1.00000
      9     -51.6025      1.00000
     10     -51.6022      1.00000
     11     -51.6016      1.00000
     12     -51.5995      1.00000
     13     -51.4189      1.00000
     14     -51.4185      1.00000
     15     -51.4180      1.00000
     16     -51.4179      1.00000
     17     -51.4177      1.00000
     18     -51.4177      1.00000
     19     -51.4176      1.00000
     20     -51.4175      1.00000
     21     -51.4174      1.00000
     22     -51.4174      1.00000
     23     -51.4170      1.00000
     24     -51.4165      1.00000
     25     -51.2989      1.00000
     26     -51.2984      1.00000
     27     -51.2983      1.00000
     28     -51.2981      1.00000
     29     -51.2978      1.00000
     30     -51.2977      1.00000
[...]
   -.110E+03 -.126E+02 -.435E+02   0.110E+03 0.125E+02 0.434E+02   -.226E+00 0.827E-01 0.441E-01   -.228E-03 0.745E-03 -.417E-04
   -.110E+03 -.118E+02 -.436E+02   0.110E+03 0.118E+02 0.436E+02   -.224E+00 0.301E-02 0.581E-01   -.222E-03 0.115E-03 0.164E-03
   -.110E+03 -.116E+02 -.437E+02   0.110E+03 0.116E+02 0.436E+02   -.224E+00 -.552E-02 0.595E-01   -.151E-03 -.717E-04 0.119E-03
   -.110E+03 -.118E+02 -.436E+02   0.110E+03 0.118E+02 0.436E+02   -.224E+00 0.265E-02 0.580E-01   -.211E-03 0.357E-04 0.134E-03
   -.110E+03 -.116E+02 -.437E+02   0.110E+03 0.116E+02 0.436E+02   -.223E+00 -.547E-02 0.596E-01   -.204E-03 -.823E-04 0.561E-04
   -.110E+03 -.118E+02 -.436E+02   0.110E+03 0.118E+02 0.436E+02   -.224E+00 0.270E-02 0.582E-01   -.224E-03 -.487E-04 0.133E-03
   -.101E+03 0.332E+02 0.198E+03   0.101E+03 -.333E+02 -.199E+03   -.481E+00 0.165E+00 0.974E+00   -.217E-03 0.111E-03 0.261E-03
   -.101E+03 0.332E+02 0.198E+03   0.101E+03 -.333E+02 -.199E+03   -.476E+00 0.163E+00 0.979E+00   -.160E-03 0.953E-04 0.263E-03
   -.101E+03 0.332E+02 0.198E+03   0.101E+03 -.334E+02 -.199E+03   -.480E+00 0.165E+00 0.974E+00   -.231E-03 0.587E-04 0.223E-03
   -.100E+03 0.332E+02 0.198E+03   0.101E+03 -.334E+02 -.199E+03   -.484E+00 0.161E+00 0.970E+00   -.261E-03 0.143E-03 0.196E-03
   -.101E+03 0.332E+02 0.198E+03   0.101E+03 -.334E+02 -.199E+03   -.480E+00 0.164E+00 0.974E+00   -.196E-03 -.457E-04 0.198E-03
   -.101E+03 0.332E+02 0.198E+03   0.101E+03 -.334E+02 -.199E+03   -.480E+00 0.163E+00 0.974E+00   -.206E-03 -.114E-03 0.232E-03
   0.110E+03 0.118E+02 0.435E+02   -.110E+03 -.118E+02 -.435E+02   0.222E+00 -.424E-02 -.501E-01   0.129E-03 0.292E-04 -.867E-04
   0.110E+03 0.118E+02 0.436E+02   -.110E+03 -.118E+02 -.436E+02   0.224E+00 -.257E-02 -.583E-01   0.176E-03 0.477E-04 -.979E-04
   0.110E+03 0.118E+02 0.437E+02   -.110E+03 -.118E+02 -.437E+02   0.226E+00 -.690E-02 -.648E-01   0.259E-03 0.859E-04 -.847E-04
   0.110E+03 0.118E+02 0.436E+02   -.110E+03 -.118E+02 -.436E+02   0.223E+00 -.261E-02 -.579E-01   0.154E-03 0.349E-04 -.840E-04
   0.110E+03 0.119E+02 0.436E+02   -.110E+03 -.119E+02 -.436E+02   0.224E+00 -.447E-02 -.580E-01   0.194E-03 -.170E-03 -.421E-04
   0.110E+03 0.118E+02 0.436E+02   -.110E+03 -.118E+02 -.436E+02   0.224E+00 -.317E-02 -.581E-01   0.162E-03 -.117E-03 -.655E-04
   0.102E+02 0.965E+01 0.504E+02   -.105E+02 -.972E+01 -.508E+02   0.330E+00 0.763E-01 0.332E+00   -.902E-04 0.738E-04 -.138E-03
   0.102E+02 0.966E+01 0.504E+02   -.105E+02 -.973E+01 -.508E+02   0.329E+00 0.754E-01 0.332E+00   -.115E-03 0.874E-04 -.111E-03
   0.102E+02 0.970E+01 0.505E+02   -.105E+02 -.977E+01 -.508E+02   0.331E+00 0.699E-01 0.331E+00   0.131E-03 -.918E-04 -.128E-03
   0.102E+02 0.969E+01 0.504E+02   -.105E+02 -.976E+01 -.508E+02   0.328E+00 0.706E-01 0.332E+00   -.778E-04 -.922E-04 -.138E-03
   0.102E+02 0.968E+01 0.504E+02   -.105E+02 -.975E+01 -.508E+02   0.328E+00 0.718E-01 0.333E+00   0.263E-04 -.559E-04 -.207E-03
   0.102E+02 0.968E+01 0.504E+02   -.105E+02 -.976E+01 -.508E+02   0.331E+00 0.719E-01 0.333E+00   -.669E-04 -.107E-03 -.195E-03
   -.603E+01 -.203E+02 -.109E+03   0.623E+01 0.209E+02 0.112E+03   -.201E+00 -.588E+00 -.317E+01   0.123E-03 0.217E-03 0.847E-04
   -.604E+01 -.203E+02 -.109E+03   0.624E+01 0.209E+02 0.112E+03   -.201E+00 -.591E+00 -.317E+01   0.119E-03 0.354E-04 0.889E-05
   -.603E+01 -.202E+02 -.109E+03   0.623E+01 0.208E+02 0.112E+03   -.202E+00 -.595E+00 -.317E+01   0.964E-04 -.113E-03 0.453E-05
   -.603E+01 -.203E+02 -.109E+03   0.623E+01 0.209E+02 0.112E+03   -.201E+00 -.593E+00 -.317E+01   -.108E-03 -.889E-04 -.357E-04
   -.604E+01 -.203E+02 -.109E+03   0.624E+01 0.209E+02 0.112E+03   -.201E+00 -.593E+00 -.317E+01   0.815E-04 -.407E-04 0.118E-03
   -.603E+01 -.203E+02 -.109E+03   0.623E+01 0.209E+02 0.112E+03   -.201E+00 -.592E+00 -.317E+01   -.748E-04 0.688E-04 0.485E-03
   -.102E+02 -.968E+01 -.504E+02   0.105E+02 0.976E+01 0.508E+02   -.330E+00 -.722E-01 -.332E+00   -.507E-04 -.539E-04 -.459E-03
   -.103E+02 -.962E+01 -.503E+02   0.107E+02 0.970E+01 0.506E+02   -.318E+00 -.844E-01 -.346E+00   0.988E-04 -.733E-05 -.757E-05
   -.102E+02 -.969E+01 -.504E+02   0.106E+02 0.976E+01 0.508E+02   -.329E+00 -.719E-01 -.332E+00   0.152E-03 0.650E-04 0.365E-04
   -.101E+02 -.968E+01 -.506E+02   0.104E+02 0.975E+01 0.509E+02   -.341E+00 -.783E-01 -.314E+00   0.119E-04 0.103E-03 0.802E-04
   -.102E+02 -.966E+01 -.504E+02   0.105E+02 0.974E+01 0.508E+02   -.330E+00 -.747E-01 -.332E+00   0.179E-03 -.899E-04 0.161E-03
   -.102E+02 -.961E+01 -.505E+02   0.105E+02 0.969E+01 0.508E+02   -.329E+00 -.775E-01 -.331E+00   0.407E-05 -.186E-03 0.142E-03
   0.622E+01 0.204E+02 0.109E+03   -.641E+01 -.209E+02 -.112E+03   0.185E+00 0.581E+00 0.316E+01   -.144E-03 -.837E-05 0.322E-04
   0.602E+01 0.203E+02 0.109E+03   -.622E+01 -.209E+02 -.112E+03   0.202E+00 0.593E+00 0.317E+01   -.223E-03 -.119E-04 0.286E-04
   0.584E+01 0.203E+02 0.108E+03   -.606E+01 -.209E+02 -.112E+03   0.218E+00 0.587E+00 0.318E+01   -.525E-04 0.492E-04 -.559E-04
   0.604E+01 0.203E+02 0.109E+03   -.624E+01 -.209E+02 -.112E+03   0.201E+00 0.593E+00 0.317E+01   -.237E-03 0.948E-04 -.329E-05
   0.603E+01 0.203E+02 0.109E+03   -.623E+01 -.209E+02 -.112E+03   0.202E+00 0.588E+00 0.317E+01   -.983E-04 -.123E-03 -.780E-04
   0.603E+01 0.203E+02 0.109E+03   -.623E+01 -.209E+02 -.112E+03   0.201E+00 0.591E+00 0.317E+01   -.141E-03 -.779E-04 -.785E-05
 -----------------------------------------------------------------------------------------------
   0.177E-03 0.315E-01 -.552E-02   0.267E-12 -.291E-12 -.867E-12   0.835E-03 -.313E-01 0.624E-02   -.105E-02 -.774E-04 -.711E-03
 
 
 POSITION                                       TOTAL-FORCE (eV/Angst)
 -----------------------------------------------------------------------------------
      7.22913      0.01083     -1.27758         0.000315     -0.000094      0.000442
     14.83494      0.01342     -2.66938         0.000152     -0.000148     -0.000133
      7.09313      3.98939     -2.01336        -0.000043     -0.000570     -0.000728
     14.69895      3.99197     -3.40517         0.000109     -0.000238     -0.000128
      6.95714      7.96794     -2.74915         0.000139      0.000289     -0.000113
     14.56295      7.97052     -4.14096         0.000137      0.000062     -0.000153
      3.98184      3.85991      8.99850        -0.000147     -0.000312     -0.000572
     11.58765      3.86250      7.60670        -0.000112     -0.000044      0.000140
      3.84584      7.83847      8.26272        -0.000149      0.000494      0.000153
     11.45166      7.84105      6.87091        -0.000107      0.000290      0.000164
      3.70985     11.81702      7.52693        -0.000120      0.000151      0.000833
     11.31566     11.81960      6.13512        -0.000197      0.000078      0.000111
      2.55910      3.13146      5.32254        -0.000439      0.000050      0.000159
     10.16492      3.13404      3.93074        -0.000427     -0.000104      0.000200
      2.42311      7.11001      4.58676        -0.000650      0.000688      0.000208
     10.02892      7.11259      3.19495        -0.000290      0.000752      0.000041
      2.28711     11.08856      3.85097        -0.000243      0.000609     -0.000017
      9.89292     11.09115      2.45916        -0.000621      0.000713      0.000117
      1.04605      0.73671      3.79019         0.000553     -0.000657     -0.000074
      8.65187      0.73929      2.39838        -0.002403      0.000499     -0.000289
      0.91006      4.71526      3.05441         0.000348     -0.000676     -0.000097
      8.51587      4.71784      1.66260         0.003218      0.000667     -0.000364
      0.77406      8.69381      2.31862         0.000431     -0.000026     -0.000177
      8.37988      8.69640      0.92681         0.000424      0.000187     -0.000206
      1.45504      3.57815      7.94200        -0.000344     -0.000070     -0.000220
      9.06085      3.58074      6.55019        -0.000257     -0.000373     -0.000171
      1.31904      7.55671      7.20621        -0.000379      0.000322     -0.000219
      8.92486      7.55929      5.81440        -0.000246      0.000577     -0.000080
      1.18305     11.53526      6.47042        -0.000168      0.000059     -0.000185
      8.78886     11.53784      5.07861        -0.000397      0.000268     -0.000395
      5.07438      3.44123      6.53268        -0.001293     -0.001113      0.000095
     12.68020      3.44382      5.14088        -0.001326     -0.000341     -0.000024
      4.93839      7.41979      5.79690        -0.001286      0.000463      0.000037
     12.54420      7.42237      4.40509        -0.001267     -0.000175     -0.000055
      4.80239     11.39834      5.06111        -0.001395      0.000122     -0.000268
     12.40821     11.40092      3.66930        -0.001390     -0.000222     -0.000024
      2.15012      0.29001      1.17074         0.001046     -0.000286      0.000210
      9.75593      0.29260     -0.22107        -0.000308     -0.000212      0.000363
      2.01412      4.26856      0.43495        -0.000409     -0.000386      0.000276
      9.61994      4.27115     -0.95685         0.000906     -0.000385      0.000100
      1.87813      8.24712     -0.30083         0.000280      0.000242      0.000153
      9.48394      8.24970     -1.69264         0.000305      0.000181      0.000175
      6.13659      0.42951      1.18824         0.001597     -0.007525     -0.001903
     13.74240      0.43210     -0.20356         0.001309      0.000222      0.000039
      6.00059      4.40807      0.45246         0.001514     -0.006184      0.004285
     13.60640      4.41065     -0.93935         0.001324      0.000187      0.000040
      5.86459      8.38662     -0.28333         0.001283      0.001313     -0.000127
     13.47041      8.38920     -1.67514         0.001329      0.000332      0.000018
      6.92999      3.12103      4.45828         0.000012     -0.001433     -0.000037
     14.53580      3.12361      3.06647        -0.000007      0.000189     -0.000177
      6.79399      7.09958      3.72249         0.000296      0.001564      0.000536
     14.39981      7.10216      2.33068         0.000000      0.000635     -0.000159
      6.65800     11.07813      2.98670        -0.000356      0.001097     -0.001176
     14.26381     11.08072      1.59490        -0.000003      0.000512     -0.000251
      4.28098      0.74972      3.26265         0.004325     -0.000294     -0.001171
     11.88680      0.75231      1.87084        -0.000026     -0.000667      0.000241
      4.14499      4.72827      2.52686        -0.004402     -0.000087      0.001416
     11.75080      4.73086      1.13506         0.000033     -0.000737      0.000199
      4.00899      8.70683      1.79108        -0.000021      0.000954      0.000001
     11.61480      8.70941      0.39927        -0.000003     -0.000016      0.000151
      3.31066      1.50553      7.52882         0.000744     -0.000745     -0.000403
     10.91647      1.50812      6.13701        -0.000596     -0.000556     -0.000050
      3.17466      5.48408      6.79303        -0.000714     -0.000363      0.000692
     10.78047      5.48667      5.40123         0.000811     -0.000361      0.000371
      3.03866      9.46264      6.05725         0.000171      0.000356      0.000321
     10.64448      9.46522      4.66544        -0.000026      0.000188      0.000285
      7.16488      1.53262      6.96291        -0.000471     -0.000488     -0.000817
     14.77069      1.53520      5.57110        -0.000240     -0.000045     -0.000188
      7.02888      5.51117      6.22712         0.000072     -0.000086      0.000355
     14.63470      5.51376      4.83531        -0.000395     -0.000033     -0.000231
      6.89289      9.48972      5.49134        -0.000326      0.000728     -0.000002
     14.49870      9.49231      4.09953        -0.000084      0.000106     -0.000019
      0.29450      2.36263      1.58392        -0.000065      0.000106     -0.000246
      7.90031      2.36522      0.19211         0.000071     -0.005337      0.000691
      0.15850      6.34118      0.84813        -0.000368      0.000211     -0.000269
      7.76432      6.34377     -0.54368         0.000415      0.002038     -0.000887
      0.02251     10.31974      0.11234         0.000248      0.000284     -0.000074
      7.62832     10.32232     -1.27946        -0.000639      0.002293     -0.000090
      4.04609      2.33813      0.75802         0.000470     -0.004045      0.000782
     11.65190      2.34071     -0.63379         0.000158     -0.000180      0.000105
      3.91009      6.31668      0.02223        -0.000415      0.002007     -0.000552
     11.51591      6.31927     -1.36957         0.000459      0.000060      0.000146
      3.77410     10.29523     -0.71355         0.000695      0.002236      0.000187
     11.37991     10.29782     -2.10536         0.000095      0.000100      0.000187
      1.83346      1.98992     -0.71585        -0.000075      0.000466      0.000001
      9.43927      1.99251     -2.10765         0.000075      0.000500      0.000223
      1.69746      5.96848     -1.45163         0.000535     -0.000236      0.000301
      9.30327      5.97106     -2.84344        -0.000374     -0.000219      0.000147
      1.56146      9.94703     -2.18742        -0.000455     -0.000505     -0.000265
      9.16728      9.94961     -3.57923         0.000311     -0.000524     -0.000327
      5.63636      1.99121     -1.41175         0.000004      0.001357      0.000157
     13.24218      1.99380     -2.80356         0.000056      0.000108      0.000031
      5.50037      5.96977     -2.14754         0.000028     -0.000302      0.000262
     13.10618      5.97235     -3.53934        -0.000052     -0.000002     -0.000023
      5.36437      9.94832     -2.88332        -0.000043     -0.000692     -0.000487
     12.97019      9.95090     -4.27513        -0.000020     -0.000114     -0.000000
      2.56367      2.68225      2.89273        -0.000039      0.001595     -0.000181
     10.16948      2.68483      1.50092        -0.000006      0.000680      0.000017
      2.42767      6.66080      2.15695         0.000842     -0.000906      0.000189
     10.03348      6.66338      0.76514        -0.000434     -0.000751      0.000189
      2.29167     10.63935      1.42116        -0.000768     -0.000927      0.000281
      9.89749     10.64194      0.02935         0.000484     -0.000736      0.000189
      6.20387      2.67183      2.21863        -0.001190      0.041181     -0.007174
     13.80935      2.68425      0.82501         0.000114     -0.000225     -0.000001
      6.06754      6.66021      1.48103         0.000175     -0.004496      0.000785
     13.67335      6.66280      0.08922         0.000124     -0.000373     -0.000044
      5.93154     10.63877      0.74524         0.000314     -0.004561      0.000665
     13.53736     10.64135     -0.64656         0.000076     -0.000359      0.000010
      1.04149      1.18592      6.22000        -0.000191      0.000534     -0.000164
      8.64730      1.18850      4.82820         0.002239     -0.000225      0.002076
      0.90550      5.16447      5.48422         0.000161      0.000500     -0.000128
      8.51131      5.16705      4.09241        -0.002196     -0.001165     -0.001910
      0.76950      9.14302      4.74843        -0.000040      0.000156     -0.000177
      8.37531      9.14561      3.35662        -0.000006     -0.000326     -0.000086
      5.00744      1.18909      5.50411        -0.001270     -0.000253      0.004138
     12.61325      1.19167      4.11230         0.000014      0.000403     -0.000049
      4.87144      5.16764      4.76833         0.001166     -0.001641     -0.003516
     12.47726      5.17022      3.37652        -0.000218      0.000392      0.000070
      4.73545      9.14619      4.03254        -0.000098     -0.000414      0.000016
     12.34126      9.14878      2.64073        -0.000107      0.000147      0.000001
      3.25420      3.50303      7.20326        -0.000034      0.001301     -0.000070
     10.86001      3.50562      5.81145        -0.000056      0.000982     -0.000114
      3.11820      7.48158      6.46748         0.000263     -0.001021     -0.000102
     10.72402      7.48417      5.07567        -0.000301     -0.000749      0.000016
      2.98221     11.46014      5.73169        -0.000301     -0.000338      0.000321
     10.58802     11.46272      4.33988         0.000318     -0.000309      0.000243
      7.07061      3.50996      6.53535        -0.000473      0.001368     -0.000382
     14.67642      3.51255      5.14354        -0.000426      0.000182     -0.000252
      6.93461      7.48852      5.79957        -0.000494     -0.001238     -0.000444
     14.54042      7.49110      4.40776        -0.000410     -0.000480     -0.000172
      6.79861     11.46707      5.06378        -0.000340     -0.000561      0.000131
     14.40443     11.46965      3.67197        -0.000444     -0.000119     -0.000290
      0.35096      0.36513      1.90947        -0.000055      0.000196      0.000057
      7.95677      0.36772      0.51767         0.003797     -0.004445     -0.004616
      0.21496      4.34368      1.17369         0.000077      0.000291     -0.000148
      7.82078      4.34627     -0.21812        -0.003488     -0.002418      0.005833
      0.07897      8.32224      0.43790         0.000027     -0.000716      0.000074
      7.68478      8.32482     -0.95391         0.000071     -0.001832      0.000239
      4.14036      0.36078      1.18558        -0.005188     -0.004606     -0.003906
     11.74618      0.36337     -0.20623         0.000552      0.000268      0.000248
      4.00437      4.33934      0.44979         0.006255     -0.002218      0.005685
     11.61018      4.34192     -0.94202         0.000348      0.000433      0.000156
      3.86837      8.31789     -0.28600         0.000508     -0.001616      0.000497
     11.47419      8.32047     -1.67780         0.000432     -0.000291      0.000274
 -----------------------------------------------------------------------------------
    total drift:                               -0.000037      0.000090      0.000008


--------------------------------------------------------------------------------------------------------



  FREE ENERGIE OF THE ION-ELECTRON SYSTEM (eV)
  ---------------------------------------------------
  free  energy   TOTEN  =      -746.63099627 eV

  energy  without entropy=     -746.63099627  energy(sigma->0) =     -746.63099627
 


--------------------------------------------------------------------------------------------------------


    POTLOK:  cpu time    2.6090: real time    2.6110


--------------------------------------------------------------------------------------------------------


     LOOP+:  cpu time 8433.2327: real time 8582.4767
    4ORBIT:  cpu time    0.0000: real time    0.0000

 total amount of memory used by VASP MPI-rank0   980488. kBytes
=======================================================================

   base      :      30000. kBytes
   nonl-proj :      97026. kBytes
   fftplans  :      74745. kBytes
   grid      :      63949. kBytes
   one-center:        746. kBytes
   wavefun   :     714022. kBytes
 
  
  
 General timing and accounting informations for this job:
 ========================================================
  
                  Total CPU time used (sec):     8569.431
                            User time (sec):     8479.347
                          System time (sec):       90.084
                         Elapsed time (sec):     8720.880
  
                   Maximum memory used (kb):     1176176.
                   Average memory used (kb):           0.
  
                          Minor page faults:       550158
                          Major page faults:           17
                 Voluntary context switches:        89524
