 320 320   0   0
  0.1216366E+02  0.1589065E-08  0.1589065E-08  0.1541455E-08  0.5000000E-15
  1.000000000000000E-004
  CAR 
 unknown system                          
     16.94928693    -54.73074691  301      5.03248130      1.00000000
    -54.731  0.0000E+00  0.0000E+00  0.0000E+00  0.0000E+00
    -54.492  0.0000E+00  0.0000E+00  0.0000E+00  0.0000E+00
    -54.253  0.0000E+00  0.0000E+00  0.0000E+00  0.0000E+00
    -54.014  0.0000E+00  0.0000E+00  0.0000E+00  0.0000E+00
    -53.775  0.0000E+00  0.0000E+00  0.0000E+00  0.0000E+00
    -53.536  0.0000E+00  0.0000E+00  0.0000E+00  0.0000E+00
    -53.297  0.0000E+00  0.0000E+00  0.0000E+00  0.0000E+00
    -53.058  0.0000E+00  0.0000E+00  0.0000E+00  0.0000E+00
    -52.819  0.0000E+00  0.0000E+00  0.0000E+00  0.0000E+00
    -52.580  0.0000E+00  0.0000E+00  0.0000E+00  0.0000E+00
    -52.341  0.0000E+00  0.0000E+00  0.0000E+00  0.0000E+00
    -52.102  0.0000E+00  0.0000E+00  0.0000E+00  0.0000E+00
    -51.864  0.0000E+00  0.0000E+00  0.0000E+00  0.0000E+00
    -51.625  0.1254E-02  0.0000E+00  0.2997E-03  0.0000E+00
    -51.386  0.2652E+03  0.0000E+00  0.6335E+02  0.0000E+00
    -51.147  0.2702E+01  0.0000E+00  0.6400E+02  0.0000E+00
    -50.908  0.0000E+00  0.0000E+00  0.6400E+02  0.0000E+00
    -50.669  0.0000E+00  0.0000E+00  0.6400E+02  0.0000E+00
    -50.430  0.0000E+00  0.0000E+00  0.6400E+02  0.0000E+00
    -50.191  0.3122E-01  0.0000E+00  0.6401E+02  0.0000E+00
    -49.952  0.5326E+03  0.0000E+00  0.1913E+03  0.0000E+00
    -49.713  0.3125E+01  0.0000E+00  0.1920E+03  0.0000E+00
    -49.474  0.0000E+00  0.0000E+00  0.1920E+03  0.0000E+00
    -49.235  0.0000E+00  0.0000E+00  0.1920E+03  0.0000E+00
    -48.996  0.0000E+00  0.0000E+00  0.1920E+03  0.0000E+00
    -48.757  0.0000E+00  0.0000E+00  0.1920E+03  0.0000E+00
    -48.518  0.0000E+00  0.0000E+00  0.1920E+03  0.0000E+00
    -48.280  0.0000E+00  0.0000E+00  0.1920E+03  0.0000E+00
    -48.041  0.0000E+00  0.0000E+00  0.1920E+03  0.0000E+00
    -47.802  0.0000E+00  0.0000E+00  0.1920E+03  0.0000E+00
    -47.563  0.0000E+00  0.0000E+00  0.1920E+03  0.0000E+00
    -47.324  0.0000E+00  0.0000E+00  0.1920E+03  0.0000E+00
    -47.085  0.0000E+00  0.0000E+00  0.1920E+03  0.0000E+00
    -46.846  0.0000E+00  0.9116E-01  0.1920E+03  0.2178E-01
    -46.607  0.0000E+00  0.2677E+03  0.1920E+03  0.6397E+02
    -46.368  0.0000E+00  0.1102E+03  0.1920E+03  0.9031E+02
    -46.129  0.0000E+00  0.4256E+03  0.1920E+03  0.1920E+03
    -45.890  0.0000E+00  0.0000E+00  0.1920E+03  0.1920E+03
    -45.651  0.0000E+00  0.0000E+00  0.1920E+03  0.1920E+03
    -45.412  0.0000E+00  0.0000E+00  0.1920E+03  0.1920E+03
    -45.173  0.0000E+00  0.0000E+00  0.1920E+03  0.1920E+03
    -44.934  0.0000E+00  0.0000E+00  0.1920E+03  0.1920E+03
    -44.696  0.0000E+00  0.0000E+00  0.1920E+03  0.1920E+03
    -44.457  0.0000E+00  0.0000E+00  0.1920E+03  0.1920E+03
    -44.218  0.0000E+00  0.0000E+00  0.1920E+03  0.1920E+03
    -43.979  0.0000E+00  0.0000E+00  0.1920E+03  0.1920E+03
    -43.740  0.0000E+00  0.0000E+00  0.1920E+03  0.1920E+03
    -43.501  0.0000E+00  0.0000E+00  0.1920E+03  0.1920E+03
    -43.262  0.0000E+00  0.0000E+00  0.1920E+03  0.1920E+03
    -43.023  0.0000E+00  0.0000E+00  0.1920E+03  0.1920E+03
    -42.784  0.0000E+00  0.0000E+00  0.1920E+03  0.1920E+03
    -42.545  0.0000E+00  0.0000E+00  0.1920E+03  0.1920E+03
    -42.306  0.0000E+00  0.0000E+00  0.1920E+03  0.1920E+03
    -42.067  0.0000E+00  0.0000E+00  0.1920E+03  0.1920E+03
    -41.828  0.0000E+00  0.0000E+00  0.1920E+03  0.1920E+03
    -41.589  0.0000E+00  0.0000E+00  0.1920E+03  0.1920E+03
    -41.350  0.0000E+00  0.0000E+00  0.1920E+03  0.1920E+03
    -41.112  0.0000E+00  0.0000E+00  0.1920E+03  0.1920E+03
    -40.873  0.0000E+00  0.0000E+00  0.1920E+03  0.1920E+03
    -40.634  0.6587E-10  0.4336E-10  0.1920E+03  0.1920E+03
    -40.395  0.8460E+02  0.7927E+02  0.2122E+03  0.2109E+03
    -40.156  0.4487E+03  0.4544E+03  0.3194E+03  0.3195E+03
    -39.917  0.2433E+01  0.2011E+01  0.3200E+03  0.3200E+03
    -39.678  0.0000E+00  0.0000E+00  0.3200E+03  0.3200E+03
    -39.439  0.0000E+00  0.0000E+00  0.3200E+03  0.3200E+03
    -39.200  0.0000E+00  0.0000E+00  0.3200E+03  0.3200E+03
    -38.961  0.0000E+00  0.0000E+00  0.3200E+03  0.3200E+03
    -38.722  0.0000E+00  0.0000E+00  0.3200E+03  0.3200E+03
    -38.483  0.0000E+00  0.0000E+00  0.3200E+03  0.3200E+03
    -38.244  0.0000E+00  0.0000E+00  0.3200E+03  0.3200E+03
    -38.005  0.0000E+00  0.0000E+00  0.3200E+03  0.3200E+03
    -37.766  0.0000E+00  0.0000E+00  0.3200E+03  0.3200E+03
    -37.528  0.0000E+00  0.0000E+00  0.3200E+03  0.3200E+03
    -37.289  0.0000E+00  0.0000E+00  0.3200E+03  0.3200E+03
    -37.050  0.0000E+00  0.0000E+00  0.3200E+03  0.3200E+03
    -36.811  0.0000E+00  0.0000E+00  0.3200E+03  0.3200E+03
    -36.572  0.0000E+00  0.0000E+00  0.3200E+03  0.3200E+03
    -36.333  0.0000E+00  0.0000E+00  0.3200E+03  0.3200E+03
    -36.094  0.0000E+00  0.0000E+00  0.3200E+03  0.3200E+03
    -35.855  0.0000E+00  0.0000E+00  0.3200E+03  0.3200E+03
    -35.616  0.0000E+00  0.0000E+00  0.3200E+03  0.3200E+03
    -35.377  0.0000E+00  0.0000E+00  0.3200E+03  0.3200E+03
    -35.138  0.0000E+00  0.0000E+00  0.3200E+03  0.3200E+03
    -34.899  0.0000E+00  0.0000E+00  0.3200E+03  0.3200E+03
    -34.660  0.0000E+00  0.0000E+00  0.3200E+03  0.3200E+03
    -34.421  0.0000E+00  0.0000E+00  0.3200E+03  0.3200E+03
    -34.182  0.0000E+00  0.0000E+00  0.3200E+03  0.3200E+03
    -33.944  0.0000E+00  0.0000E+00  0.3200E+03  0.3200E+03
    -33.705  0.0000E+00  0.0000E+00  0.3200E+03  0.3200E+03
    -33.466  0.0000E+00  0.0000E+00  0.3200E+03  0.3200E+03
    -33.227  0.0000E+00  0.0000E+00  0.3200E+03  0.3200E+03
    -32.988  0.0000E+00  0.0000E+00  0.3200E+03  0.3200E+03
    -32.749  0.0000E+00  0.0000E+00  0.3200E+03  0.3200E+03
    -32.510  0.0000E+00  0.0000E+00  0.3200E+03  0.3200E+03
    -32.271  0.0000E+00  0.0000E+00  0.3200E+03  0.3200E+03
    -32.032  0.0000E+00  0.0000E+00  0.3200E+03  0.3200E+03
    -31.793  0.0000E+00  0.0000E+00  0.3200E+03  0.3200E+03
    -31.554  0.0000E+00  0.0000E+00  0.3200E+03  0.3200E+03
    -31.315  0.0000E+00  0.0000E+00  0.3200E+03  0.3200E+03
    -31.076  0.0000E+00  0.0000E+00  0.3200E+03  0.3200E+03
    -30.837  0.0000E+00  0.0000E+00  0.3200E+03  0.3200E+03
    -30.598  0.0000E+00  0.0000E+00  0.3200E+03  0.3200E+03
    -30.360  0.0000E+00  0.0000E+00  0.3200E+03  0.3200E+03
    -30.121  0.0000E+00  0.0000E+00  0.3200E+03  0.3200E+03
    -29.882  0.0000E+00  0.0000E+00  0.3200E+03  0.3200E+03
    -29.643  0.0000E+00  0.0000E+00  0.3200E+03  0.3200E+03
    -29.404  0.0000E+00  0.0000E+00  0.3200E+03  0.3200E+03
    -29.165  0.0000E+00  0.0000E+00  0.3200E+03  0.3200E+03
    -28.926  0.0000E+00  0.0000E+00  0.3200E+03  0.3200E+03
    -28.687  0.0000E+00  0.0000E+00  0.3200E+03  0.3200E+03
    -28.448  0.0000E+00  0.0000E+00  0.3200E+03  0.3200E+03
    -28.209  0.0000E+00  0.0000E+00  0.3200E+03  0.3200E+03
    -27.970  0.0000E+00  0.0000E+00  0.3200E+03  0.3200E+03
    -27.731  0.0000E+00  0.0000E+00  0.3200E+03  0.3200E+03
    -27.492  0.0000E+00  0.0000E+00  0.3200E+03  0.3200E+03
    -27.253  0.0000E+00  0.0000E+00  0.3200E+03  0.3200E+03
    -27.014  0.0000E+00  0.0000E+00  0.3200E+03  0.3200E+03
    -26.776  0.0000E+00  0.0000E+00  0.3200E+03  0.3200E+03
    -26.537  0.0000E+00  0.0000E+00  0.3200E+03  0.3200E+03
    -26.298  0.0000E+00  0.0000E+00  0.3200E+03  0.3200E+03
    -26.059  0.0000E+00  0.0000E+00  0.3200E+03  0.3200E+03
    -25.820  0.0000E+00  0.0000E+00  0.3200E+03  0.3200E+03
    -25.581  0.0000E+00  0.0000E+00  0.3200E+03  0.3200E+03
    -25.342  0.0000E+00  0.0000E+00  0.3200E+03  0.3200E+03
    -25.103  0.0000E+00  0.0000E+00  0.3200E+03  0.3200E+03
    -24.864  0.0000E+00  0.0000E+00  0.3200E+03  0.3200E+03
    -24.625  0.0000E+00  0.0000E+00  0.3200E+03  0.3200E+03
    -24.386  0.0000E+00  0.0000E+00  0.3200E+03  0.3200E+03
    -24.147  0.0000E+00  0.0000E+00  0.3200E+03  0.3200E+03
    -23.908  0.0000E+00  0.0000E+00  0.3200E+03  0.3200E+03
    -23.669  0.0000E+00  0.0000E+00  0.3200E+03  0.3200E+03
    -23.430  0.0000E+00  0.0000E+00  0.3200E+03  0.3200E+03
    -23.192  0.0000E+00  0.0000E+00  0.3200E+03  0.3200E+03
    -22.953  0.0000E+00  0.0000E+00  0.3200E+03  0.3200E+03
    -22.714  0.0000E+00  0.0000E+00  0.3200E+03  0.3200E+03
    -22.475  0.0000E+00  0.0000E+00  0.3200E+03  0.3200E+03
    -22.236  0.0000E+00  0.0000E+00  0.3200E+03  0.3200E+03
    -21.997  0.0000E+00  0.0000E+00  0.3200E+03  0.3200E+03
    -21.758  0.0000E+00  0.0000E+00  0.3200E+03  0.3200E+03
    -21.519  0.0000E+00  0.0000E+00  0.3200E+03  0.3200E+03
    -21.280  0.0000E+00  0.0000E+00  0.3200E+03  0.3200E+03
    -21.041  0.0000E+00  0.0000E+00  0.3200E+03  0.3200E+03
    -20.802  0.0000E+00  0.0000E+00  0.3200E+03  0.3200E+03
    -20.563  0.0000E+00  0.0000E+00  0.3200E+03  0.3200E+03
    -20.324  0.0000E+00  0.0000E+00  0.3200E+03  0.3200E+03
    -20.085  0.0000E+00  0.0000E+00  0.3200E+03  0.3200E+03
    -19.846  0.0000E+00  0.0000E+00  0.3200E+03  0.3200E+03
    -19.608  0.0000E+00  0.0000E+00  0.3200E+03  0.3200E+03
    -19.369  0.0000E+00  0.0000E+00  0.3200E+03  0.3200E+03
    -19.130  0.0000E+00  0.0000E+00  0.3200E+03  0.3200E+03
    -18.891  0.0000E+00  0.0000E+00  0.3200E+03  0.3200E+03
    -18.652  0.0000E+00  0.0000E+00  0.3200E+03  0.3200E+03
    -18.413  0.0000E+00  0.0000E+00  0.3200E+03  0.3200E+03
    -18.174  0.0000E+00  0.0000E+00  0.3200E+03  0.3200E+03
    -17.935  0.0000E+00  0.0000E+00  0.3200E+03  0.3200E+03
    -17.696  0.0000E+00  0.0000E+00  0.3200E+03  0.3200E+03
    -17.457  0.0000E+00  0.0000E+00  0.3200E+03  0.3200E+03
    -17.218  0.0000E+00  0.0000E+00  0.3200E+03  0.3200E+03
    -16.979  0.0000E+00  0.0000E+00  0.3200E+03  0.3200E+03
    -16.740  0.0000E+00  0.0000E+00  0.3200E+03  0.3200E+03
    -16.501  0.0000E+00  0.0000E+00  0.3200E+03  0.3200E+03
    -16.262  0.0000E+00  0.0000E+00  0.3200E+03  0.3200E+03
    -16.024  0.0000E+00  0.0000E+00  0.3200E+03  0.3200E+03
    -15.785  0.0000E+00  0.0000E+00  0.3200E+03  0.3200E+03
    -15.546  0.0000E+00  0.0000E+00  0.3200E+03  0.3200E+03
    -15.307  0.0000E+00  0.0000E+00  0.3200E+03  0.3200E+03
    -15.068  0.0000E+00  0.0000E+00  0.3200E+03  0.3200E+03
    -14.829  0.0000E+00  0.0000E+00  0.3200E+03  0.3200E+03
    -14.590  0.0000E+00  0.0000E+00  0.3200E+03  0.3200E+03
    -14.351  0.0000E+00  0.0000E+00  0.3200E+03  0.3200E+03
    -14.112  0.0000E+00  0.0000E+00  0.3200E+03  0.3200E+03
    -13.873  0.1895E-07  0.0000E+00  0.3200E+03  0.3200E+03
    -13.634  0.3335E+02  0.1162E-15  0.3280E+03  0.3200E+03
    -13.395  0.1419E+03  0.9059E+00  0.3619E+03  0.3202E+03
    -13.156  0.9261E+02  0.1699E+03  0.3840E+03  0.3608E+03
    -12.917  0.8150E-02  0.9706E+02  0.3840E+03  0.3840E+03
    -12.678  0.0000E+00  0.4986E-03  0.3840E+03  0.3840E+03
    -12.440  0.0000E+00  0.0000E+00  0.3840E+03  0.3840E+03
    -12.201  0.0000E+00  0.0000E+00  0.3840E+03  0.3840E+03
    -11.962  0.0000E+00  0.0000E+00  0.3840E+03  0.3840E+03
    -11.723  0.0000E+00  0.0000E+00  0.3840E+03  0.3840E+03
    -11.484  0.0000E+00  0.0000E+00  0.3840E+03  0.3840E+03
    -11.245  0.0000E+00  0.0000E+00  0.3840E+03  0.3840E+03
    -11.006  0.0000E+00  0.0000E+00  0.3840E+03  0.3840E+03
    -10.767  0.0000E+00  0.0000E+00  0.3840E+03  0.3840E+03
    -10.528  0.0000E+00  0.0000E+00  0.3840E+03  0.3840E+03
    -10.289  0.0000E+00  0.0000E+00  0.3840E+03  0.3840E+03
    -10.050  0.0000E+00  0.0000E+00  0.3840E+03  0.3840E+03
     -9.811  0.0000E+00  0.0000E+00  0.3840E+03  0.3840E+03
     -9.572  0.0000E+00  0.0000E+00  0.3840E+03  0.3840E+03
     -9.333  0.0000E+00  0.0000E+00  0.3840E+03  0.3840E+03
     -9.094  0.0000E+00  0.0000E+00  0.3840E+03  0.3840E+03
     -8.856  0.0000E+00  0.0000E+00  0.3840E+03  0.3840E+03
     -8.617  0.0000E+00  0.0000E+00  0.3840E+03  0.3840E+03
     -8.378  0.0000E+00  0.0000E+00  0.3840E+03  0.3840E+03
     -8.139  0.0000E+00  0.0000E+00  0.3840E+03  0.3840E+03
     -7.900  0.0000E+00  0.0000E+00  0.3840E+03  0.3840E+03
     -7.661  0.2066E-03  0.0000E+00  0.3840E+03  0.3840E+03
     -7.422  0.2564E+02  0.8266E-02  0.3901E+03  0.3840E+03
     -7.183  0.1154E+03  0.5645E+02  0.4177E+03  0.3975E+03
     -6.944  0.1126E+03  0.1235E+03  0.4446E+03  0.4270E+03
     -6.705  0.1422E+02  0.7913E+02  0.4480E+03  0.4459E+03
     -6.466  0.2108E-04  0.8794E+01  0.4480E+03  0.4480E+03
     -6.227  0.0000E+00  0.1517E-04  0.4480E+03  0.4480E+03
     -5.988  0.0000E+00  0.0000E+00  0.4480E+03  0.4480E+03
     -5.749  0.0000E+00  0.0000E+00  0.4480E+03  0.4480E+03
     -5.510  0.0000E+00  0.0000E+00  0.4480E+03  0.4480E+03
     -5.272  0.0000E+00  0.0000E+00  0.4480E+03  0.4480E+03
     -5.033  0.0000E+00  0.0000E+00  0.4480E+03  0.4480E+03
     -4.794  0.0000E+00  0.0000E+00  0.4480E+03  0.4480E+03
     -4.555  0.0000E+00  0.0000E+00  0.4480E+03  0.4480E+03
     -4.316  0.0000E+00  0.0000E+00  0.4480E+03  0.4480E+03
     -4.077  0.0000E+00  0.0000E+00  0.4480E+03  0.4480E+03
     -3.838  0.0000E+00  0.0000E+00  0.4480E+03  0.4480E+03
     -3.599  0.0000E+00  0.0000E+00  0.4480E+03  0.4480E+03
     -3.360  0.0000E+00  0.0000E+00  0.4480E+03  0.4480E+03
     -3.121  0.0000E+00  0.0000E+00  0.4480E+03  0.4480E+03
     -2.882  0.7347E-06  0.0000E+00  0.4480E+03  0.4480E+03
     -2.643  0.3006E+02  0.0000E+00  0.4552E+03  0.4480E+03
     -2.404  0.5403E+02  0.0000E+00  0.4681E+03  0.4480E+03
     -2.165  0.1635E+02  0.0000E+00  0.4720E+03  0.4480E+03
     -1.926  0.2982E-05  0.0000E+00  0.4720E+03  0.4480E+03
     -1.688  0.5227E+02  0.0000E+00  0.4845E+03  0.4480E+03
     -1.449  0.1763E+02  0.0000E+00  0.4887E+03  0.4480E+03
     -1.210  0.1174E+03  0.1147E-02  0.5167E+03  0.4480E+03
     -0.971  0.1353E+03  0.2004E+02  0.5491E+03  0.4528E+03
     -0.732  0.1461E+03  0.7409E+02  0.5840E+03  0.4705E+03
     -0.493  0.1429E+03  0.1434E+02  0.6181E+03  0.4739E+03
     -0.254  0.1713E+03  0.5077E+02  0.6590E+03  0.4860E+03
     -0.015  0.1857E+03  0.1257E+02  0.7034E+03  0.4891E+03
      0.224  0.1119E+03  0.5779E+02  0.7301E+03  0.5029E+03
      0.463  0.1045E+03  0.1670E+03  0.7551E+03  0.5428E+03
      0.702  0.9769E+02  0.1500E+03  0.7784E+03  0.5786E+03
      0.941  0.9558E+02  0.2032E+03  0.8013E+03  0.6272E+03
      1.180  0.1256E+03  0.5636E+02  0.8313E+03  0.6406E+03
      1.419  0.1907E+03  0.3054E+02  0.8769E+03  0.6479E+03
      1.658  0.1661E+03  0.9583E+02  0.9165E+03  0.6708E+03
      1.896  0.5285E+02  0.8722E+02  0.9292E+03  0.6917E+03
      2.135  0.9593E+02  0.7609E+02  0.9521E+03  0.7098E+03
      2.374  0.6557E+02  0.4912E+02  0.9677E+03  0.7216E+03
      2.613  0.9545E+02  0.9954E+02  0.9906E+03  0.7454E+03
      2.852  0.1029E+03  0.1168E+03  0.1015E+04  0.7733E+03
      3.091  0.1073E+03  0.1520E+03  0.1041E+04  0.8096E+03
      3.330  0.1046E+03  0.7392E+02  0.1066E+04  0.8273E+03
      3.569  0.1008E+03  0.7036E+02  0.1090E+04  0.8441E+03
      3.808  0.9619E+02  0.1642E+03  0.1113E+04  0.8833E+03
      4.047  0.8289E+02  0.5317E+02  0.1133E+04  0.8960E+03
      4.286  0.4573E+02  0.2542E-02  0.1144E+04  0.8960E+03
      4.525  0.3227E+02  0.0000E+00  0.1151E+04  0.8960E+03
      4.764  0.2952E+01  0.0000E+00  0.1152E+04  0.8960E+03
      5.003  0.8618E-04  0.0000E+00  0.1152E+04  0.8960E+03
      5.242  0.0000E+00  0.0000E+00  0.1152E+04  0.8960E+03
      5.480  0.0000E+00  0.0000E+00  0.1152E+04  0.8960E+03
      5.719  0.0000E+00  0.0000E+00  0.1152E+04  0.8960E+03
      5.958  0.0000E+00  0.0000E+00  0.1152E+04  0.8960E+03
      6.197  0.0000E+00  0.0000E+00  0.1152E+04  0.8960E+03
      6.436  0.0000E+00  0.3449E-05  0.1152E+04  0.8960E+03
      6.675  0.0000E+00  0.2003E+02  0.1152E+04  0.9008E+03
      6.914  0.4795E-13  0.1383E+03  0.1152E+04  0.9338E+03
      7.153  0.1431E+00  0.1320E+03  0.1152E+04  0.9654E+03
      7.392  0.3801E+00  0.1349E+03  0.1152E+04  0.9976E+03
      7.631  0.2402E+01  0.1057E+03  0.1153E+04  0.1023E+04
      7.870  0.2325E+01  0.1634E+03  0.1153E+04  0.1062E+04
      8.109  0.7137E+01  0.1609E+03  0.1155E+04  0.1100E+04
      8.348  0.2112E+02  0.1297E+03  0.1160E+04  0.1131E+04
      8.587  0.3336E+02  0.7694E+02  0.1168E+04  0.1150E+04
      8.826  0.3386E+02  0.1833E+02  0.1176E+04  0.1154E+04
      9.064  0.4859E+02  0.1492E+02  0.1188E+04  0.1158E+04
      9.303  0.7522E+02  0.2040E+02  0.1206E+04  0.1163E+04
      9.542  0.5687E+02  0.3634E+02  0.1219E+04  0.1171E+04
      9.781  0.4598E+02  0.5766E+02  0.1230E+04  0.1185E+04
     10.020  0.3733E+02  0.8399E+02  0.1239E+04  0.1205E+04
     10.259  0.3763E+02  0.7290E+02  0.1248E+04  0.1222E+04
     10.498  0.7506E+02  0.6347E+02  0.1266E+04  0.1238E+04
     10.737  0.6299E+02  0.4196E+02  0.1281E+04  0.1248E+04
     10.976  0.6621E+02  0.8363E+02  0.1297E+04  0.1268E+04
     11.215  0.1004E+03  0.4483E+02  0.1321E+04  0.1278E+04
     11.454  0.1297E+03  0.4803E+02  0.1352E+04  0.1290E+04
     11.693  0.1174E+03  0.9129E+02  0.1380E+04  0.1312E+04
     11.932  0.7791E+02  0.1423E+03  0.1399E+04  0.1346E+04
     12.171  0.3590E+02  0.1455E+03  0.1407E+04  0.1380E+04
     12.410  0.6953E+02  0.6855E+02  0.1424E+04  0.1397E+04
     12.648  0.6452E+02  0.5261E+02  0.1439E+04  0.1409E+04
     12.887  0.6203E+02  0.5510E+02  0.1454E+04  0.1423E+04
     13.126  0.4540E+02  0.7812E+02  0.1465E+04  0.1441E+04
     13.365  0.1288E+02  0.5605E+02  0.1468E+04  0.1455E+04
     13.604  0.2990E+00  0.5181E+02  0.1468E+04  0.1467E+04
     13.843  0.0000E+00  0.4400E+01  0.1468E+04  0.1468E+04
     14.082  0.0000E+00  0.4456E-05  0.1468E+04  0.1468E+04
     14.321  0.0000E+00  0.0000E+00  0.1468E+04  0.1468E+04
     14.560  0.0000E+00  0.0000E+00  0.1468E+04  0.1468E+04
     14.799  0.0000E+00  0.0000E+00  0.1468E+04  0.1468E+04
     15.038  0.0000E+00  0.0000E+00  0.1468E+04  0.1468E+04
     15.277  0.0000E+00  0.0000E+00  0.1468E+04  0.1468E+04
     15.516  0.0000E+00  0.0000E+00  0.1468E+04  0.1468E+04
     15.755  0.0000E+00  0.0000E+00  0.1468E+04  0.1468E+04
     15.994  0.0000E+00  0.0000E+00  0.1468E+04  0.1468E+04
     16.232  0.0000E+00  0.0000E+00  0.1468E+04  0.1468E+04
     16.471  0.0000E+00  0.0000E+00  0.1468E+04  0.1468E+04
     16.710  0.0000E+00  0.0000E+00  0.1468E+04  0.1468E+04
     16.949  0.0000E+00  0.0000E+00  0.1468E+04  0.1468E+04
