  320  320    1    2
  0.1216366E+02  0.1589065E-08  0.1589065E-08  0.1541455E-08  0.5000000E-15
  1.000000000000000E-004
  CAR 
 unknown system                          
   2048      8   1468
 
  0.0000000E+00  0.0000000E+00  0.0000000E+00  0.1250000E+00
    1      -51.472561    -46.730236   1.000000   1.000000
    2      -51.470131    -46.728352   1.000000   1.000000
    3      -51.469778    -46.727999   1.000000   1.000000
    4      -51.469515    -46.727863   1.000000   1.000000
    5      -51.469087    -46.727472   1.000000   1.000000
    6      -51.468826    -46.727242   1.000000   1.000000
    7      -51.468781    -46.727179   1.000000   1.000000
    8      -51.468754    -46.727017   1.000000   1.000000
    9      -51.468726    -46.727015   1.000000   1.000000
   10      -51.468611    -46.727003   1.000000   1.000000
   11      -51.468607    -46.726885   1.000000   1.000000
   12      -51.468589    -46.726785   1.000000   1.000000
   13      -51.468550    -46.726748   1.000000   1.000000
   14      -51.468486    -46.726694   1.000000   1.000000
   15      -51.468420    -46.726636   1.000000   1.000000
   16      -51.468386    -46.726619   1.000000   1.000000
   17      -51.468308    -46.726603   1.000000   1.000000
   18      -51.468305    -46.726484   1.000000   1.000000
   19      -51.468285    -46.726480   1.000000   1.000000
   20      -51.468252    -46.726234   1.000000   1.000000
   21      -51.468240    -46.726181   1.000000   1.000000
   22      -51.468174    -46.726136   1.000000   1.000000
   23      -51.468163    -46.726111   1.000000   1.000000
   24      -51.468095    -46.725983   1.000000   1.000000
   25      -51.468037    -46.725937   1.000000   1.000000
   26      -51.468031    -46.725932   1.000000   1.000000
   27      -51.468011    -46.725918   1.000000   1.000000
   28      -51.467971    -46.725856   1.000000   1.000000
   29      -51.467860    -46.725795   1.000000   1.000000
   30      -51.467853    -46.725746   1.000000   1.000000
   31      -51.467851    -46.725740   1.000000   1.000000
   32      -51.467850    -46.725737   1.000000   1.000000
   33      -51.467848    -46.725736   1.000000   1.000000
   34      -51.467846    -46.725733   1.000000   1.000000
   35      -51.467844    -46.725731   1.000000   1.000000
   36      -51.467841    -46.725728   1.000000   1.000000
   37      -51.467746    -46.725627   1.000000   1.000000
   38      -51.467706    -46.725573   1.000000   1.000000
   39      -51.467691    -46.725549   1.000000   1.000000
   40      -51.467657    -46.725534   1.000000   1.000000
   41      -51.467595    -46.725482   1.000000   1.000000
   42      -51.467550    -46.725370   1.000000   1.000000
   43      -51.467535    -46.725347   1.000000   1.000000
   44      -51.467482    -46.725302   1.000000   1.000000
   45      -51.467466    -46.725253   1.000000   1.000000
   46      -51.467429    -46.725013   1.000000   1.000000
   47      -51.467411    -46.725009   1.000000   1.000000
   48      -51.467404    -46.724875   1.000000   1.000000
   49      -51.467311    -46.724872   1.000000   1.000000
   50      -51.467302    -46.724869   1.000000   1.000000
   51      -51.467238    -46.724798   1.000000   1.000000
   52      -51.467172    -46.724752   1.000000   1.000000
   53      -51.467113    -46.724694   1.000000   1.000000
   54      -51.467092    -46.724618   1.000000   1.000000
   55      -51.467089    -46.724488   1.000000   1.000000
   56      -51.466997    -46.724475   1.000000   1.000000
   57      -51.466946    -46.724470   1.000000   1.000000
   58      -51.466940    -46.724331   1.000000   1.000000
   59      -51.466874    -46.724254   1.000000   1.000000
   60      -51.466640    -46.724035   1.000000   1.000000
   61      -51.466186    -46.723625   1.000000   1.000000
   62      -51.465948    -46.723504   1.000000   1.000000
   63      -51.465590    -46.723152   1.000000   1.000000
   64      -51.463119    -46.721237   1.000000   1.000000
   65      -50.064525    -46.350840   1.000000   1.000000
   66      -50.062721    -46.349189   1.000000   1.000000
   67      -50.062356    -46.348809   1.000000   1.000000
   68      -50.062053    -46.348439   1.000000   1.000000
   69      -50.061566    -46.348005   1.000000   1.000000
   70      -50.061276    -46.347749   1.000000   1.000000
   71      -50.061238    -46.347695   1.000000   1.000000
   72      -50.061080    -46.347534   1.000000   1.000000
   73      -50.060949    -46.347411   1.000000   1.000000
   74      -50.060932    -46.347385   1.000000   1.000000
   75      -50.060926    -46.347376   1.000000   1.000000
   76      -50.060877    -46.347321   1.000000   1.000000
   77      -50.060850    -46.347284   1.000000   1.000000
   78      -50.060758    -46.347212   1.000000   1.000000
   79      -50.060754    -46.347198   1.000000   1.000000
   80      -50.060737    -46.347168   1.000000   1.000000
   81      -50.060712    -46.347153   1.000000   1.000000
   82      -50.060692    -46.347149   1.000000   1.000000
   83      -50.060671    -46.347128   1.000000   1.000000
   84      -50.060651    -46.347119   1.000000   1.000000
   85      -50.060637    -46.347101   1.000000   1.000000
   86      -50.060623    -46.347084   1.000000   1.000000
   87      -50.060590    -46.347040   1.000000   1.000000
   88      -50.060581    -46.347035   1.000000   1.000000
   89      -50.060579    -46.347024   1.000000   1.000000
   90      -50.060574    -46.347022   1.000000   1.000000
   91      -50.060558    -46.347000   1.000000   1.000000
   92      -50.060553    -46.346986   1.000000   1.000000
   93      -50.060535    -46.346982   1.000000   1.000000
   94      -50.060533    -46.346968   1.000000   1.000000
   95      -50.060532    -46.346967   1.000000   1.000000
   96      -50.060528    -46.346965   1.000000   1.000000
   97      -50.060526    -46.346961   1.000000   1.000000
   98      -50.060521    -46.346959   1.000000   1.000000
   99      -50.060519    -46.346955   1.000000   1.000000
  100      -50.060513    -46.346942   1.000000   1.000000
  101      -50.060493    -46.346933   1.000000   1.000000
  102      -50.060442    -46.346897   1.000000   1.000000
  103      -50.060426    -46.346873   1.000000   1.000000
  104      -50.060412    -46.346871   1.000000   1.000000
  105      -50.060408    -46.346847   1.000000   1.000000
  106      -50.060408    -46.346837   1.000000   1.000000
  107      -50.060397    -46.346830   1.000000   1.000000
  108      -50.060387    -46.346823   1.000000   1.000000
  109      -50.060368    -46.346791   1.000000   1.000000
  110      -50.060355    -46.346784   1.000000   1.000000
  111      -50.060354    -46.346761   1.000000   1.000000
  112      -50.060320    -46.346759   1.000000   1.000000
  113      -50.060307    -46.346731   1.000000   1.000000
  114      -50.060299    -46.346718   1.000000   1.000000
  115      -50.060230    -46.346701   1.000000   1.000000
  116      -50.060183    -46.346630   1.000000   1.000000
  117      -50.060132    -46.346579   1.000000   1.000000
  118      -50.060110    -46.346533   1.000000   1.000000
  119      -50.060060    -46.346512   1.000000   1.000000
  120      -50.060053    -46.346501   1.000000   1.000000
  121      -50.059904    -46.346358   1.000000   1.000000
  122      -50.059747    -46.346200   1.000000   1.000000
  123      -50.059715    -46.346151   1.000000   1.000000
  124      -50.059486    -46.345910   1.000000   1.000000
  125      -50.059009    -46.345486   1.000000   1.000000
  126      -50.058635    -46.345093   1.000000   1.000000
  127      -50.058262    -46.344706   1.000000   1.000000
  128      -50.056514    -46.343062   1.000000   1.000000
  129      -50.037607    -46.333098   1.000000   1.000000
  130      -50.035930    -46.331612   1.000000   1.000000
  131      -50.035415    -46.330978   1.000000   1.000000
  132      -50.034897    -46.330660   1.000000   1.000000
  133      -50.034657    -46.330279   1.000000   1.000000
  134      -50.034559    -46.330256   1.000000   1.000000
  135      -50.034459    -46.330051   1.000000   1.000000
  136      -50.034206    -46.329908   1.000000   1.000000
  137      -50.034181    -46.329894   1.000000   1.000000
  138      -50.034172    -46.329891   1.000000   1.000000
  139      -50.034149    -46.329786   1.000000   1.000000
  140      -50.034070    -46.329745   1.000000   1.000000
  141      -50.034028    -46.329729   1.000000   1.000000
  142      -50.034018    -46.329712   1.000000   1.000000
  143      -50.033988    -46.329703   1.000000   1.000000
  144      -50.033977    -46.329692   1.000000   1.000000
  145      -50.033951    -46.329595   1.000000   1.000000
  146      -50.033937    -46.329582   1.000000   1.000000
  147      -50.033830    -46.329535   1.000000   1.000000
  148      -50.033824    -46.329417   1.000000   1.000000
  149      -50.033764    -46.329381   1.000000   1.000000
  150      -50.033761    -46.329369   1.000000   1.000000
  151      -50.033724    -46.329364   1.000000   1.000000
  152      -50.033714    -46.329331   1.000000   1.000000
  153      -50.033683    -46.329320   1.000000   1.000000
  154      -50.033660    -46.329277   1.000000   1.000000
  155      -50.033649    -46.329248   1.000000   1.000000
  156      -50.033615    -46.329215   1.000000   1.000000
  157      -50.033614    -46.329210   1.000000   1.000000
  158      -50.033604    -46.329201   1.000000   1.000000
  159      -50.033589    -46.329183   1.000000   1.000000
  160      -50.033586    -46.329179   1.000000   1.000000
  161      -50.033584    -46.329179   1.000000   1.000000
  162      -50.033583    -46.329177   1.000000   1.000000
  163      -50.033581    -46.329174   1.000000   1.000000
  164      -50.033580    -46.329172   1.000000   1.000000
  165      -50.033578    -46.329170   1.000000   1.000000
  166      -50.033577    -46.329169   1.000000   1.000000
  167      -50.033574    -46.329101   1.000000   1.000000
  168      -50.033548    -46.329089   1.000000   1.000000
  169      -50.033543    -46.329058   1.000000   1.000000
  170      -50.033497    -46.329041   1.000000   1.000000
  171      -50.033448    -46.329020   1.000000   1.000000
  172      -50.033431    -46.329017   1.000000   1.000000
  173      -50.033397    -46.328982   1.000000   1.000000
  174      -50.033341    -46.328828   1.000000   1.000000
  175      -50.033279    -46.328816   1.000000   1.000000
  176      -50.033249    -46.328777   1.000000   1.000000
  177      -50.033241    -46.328727   1.000000   1.000000
  178      -50.033229    -46.328692   1.000000   1.000000
  179      -50.033213    -46.328689   1.000000   1.000000
  180      -50.033189    -46.328673   1.000000   1.000000
  181      -50.033095    -46.328657   1.000000   1.000000
  182      -50.033091    -46.328574   1.000000   1.000000
  183      -50.033087    -46.328548   1.000000   1.000000
  184      -50.033061    -46.328544   1.000000   1.000000
  185      -50.033019    -46.328476   1.000000   1.000000
  186      -50.032813    -46.328383   1.000000   1.000000
  187      -50.032709    -46.328178   1.000000   1.000000
  188      -50.032504    -46.328078   1.000000   1.000000
  189      -50.032273    -46.327711   1.000000   1.000000
  190      -50.031853    -46.327449   1.000000   1.000000
  191      -50.031338    -46.326820   1.000000   1.000000
  192      -50.029541    -46.325245   1.000000   1.000000
  193      -40.385022    -40.383062   1.000000   1.000000
  194      -40.381309    -40.379353   1.000000   1.000000
  195      -40.380787    -40.378798   1.000000   1.000000
  196      -40.380322    -40.378329   1.000000   1.000000
  197      -40.380073    -40.378085   1.000000   1.000000
  198      -40.379879    -40.377899   1.000000   1.000000
  199      -40.379652    -40.377663   1.000000   1.000000
  200      -40.379556    -40.377575   1.000000   1.000000
  201      -40.379404    -40.377422   1.000000   1.000000
  202      -40.379357    -40.377371   1.000000   1.000000
  203      -40.379118    -40.377127   1.000000   1.000000
  204      -40.378967    -40.376958   1.000000   1.000000
  205      -40.378934    -40.376930   1.000000   1.000000
  206      -40.378921    -40.376917   1.000000   1.000000
  207      -40.378893    -40.376898   1.000000   1.000000
  208      -40.378812    -40.376777   1.000000   1.000000
  209      -40.378757    -40.376757   1.000000   1.000000
  210      -40.378594    -40.376597   1.000000   1.000000
  211      -40.378562    -40.376546   1.000000   1.000000
  212      -40.378491    -40.376473   1.000000   1.000000
  213      -40.378376    -40.376367   1.000000   1.000000
  214      -40.378299    -40.376288   1.000000   1.000000
  215      -40.378137    -40.376132   1.000000   1.000000
  216      -40.378135    -40.376129   1.000000   1.000000
  217      -40.378065    -40.376063   1.000000   1.000000
  218      -40.377980    -40.375974   1.000000   1.000000
  219      -40.377913    -40.375896   1.000000   1.000000
  220      -40.377852    -40.375847   1.000000   1.000000
  221      -40.377758    -40.375747   1.000000   1.000000
  222      -40.377734    -40.375718   1.000000   1.000000
  223      -40.377657    -40.375644   1.000000   1.000000
  224      -40.377630    -40.375609   1.000000   1.000000
  225      -40.377596    -40.375584   1.000000   1.000000
  226      -40.377586    -40.375573   1.000000   1.000000
  227      -40.377543    -40.375516   1.000000   1.000000
  228      -40.377494    -40.375476   1.000000   1.000000
  229      -40.377425    -40.375402   1.000000   1.000000
  230      -40.377347    -40.375326   1.000000   1.000000
  231      -40.377320    -40.375299   1.000000   1.000000
  232      -40.377216    -40.375193   1.000000   1.000000
  233      -40.377178    -40.375159   1.000000   1.000000
  234      -40.377091    -40.375065   1.000000   1.000000
  235      -40.376990    -40.374969   1.000000   1.000000
  236      -40.376978    -40.374961   1.000000   1.000000
  237      -40.376897    -40.374882   1.000000   1.000000
  238      -40.376842    -40.374826   1.000000   1.000000
  239      -40.376829    -40.374805   1.000000   1.000000
  240      -40.376766    -40.374750   1.000000   1.000000
  241      -40.376734    -40.374712   1.000000   1.000000
  242      -40.376704    -40.374684   1.000000   1.000000
  243      -40.376637    -40.374616   1.000000   1.000000
  244      -40.376561    -40.374540   1.000000   1.000000
  245      -40.376452    -40.374422   1.000000   1.000000
  246      -40.376430    -40.374395   1.000000   1.000000
  247      -40.376367    -40.374352   1.000000   1.000000
  248      -40.376347    -40.374316   1.000000   1.000000
  249      -40.376303    -40.374285   1.000000   1.000000
  250      -40.376268    -40.374243   1.000000   1.000000
  251      -40.376205    -40.374178   1.000000   1.000000
  252      -40.375969    -40.373948   1.000000   1.000000
  253      -40.375512    -40.373494   1.000000   1.000000
  254      -40.375146    -40.373142   1.000000   1.000000
  255      -40.374677    -40.372656   1.000000   1.000000
  256      -40.370555    -40.368495   1.000000   1.000000
  257      -40.246855    -40.249367   1.000000   1.000000
  258      -40.242340    -40.244805   1.000000   1.000000
  259      -40.241598    -40.244078   1.000000   1.000000
  260      -40.241228    -40.243708   1.000000   1.000000
  261      -40.240769    -40.243236   1.000000   1.000000
  262      -40.240564    -40.243060   1.000000   1.000000
  263      -40.240484    -40.242962   1.000000   1.000000
  264      -40.240377    -40.242853   1.000000   1.000000
  265      -40.240237    -40.242721   1.000000   1.000000
  266      -40.240232    -40.242713   1.000000   1.000000
  267      -40.240170    -40.242647   1.000000   1.000000
  268      -40.240114    -40.242597   1.000000   1.000000
  269      -40.240083    -40.242555   1.000000   1.000000
  270      -40.240049    -40.242523   1.000000   1.000000
  271      -40.240002    -40.242476   1.000000   1.000000
  272      -40.239956    -40.242441   1.000000   1.000000
  273      -40.239878    -40.242359   1.000000   1.000000
  274      -40.239868    -40.242339   1.000000   1.000000
  275      -40.239834    -40.242306   1.000000   1.000000
  276      -40.239814    -40.242289   1.000000   1.000000
  277      -40.239783    -40.242262   1.000000   1.000000
  278      -40.239748    -40.242235   1.000000   1.000000
  279      -40.239728    -40.242208   1.000000   1.000000
  280      -40.239643    -40.242131   1.000000   1.000000
  281      -40.239625    -40.242106   1.000000   1.000000
  282      -40.239602    -40.242085   1.000000   1.000000
  283      -40.239601    -40.242070   1.000000   1.000000
  284      -40.239580    -40.242061   1.000000   1.000000
  285      -40.239532    -40.242012   1.000000   1.000000
  286      -40.239516    -40.241993   1.000000   1.000000
  287      -40.239498    -40.241969   1.000000   1.000000
  288      -40.239471    -40.241948   1.000000   1.000000
  289      -40.239437    -40.241916   1.000000   1.000000
  290      -40.239400    -40.241879   1.000000   1.000000
  291      -40.239377    -40.241844   1.000000   1.000000
  292      -40.239364    -40.241827   1.000000   1.000000
  293      -40.239296    -40.241754   1.000000   1.000000
  294      -40.239266    -40.241725   1.000000   1.000000
  295      -40.239237    -40.241713   1.000000   1.000000
  296      -40.239209    -40.241678   1.000000   1.000000
  297      -40.239203    -40.241653   1.000000   1.000000
  298      -40.239167    -40.241626   1.000000   1.000000
  299      -40.239137    -40.241604   1.000000   1.000000
  300      -40.239084    -40.241541   1.000000   1.000000
  301      -40.239057    -40.241510   1.000000   1.000000
  302      -40.239004    -40.241467   1.000000   1.000000
  303      -40.238946    -40.241398   1.000000   1.000000
  304      -40.238933    -40.241382   1.000000   1.000000
  305      -40.238862    -40.241319   1.000000   1.000000
  306      -40.238829    -40.241293   1.000000   1.000000
  307      -40.238752    -40.241207   1.000000   1.000000
  308      -40.238736    -40.241180   1.000000   1.000000
  309      -40.238614    -40.241056   1.000000   1.000000
  310      -40.238519    -40.240958   1.000000   1.000000
  311      -40.238470    -40.240914   1.000000   1.000000
  312      -40.238441    -40.240877   1.000000   1.000000
  313      -40.238363    -40.240808   1.000000   1.000000
  314      -40.238293    -40.240749   1.000000   1.000000
  315      -40.238210    -40.240644   1.000000   1.000000
  316      -40.237854    -40.240292   1.000000   1.000000
  317      -40.237615    -40.240076   1.000000   1.000000
  318      -40.237159    -40.239619   1.000000   1.000000
  319      -40.236439    -40.238909   1.000000   1.000000
  320      -40.232005    -40.234436   1.000000   1.000000
  321      -13.667731    -13.340130   1.000000   1.000000
  322      -13.667498    -13.339824   1.000000   1.000000
  323      -13.664976    -13.336164   1.000000   1.000000
  324      -13.664798    -13.335982   1.000000   1.000000
  325      -13.650202    -13.322738   1.000000   1.000000
  326      -13.649324    -13.322214   1.000000   1.000000
  327      -13.649015    -13.322066   1.000000   1.000000
  328      -13.648865    -13.321893   1.000000   1.000000
  329      -13.648729    -13.320876   1.000000   1.000000
  330      -13.644828    -13.316567   1.000000   1.000000
  331      -13.644611    -13.316301   1.000000   1.000000
  332      -13.644600    -13.316291   1.000000   1.000000
  333      -13.644522    -13.316219   1.000000   1.000000
  334      -13.624514    -13.296789   1.000000   1.000000
  335      -13.624383    -13.296615   1.000000   1.000000
  336      -13.598931    -13.272478   1.000000   1.000000
  337      -13.509831    -13.235815   1.000000   1.000000
  338      -13.507681    -13.233616   1.000000   1.000000
  339      -13.507607    -13.233553   1.000000   1.000000
  340      -13.506894    -13.233090   1.000000   1.000000
  341      -13.505046    -13.232704   1.000000   1.000000
  342      -13.504049    -13.232318   1.000000   1.000000
  343      -13.504007    -13.232243   1.000000   1.000000
  344      -13.502898    -13.230882   1.000000   1.000000
  345      -13.499406    -13.225234   1.000000   1.000000
  346      -13.498381    -13.224234   1.000000   1.000000
  347      -13.498367    -13.224224   1.000000   1.000000
  348      -13.497013    -13.223039   1.000000   1.000000
  349      -13.478187    -13.203830   1.000000   1.000000
  350      -13.475902    -13.201759   1.000000   1.000000
  351      -13.475824    -13.201685   1.000000   1.000000
  352      -13.475820    -13.201680   1.000000   1.000000
  353      -13.475767    -13.201622   1.000000   1.000000
  354      -13.475762    -13.201620   1.000000   1.000000
  355      -13.475684    -13.201543   1.000000   1.000000
  356      -13.473408    -13.199487   1.000000   1.000000
  357      -13.454529    -13.180229   1.000000   1.000000
  358      -13.453133    -13.179001   1.000000   1.000000
  359      -13.453119    -13.178990   1.000000   1.000000
  360      -13.452147    -13.178040   1.000000   1.000000
  361      -13.449621    -13.174152   1.000000   1.000000
  362      -13.448618    -13.173090   1.000000   1.000000
  363      -13.448592    -13.173045   1.000000   1.000000
  364      -13.447403    -13.172164   1.000000   1.000000
  365      -13.444559    -13.170294   1.000000   1.000000
  366      -13.443792    -13.169616   1.000000   1.000000
  367      -13.443717    -13.169544   1.000000   1.000000
  368      -13.441708    -13.167757   1.000000   1.000000
  369      -13.355872    -13.143953   1.000000   1.000000
  370      -13.319915    -13.107667   1.000000   1.000000
  371      -13.319787    -13.107489   1.000000   1.000000
  372      -13.294380    -13.081764   1.000000   1.000000
  373      -13.294307    -13.081702   1.000000   1.000000
  374      -13.294297    -13.081685   1.000000   1.000000
  375      -13.294095    -13.081432   1.000000   1.000000
  376      -13.288580    -13.073608   1.000000   1.000000
  377      -13.288407    -13.073391   1.000000   1.000000
  378      -13.288270    -13.073207   1.000000   1.000000
  379      -13.287875    -13.072751   1.000000   1.000000
  380      -13.283321    -13.070586   1.000000   1.000000
  381      -13.268576    -13.055591   1.000000   1.000000
  382      -13.268414    -13.055424   1.000000   1.000000
  383      -13.265552    -13.051409   1.000000   1.000000
  384      -13.265324    -13.051110   1.000000   1.000000
  385       -7.538699     -7.332746   1.000000   1.000000
  386       -7.470226     -7.287933   1.000000   1.000000
  387       -7.469762     -7.287482   1.000000   1.000000
  388       -7.469370     -7.287090   1.000000   1.000000
  389       -7.468957     -7.286690   1.000000   1.000000
  390       -7.405017     -7.245503   1.000000   1.000000
  391       -7.404469     -7.244966   1.000000   1.000000
  392       -7.395717     -7.219242   1.000000   1.000000
  393       -7.395129     -7.218665   1.000000   1.000000
  394       -7.356657     -7.188787   1.000000   1.000000
  395       -7.356005     -7.188222   1.000000   1.000000
  396       -7.355877     -7.188103   1.000000   1.000000
  397       -7.355431     -7.187594   1.000000   1.000000
  398       -7.351887     -7.166644   1.000000   1.000000
  399       -7.351484     -7.166175   1.000000   1.000000
  400       -7.351471     -7.166167   1.000000   1.000000
  401       -7.350930     -7.165716   1.000000   1.000000
  402       -7.315296     -7.118174   1.000000   1.000000
  403       -7.315273     -7.117844   1.000000   1.000000
  404       -7.277760     -7.116821   1.000000   1.000000
  405       -7.277258     -7.116506   1.000000   1.000000
  406       -7.277250     -7.116493   1.000000   1.000000
  407       -7.276764     -7.115912   1.000000   1.000000
  408       -7.238347     -7.092080   1.000000   1.000000
  409       -7.237864     -7.085713   1.000000   1.000000
  410       -7.237490     -7.085276   1.000000   1.000000
  411       -7.237061     -7.084901   1.000000   1.000000
  412       -7.233088     -7.084454   1.000000   1.000000
  413       -7.210332     -7.035297   1.000000   1.000000
  414       -7.209279     -7.034253   1.000000   1.000000
  415       -7.209231     -7.034206   1.000000   1.000000
  416       -7.209212     -7.034186   1.000000   1.000000
  417       -7.209152     -7.034134   1.000000   1.000000
  418       -7.209129     -7.034110   1.000000   1.000000
  419       -7.209085     -7.034067   1.000000   1.000000
  420       -7.208003     -7.033036   1.000000   1.000000
  421       -7.147545     -7.005123   1.000000   1.000000
  422       -7.147421     -7.005107   1.000000   1.000000
  423       -7.143526     -6.979224   1.000000   1.000000
  424       -7.142985     -6.978807   1.000000   1.000000
  425       -7.142967     -6.978426   1.000000   1.000000
  426       -7.142586     -6.978004   1.000000   1.000000
  427       -7.141072     -6.951058   1.000000   1.000000
  428       -7.140799     -6.950603   1.000000   1.000000
  429       -7.140421     -6.950595   1.000000   1.000000
  430       -7.139807     -6.950114   1.000000   1.000000
  431       -7.052644     -6.907017   1.000000   1.000000
  432       -7.052103     -6.889824   1.000000   1.000000
  433       -7.052066     -6.889375   1.000000   1.000000
  434       -7.051681     -6.889364   1.000000   1.000000
  435       -7.050772     -6.888908   1.000000   1.000000
  436       -7.046776     -6.862917   1.000000   1.000000
  437       -7.046269     -6.862393   1.000000   1.000000
  438       -7.046138     -6.862270   1.000000   1.000000
  439       -7.045606     -6.861764   1.000000   1.000000
  440       -7.042461     -6.856230   1.000000   1.000000
  441       -7.041887     -6.855700   1.000000   1.000000
  442       -6.950938     -6.764628   1.000000   1.000000
  443       -6.950343     -6.764055   1.000000   1.000000
  444       -6.946665     -6.737408   1.000000   1.000000
  445       -6.946296     -6.737007   1.000000   1.000000
  446       -6.945917     -6.736629   1.000000   1.000000
  447       -6.945399     -6.736178   1.000000   1.000000
  448       -6.844519     -6.608351   1.000000   1.000000
  449       -2.693703     -1.100013   1.000000   1.000000
  450       -2.693660     -1.099987   1.000000   1.000000
  451       -2.690469     -1.046696   1.000000   1.000000
  452       -2.690413     -1.046659   1.000000   1.000000
  453       -2.689989     -1.040373   1.000000   1.000000
  454       -2.689942     -1.040150   1.000000   1.000000
  455       -2.687395     -0.973102   1.000000   1.000000
  456       -2.687251     -0.972988   1.000000   1.000000
  457       -2.687156     -0.972985   1.000000   1.000000
  458       -2.687113     -0.972893   1.000000   1.000000
  459       -2.686943     -0.914420   1.000000   1.000000
  460       -2.686845     -0.914400   1.000000   1.000000
  461       -2.685463     -0.914371   1.000000   1.000000
  462       -2.685348     -0.914305   1.000000   1.000000
  463       -2.685332     -0.898340   1.000000   1.000000
  464       -2.685258     -0.898307   1.000000   1.000000
  465       -1.750611     -0.600292   1.000000   1.000000
  466       -1.748583     -0.599462   1.000000   1.000000
  467       -1.748461     -0.599457   1.000000   1.000000
  468       -1.747854     -0.598650   1.000000   1.000000
  469       -1.747130     -0.494911   1.000000   1.000000
  470       -1.746422     -0.494267   1.000000   1.000000
  471       -1.746300     -0.493971   1.000000   1.000000
  472       -1.745135     -0.493359   1.000000   1.000000
  473       -1.727079     -0.417619   1.000000   1.000000
  474       -1.725185     -0.416934   1.000000   1.000000
  475       -1.725162     -0.416760   1.000000   1.000000
  476       -1.724402     -0.416156   1.000000   1.000000
  477       -1.721739     -0.392271   1.000000   1.000000
  478       -1.719660     -0.391556   1.000000   1.000000
  479       -1.719550     -0.391381   1.000000   1.000000
  480       -1.719520     -0.390750   1.000000   1.000000
  481       -1.719508     -0.376891   1.000000   1.000000
  482       -1.719485     -0.376092   1.000000   1.000000
  483       -1.719415     -0.376003   1.000000   1.000000
  484       -1.718433     -0.375125   1.000000   1.000000
  485       -1.718148     -0.287085   1.000000   1.000000
  486       -1.717740     -0.285293   1.000000   1.000000
  487       -1.717701     -0.285225   1.000000   1.000000
  488       -1.714903     -0.285215   1.000000   1.000000
  489       -1.692160     -0.285171   1.000000   1.000000
  490       -1.690924     -0.285153   1.000000   1.000000
  491       -1.690789     -0.285082   1.000000   1.000000
  492       -1.690084     -0.283221   1.000000   1.000000
  493       -1.689393     -0.029234   1.000000   1.000000
  494       -1.688796     -0.028039   1.000000   1.000000
  495       -1.688659     -0.028024   1.000000   1.000000
  496       -1.686616     -0.026810   1.000000   1.000000
  497       -1.449021      0.029150   1.000000   1.000000
  498       -1.449007      0.029757   1.000000   1.000000
  499       -1.438468      0.046193   1.000000   1.000000
  500       -1.438465      0.046219   1.000000   1.000000
  501       -1.398218      0.185927   1.000000   1.000000
  502       -1.398112      0.186569   1.000000   1.000000
  503       -1.382551      0.186573   1.000000   1.000000
  504       -1.382545      0.187156   1.000000   1.000000
  505       -1.326419      0.212054   1.000000   1.000000
  506       -1.326370      0.212055   1.000000   1.000000
  507       -1.326278      0.262157   1.000000   1.000000
  508       -1.326227      0.262211   1.000000   1.000000
  509       -1.320921      0.262506   1.000000   1.000000
  510       -1.320857      0.262571   1.000000   1.000000
  511       -1.320783      0.284600   1.000000   1.000000
  512       -1.320746      0.285053   1.000000   1.000000