  88  88   0   0
  0.1431748E+02  0.1111223E-08  0.1111745E-08  0.1056954E-08  0.5000000E-15
  1.000000000000000E-004
  CAR 
 unknown system                          
     17.90957088    -54.34212002  301      5.20531523      1.00000000
    -54.342  0.0000E+00  0.0000E+00  0.0000E+00  0.0000E+00
    -54.101  0.0000E+00  0.0000E+00  0.0000E+00  0.0000E+00
    -53.860  0.0000E+00  0.0000E+00  0.0000E+00  0.0000E+00
    -53.620  0.0000E+00  0.0000E+00  0.0000E+00  0.0000E+00
    -53.379  0.0000E+00  0.0000E+00  0.0000E+00  0.0000E+00
    -53.138  0.0000E+00  0.0000E+00  0.0000E+00  0.0000E+00
    -52.897  0.0000E+00  0.0000E+00  0.0000E+00  0.0000E+00
    -52.656  0.0000E+00  0.0000E+00  0.0000E+00  0.0000E+00
    -52.415  0.0000E+00  0.0000E+00  0.0000E+00  0.0000E+00
    -52.175  0.0000E+00  0.0000E+00  0.0000E+00  0.0000E+00
    -51.934  0.0000E+00  0.0000E+00  0.0000E+00  0.0000E+00
    -51.693  0.0000E+00  0.0000E+00  0.0000E+00  0.0000E+00
    -51.452  0.0000E+00  0.0000E+00  0.0000E+00  0.0000E+00
    -51.211  0.3268E-03  0.0000E+00  0.7870E-04  0.0000E+00
    -50.970  0.1307E+03  0.0000E+00  0.3149E+02  0.0000E+00
    -50.730  0.2124E+01  0.0000E+00  0.3200E+02  0.0000E+00
    -50.489  0.0000E+00  0.0000E+00  0.3200E+02  0.0000E+00
    -50.248  0.0000E+00  0.0000E+00  0.3200E+02  0.0000E+00
    -50.007  0.0000E+00  0.0000E+00  0.3200E+02  0.0000E+00
    -49.766  0.1817E+01  0.0000E+00  0.3244E+02  0.0000E+00
    -49.525  0.2354E+03  0.0000E+00  0.8913E+02  0.0000E+00
    -49.285  0.2851E+02  0.0000E+00  0.9600E+02  0.0000E+00
    -49.044  0.0000E+00  0.0000E+00  0.9600E+02  0.0000E+00
    -48.803  0.0000E+00  0.0000E+00  0.9600E+02  0.0000E+00
    -48.562  0.0000E+00  0.0000E+00  0.9600E+02  0.0000E+00
    -48.321  0.0000E+00  0.0000E+00  0.9600E+02  0.0000E+00
    -48.080  0.0000E+00  0.0000E+00  0.9600E+02  0.0000E+00
    -47.839  0.0000E+00  0.0000E+00  0.9600E+02  0.0000E+00
    -47.599  0.0000E+00  0.0000E+00  0.9600E+02  0.0000E+00
    -47.358  0.0000E+00  0.0000E+00  0.9600E+02  0.0000E+00
    -47.117  0.0000E+00  0.0000E+00  0.9600E+02  0.0000E+00
    -46.876  0.0000E+00  0.0000E+00  0.9600E+02  0.0000E+00
    -46.635  0.0000E+00  0.0000E+00  0.9600E+02  0.0000E+00
    -46.394  0.0000E+00  0.3452E+00  0.9600E+02  0.8314E-01
    -46.154  0.0000E+00  0.1325E+03  0.9600E+02  0.3199E+02
    -45.913  0.0000E+00  0.5909E+02  0.9600E+02  0.4622E+02
    -45.672  0.0000E+00  0.2067E+03  0.9600E+02  0.9600E+02
    -45.431  0.0000E+00  0.0000E+00  0.9600E+02  0.9600E+02
    -45.190  0.0000E+00  0.0000E+00  0.9600E+02  0.9600E+02
    -44.949  0.0000E+00  0.0000E+00  0.9600E+02  0.9600E+02
    -44.709  0.0000E+00  0.0000E+00  0.9600E+02  0.9600E+02
    -44.468  0.0000E+00  0.0000E+00  0.9600E+02  0.9600E+02
    -44.227  0.0000E+00  0.0000E+00  0.9600E+02  0.9600E+02
    -43.986  0.0000E+00  0.0000E+00  0.9600E+02  0.9600E+02
    -43.745  0.0000E+00  0.0000E+00  0.9600E+02  0.9600E+02
    -43.504  0.0000E+00  0.0000E+00  0.9600E+02  0.9600E+02
    -43.264  0.0000E+00  0.0000E+00  0.9600E+02  0.9600E+02
    -43.023  0.0000E+00  0.0000E+00  0.9600E+02  0.9600E+02
    -42.782  0.0000E+00  0.0000E+00  0.9600E+02  0.9600E+02
    -42.541  0.0000E+00  0.0000E+00  0.9600E+02  0.9600E+02
    -42.300  0.0000E+00  0.0000E+00  0.9600E+02  0.9600E+02
    -42.059  0.0000E+00  0.0000E+00  0.9600E+02  0.9600E+02
    -41.818  0.0000E+00  0.0000E+00  0.9600E+02  0.9600E+02
    -41.578  0.0000E+00  0.0000E+00  0.9600E+02  0.9600E+02
    -41.337  0.0000E+00  0.0000E+00  0.9600E+02  0.9600E+02
    -41.096  0.0000E+00  0.0000E+00  0.9600E+02  0.9600E+02
    -40.855  0.0000E+00  0.0000E+00  0.9600E+02  0.9600E+02
    -40.614  0.0000E+00  0.0000E+00  0.9600E+02  0.9600E+02
    -40.373  0.0000E+00  0.0000E+00  0.9600E+02  0.9600E+02
    -40.133  0.1468E-11  0.9344E-12  0.9600E+02  0.9600E+02
    -39.892  0.1482E+02  0.1369E+02  0.9957E+02  0.9930E+02
    -39.651  0.5162E+02  0.5275E+02  0.1120E+03  0.1120E+03
    -39.410  0.0000E+00  0.0000E+00  0.1120E+03  0.1120E+03
    -39.169  0.0000E+00  0.0000E+00  0.1120E+03  0.1120E+03
    -38.928  0.0000E+00  0.0000E+00  0.1120E+03  0.1120E+03
    -38.688  0.0000E+00  0.0000E+00  0.1120E+03  0.1120E+03
    -38.447  0.0000E+00  0.0000E+00  0.1120E+03  0.1120E+03
    -38.206  0.0000E+00  0.0000E+00  0.1120E+03  0.1120E+03
    -37.965  0.0000E+00  0.0000E+00  0.1120E+03  0.1120E+03
    -37.724  0.0000E+00  0.0000E+00  0.1120E+03  0.1120E+03
    -37.483  0.0000E+00  0.0000E+00  0.1120E+03  0.1120E+03
    -37.243  0.0000E+00  0.0000E+00  0.1120E+03  0.1120E+03
    -37.002  0.0000E+00  0.0000E+00  0.1120E+03  0.1120E+03
    -36.761  0.0000E+00  0.0000E+00  0.1120E+03  0.1120E+03
    -36.520  0.0000E+00  0.0000E+00  0.1120E+03  0.1120E+03
    -36.279  0.0000E+00  0.0000E+00  0.1120E+03  0.1120E+03
    -36.038  0.0000E+00  0.0000E+00  0.1120E+03  0.1120E+03
    -35.798  0.0000E+00  0.0000E+00  0.1120E+03  0.1120E+03
    -35.557  0.0000E+00  0.0000E+00  0.1120E+03  0.1120E+03
    -35.316  0.0000E+00  0.0000E+00  0.1120E+03  0.1120E+03
    -35.075  0.0000E+00  0.0000E+00  0.1120E+03  0.1120E+03
    -34.834  0.0000E+00  0.0000E+00  0.1120E+03  0.1120E+03
    -34.593  0.0000E+00  0.0000E+00  0.1120E+03  0.1120E+03
    -34.352  0.0000E+00  0.0000E+00  0.1120E+03  0.1120E+03
    -34.112  0.0000E+00  0.0000E+00  0.1120E+03  0.1120E+03
    -33.871  0.0000E+00  0.0000E+00  0.1120E+03  0.1120E+03
    -33.630  0.0000E+00  0.0000E+00  0.1120E+03  0.1120E+03
    -33.389  0.0000E+00  0.0000E+00  0.1120E+03  0.1120E+03
    -33.148  0.0000E+00  0.0000E+00  0.1120E+03  0.1120E+03
    -32.907  0.0000E+00  0.0000E+00  0.1120E+03  0.1120E+03
    -32.667  0.0000E+00  0.0000E+00  0.1120E+03  0.1120E+03
    -32.426  0.0000E+00  0.0000E+00  0.1120E+03  0.1120E+03
    -32.185  0.0000E+00  0.0000E+00  0.1120E+03  0.1120E+03
    -31.944  0.0000E+00  0.0000E+00  0.1120E+03  0.1120E+03
    -31.703  0.0000E+00  0.0000E+00  0.1120E+03  0.1120E+03
    -31.462  0.0000E+00  0.0000E+00  0.1120E+03  0.1120E+03
    -31.222  0.0000E+00  0.0000E+00  0.1120E+03  0.1120E+03
    -30.981  0.0000E+00  0.0000E+00  0.1120E+03  0.1120E+03
    -30.740  0.0000E+00  0.0000E+00  0.1120E+03  0.1120E+03
    -30.499  0.0000E+00  0.0000E+00  0.1120E+03  0.1120E+03
    -30.258  0.0000E+00  0.0000E+00  0.1120E+03  0.1120E+03
    -30.017  0.0000E+00  0.0000E+00  0.1120E+03  0.1120E+03
    -29.777  0.0000E+00  0.0000E+00  0.1120E+03  0.1120E+03
    -29.536  0.0000E+00  0.0000E+00  0.1120E+03  0.1120E+03
    -29.295  0.0000E+00  0.0000E+00  0.1120E+03  0.1120E+03
    -29.054  0.0000E+00  0.0000E+00  0.1120E+03  0.1120E+03
    -28.813  0.0000E+00  0.0000E+00  0.1120E+03  0.1120E+03
    -28.572  0.0000E+00  0.0000E+00  0.1120E+03  0.1120E+03
    -28.332  0.0000E+00  0.0000E+00  0.1120E+03  0.1120E+03
    -28.091  0.0000E+00  0.0000E+00  0.1120E+03  0.1120E+03
    -27.850  0.0000E+00  0.0000E+00  0.1120E+03  0.1120E+03
    -27.609  0.0000E+00  0.0000E+00  0.1120E+03  0.1120E+03
    -27.368  0.0000E+00  0.0000E+00  0.1120E+03  0.1120E+03
    -27.127  0.0000E+00  0.0000E+00  0.1120E+03  0.1120E+03
    -26.886  0.0000E+00  0.0000E+00  0.1120E+03  0.1120E+03
    -26.646  0.0000E+00  0.0000E+00  0.1120E+03  0.1120E+03
    -26.405  0.0000E+00  0.0000E+00  0.1120E+03  0.1120E+03
    -26.164  0.0000E+00  0.0000E+00  0.1120E+03  0.1120E+03
    -25.923  0.0000E+00  0.0000E+00  0.1120E+03  0.1120E+03
    -25.682  0.0000E+00  0.0000E+00  0.1120E+03  0.1120E+03
    -25.441  0.0000E+00  0.0000E+00  0.1120E+03  0.1120E+03
    -25.201  0.0000E+00  0.0000E+00  0.1120E+03  0.1120E+03
    -24.960  0.0000E+00  0.0000E+00  0.1120E+03  0.1120E+03
    -24.719  0.0000E+00  0.0000E+00  0.1120E+03  0.1120E+03
    -24.478  0.0000E+00  0.0000E+00  0.1120E+03  0.1120E+03
    -24.237  0.0000E+00  0.0000E+00  0.1120E+03  0.1120E+03
    -23.996  0.0000E+00  0.0000E+00  0.1120E+03  0.1120E+03
    -23.756  0.0000E+00  0.0000E+00  0.1120E+03  0.1120E+03
    -23.515  0.0000E+00  0.0000E+00  0.1120E+03  0.1120E+03
    -23.274  0.0000E+00  0.0000E+00  0.1120E+03  0.1120E+03
    -23.033  0.0000E+00  0.0000E+00  0.1120E+03  0.1120E+03
    -22.792  0.0000E+00  0.0000E+00  0.1120E+03  0.1120E+03
    -22.551  0.0000E+00  0.0000E+00  0.1120E+03  0.1120E+03
    -22.311  0.0000E+00  0.0000E+00  0.1120E+03  0.1120E+03
    -22.070  0.0000E+00  0.0000E+00  0.1120E+03  0.1120E+03
    -21.829  0.0000E+00  0.0000E+00  0.1120E+03  0.1120E+03
    -21.588  0.0000E+00  0.0000E+00  0.1120E+03  0.1120E+03
    -21.347  0.0000E+00  0.0000E+00  0.1120E+03  0.1120E+03
    -21.106  0.0000E+00  0.0000E+00  0.1120E+03  0.1120E+03
    -20.866  0.0000E+00  0.0000E+00  0.1120E+03  0.1120E+03
    -20.625  0.0000E+00  0.0000E+00  0.1120E+03  0.1120E+03
    -20.384  0.0000E+00  0.0000E+00  0.1120E+03  0.1120E+03
    -20.143  0.0000E+00  0.0000E+00  0.1120E+03  0.1120E+03
    -19.902  0.0000E+00  0.0000E+00  0.1120E+03  0.1120E+03
    -19.661  0.0000E+00  0.0000E+00  0.1120E+03  0.1120E+03
    -19.420  0.0000E+00  0.0000E+00  0.1120E+03  0.1120E+03
    -19.180  0.0000E+00  0.0000E+00  0.1120E+03  0.1120E+03
    -18.939  0.0000E+00  0.0000E+00  0.1120E+03  0.1120E+03
    -18.698  0.0000E+00  0.0000E+00  0.1120E+03  0.1120E+03
    -18.457  0.0000E+00  0.0000E+00  0.1120E+03  0.1120E+03
    -18.216  0.0000E+00  0.0000E+00  0.1120E+03  0.1120E+03
    -17.975  0.0000E+00  0.0000E+00  0.1120E+03  0.1120E+03
    -17.735  0.0000E+00  0.0000E+00  0.1120E+03  0.1120E+03
    -17.494  0.0000E+00  0.0000E+00  0.1120E+03  0.1120E+03
    -17.253  0.0000E+00  0.0000E+00  0.1120E+03  0.1120E+03
    -17.012  0.0000E+00  0.0000E+00  0.1120E+03  0.1120E+03
    -16.771  0.0000E+00  0.0000E+00  0.1120E+03  0.1120E+03
    -16.530  0.0000E+00  0.0000E+00  0.1120E+03  0.1120E+03
    -16.290  0.0000E+00  0.0000E+00  0.1120E+03  0.1120E+03
    -16.049  0.0000E+00  0.0000E+00  0.1120E+03  0.1120E+03
    -15.808  0.0000E+00  0.0000E+00  0.1120E+03  0.1120E+03
    -15.567  0.0000E+00  0.0000E+00  0.1120E+03  0.1120E+03
    -15.326  0.0000E+00  0.0000E+00  0.1120E+03  0.1120E+03
    -15.085  0.0000E+00  0.0000E+00  0.1120E+03  0.1120E+03
    -14.845  0.0000E+00  0.0000E+00  0.1120E+03  0.1120E+03
    -14.604  0.0000E+00  0.0000E+00  0.1120E+03  0.1120E+03
    -14.363  0.0000E+00  0.0000E+00  0.1120E+03  0.1120E+03
    -14.122  0.0000E+00  0.0000E+00  0.1120E+03  0.1120E+03
    -13.881  0.0000E+00  0.0000E+00  0.1120E+03  0.1120E+03
    -13.640  0.0000E+00  0.0000E+00  0.1120E+03  0.1120E+03
    -13.399  0.8442E-06  0.0000E+00  0.1120E+03  0.1120E+03
    -13.159  0.1943E+02  0.0000E+00  0.1167E+03  0.1120E+03
    -12.918  0.4569E+02  0.9553E-02  0.1277E+03  0.1120E+03
    -12.677  0.1316E+01  0.4274E+02  0.1280E+03  0.1223E+03
    -12.436  0.0000E+00  0.2368E+02  0.1280E+03  0.1280E+03
    -12.195  0.0000E+00  0.0000E+00  0.1280E+03  0.1280E+03
    -11.954  0.0000E+00  0.0000E+00  0.1280E+03  0.1280E+03
    -11.714  0.0000E+00  0.0000E+00  0.1280E+03  0.1280E+03
    -11.473  0.0000E+00  0.0000E+00  0.1280E+03  0.1280E+03
    -11.232  0.0000E+00  0.0000E+00  0.1280E+03  0.1280E+03
    -10.991  0.0000E+00  0.0000E+00  0.1280E+03  0.1280E+03
    -10.750  0.0000E+00  0.0000E+00  0.1280E+03  0.1280E+03
    -10.509  0.0000E+00  0.0000E+00  0.1280E+03  0.1280E+03
    -10.269  0.0000E+00  0.0000E+00  0.1280E+03  0.1280E+03
    -10.028  0.0000E+00  0.0000E+00  0.1280E+03  0.1280E+03
     -9.787  0.0000E+00  0.0000E+00  0.1280E+03  0.1280E+03
     -9.546  0.0000E+00  0.0000E+00  0.1280E+03  0.1280E+03
     -9.305  0.0000E+00  0.0000E+00  0.1280E+03  0.1280E+03
     -9.064  0.0000E+00  0.0000E+00  0.1280E+03  0.1280E+03
     -8.824  0.0000E+00  0.0000E+00  0.1280E+03  0.1280E+03
     -8.583  0.0000E+00  0.0000E+00  0.1280E+03  0.1280E+03
     -8.342  0.0000E+00  0.0000E+00  0.1280E+03  0.1280E+03
     -8.101  0.0000E+00  0.0000E+00  0.1280E+03  0.1280E+03
     -7.860  0.9747E-10  0.0000E+00  0.1280E+03  0.1280E+03
     -7.619  0.6035E+00  0.1770E-10  0.1281E+03  0.1280E+03
     -7.379  0.1275E+02  0.5344E+00  0.1312E+03  0.1281E+03
     -7.138  0.3025E+02  0.1402E+02  0.1385E+03  0.1315E+03
     -6.897  0.3431E+02  0.2944E+02  0.1468E+03  0.1386E+03
     -6.656  0.2174E+02  0.2631E+02  0.1520E+03  0.1449E+03
     -6.415  0.1796E-04  0.2930E+02  0.1520E+03  0.1520E+03
     -6.174  0.0000E+00  0.4978E-01  0.1520E+03  0.1520E+03
     -5.933  0.0000E+00  0.0000E+00  0.1520E+03  0.1520E+03
     -5.693  0.0000E+00  0.0000E+00  0.1520E+03  0.1520E+03
     -5.452  0.0000E+00  0.0000E+00  0.1520E+03  0.1520E+03
     -5.211  0.0000E+00  0.0000E+00  0.1520E+03  0.1520E+03
     -4.970  0.0000E+00  0.0000E+00  0.1520E+03  0.1520E+03
     -4.729  0.0000E+00  0.0000E+00  0.1520E+03  0.1520E+03
     -4.488  0.0000E+00  0.0000E+00  0.1520E+03  0.1520E+03
     -4.248  0.0000E+00  0.0000E+00  0.1520E+03  0.1520E+03
     -4.007  0.0000E+00  0.0000E+00  0.1520E+03  0.1520E+03
     -3.766  0.0000E+00  0.0000E+00  0.1520E+03  0.1520E+03
     -3.525  0.0000E+00  0.0000E+00  0.1520E+03  0.1520E+03
     -3.284  0.0000E+00  0.0000E+00  0.1520E+03  0.1520E+03
     -3.043  0.0000E+00  0.0000E+00  0.1520E+03  0.1520E+03
     -2.803  0.0000E+00  0.0000E+00  0.1520E+03  0.1520E+03
     -2.562  0.0000E+00  0.0000E+00  0.1520E+03  0.1520E+03
     -2.321  0.0000E+00  0.0000E+00  0.1520E+03  0.1520E+03
     -2.080  0.3149E-04  0.0000E+00  0.1520E+03  0.1520E+03
     -1.839  0.1620E+02  0.0000E+00  0.1559E+03  0.1520E+03
     -1.598  0.1947E+02  0.0000E+00  0.1606E+03  0.1520E+03
     -1.358  0.1474E+02  0.0000E+00  0.1641E+03  0.1520E+03
     -1.117  0.1718E+02  0.0000E+00  0.1683E+03  0.1520E+03
     -0.876  0.4610E+02  0.0000E+00  0.1794E+03  0.1520E+03
     -0.635  0.5905E+02  0.1195E-05  0.1936E+03  0.1520E+03
     -0.394  0.3870E+02  0.4309E+01  0.2029E+03  0.1530E+03
     -0.153  0.6813E+02  0.2033E+02  0.2193E+03  0.1579E+03
      0.087  0.7363E+02  0.1225E+02  0.2371E+03  0.1609E+03
      0.328  0.7760E+02  0.1863E+02  0.2558E+03  0.1654E+03
      0.569  0.6993E+02  0.2960E+02  0.2726E+03  0.1725E+03
      0.810  0.5525E+02  0.3927E+02  0.2859E+03  0.1820E+03
      1.051  0.3637E+02  0.3730E+02  0.2947E+03  0.1909E+03
      1.292  0.3065E+02  0.3108E+02  0.3020E+03  0.1984E+03
      1.533  0.4506E+02  0.2077E+02  0.3129E+03  0.2034E+03
      1.773  0.4245E+02  0.2889E+02  0.3231E+03  0.2104E+03
      2.014  0.6897E+02  0.3706E+02  0.3397E+03  0.2193E+03
      2.255  0.5756E+02  0.2743E+02  0.3536E+03  0.2259E+03
      2.496  0.2688E+02  0.2704E+02  0.3601E+03  0.2324E+03
      2.737  0.4272E+02  0.3092E+02  0.3704E+03  0.2399E+03
      2.978  0.2986E+02  0.4447E+02  0.3775E+03  0.2506E+03
      3.218  0.8688E+01  0.4548E+02  0.3796E+03  0.2615E+03
      3.459  0.2813E+02  0.3189E+02  0.3864E+03  0.2692E+03
      3.700  0.2708E+02  0.1235E+02  0.3929E+03  0.2722E+03
      3.941  0.3100E+02  0.1793E+02  0.4004E+03  0.2765E+03
      4.182  0.3591E+02  0.5238E+02  0.4090E+03  0.2891E+03
      4.423  0.3637E+02  0.4504E+02  0.4178E+03  0.3000E+03
      4.663  0.3017E+02  0.1667E+02  0.4251E+03  0.3040E+03
      4.904  0.2574E+02  0.4131E-02  0.4313E+03  0.3040E+03
      5.145  0.3016E+01  0.0000E+00  0.4320E+03  0.3040E+03
      5.386  0.0000E+00  0.0000E+00  0.4320E+03  0.3040E+03
      5.627  0.0000E+00  0.0000E+00  0.4320E+03  0.3040E+03
      5.868  0.0000E+00  0.0000E+00  0.4320E+03  0.3040E+03
      6.108  0.0000E+00  0.5293E-09  0.4320E+03  0.3040E+03
      6.349  0.0000E+00  0.4118E+00  0.4320E+03  0.3041E+03
      6.590  0.0000E+00  0.4204E+01  0.4320E+03  0.3051E+03
      6.831  0.0000E+00  0.7924E+01  0.4320E+03  0.3070E+03
      7.072  0.1161E-14  0.1949E+02  0.4320E+03  0.3117E+03
      7.313  0.2934E-01  0.4433E+02  0.4320E+03  0.3224E+03
      7.553  0.1244E+00  0.5356E+02  0.4320E+03  0.3353E+03
      7.794  0.2602E+00  0.6319E+02  0.4321E+03  0.3505E+03
      8.035  0.7226E+00  0.6602E+02  0.4323E+03  0.3664E+03
      8.276  0.2162E+01  0.7022E+02  0.4328E+03  0.3833E+03
      8.517  0.2647E+01  0.5899E+02  0.4334E+03  0.3975E+03
      8.758  0.8926E+01  0.5873E+02  0.4356E+03  0.4117E+03
      8.999  0.1253E+02  0.4759E+02  0.4386E+03  0.4231E+03
      9.239  0.1312E+02  0.2967E+02  0.4418E+03  0.4303E+03
      9.480  0.1809E+02  0.8800E+01  0.4461E+03  0.4324E+03
      9.721  0.1622E+02  0.3067E+01  0.4500E+03  0.4331E+03
      9.962  0.1573E+02  0.8393E+01  0.4538E+03  0.4352E+03
     10.203  0.2248E+02  0.1873E+02  0.4592E+03  0.4397E+03
     10.444  0.1485E+02  0.1798E+02  0.4628E+03  0.4440E+03
     10.684  0.1529E+02  0.1722E+02  0.4665E+03  0.4481E+03
     10.925  0.1324E+02  0.2757E+02  0.4697E+03  0.4548E+03
     11.166  0.2065E+02  0.1896E+02  0.4746E+03  0.4594E+03
     11.407  0.2485E+02  0.2403E+02  0.4806E+03  0.4651E+03
     11.648  0.2716E+02  0.1469E+02  0.4872E+03  0.4687E+03
     11.889  0.2477E+02  0.1384E+02  0.4931E+03  0.4720E+03
     12.129  0.3337E+02  0.1614E+02  0.5012E+03  0.4759E+03
     12.370  0.1986E+02  0.3692E+02  0.5060E+03  0.4848E+03
     12.611  0.2307E+02  0.3259E+02  0.5115E+03  0.4926E+03
     12.852  0.2146E+02  0.2969E+02  0.5167E+03  0.4998E+03
     13.093  0.2018E+02  0.2022E+02  0.5215E+03  0.5047E+03
     13.334  0.2410E+02  0.2230E+02  0.5273E+03  0.5100E+03
     13.574  0.2412E+02  0.2724E+02  0.5332E+03  0.5166E+03
     13.815  0.1338E+02  0.2373E+02  0.5364E+03  0.5223E+03
     14.056  0.6717E+01  0.2623E+02  0.5380E+03  0.5286E+03
     14.297  0.3538E-02  0.1915E+02  0.5380E+03  0.5332E+03
     14.538  0.0000E+00  0.1673E+02  0.5380E+03  0.5373E+03
     14.779  0.0000E+00  0.3037E+01  0.5380E+03  0.5380E+03
     15.020  0.0000E+00  0.2243E-05  0.5380E+03  0.5380E+03
     15.260  0.0000E+00  0.0000E+00  0.5380E+03  0.5380E+03
     15.501  0.0000E+00  0.0000E+00  0.5380E+03  0.5380E+03
     15.742  0.0000E+00  0.0000E+00  0.5380E+03  0.5380E+03
     15.983  0.0000E+00  0.0000E+00  0.5380E+03  0.5380E+03
     16.224  0.0000E+00  0.0000E+00  0.5380E+03  0.5380E+03
     16.465  0.0000E+00  0.0000E+00  0.5380E+03  0.5380E+03
     16.705  0.0000E+00  0.0000E+00  0.5380E+03  0.5380E+03
     16.946  0.0000E+00  0.0000E+00  0.5380E+03  0.5380E+03
     17.187  0.0000E+00  0.0000E+00  0.5380E+03  0.5380E+03
     17.428  0.0000E+00  0.0000E+00  0.5380E+03  0.5380E+03
     17.669  0.0000E+00  0.0000E+00  0.5380E+03  0.5380E+03
     17.910  0.0000E+00  0.0000E+00  0.5380E+03  0.5380E+03
