<?xml version="1.0" encoding="ISO-8859-1"?>
<modeling>
 <generator>
  <i name="program" type="string">vasp </i>
  <i name="version" type="string">5.4.4.18Apr17-6-g9f103f2a35  </i>
  <i name="subversion" type="string">(build Oct 25 2017 14:42:18) complex            parallel </i>
  <i name="platform" type="string">LinuxIFC </i>
  <i name="date" type="string">2021 06 02 </i>
  <i name="time" type="string">18:53:41 </i>
 </generator>
 <incar>
  <i type="string" name="PREC">accurate</i>
  <i type="string" name="ALGO"> normal</i>
  <i type="logical" name="ADDGRID"> T  </i>
  <i type="int" name="ISPIN">     2</i>
  <i type="int" name="ICHARG">     1</i>
  <i type="int" name="NELM">   200</i>
  <i type="int" name="NELMIN">     8</i>
  <i name="EDIFF">      0.00000100</i>
  <i type="int" name="ISYM">     0</i>
  <i name="ENCUT">    650.00000000</i>
  <v name="MAGMOM">      0.60000000      0.60000000      0.60000000      0.60000000      0.60000000      0.60000000      0.60000000      0.60000000      0.60000000      0.60000000      0.60000000      0.60000000      0.60000000      0.60000000      0.60000000      0.60000000      0.60000000      0.60000000      0.60000000      0.60000000
      0.60000000      0.60000000      0.60000000      0.60000000      0.60000000      0.60000000      0.60000000      0.60000000      0.60000000      0.60000000      0.60000000      0.60000000      0.60000000      0.60000000      0.60000000      0.60000000      0.60000000      0.60000000      0.60000000      0.60000000
      0.60000000      0.60000000      0.60000000      0.60000000      0.60000000      0.60000000      0.60000000      0.60000000      0.60000000      0.60000000      0.60000000      0.60000000      0.60000000      0.60000000      0.60000000      0.60000000      5.00000000      5.00000000      5.00000000      5.00000000
      5.00000000      5.00000000      5.00000000      5.00000000      5.00000000      5.00000000      5.00000000      5.00000000      5.00000000      5.00000000      5.00000000      5.00000000      5.00000000      5.00000000      5.00000000      5.00000000      5.00000000      5.00000000      5.00000000      5.00000000
      5.00000000      5.00000000      5.00000000      5.00000000      5.00000000      5.00000000      5.00000000      5.00000000</v>
  <i type="logical" name="LREAL"> F  </i>
  <i type="int" name="ISMEAR">     0</i>
  <i name="SIGMA">      0.05000000</i>
  <i type="int" name="NWRITE">     1</i>
  <i type="int" name="LMAXMIX">     4</i>
  <i type="logical" name="LWAVE"> F  </i>
  <i type="logical" name="LASPH"> T  </i>
  <v type="int" name="KPOINT_BSE">    -1     0     0     0</v>
  <i type="int" name="NELM">   200</i>
  <i type="string" name="GGA"> pe</i>
  <i type="logical" name="LDAU"> T  </i>
  <v type="int" name="LDAUTYPE">     2</v>
  <v type="int" name="LDAUL">    -1    -1    -1     2</v>
  <v name="LDAUU">      0.00000000      0.00000000      0.00000000      4.00000000</v>
  <v name="LDAUJ">      0.00000000      0.00000000      0.00000000      0.00000000</v>
  <i type="logical" name="LASPH"> T  </i>
 </incar>
 <structure name="primitive_cell" >
  <crystal>
   <varray name="basis" >
    <v>      11.11223374       0.00000000      -0.00029034 </v>
    <v>       0.00000000      11.11745194       0.00000000 </v>
    <v>      -2.77510898       0.00000000      10.19872221 </v>
   </varray>
   <i name="volume">   1259.93837498 </i>
   <varray name="rec_basis" >
    <v>       0.08999155       0.00000000       0.02448702 </v>
    <v>       0.00000000       0.08994867       0.00000000 </v>
    <v>       0.00000256       0.00000000       0.09805220 </v>
   </varray>
  </crystal>
  <varray name="positions" >
   <v>       0.28894970       0.46933910       0.15583616 </v>
   <v>       0.17529533      -0.40661825       0.19749617 </v>
   <v>       0.42345029       0.34530995       0.19749407 </v>
   <v>       0.37560721      -0.40565694      -0.00000412 </v>
   <v>       0.12439279       0.34434306       0.00000412 </v>
   <v>      -0.46151602       0.46936404       0.15397331 </v>
   <v>       0.03848398       0.46846455       0.15397331 </v>
   <v>       0.28861657       0.21935690       0.15447525 </v>
   <v>       0.28861657      -0.28064310       0.15447525 </v>
   <v>       0.21868463       0.34523395       0.37102476 </v>
   <v>       0.46681660      -0.40655103       0.37102399 </v>
   <v>       0.23507288      -0.41767349       0.39367237 </v>
   <v>       0.46175575       0.35634799       0.39367694 </v>
   <v>       0.21138343       0.46935690      -0.15447525 </v>
   <v>       0.04646972       0.21934976       0.18586770 </v>
   <v>       0.04646972      -0.28065024       0.18586770 </v>
   <v>      -0.45353028       0.21934976       0.18586770 </v>
   <v>      -0.45353028      -0.28065024       0.18586770 </v>
   <v>       0.32470467       0.34338175      -0.19749617 </v>
   <v>       0.07654971      -0.40469005      -0.19749407 </v>
   <v>       0.21105030       0.21933910      -0.15583616 </v>
   <v>       0.21105030      -0.28066090      -0.15583616 </v>
   <v>      -0.07654971       0.34530995       0.19749407 </v>
   <v>      -0.32470467      -0.40661825       0.19749617 </v>
   <v>       0.17529533       0.09338175       0.19749617 </v>
   <v>       0.42345029      -0.15469005       0.19749407 </v>
   <v>       0.45353028       0.46934976      -0.18586770 </v>
   <v>      -0.04646972       0.46934976      -0.18586770 </v>
   <v>      -0.37560721       0.34434306       0.00000412 </v>
   <v>      -0.12439279      -0.40565694      -0.00000412 </v>
   <v>       0.37560721       0.09434306      -0.00000412 </v>
   <v>       0.12439279      -0.15565694       0.00000412 </v>
   <v>      -0.03318340      -0.40655103       0.37102399 </v>
   <v>      -0.28131537       0.34523395       0.37102476 </v>
   <v>       0.21868463      -0.15476605       0.37102476 </v>
   <v>       0.46681660       0.09344897       0.37102399 </v>
   <v>       0.46151602       0.21936404      -0.15397331 </v>
   <v>       0.46151602      -0.28063596      -0.15397331 </v>
   <v>      -0.03848398       0.21936404      -0.15397331 </v>
   <v>      -0.03848398      -0.28063596      -0.15397331 </v>
   <v>       0.26492712       0.33232651      -0.39367237 </v>
   <v>      -0.46175575      -0.39365201      -0.39367694 </v>
   <v>      -0.03824425       0.35634799       0.39367694 </v>
   <v>      -0.26492712      -0.41767349       0.39367237 </v>
   <v>       0.23507288       0.08232651       0.39367237 </v>
   <v>       0.46175575      -0.14365201       0.39367694 </v>
   <v>       0.28131537      -0.40476605      -0.37102476 </v>
   <v>      -0.46681660       0.34344897      -0.37102399 </v>
   <v>      -0.21105030       0.46933910       0.15583616 </v>
   <v>       0.28894970      -0.03066090       0.15583616 </v>
   <v>       0.32470467      -0.15661825      -0.19749617 </v>
   <v>       0.07654971       0.09530995      -0.19749407 </v>
   <v>      -0.42345029      -0.40469005      -0.19749407 </v>
   <v>      -0.17529533       0.34338175      -0.19749617 </v>
   <v>       0.03318340       0.34344897      -0.37102399 </v>
   <v>      -0.07654971      -0.15469005       0.19749407 </v>
   <v>      -0.32470467       0.09338175       0.19749617 </v>
   <v>       0.03824425      -0.39365201      -0.39367694 </v>
   <v>      -0.37560721      -0.15565694       0.00000412 </v>
   <v>      -0.12439279       0.09434306      -0.00000412 </v>
   <v>      -0.21138343       0.21935690       0.15447525 </v>
   <v>      -0.21138343      -0.28064310       0.15447525 </v>
   <v>      -0.46151602      -0.03063596       0.15397331 </v>
   <v>       0.03848398      -0.03063596       0.15397331 </v>
   <v>       0.26492712      -0.16767349      -0.39367237 </v>
   <v>      -0.46175575       0.10634799      -0.39367694 </v>
   <v>      -0.03318340       0.09344897       0.37102399 </v>
   <v>      -0.28131537      -0.15476605       0.37102476 </v>
   <v>      -0.23507288       0.33232651      -0.39367237 </v>
   <v>      -0.28861657       0.46935690      -0.15447525 </v>
   <v>       0.21138343      -0.03064310      -0.15447525 </v>
   <v>      -0.21868463      -0.40476605      -0.37102476 </v>
   <v>       0.28131537       0.09523395      -0.37102476 </v>
   <v>      -0.46681660      -0.15655103      -0.37102399 </v>
   <v>      -0.03824425      -0.14365201       0.39367694 </v>
   <v>      -0.26492712       0.08232651       0.39367237 </v>
   <v>      -0.42345029       0.09530995      -0.19749407 </v>
   <v>      -0.17529533      -0.15661825      -0.19749617 </v>
   <v>       0.03318340      -0.15655103      -0.37102399 </v>
   <v>      -0.28894970       0.21933910      -0.15583616 </v>
   <v>      -0.28894970      -0.28066090      -0.15583616 </v>
   <v>       0.03824425       0.10634799      -0.39367694 </v>
   <v>       0.45353028      -0.03065024      -0.18586770 </v>
   <v>      -0.04646972      -0.03065024      -0.18586770 </v>
   <v>      -0.23507288      -0.16767349      -0.39367237 </v>
   <v>      -0.21868463       0.09523395      -0.37102476 </v>
   <v>      -0.21105030      -0.03066090       0.15583616 </v>
   <v>      -0.28861657      -0.03064310      -0.15447525 </v>
  </varray>
 </structure>
 <varray name="primitive_index" >
  <v type="int" >        1 </v>
  <v type="int" >       27 </v>
  <v type="int" >       29 </v>
  <v type="int" >       55 </v>
  <v type="int" >       49 </v>
  <v type="int" >       74 </v>
  <v type="int" >       73 </v>
  <v type="int" >       77 </v>
  <v type="int" >       79 </v>
  <v type="int" >       33 </v>
  <v type="int" >       39 </v>
  <v type="int" >       67 </v>
  <v type="int" >       69 </v>
  <v type="int" >       81 </v>
  <v type="int" >        5 </v>
  <v type="int" >        7 </v>
  <v type="int" >        6 </v>
  <v type="int" >        8 </v>
  <v type="int" >       21 </v>
  <v type="int" >       19 </v>
  <v type="int" >       13 </v>
  <v type="int" >       15 </v>
  <v type="int" >       30 </v>
  <v type="int" >       28 </v>
  <v type="int" >       25 </v>
  <v type="int" >       31 </v>
  <v type="int" >        9 </v>
  <v type="int" >       10 </v>
  <v type="int" >       50 </v>
  <v type="int" >       56 </v>
  <v type="int" >       53 </v>
  <v type="int" >       51 </v>
  <v type="int" >       40 </v>
  <v type="int" >       34 </v>
  <v type="int" >       35 </v>
  <v type="int" >       37 </v>
  <v type="int" >       85 </v>
  <v type="int" >       87 </v>
  <v type="int" >       86 </v>
  <v type="int" >       88 </v>
  <v type="int" >       61 </v>
  <v type="int" >       60 </v>
  <v type="int" >       70 </v>
  <v type="int" >       68 </v>
  <v type="int" >       65 </v>
  <v type="int" >       71 </v>
  <v type="int" >       47 </v>
  <v type="int" >       42 </v>
  <v type="int" >        2 </v>
  <v type="int" >        3 </v>
  <v type="int" >       23 </v>
  <v type="int" >       17 </v>
  <v type="int" >       20 </v>
  <v type="int" >       22 </v>
  <v type="int" >       41 </v>
  <v type="int" >       32 </v>
  <v type="int" >       26 </v>
  <v type="int" >       59 </v>
  <v type="int" >       52 </v>
  <v type="int" >       54 </v>
  <v type="int" >       78 </v>
  <v type="int" >       80 </v>
  <v type="int" >       76 </v>
  <v type="int" >       75 </v>
  <v type="int" >       63 </v>
  <v type="int" >       58 </v>
  <v type="int" >       38 </v>
  <v type="int" >       36 </v>
  <v type="int" >       62 </v>
  <v type="int" >       82 </v>
  <v type="int" >       83 </v>
  <v type="int" >       48 </v>
  <v type="int" >       45 </v>
  <v type="int" >       44 </v>
  <v type="int" >       72 </v>
  <v type="int" >       66 </v>
  <v type="int" >       18 </v>
  <v type="int" >       24 </v>
  <v type="int" >       43 </v>
  <v type="int" >       14 </v>
  <v type="int" >       16 </v>
  <v type="int" >       57 </v>
  <v type="int" >       11 </v>
  <v type="int" >       12 </v>
  <v type="int" >       64 </v>
  <v type="int" >       46 </v>
  <v type="int" >        4 </v>
  <v type="int" >       84 </v>
 </varray>
 <kpoints>
  <generation param="Gamma">
   <v type="int" name="divisions">       3        3        3 </v>
   <v name="usershift">      0.00000000       0.00000000       0.00000000 </v>
   <v name="genvec1">      0.33333333       0.00000000       0.00000000 </v>
   <v name="genvec2">      0.00000000       0.33333333       0.00000000 </v>
   <v name="genvec3">      0.00000000       0.00000000       0.33333333 </v>
   <v name="shift">      0.00000000       0.00000000       0.00000000 </v>
  </generation>
  <varray name="kpointlist" >
   <v>       0.00000000       0.00000000       0.00000000 </v>
   <v>       0.33333333       0.00000000       0.00000000 </v>
   <v>       0.00000000       0.33333333       0.00000000 </v>
   <v>       0.33333333       0.33333333       0.00000000 </v>
   <v>      -0.33333333       0.33333333      -0.00000000 </v>
   <v>       0.00000000       0.00000000       0.33333333 </v>
   <v>       0.33333333       0.00000000       0.33333333 </v>
   <v>      -0.33333333       0.00000000       0.33333333 </v>
   <v>       0.00000000       0.33333333       0.33333333 </v>
   <v>       0.33333333       0.33333333       0.33333333 </v>
   <v>      -0.33333333       0.33333333       0.33333333 </v>
   <v>       0.00000000      -0.33333333       0.33333333 </v>
   <v>       0.33333333      -0.33333333       0.33333333 </v>
   <v>      -0.33333333      -0.33333333       0.33333333 </v>
  </varray>
  <varray name="weights" >
   <v>       0.03703704 </v>
   <v>       0.07407407 </v>
   <v>       0.07407407 </v>
   <v>       0.07407407 </v>
   <v>       0.07407407 </v>
   <v>       0.07407407 </v>
   <v>       0.07407407 </v>
   <v>       0.07407407 </v>
   <v>       0.07407407 </v>
   <v>       0.07407407 </v>
   <v>       0.07407407 </v>
   <v>       0.07407407 </v>
   <v>       0.07407407 </v>
   <v>       0.07407407 </v>
  </varray>
 </kpoints>
 <parameters>
  <separator name="general" >
   <i type="string" name="SYSTEM">unknown system</i>
   <i type="logical" name="LCOMPAT"> F  </i>
  </separator>
  <separator name="electronic" >
   <i type="string" name="PREC">accura</i>
   <i name="ENMAX">    650.00000000</i>
   <i name="ENAUG">    628.94500000</i>
   <i name="EDIFF">      0.00000100</i>
   <i type="int" name="IALGO">    38</i>
   <i type="int" name="IWAVPR">    10</i>
   <i type="int" name="NBANDS">   538</i>
   <i name="NELECT">    736.00000000</i>
   <i type="int" name="TURBO">     0</i>
   <i type="int" name="IRESTART">     0</i>
   <i type="int" name="NREBOOT">     0</i>
   <i type="int" name="NMIN">     0</i>
   <i name="EREF">      0.00000000</i>
   <separator name="electronic smearing" >
    <i type="int" name="ISMEAR">     0</i>
    <i name="SIGMA">      0.05000000</i>
    <i name="KSPACING">      0.50000000</i>
    <i type="logical" name="KGAMMA"> T  </i>
   </separator>
   <separator name="electronic projectors" >
    <i type="logical" name="LREAL"> F  </i>
    <v name="ROPT">      0.00000000      0.00000000      0.00000000      0.00000000</v>
    <i type="int" name="LMAXPAW">  -100</i>
    <i type="int" name="LMAXMIX">     4</i>
    <i type="logical" name="NLSPLINE"> F  </i>
   </separator>
   <separator name="electronic startup" >
    <i type="int" name="ISTART">     0</i>
    <i type="int" name="ICHARG">     1</i>
    <i type="int" name="INIWAV">     1</i>
   </separator>
   <separator name="electronic spin" >
    <i type="int" name="ISPIN">     2</i>
    <i type="logical" name="LNONCOLLINEAR"> F  </i>
    <v name="MAGMOM">      0.60000000      0.60000000      0.60000000      0.60000000      0.60000000      0.60000000      0.60000000      0.60000000      0.60000000      0.60000000      0.60000000      0.60000000      0.60000000      0.60000000      0.60000000      0.60000000      0.60000000      0.60000000      0.60000000      0.60000000
      0.60000000      0.60000000      0.60000000      0.60000000      0.60000000      0.60000000      0.60000000      0.60000000      0.60000000      0.60000000      0.60000000      0.60000000      0.60000000      0.60000000      0.60000000      0.60000000      0.60000000      0.60000000      0.60000000      0.60000000
      0.60000000      0.60000000      0.60000000      0.60000000      0.60000000      0.60000000      0.60000000      0.60000000      0.60000000      0.60000000      0.60000000      0.60000000      0.60000000      0.60000000      0.60000000      0.60000000      5.00000000      5.00000000      5.00000000      5.00000000
      5.00000000      5.00000000      5.00000000      5.00000000      5.00000000      5.00000000      5.00000000      5.00000000      5.00000000      5.00000000      5.00000000      5.00000000      5.00000000      5.00000000      5.00000000      5.00000000      5.00000000      5.00000000      5.00000000      5.00000000
      5.00000000      5.00000000      5.00000000      5.00000000      5.00000000      5.00000000      5.00000000      5.00000000</v>
    <i name="NUPDOWN">     -1.00000000</i>
    <i type="logical" name="LSORBIT"> F  </i>
    <v name="SAXIS">      0.00000000      0.00000000      1.00000000</v>
    <i type="logical" name="LSPIRAL"> F  </i>
    <v name="QSPIRAL">      0.00000000      0.00000000      0.00000000</v>
    <i type="logical" name="LZEROZ"> F  </i>
   </separator>
   <separator name="electronic exchange-correlation" >
    <i type="logical" name="LASPH"> T  </i>
    <i type="logical" name="LMETAGGA"> F  </i>
   </separator>
   <separator name="electronic convergence" >
    <i type="int" name="NELM">   200</i>
    <i type="int" name="NELMDL">     0</i>
    <i type="int" name="NELMIN">     8</i>
    <i name="ENINI">    650.00000000</i>
    <separator name="electronic convergence detail" >
     <i type="logical" name="LDIAG"> T  </i>
     <i type="logical" name="LSUBROT"> F  </i>
     <i name="WEIMIN">      0.00000000</i>
     <i name="EBREAK">      0.00000000</i>
     <i name="DEPER">      0.30000000</i>
     <i type="int" name="NRMM">     4</i>
     <i name="TIME">      0.40000000</i>
    </separator>
   </separator>
   <separator name="electronic mixer" >
    <i name="AMIX">      0.40000000</i>
    <i name="BMIX">      1.00000000</i>
    <i name="AMIN">      0.10000000</i>
    <i name="AMIX_MAG">      1.60000000</i>
    <i name="BMIX_MAG">      1.00000000</i>
    <separator name="electronic mixer details" >
     <i type="int" name="IMIX">     4</i>
     <i type="logical" name="MIXFIRST"> F  </i>
     <i type="int" name="MAXMIX">   -45</i>
     <i name="WC">    100.00000000</i>
     <i type="int" name="INIMIX">     1</i>
     <i type="int" name="MIXPRE">     1</i>
     <i type="int" name="MREMOVE">     5</i>
    </separator>
   </separator>
   <separator name="electronic dipolcorrection" >
    <i type="logical" name="LDIPOL"> F  </i>
    <i type="logical" name="LMONO"> F  </i>
    <i type="int" name="IDIPOL">     0</i>
    <i name="EPSILON">      1.00000000</i>
    <v name="DIPOL">   -100.00000000   -100.00000000   -100.00000000</v>
    <i name="EFIELD">      0.00000000</i>
   </separator>
  </separator>
  <separator name="grids" >
   <i type="int" name="NGX">    96</i>
   <i type="int" name="NGY">    96</i>
   <i type="int" name="NGZ">    90</i>
   <i type="int" name="NGXF">   192</i>
   <i type="int" name="NGYF">   192</i>
   <i type="int" name="NGZF">   180</i>
   <i type="logical" name="ADDGRID"> T  </i>
  </separator>
  <separator name="ionic" >
   <i type="int" name="NSW">     0</i>
   <i type="int" name="IBRION">    -1</i>
   <i type="int" name="MDALGO">     0</i>
   <i type="int" name="ISIF">     2</i>
   <i name="PSTRESS">      0.00000000</i>
   <i name="EDIFFG">      0.00001000</i>
   <i type="int" name="NFREE">     0</i>
   <i name="POTIM">      0.50000000</i>
   <i name="SMASS">     -3.00000000</i>
   <i name="SCALEE">      1.00000000</i>
  </separator>
  <separator name="ionic md" >
   <i name="TEBEG">      0.00010000</i>
   <i name="TEEND">      0.00010000</i>
   <i type="int" name="NBLOCK">     1</i>
   <i type="int" name="KBLOCK">     1</i>
   <i type="int" name="NPACO">   256</i>
   <i name="APACO">     16.00000000</i>
  </separator>
  <separator name="symmetry" >
   <i type="int" name="ISYM">     0</i>
   <i name="SYMPREC">      0.00001000</i>
  </separator>
  <separator name="dos" >
   <i type="int" name="LORBIT">     0</i>
   <v name="RWIGS">     -1.00000000     -1.00000000     -1.00000000     -1.00000000</v>
   <i type="int" name="NEDOS">   301</i>
   <i name="EMIN">     10.00000000</i>
   <i name="EMAX">    -10.00000000</i>
   <i name="EFERMI">      0.00000000</i>
  </separator>
  <separator name="writing" >
   <i type="int" name="NWRITE">     1</i>
   <i type="logical" name="LWAVE"> F  </i>
   <i type="logical" name="LDOWNSAMPLE"> F  </i>
   <i type="logical" name="LCHARG"> T  </i>
   <i type="logical" name="LPARD"> F  </i>
   <i type="logical" name="LVTOT"> F  </i>
   <i type="logical" name="LVHAR"> F  </i>
   <i type="logical" name="LELF"> F  </i>
   <i type="logical" name="LOPTICS"> F  </i>
   <v name="STM">      0.00000000      0.00000000      0.00000000      0.00000000      0.00000000      0.00000000      0.00000000</v>
  </separator>
  <separator name="performance" >
   <i type="int" name="NPAR">     2</i>
   <i type="int" name="NSIM">     4</i>
   <i type="int" name="NBLK">    -1</i>
   <i type="logical" name="LPLANE"> T  </i>
   <i type="logical" name="LSCALAPACK"> T  </i>
   <i type="logical" name="LSCAAWARE"> F  </i>
   <i type="logical" name="LSCALU"> F  </i>
   <i type="logical" name="LASYNC"> F  </i>
   <i type="logical" name="LORBITALREAL"> F  </i>
  </separator>
  <separator name="miscellaneous" >
   <i type="int" name="IDIOT">     3</i>
   <i type="int" name="ISPECIAL">     0</i>
   <i type="logical" name="LMUSIC"> F  </i>
   <v name="POMASS">      7.01000000     16.00000000     32.06600000     55.84700000</v>
   <v name="DARWINR">      0.00000000      0.00000000      0.00000000      0.00000000</v>
   <v name="DARWINV">      1.00000000      1.00000000      1.00000000      1.00000000</v>
   <i type="logical" name="LCORR"> T  </i>
  </separator>
  <i type="logical" name="GGA_COMPAT"> T  </i>
  <i type="logical" name="LBERRY"> F  </i>
  <i type="int" name="ICORELEVEL">     0</i>
  <i type="logical" name="LDAU"> T  </i>
  <v type="int" name="LDAUTYPE">     2</v>
  <v type="int" name="LDAUL">    -1</v>
  <v name="LDAUU">      0.00000000</v>
  <v name="LDAUJ">      0.00000000</v>
  <i type="int" name="LDAUPRINT">     0</i>
  <i type="int" name="I_CONSTRAINED_M">     0</i>
  <separator name="electronic exchange-correlation" >
   <i type="string" name="GGA">PE</i>
   <i type="int" name="VOSKOWN">     0</i>
   <i type="logical" name="LHFCALC"> F  </i>
   <i type="string" name="PRECFOCK"></i>
   <i type="logical" name="LSYMGRAD"> F  </i>
   <i type="logical" name="LHFONE"> F  </i>
   <i type="logical" name="LRHFCALC"> F  </i>
   <i type="logical" name="LTHOMAS"> F  </i>
   <i type="logical" name="LMODELHF"> F  </i>
   <i name="ENCUT4O">     -1.00000000</i>
   <i type="int" name="EXXOEP">     0</i>
   <i type="int" name="FOURORBIT">     0</i>
   <i name="AEXX">      0.00000000</i>
   <i name="HFALPHA">      0.00000000</i>
   <i name="MCALPHA">      0.00000000</i>
   <i name="ALDAX">      1.00000000</i>
   <i name="AGGAX">      1.00000000</i>
   <i name="ALDAC">      1.00000000</i>
   <i name="AGGAC">      1.00000000</i>
   <i type="int" name="NKREDX">     1</i>
   <i type="int" name="NKREDY">     1</i>
   <i type="int" name="NKREDZ">     1</i>
   <i type="logical" name="SHIFTRED"> F  </i>
   <i type="logical" name="ODDONLY"> F  </i>
   <i type="logical" name="EVENONLY"> F  </i>
   <i type="int" name="LMAXFOCK">     0</i>
   <i type="int" name="NMAXFOCKAE">     0</i>
   <i type="logical" name="LFOCKAEDFT"> F  </i>
   <i name="HFSCREEN">      0.00000000</i>
   <i name="HFSCREENC">      0.00000000</i>
   <i type="int" name="NBANDSGWLOW">     0</i>
  </separator>
  <separator name="vdW DFT" >
   <i type="logical" name="LUSE_VDW"> F  </i>
   <i name="Zab_VDW">     -0.84910000</i>
   <i name="PARAM1">      0.12340000</i>
   <i name="PARAM2">      1.00000000</i>
   <i name="PARAM3">      0.00000000</i>
  </separator>
  <separator name="model GW" >
   <i type="int" name="MODEL_GW">     0</i>
   <i name="MODEL_EPS0">      8.59048892</i>
   <i name="MODEL_ALPHA">      1.00000000</i>
  </separator>
  <separator name="linear response parameters" >
   <i type="logical" name="LEPSILON"> F  </i>
   <i type="logical" name="LRPA"> F  </i>
   <i type="logical" name="LNABLA"> F  </i>
   <i type="logical" name="LVEL"> F  </i>
   <i type="int" name="KINTER">     0</i>
   <i name="CSHIFT">      0.10000000</i>
   <i name="OMEGAMAX">     -1.00000000</i>
   <i name="DEG_THRESHOLD">      0.00200000</i>
   <i name="RTIME">     -0.10000000</i>
   <i name="WPLASMAI">      0.00000000</i>
   <v name="DFIELD">      0.00000000      0.00000000      0.00000000</v>
   <v name="WPLASMA">      0.00000000      0.00000000      0.00000000      0.00000000      0.00000000      0.00000000      0.00000000      0.00000000      0.00000000</v>
  </separator>
  <separator name="orbital magnetization" >
   <i type="logical" name="NUCIND"> F  </i>
   <v name="MAGPOS">      0.00000000      0.00000000      0.00000000</v>
   <i type="logical" name="LNICSALL"> T  </i>
   <i type="logical" name="ORBITALMAG"> F  </i>
   <i type="logical" name="LMAGBLOCH"> F  </i>
   <i type="logical" name="LCHIMAG"> F  </i>
   <i type="logical" name="LGAUGE"> T  </i>
   <i type="int" name="MAGATOM">     0</i>
   <v name="MAGDIPOL">      0.00000000      0.00000000      0.00000000</v>
   <v name="AVECCONST">      0.00000000      0.00000000      0.00000000</v>
  </separator>
  <separator name="response functions" >
   <i type="logical" name="LADDER"> F  </i>
   <i type="logical" name="LRPAFORCE"> F  </i>
   <i type="logical" name="LFXC"> F  </i>
   <i type="logical" name="LHARTREE"> T  </i>
   <i type="int" name="IBSE">     0</i>
   <v type="int" name="KPOINT">    -1     0     0     0</v>
   <i type="logical" name="LTCTE"> F  </i>
   <i type="logical" name="LTETE"> F  </i>
   <i type="logical" name="LTRIPLET"> F  </i>
   <i type="logical" name="LFXCEPS"> F  </i>
   <i type="logical" name="LFXHEG"> F  </i>
   <i type="int" name="NATURALO">     2</i>
   <i type="logical" name="L2ORDER"> F  </i>
   <i type="logical" name="LMP2LT"> F  </i>
   <i type="logical" name="LUSEW"> F  </i>
   <i name="ENCUTGW">     -2.00000000</i>
   <i name="ENCUTGWSOFT">     -2.00000000</i>
   <i name="ENCUTLF">     -1.00000000</i>
   <i type="int" name="LMAXMP2">    -1</i>
   <i name="SCISSOR">      0.00000000</i>
   <i type="int" name="NOMEGA">     0</i>
   <i type="int" name="NOMEGAR">     0</i>
   <i type="int" name="NBANDSGW">    -1</i>
   <i type="int" name="NBANDSO">    -1</i>
   <i type="int" name="NBANDSV">    -1</i>
   <i type="int" name="NELM">   200</i>
   <i type="int" name="NELMHF">     1</i>
   <i type="int" name="DIM">     3</i>
   <i type="int" name="ANTIRES">     0</i>
   <i name="OMEGAMAX">    -30.00000000</i>
   <i name="OMEGAMIN">    -30.00000000</i>
   <i name="OMEGATL">   -200.00000000</i>
   <i type="int" name="OMEGAGRID">   140</i>
   <i name="CSHIFT">     -0.10000000</i>
   <i type="logical" name="SELFENERGY"> F  </i>
   <i type="logical" name="LSPECTRAL"> F  </i>
   <i type="logical" name="LSPECTRALGW"> F  </i>
   <i type="logical" name="LSINGLES"> F  </i>
   <i type="logical" name="LFERMIGW"> F  </i>
   <i type="logical" name="ODDONLYGW"> F  </i>
   <i type="logical" name="EVENONLYGW"> F  </i>
   <i type="int" name="NKREDLFX">     1</i>
   <i type="int" name="NKREDLFY">     1</i>
   <i type="int" name="NKREDLFZ">     1</i>
   <i type="int" name="MAXMEM">  2800</i>
   <i type="int" name="TELESCOPE">     0</i>
   <i type="int" name="TAUPAR">     1</i>
   <i type="int" name="OMEGAPAR">    -1</i>
   <i name="LAMBDA">      1.00000000</i>
  </separator>
  <separator name="External order field" >
   <i name="OFIELD_KAPPA">      0.00000000</i>
   <v name="OFIELD_K">      0.00000000      0.00000000      0.00000000</v>
   <i name="OFIELD_Q6_NEAR">      0.00000000</i>
   <i name="OFIELD_Q6_FAR">      0.00000000</i>
   <i name="OFIELD_A">      0.00000000</i>
  </separator>
 </parameters>
 <atominfo>
  <atoms>      88 </atoms>
  <types>       4 </types>
  <array name="atoms" >
   <dimension dim="1">ion</dimension>
   <field type="string">element</field>
   <field type="int">atomtype</field>
   <set>
    <rc><c>Li</c><c>   1</c></rc>
    <rc><c>Li</c><c>   1</c></rc>
    <rc><c>Li</c><c>   1</c></rc>
    <rc><c>Li</c><c>   1</c></rc>
    <rc><c>Li</c><c>   1</c></rc>
    <rc><c>Li</c><c>   1</c></rc>
    <rc><c>Li</c><c>   1</c></rc>
    <rc><c>Li</c><c>   1</c></rc>
    <rc><c>Li</c><c>   1</c></rc>
    <rc><c>Li</c><c>   1</c></rc>
    <rc><c>Li</c><c>   1</c></rc>
    <rc><c>Li</c><c>   1</c></rc>
    <rc><c>Li</c><c>   1</c></rc>
    <rc><c>Li</c><c>   1</c></rc>
    <rc><c>Li</c><c>   1</c></rc>
    <rc><c>Li</c><c>   1</c></rc>
    <rc><c>O </c><c>   2</c></rc>
    <rc><c>O </c><c>   2</c></rc>
    <rc><c>O </c><c>   2</c></rc>
    <rc><c>O </c><c>   2</c></rc>
    <rc><c>O </c><c>   2</c></rc>
    <rc><c>O </c><c>   2</c></rc>
    <rc><c>O </c><c>   2</c></rc>
    <rc><c>O </c><c>   2</c></rc>
    <rc><c>O </c><c>   2</c></rc>
    <rc><c>O </c><c>   2</c></rc>
    <rc><c>O </c><c>   2</c></rc>
    <rc><c>O </c><c>   2</c></rc>
    <rc><c>O </c><c>   2</c></rc>
    <rc><c>O </c><c>   2</c></rc>
    <rc><c>O </c><c>   2</c></rc>
    <rc><c>O </c><c>   2</c></rc>
    <rc><c>S </c><c>   3</c></rc>
    <rc><c>S </c><c>   3</c></rc>
    <rc><c>S </c><c>   3</c></rc>
    <rc><c>S </c><c>   3</c></rc>
    <rc><c>S </c><c>   3</c></rc>
    <rc><c>S </c><c>   3</c></rc>
    <rc><c>S </c><c>   3</c></rc>
    <rc><c>S </c><c>   3</c></rc>
    <rc><c>S </c><c>   3</c></rc>
    <rc><c>S </c><c>   3</c></rc>
    <rc><c>S </c><c>   3</c></rc>
    <rc><c>S </c><c>   3</c></rc>
    <rc><c>S </c><c>   3</c></rc>
    <rc><c>S </c><c>   3</c></rc>
    <rc><c>S </c><c>   3</c></rc>
    <rc><c>S </c><c>   3</c></rc>
    <rc><c>S </c><c>   3</c></rc>
    <rc><c>S </c><c>   3</c></rc>
    <rc><c>S </c><c>   3</c></rc>
    <rc><c>S </c><c>   3</c></rc>
    <rc><c>S </c><c>   3</c></rc>
    <rc><c>S </c><c>   3</c></rc>
    <rc><c>S </c><c>   3</c></rc>
    <rc><c>S </c><c>   3</c></rc>
    <rc><c>Fe</c><c>   4</c></rc>
    <rc><c>Fe</c><c>   4</c></rc>
    <rc><c>Fe</c><c>   4</c></rc>
    <rc><c>Fe</c><c>   4</c></rc>
    <rc><c>Fe</c><c>   4</c></rc>
    <rc><c>Fe</c><c>   4</c></rc>
    <rc><c>Fe</c><c>   4</c></rc>
    <rc><c>Fe</c><c>   4</c></rc>
    <rc><c>Fe</c><c>   4</c></rc>
    <rc><c>Fe</c><c>   4</c></rc>
    <rc><c>Fe</c><c>   4</c></rc>
    <rc><c>Fe</c><c>   4</c></rc>
    <rc><c>Fe</c><c>   4</c></rc>
    <rc><c>Fe</c><c>   4</c></rc>
    <rc><c>Fe</c><c>   4</c></rc>
    <rc><c>Fe</c><c>   4</c></rc>
    <rc><c>Fe</c><c>   4</c></rc>
    <rc><c>Fe</c><c>   4</c></rc>
    <rc><c>Fe</c><c>   4</c></rc>
    <rc><c>Fe</c><c>   4</c></rc>
    <rc><c>Fe</c><c>   4</c></rc>
    <rc><c>Fe</c><c>   4</c></rc>
    <rc><c>Fe</c><c>   4</c></rc>
    <rc><c>Fe</c><c>   4</c></rc>
    <rc><c>Fe</c><c>   4</c></rc>
    <rc><c>Fe</c><c>   4</c></rc>
    <rc><c>Fe</c><c>   4</c></rc>
    <rc><c>Fe</c><c>   4</c></rc>
    <rc><c>Fe</c><c>   4</c></rc>
    <rc><c>Fe</c><c>   4</c></rc>
    <rc><c>Fe</c><c>   4</c></rc>
    <rc><c>Fe</c><c>   4</c></rc>
   </set>
  </array>
  <array name="atomtypes" >
   <dimension dim="1">type</dimension>
   <field type="int">atomspertype</field>
   <field type="string">element</field>
   <field>mass</field>
   <field>valence</field>
   <field type="string">pseudopotential</field>
   <set>
    <rc><c>  16</c><c>Li</c><c>      7.01000000</c><c>      3.00000000</c><c>  PAW_PBE Li_sv 10Sep2004               </c></rc>
    <rc><c>  16</c><c>O </c><c>     16.00000000</c><c>      6.00000000</c><c>  PAW_PBE O 08Apr2002                   </c></rc>
    <rc><c>  24</c><c>S </c><c>     32.06600000</c><c>      6.00000000</c><c>  PAW_PBE S 06Sep2000                   </c></rc>
    <rc><c>  32</c><c>Fe</c><c>     55.84700000</c><c>     14.00000000</c><c>  PAW_PBE Fe_pv 02Aug2007               </c></rc>
   </set>
  </array>
 </atominfo>
 <structure name="initialpos" >
  <crystal>
   <varray name="basis" >
    <v>      11.11223374       0.00000000      -0.00029034 </v>
    <v>       0.00000000      11.11745194       0.00000000 </v>
    <v>      -2.77510898       0.00000000      10.19872221 </v>
   </varray>
   <i name="volume">   1259.93837498 </i>
   <varray name="rec_basis" >
    <v>       0.08999155       0.00000000       0.02448702 </v>
    <v>       0.00000000       0.08994867       0.00000000 </v>
    <v>       0.00000256       0.00000000       0.09805220 </v>
   </varray>
  </crystal>
  <varray name="positions" >
   <v>       0.28894969       0.46933910       0.15583616 </v>
   <v>       0.78894969       0.46933910       0.15583616 </v>
   <v>       0.28894969       0.96933910       0.15583616 </v>
   <v>       0.78894969       0.96933910       0.15583616 </v>
   <v>       0.04646972       0.21934976       0.18586770 </v>
   <v>       0.54646972       0.21934976       0.18586770 </v>
   <v>       0.04646972       0.71934976       0.18586770 </v>
   <v>       0.54646972       0.71934976       0.18586770 </v>
   <v>       0.45353028       0.46934976       0.81413230 </v>
   <v>       0.95353028       0.46934976       0.81413230 </v>
   <v>       0.45353028       0.96934976       0.81413230 </v>
   <v>       0.95353028       0.96934976       0.81413230 </v>
   <v>       0.21105031       0.21933910       0.84416384 </v>
   <v>       0.71105031       0.21933910       0.84416384 </v>
   <v>       0.21105031       0.71933910       0.84416384 </v>
   <v>       0.71105031       0.71933910       0.84416384 </v>
   <v>       0.07654971       0.09530995       0.80250593 </v>
   <v>       0.57654971       0.09530995       0.80250593 </v>
   <v>       0.07654971       0.59530995       0.80250593 </v>
   <v>       0.57654971       0.59530995       0.80250593 </v>
   <v>       0.32470466       0.34338175       0.80250383 </v>
   <v>       0.82470466       0.34338175       0.80250383 </v>
   <v>       0.32470466       0.84338175       0.80250383 </v>
   <v>       0.82470466       0.84338175       0.80250383 </v>
   <v>       0.17529534       0.09338175       0.19749617 </v>
   <v>       0.67529534       0.09338175       0.19749617 </v>
   <v>       0.17529534       0.59338175       0.19749617 </v>
   <v>       0.67529534       0.59338175       0.19749617 </v>
   <v>       0.42345029       0.34530995       0.19749407 </v>
   <v>       0.92345029       0.34530995       0.19749407 </v>
   <v>       0.42345029       0.84530995       0.19749407 </v>
   <v>       0.92345029       0.84530995       0.19749407 </v>
   <v>       0.21868463       0.34523395       0.37102476 </v>
   <v>       0.71868463       0.34523395       0.37102476 </v>
   <v>       0.21868463       0.84523395       0.37102476 </v>
   <v>       0.71868463       0.84523395       0.37102476 </v>
   <v>       0.46681660       0.09344897       0.37102399 </v>
   <v>       0.96681660       0.09344897       0.37102399 </v>
   <v>       0.46681660       0.59344897       0.37102399 </v>
   <v>       0.96681660       0.59344897       0.37102399 </v>
   <v>       0.03318340       0.34344897       0.62897601 </v>
   <v>       0.53318340       0.34344897       0.62897601 </v>
   <v>       0.03318340       0.84344897       0.62897601 </v>
   <v>       0.53318340       0.84344897       0.62897601 </v>
   <v>       0.28131537       0.09523395       0.62897524 </v>
   <v>       0.78131537       0.09523395       0.62897524 </v>
   <v>       0.28131537       0.59523395       0.62897524 </v>
   <v>       0.78131537       0.59523395       0.62897524 </v>
   <v>       0.12439279       0.34434306       0.00000412 </v>
   <v>       0.62439279       0.34434306       0.00000412 </v>
   <v>       0.12439279       0.84434306       0.00000412 </v>
   <v>       0.62439279       0.84434306       0.00000412 </v>
   <v>       0.37560721       0.09434306       0.99999588 </v>
   <v>       0.87560721       0.09434306       0.99999588 </v>
   <v>       0.37560721       0.59434306       0.99999588 </v>
   <v>       0.87560721       0.59434306       0.99999588 </v>
   <v>       0.03824426       0.10634799       0.60632306 </v>
   <v>       0.53824426       0.10634799       0.60632306 </v>
   <v>       0.03824426       0.60634799       0.60632306 </v>
   <v>       0.53824426       0.60634799       0.60632306 </v>
   <v>       0.26492712       0.33232651       0.60632763 </v>
   <v>       0.76492712       0.33232651       0.60632763 </v>
   <v>       0.26492712       0.83232651       0.60632763 </v>
   <v>       0.76492712       0.83232651       0.60632763 </v>
   <v>       0.23507288       0.08232651       0.39367237 </v>
   <v>       0.73507288       0.08232651       0.39367237 </v>
   <v>       0.23507288       0.58232651       0.39367237 </v>
   <v>       0.73507288       0.58232651       0.39367237 </v>
   <v>       0.46175574       0.35634799       0.39367694 </v>
   <v>       0.96175574       0.35634799       0.39367694 </v>
   <v>       0.46175574       0.85634799       0.39367694 </v>
   <v>       0.96175574       0.85634799       0.39367694 </v>
   <v>       0.03848398       0.46846455       0.15397331 </v>
   <v>       0.53848398       0.46936404       0.15397331 </v>
   <v>       0.03848398       0.96936404       0.15397331 </v>
   <v>       0.53848398       0.96936404       0.15397331 </v>
   <v>       0.28861657       0.21935690       0.15447525 </v>
   <v>       0.78861657       0.21935690       0.15447525 </v>
   <v>       0.28861657       0.71935690       0.15447525 </v>
   <v>       0.78861657       0.71935690       0.15447525 </v>
   <v>       0.21138343       0.46935690       0.84552475 </v>
   <v>       0.71138343       0.46935690       0.84552475 </v>
   <v>       0.21138343       0.96935690       0.84552475 </v>
   <v>       0.71138343       0.96935690       0.84552475 </v>
   <v>       0.46151602       0.21936404       0.84602669 </v>
   <v>       0.96151602       0.21936404       0.84602669 </v>
   <v>       0.46151602       0.71936404       0.84602669 </v>
   <v>       0.96151602       0.71936404       0.84602669 </v>
  </varray>
 </structure>
 <calculation>
  <scstep>
   <time name="dav">  308.03  311.06</time>
   <time name="total">  311.35  314.44</time>
   <energy>
    <i name="alphaZ">   2314.49656628 </i>
    <i name="ewald"> -57723.01688373 </i>
    <i name="hartreedc"> -30348.90511851 </i>
    <i name="XCdc">   3229.30092225 </i>
    <i name="pawpsdc">  92679.89207989 </i>
    <i name="pawaedc"> -95535.38516353 </i>
    <i name="eentropy">     -0.01904136 </i>
    <i name="bandstr">    349.76327623 </i>
    <i name="atom">  95443.47970955 </i>
    <i name="e_fr_energy">  10409.60634707 </i>
    <i name="e_wo_entrp">  10409.62538843 </i>
    <i name="e_0_energy">  10409.61586775 </i>
   </energy>
  </scstep>
  <scstep>
   <time name="dav">  302.73  305.61</time>
   <time name="total">  302.74  305.62</time>
   <energy>
    <i name="e_fr_energy">   1177.46351486 </i>
    <i name="e_wo_entrp">   1177.52847968 </i>
    <i name="e_0_energy">   1177.49599727 </i>
   </energy>
  </scstep>
  <scstep>
   <time name="dav">  319.39  322.47</time>
   <time name="total">  319.39  322.48</time>
   <energy>
    <i name="e_fr_energy">   -308.13135590 </i>
    <i name="e_wo_entrp">   -308.13135590 </i>
    <i name="e_0_energy">   -308.13135590 </i>
   </energy>
  </scstep>
  <scstep>
   <time name="dav">  339.21  342.38</time>
   <time name="total">  339.22  342.38</time>
   <energy>
    <i name="e_fr_energy">   -476.29883805 </i>
    <i name="e_wo_entrp">   -476.29883805 </i>
    <i name="e_0_energy">   -476.29883805 </i>
   </energy>
  </scstep>
  <scstep>
   <time name="dav">  453.08  457.22</time>
   <time name="total">  462.40  466.56</time>
   <energy>
    <i name="e_fr_energy">   -488.72942770 </i>
    <i name="e_wo_entrp">   -488.72942770 </i>
    <i name="e_0_energy">   -488.72942770 </i>
   </energy>
  </scstep>
  <scstep>
   <time name="dav">  396.02  399.51</time>
   <time name="total">  408.58  412.28</time>
   <energy>
    <i name="e_fr_energy">   -489.19973662 </i>
    <i name="e_wo_entrp">   -489.19973662 </i>
    <i name="e_0_energy">   -489.19973662 </i>
   </energy>
  </scstep>
  <scstep>
   <time name="dav">  420.73  424.52</time>
   <time name="total">  433.44  437.32</time>
   <energy>
    <i name="e_fr_energy">   -489.21696157 </i>
    <i name="e_wo_entrp">   -489.21696157 </i>
    <i name="e_0_energy">   -489.21696157 </i>
   </energy>
  </scstep>
  <scstep>
   <time name="dav">  400.50  404.01</time>
   <time name="total">  413.24  416.78</time>
   <energy>
    <i name="e_fr_energy">   -489.21648377 </i>
    <i name="e_wo_entrp">   -489.21648377 </i>
    <i name="e_0_energy">   -489.21648377 </i>
   </energy>
  </scstep>
  <scstep>
   <time name="dav">  447.93  451.98</time>
   <time name="total">  460.56  464.73</time>
   <energy>
    <i name="e_fr_energy">   -489.21585722 </i>
    <i name="e_wo_entrp">   -489.21585722 </i>
    <i name="e_0_energy">   -489.21585722 </i>
   </energy>
  </scstep>
  <scstep>
   <time name="dav">  445.44  449.75</time>
   <time name="total">  458.10  462.51</time>
   <energy>
    <i name="e_fr_energy">   -489.21486816 </i>
    <i name="e_wo_entrp">   -489.21486816 </i>
    <i name="e_0_energy">   -489.21486816 </i>
   </energy>
  </scstep>
  <scstep>
   <time name="dav">  354.99  358.48</time>
   <time name="total">  367.51  371.10</time>
   <energy>
    <i name="e_fr_energy">   -489.21494489 </i>
    <i name="e_wo_entrp">   -489.21494489 </i>
    <i name="e_0_energy">   -489.21494489 </i>
   </energy>
  </scstep>
  <scstep>
   <time name="dav">  386.58  389.79</time>
   <time name="total">  399.21  402.60</time>
   <energy>
    <i name="e_fr_energy">   -489.21493912 </i>
    <i name="e_wo_entrp">   -489.21493912 </i>
    <i name="e_0_energy">   -489.21493912 </i>
   </energy>
  </scstep>
  <scstep>
   <time name="dav">  351.20  354.71</time>
   <time name="total">  363.83  367.48</time>
   <energy>
    <i name="e_fr_energy">   -489.21492388 </i>
    <i name="e_wo_entrp">   -489.21492388 </i>
    <i name="e_0_energy">   -489.21492388 </i>
   </energy>
  </scstep>
  <scstep>
   <time name="dav">  315.68  318.31</time>
   <time name="total">  328.31  331.08</time>
   <energy>
    <i name="e_fr_energy">   -489.21493024 </i>
    <i name="e_wo_entrp">   -489.21493024 </i>
    <i name="e_0_energy">   -489.21493024 </i>
   </energy>
  </scstep>
  <scstep>
   <time name="dav">  293.48  296.29</time>
   <time name="total">  306.03  308.96</time>
   <energy>
    <i name="e_fr_energy">   -489.21492780 </i>
    <i name="e_wo_entrp">   -489.21492780 </i>
    <i name="e_0_energy">   -489.21492780 </i>
   </energy>
  </scstep>
  <scstep>
   <time name="dav">  221.68  223.83</time>
   <time name="total">  224.99  227.19</time>
   <energy>
    <i name="alphaZ">   2314.49656628 </i>
    <i name="ewald"> -57723.01688373 </i>
    <i name="hartreedc"> -30348.90135611 </i>
    <i name="XCdc">   3229.30032564 </i>
    <i name="pawpsdc">  92679.57236378 </i>
    <i name="pawaedc"> -95535.06149143 </i>
    <i name="eentropy">     -0.00000000 </i>
    <i name="bandstr"> -10549.08416216 </i>
    <i name="atom">  95443.47970955 </i>
    <i name="e_fr_energy">   -489.21492818 </i>
    <i name="e_wo_entrp">   -489.21492818 </i>
    <i name="e_0_energy">   -489.21492818 </i>
   </energy>
  </scstep>
  <structure>
   <crystal>
    <varray name="basis" >
     <v>      11.11223374       0.00000000      -0.00029034 </v>
     <v>       0.00000000      11.11745194       0.00000000 </v>
     <v>      -2.77510898       0.00000000      10.19872221 </v>
    </varray>
    <i name="volume">   1259.93837498 </i>
    <varray name="rec_basis" >
     <v>       0.08999155       0.00000000       0.02448702 </v>
     <v>       0.00000000       0.08994867       0.00000000 </v>
     <v>       0.00000256       0.00000000       0.09805220 </v>
    </varray>
   </crystal>
   <varray name="positions" >
    <v>       0.28894969       0.46933910       0.15583616 </v>
    <v>       0.78894969       0.46933910       0.15583616 </v>
    <v>       0.28894969       0.96933910       0.15583616 </v>
    <v>       0.78894969       0.96933910       0.15583616 </v>
    <v>       0.04646972       0.21934976       0.18586770 </v>
    <v>       0.54646972       0.21934976       0.18586770 </v>
    <v>       0.04646972       0.71934976       0.18586770 </v>
    <v>       0.54646972       0.71934976       0.18586770 </v>
    <v>       0.45353028       0.46934976       0.81413230 </v>
    <v>       0.95353028       0.46934976       0.81413230 </v>
    <v>       0.45353028       0.96934976       0.81413230 </v>
    <v>       0.95353028       0.96934976       0.81413230 </v>
    <v>       0.21105031       0.21933910       0.84416384 </v>
    <v>       0.71105031       0.21933910       0.84416384 </v>
    <v>       0.21105031       0.71933910       0.84416384 </v>
    <v>       0.71105031       0.71933910       0.84416384 </v>
    <v>       0.07654971       0.09530995       0.80250593 </v>
    <v>       0.57654971       0.09530995       0.80250593 </v>
    <v>       0.07654971       0.59530995       0.80250593 </v>
    <v>       0.57654971       0.59530995       0.80250593 </v>
    <v>       0.32470466       0.34338175       0.80250383 </v>
    <v>       0.82470466       0.34338175       0.80250383 </v>
    <v>       0.32470466       0.84338175       0.80250383 </v>
    <v>       0.82470466       0.84338175       0.80250383 </v>
    <v>       0.17529534       0.09338175       0.19749617 </v>
    <v>       0.67529534       0.09338175       0.19749617 </v>
    <v>       0.17529534       0.59338175       0.19749617 </v>
    <v>       0.67529534       0.59338175       0.19749617 </v>
    <v>       0.42345029       0.34530995       0.19749407 </v>
    <v>       0.92345029       0.34530995       0.19749407 </v>
    <v>       0.42345029       0.84530995       0.19749407 </v>
    <v>       0.92345029       0.84530995       0.19749407 </v>
    <v>       0.21868463       0.34523395       0.37102476 </v>
    <v>       0.71868463       0.34523395       0.37102476 </v>
    <v>       0.21868463       0.84523395       0.37102476 </v>
    <v>       0.71868463       0.84523395       0.37102476 </v>
    <v>       0.46681660       0.09344897       0.37102399 </v>
    <v>       0.96681660       0.09344897       0.37102399 </v>
    <v>       0.46681660       0.59344897       0.37102399 </v>
    <v>       0.96681660       0.59344897       0.37102399 </v>
    <v>       0.03318340       0.34344897       0.62897601 </v>
    <v>       0.53318340       0.34344897       0.62897601 </v>
    <v>       0.03318340       0.84344897       0.62897601 </v>
    <v>       0.53318340       0.84344897       0.62897601 </v>
    <v>       0.28131537       0.09523395       0.62897524 </v>
    <v>       0.78131537       0.09523395       0.62897524 </v>
    <v>       0.28131537       0.59523395       0.62897524 </v>
    <v>       0.78131537       0.59523395       0.62897524 </v>
    <v>       0.12439279       0.34434306       0.00000412 </v>
    <v>       0.62439279       0.34434306       0.00000412 </v>
    <v>       0.12439279       0.84434306       0.00000412 </v>
    <v>       0.62439279       0.84434306       0.00000412 </v>
    <v>       0.37560721       0.09434306       0.99999588 </v>
    <v>       0.87560721       0.09434306       0.99999588 </v>
    <v>       0.37560721       0.59434306       0.99999588 </v>
    <v>       0.87560721       0.59434306       0.99999588 </v>
    <v>       0.03824426       0.10634799       0.60632306 </v>
    <v>       0.53824426       0.10634799       0.60632306 </v>
    <v>       0.03824426       0.60634799       0.60632306 </v>
    <v>       0.53824426       0.60634799       0.60632306 </v>
    <v>       0.26492712       0.33232651       0.60632763 </v>
    <v>       0.76492712       0.33232651       0.60632763 </v>
    <v>       0.26492712       0.83232651       0.60632763 </v>
    <v>       0.76492712       0.83232651       0.60632763 </v>
    <v>       0.23507288       0.08232651       0.39367237 </v>
    <v>       0.73507288       0.08232651       0.39367237 </v>
    <v>       0.23507288       0.58232651       0.39367237 </v>
    <v>       0.73507288       0.58232651       0.39367237 </v>
    <v>       0.46175574       0.35634799       0.39367694 </v>
    <v>       0.96175574       0.35634799       0.39367694 </v>
    <v>       0.46175574       0.85634799       0.39367694 </v>
    <v>       0.96175574       0.85634799       0.39367694 </v>
    <v>       0.03848398       0.46846455       0.15397331 </v>
    <v>       0.53848398       0.46936404       0.15397331 </v>
    <v>       0.03848398       0.96936404       0.15397331 </v>
    <v>       0.53848398       0.96936404       0.15397331 </v>
    <v>       0.28861657       0.21935690       0.15447525 </v>
    <v>       0.78861657       0.21935690       0.15447525 </v>
    <v>       0.28861657       0.71935690       0.15447525 </v>
    <v>       0.78861657       0.71935690       0.15447525 </v>
    <v>       0.21138343       0.46935690       0.84552475 </v>
    <v>       0.71138343       0.46935690       0.84552475 </v>
    <v>       0.21138343       0.96935690       0.84552475 </v>
    <v>       0.71138343       0.96935690       0.84552475 </v>
    <v>       0.46151602       0.21936404       0.84602669 </v>
    <v>       0.96151602       0.21936404       0.84602669 </v>
    <v>       0.46151602       0.71936404       0.84602669 </v>
    <v>       0.96151602       0.71936404       0.84602669 </v>
   </varray>
  </structure>
  <varray name="forces" >
   <v>      -0.00037702       0.00488971       0.00078963 </v>
   <v>      -0.00036327       0.00487731      -0.00085745 </v>
   <v>      -0.00000616      -0.00076674      -0.00011009 </v>
   <v>      -0.00002476      -0.00076834       0.00005092 </v>
   <v>       0.00171203      -0.01316872       0.00182910 </v>
   <v>      -0.00025821      -0.00010547      -0.00004546 </v>
   <v>       0.00169549      -0.01294708      -0.00179332 </v>
   <v>      -0.00025569      -0.00010273       0.00006205 </v>
   <v>       0.00018377       0.00095776      -0.00001950 </v>
   <v>      -0.00094484       0.00181323       0.00000467 </v>
   <v>       0.00011952      -0.00035749       0.00000456 </v>
   <v>       0.00034877      -0.00078616      -0.00002153 </v>
   <v>       0.00060109      -0.00117528      -0.00069137 </v>
   <v>      -0.00024034      -0.00002560      -0.00027722 </v>
   <v>      -0.00021787      -0.00003570       0.00036336 </v>
   <v>       0.00058483      -0.00117519       0.00075989 </v>
   <v>      -0.00038448       0.00164709       0.00031519 </v>
   <v>       0.00015888       0.00045138       0.00009958 </v>
   <v>       0.00148809      -0.00180712      -0.00020969 </v>
   <v>      -0.00097220      -0.00024944      -0.00094468 </v>
   <v>      -0.00131723      -0.00018945       0.00062063 </v>
   <v>       0.00123899      -0.00179789       0.00019868 </v>
   <v>      -0.00015747       0.00054345      -0.00019651 </v>
   <v>      -0.00070199       0.00164959      -0.00053513 </v>
   <v>      -0.00009518       0.00217174      -0.00040020 </v>
   <v>       0.00155986       0.00159005      -0.00026618 </v>
   <v>      -0.01980880      -0.02747592      -0.00177935 </v>
   <v>      -0.00087426      -0.00093378       0.00005373 </v>
   <v>      -0.00123191      -0.00100367       0.00005617 </v>
   <v>      -0.02144313      -0.02853678       0.00239759 </v>
   <v>       0.00122801       0.00155515       0.00040901 </v>
   <v>      -0.00037880       0.00213809       0.00057229 </v>
   <v>      -0.00233814      -0.00251955      -0.00324268 </v>
   <v>       0.00173571      -0.00100383      -0.00129938 </v>
   <v>      -0.00002051       0.00202411       0.00124789 </v>
   <v>      -0.00001820       0.00070030       0.00013849 </v>
   <v>       0.00011325       0.00088263       0.00009385 </v>
   <v>       0.00009944       0.00237848      -0.00089322 </v>
   <v>       0.00169407      -0.00066518       0.00156007 </v>
   <v>      -0.00203418      -0.00232761       0.00357112 </v>
   <v>       0.00022305      -0.00057392      -0.00031287 </v>
   <v>      -0.00070087      -0.00042788      -0.00083360 </v>
   <v>      -0.00006730       0.00112645      -0.00030393 </v>
   <v>      -0.00002451       0.00067582      -0.00013697 </v>
   <v>      -0.00008430       0.00088948      -0.00013058 </v>
   <v>       0.00024225       0.00038956      -0.00002215 </v>
   <v>       0.00011245      -0.00091020       0.00076718 </v>
   <v>      -0.00034439      -0.00061711      -0.00023412 </v>
   <v>       0.00546162      -0.00975142      -0.00530790 </v>
   <v>       0.00077490      -0.00098592       0.00119545 </v>
   <v>       0.00026409       0.00181732      -0.00091225 </v>
   <v>      -0.00015952       0.00077900       0.00008645 </v>
   <v>      -0.00017526       0.00077454      -0.00008952 </v>
   <v>       0.00027591       0.00183005       0.00092093 </v>
   <v>       0.00076867      -0.00098743      -0.00117560 </v>
   <v>       0.00523478      -0.00958579       0.00503003 </v>
   <v>      -0.00022002      -0.00045420       0.00050789 </v>
   <v>      -0.00030507      -0.00029564       0.00004156 </v>
   <v>      -0.00089109       0.00035008      -0.00175897 </v>
   <v>       0.00000376       0.00018309      -0.00004612 </v>
   <v>      -0.00009898       0.00009971       0.00165858 </v>
   <v>       0.00015128       0.00036176       0.00058579 </v>
   <v>       0.00017961      -0.00028716      -0.00044032 </v>
   <v>       0.00024380      -0.00053179       0.00032469 </v>
   <v>       0.00005846      -0.00147803       0.00027552 </v>
   <v>      -0.00059185      -0.00058305       0.00022612 </v>
   <v>      -0.00272795       0.00156989      -0.01185154 </v>
   <v>       0.00087520       0.00087304       0.00037042 </v>
   <v>       0.00141562       0.00088635      -0.00027742 </v>
   <v>      -0.00231930       0.00164578       0.01137740 </v>
   <v>      -0.00009981      -0.00053813      -0.00048183 </v>
   <v>       0.00050695      -0.00146425      -0.00044345 </v>
   <v>       0.04161803       0.10263593      -0.00016629 </v>
   <v>       0.00002576       0.00156184       0.00005772 </v>
   <v>       0.00010835      -0.00199315       0.00003709 </v>
   <v>      -0.00064808      -0.00124235       0.00005887 </v>
   <v>       0.00217468      -0.00187956       0.00035747 </v>
   <v>      -0.00671808      -0.00675608      -0.00138964 </v>
   <v>      -0.00663420      -0.00673377       0.00128582 </v>
   <v>       0.00212710      -0.00186950      -0.00051096 </v>
   <v>       0.00087304       0.00386195      -0.00152964 </v>
   <v>       0.00085820       0.00378959       0.00164955 </v>
   <v>      -0.00023543      -0.00123152       0.00052646 </v>
   <v>      -0.00027061      -0.00119255      -0.00040102 </v>
   <v>       0.00028725      -0.00067096      -0.00008495 </v>
   <v>      -0.00096654      -0.00136306      -0.00225793 </v>
   <v>       0.00021169      -0.00067719      -0.00004811 </v>
   <v>      -0.00089049      -0.00136497       0.00219117 </v>
  </varray>
  <varray name="stress" >
   <v>       2.11807495       0.00147464      -0.15750815 </v>
   <v>       0.00147465       1.85709959      -0.00683746 </v>
   <v>      -0.15779075      -0.00695659       0.48743166 </v>
  </varray>
  <energy>
   <i name="e_fr_energy">   -489.21492818 </i>
   <i name="e_wo_entrp">   -489.21492818 </i>
   <i name="e_0_energy">     -0.00000000 </i>
  </energy>
  <time name="totalsc"> 6421.78 6480.93</time>
  <eigenvalues>
   <array>
    <dimension dim="1">band</dimension>
    <dimension dim="2">kpoint</dimension>
    <dimension dim="3">spin</dimension>
    <field>eigene</field>
    <field>occ</field>
    <set>
     <set comment="spin 1">
      <set comment="kpoint 1">
       <r>  -51.0580    1.0000 </r>
       <r>  -51.0554    1.0000 </r>
       <r>  -51.0552    1.0000 </r>
       <r>  -51.0549    1.0000 </r>
       <r>  -51.0543    1.0000 </r>
       <r>  -51.0541    1.0000 </r>
       <r>  -51.0534    1.0000 </r>
       <r>  -51.0533    1.0000 </r>
       <r>  -51.0529    1.0000 </r>
       <r>  -51.0526    1.0000 </r>
       <r>  -51.0523    1.0000 </r>
       <r>  -51.0521    1.0000 </r>
       <r>  -51.0516    1.0000 </r>
       <r>  -51.0510    1.0000 </r>
       <r>  -51.0503    1.0000 </r>
       <r>  -51.0486    1.0000 </r>
       <r>  -51.0477    1.0000 </r>
       <r>  -51.0452    1.0000 </r>
       <r>  -51.0450    1.0000 </r>
       <r>  -51.0441    1.0000 </r>
       <r>  -51.0439    1.0000 </r>
       <r>  -51.0429    1.0000 </r>
       <r>  -51.0428    1.0000 </r>
       <r>  -51.0410    1.0000 </r>
       <r>  -51.0404    1.0000 </r>
       <r>  -51.0401    1.0000 </r>
       <r>  -51.0394    1.0000 </r>
       <r>  -51.0394    1.0000 </r>
       <r>  -51.0393    1.0000 </r>
       <r>  -51.0389    1.0000 </r>
       <r>  -51.0386    1.0000 </r>
       <r>  -51.0377    1.0000 </r>
       <r>  -49.7055    1.0000 </r>
       <r>  -49.7029    1.0000 </r>
       <r>  -49.7027    1.0000 </r>
       <r>  -49.7018    1.0000 </r>
       <r>  -49.7013    1.0000 </r>
       <r>  -49.7004    1.0000 </r>
       <r>  -49.7002    1.0000 </r>
       <r>  -49.6976    1.0000 </r>
       <r>  -49.6958    1.0000 </r>
       <r>  -49.6947    1.0000 </r>
       <r>  -49.6940    1.0000 </r>
       <r>  -49.6940    1.0000 </r>
       <r>  -49.6940    1.0000 </r>
       <r>  -49.6940    1.0000 </r>
       <r>  -49.6933    1.0000 </r>
       <r>  -49.6922    1.0000 </r>
       <r>  -49.6005    1.0000 </r>
       <r>  -49.5987    1.0000 </r>
       <r>  -49.5982    1.0000 </r>
       <r>  -49.5977    1.0000 </r>
       <r>  -49.5975    1.0000 </r>
       <r>  -49.5974    1.0000 </r>
       <r>  -49.5969    1.0000 </r>
       <r>  -49.5967    1.0000 </r>
       <r>  -49.5965    1.0000 </r>
       <r>  -49.5965    1.0000 </r>
       <r>  -49.5959    1.0000 </r>
       <r>  -49.5957    1.0000 </r>
       <r>  -49.5956    1.0000 </r>
       <r>  -49.5952    1.0000 </r>
       <r>  -49.5950    1.0000 </r>
       <r>  -49.5931    1.0000 </r>
       <r>  -49.5692    1.0000 </r>
       <r>  -49.5674    1.0000 </r>
       <r>  -49.5669    1.0000 </r>
       <r>  -49.5665    1.0000 </r>
       <r>  -49.5661    1.0000 </r>
       <r>  -49.5659    1.0000 </r>
       <r>  -49.5653    1.0000 </r>
       <r>  -49.5652    1.0000 </r>
       <r>  -49.5650    1.0000 </r>
       <r>  -49.5647    1.0000 </r>
       <r>  -49.5642    1.0000 </r>
       <r>  -49.5640    1.0000 </r>
       <r>  -49.5636    1.0000 </r>
       <r>  -49.5636    1.0000 </r>
       <r>  -49.5632    1.0000 </r>
       <r>  -49.5613    1.0000 </r>
       <r>  -49.5578    1.0000 </r>
       <r>  -49.5558    1.0000 </r>
       <r>  -49.5557    1.0000 </r>
       <r>  -49.5544    1.0000 </r>
       <r>  -49.5538    1.0000 </r>
       <r>  -49.5525    1.0000 </r>
       <r>  -49.5524    1.0000 </r>
       <r>  -49.5505    1.0000 </r>
       <r>  -49.5414    1.0000 </r>
       <r>  -49.5402    1.0000 </r>
       <r>  -49.5394    1.0000 </r>
       <r>  -49.5394    1.0000 </r>
       <r>  -49.5394    1.0000 </r>
       <r>  -49.5394    1.0000 </r>
       <r>  -49.5387    1.0000 </r>
       <r>  -49.5374    1.0000 </r>
       <r>  -39.8723    1.0000 </r>
       <r>  -39.8671    1.0000 </r>
       <r>  -39.8671    1.0000 </r>
       <r>  -39.8657    1.0000 </r>
       <r>  -39.8654    1.0000 </r>
       <r>  -39.8650    1.0000 </r>
       <r>  -39.8649    1.0000 </r>
       <r>  -39.8648    1.0000 </r>
       <r>  -39.8647    1.0000 </r>
       <r>  -39.8646    1.0000 </r>
       <r>  -39.8645    1.0000 </r>
       <r>  -39.8640    1.0000 </r>
       <r>  -39.8637    1.0000 </r>
       <r>  -39.8627    1.0000 </r>
       <r>  -39.8626    1.0000 </r>
       <r>  -39.8567    1.0000 </r>
       <r>  -13.2255    1.0000 </r>
       <r>  -13.2248    1.0000 </r>
       <r>  -13.2108    1.0000 </r>
       <r>  -13.1840    1.0000 </r>
       <r>  -13.1051    1.0000 </r>
       <r>  -13.0999    1.0000 </r>
       <r>  -13.0968    1.0000 </r>
       <r>  -13.0939    1.0000 </r>
       <r>  -13.0852    1.0000 </r>
       <r>  -13.0822    1.0000 </r>
       <r>  -13.0790    1.0000 </r>
       <r>  -13.0739    1.0000 </r>
       <r>  -12.9877    1.0000 </r>
       <r>  -12.9770    1.0000 </r>
       <r>  -12.9419    1.0000 </r>
       <r>  -12.9412    1.0000 </r>
       <r>   -7.6453    1.0000 </r>
       <r>   -7.4070    1.0000 </r>
       <r>   -7.3276    1.0000 </r>
       <r>   -7.3251    1.0000 </r>
       <r>   -7.3122    1.0000 </r>
       <r>   -7.3098    1.0000 </r>
       <r>   -7.3077    1.0000 </r>
       <r>   -7.3048    1.0000 </r>
       <r>   -7.1695    1.0000 </r>
       <r>   -7.1574    1.0000 </r>
       <r>   -7.1249    1.0000 </r>
       <r>   -7.1228    1.0000 </r>
       <r>   -7.0366    1.0000 </r>
       <r>   -7.0219    1.0000 </r>
       <r>   -7.0025    1.0000 </r>
       <r>   -7.0016    1.0000 </r>
       <r>   -6.9416    1.0000 </r>
       <r>   -6.9402    1.0000 </r>
       <r>   -6.8878    1.0000 </r>
       <r>   -6.8867    1.0000 </r>
       <r>   -6.8653    1.0000 </r>
       <r>   -6.8619    1.0000 </r>
       <r>   -6.8345    1.0000 </r>
       <r>   -6.8038    1.0000 </r>
       <r>   -1.9356    1.0000 </r>
       <r>   -1.9355    1.0000 </r>
       <r>   -1.9106    1.0000 </r>
       <r>   -1.8936    1.0000 </r>
       <r>   -1.6674    1.0000 </r>
       <r>   -1.6656    1.0000 </r>
       <r>   -1.6585    1.0000 </r>
       <r>   -1.6574    1.0000 </r>
       <r>   -1.5997    1.0000 </r>
       <r>   -1.5980    1.0000 </r>
       <r>   -1.5871    1.0000 </r>
       <r>   -1.5851    1.0000 </r>
       <r>   -1.2983    1.0000 </r>
       <r>   -1.1761    1.0000 </r>
       <r>   -1.1734    1.0000 </r>
       <r>   -1.1144    1.0000 </r>
       <r>   -1.1121    1.0000 </r>
       <r>   -1.1072    1.0000 </r>
       <r>   -1.0494    1.0000 </r>
       <r>   -0.9811    1.0000 </r>
       <r>   -0.9648    1.0000 </r>
       <r>   -0.9596    1.0000 </r>
       <r>   -0.9577    1.0000 </r>
       <r>   -0.9573    1.0000 </r>
       <r>   -0.9472    1.0000 </r>
       <r>   -0.9451    1.0000 </r>
       <r>   -0.9228    1.0000 </r>
       <r>   -0.8713    1.0000 </r>
       <r>   -0.8711    1.0000 </r>
       <r>   -0.8036    1.0000 </r>
       <r>   -0.8028    1.0000 </r>
       <r>   -0.8026    1.0000 </r>
       <r>   -0.7763    1.0000 </r>
       <r>   -0.7744    1.0000 </r>
       <r>   -0.7734    1.0000 </r>
       <r>   -0.7602    1.0000 </r>
       <r>   -0.7177    1.0000 </r>
       <r>   -0.7156    1.0000 </r>
       <r>   -0.7071    1.0000 </r>
       <r>   -0.7041    1.0000 </r>
       <r>   -0.6990    1.0000 </r>
       <r>   -0.6986    1.0000 </r>
       <r>   -0.6091    1.0000 </r>
       <r>   -0.6083    1.0000 </r>
       <r>   -0.5615    1.0000 </r>
       <r>   -0.5614    1.0000 </r>
       <r>   -0.5494    1.0000 </r>
       <r>   -0.5479    1.0000 </r>
       <r>   -0.4082    1.0000 </r>
       <r>   -0.4076    1.0000 </r>
       <r>   -0.3571    1.0000 </r>
       <r>   -0.3480    1.0000 </r>
       <r>   -0.3301    1.0000 </r>
       <r>   -0.3287    1.0000 </r>
       <r>   -0.2988    1.0000 </r>
       <r>   -0.2982    1.0000 </r>
       <r>   -0.2814    1.0000 </r>
       <r>   -0.2693    1.0000 </r>
       <r>   -0.2627    1.0000 </r>
       <r>   -0.2558    1.0000 </r>
       <r>   -0.2550    1.0000 </r>
       <r>   -0.2095    1.0000 </r>
       <r>   -0.2085    1.0000 </r>
       <r>   -0.1891    1.0000 </r>
       <r>   -0.1867    1.0000 </r>
       <r>   -0.1864    1.0000 </r>
       <r>   -0.1757    1.0000 </r>
       <r>   -0.1579    1.0000 </r>
       <r>   -0.1258    1.0000 </r>
       <r>   -0.1251    1.0000 </r>
       <r>   -0.1092    1.0000 </r>
       <r>   -0.0709    1.0000 </r>
       <r>   -0.0705    1.0000 </r>
       <r>   -0.0605    1.0000 </r>
       <r>   -0.0434    1.0000 </r>
       <r>   -0.0178    1.0000 </r>
       <r>   -0.0171    1.0000 </r>
       <r>   -0.0112    1.0000 </r>
       <r>    0.0014    1.0000 </r>
       <r>    0.0021    1.0000 </r>
       <r>    0.0460    1.0000 </r>
       <r>    0.0495    1.0000 </r>
       <r>    0.0497    1.0000 </r>
       <r>    0.0914    1.0000 </r>
       <r>    0.0933    1.0000 </r>
       <r>    0.1182    1.0000 </r>
       <r>    0.1187    1.0000 </r>
       <r>    0.1577    1.0000 </r>
       <r>    0.1626    1.0000 </r>
       <r>    0.1767    1.0000 </r>
       <r>    0.1788    1.0000 </r>
       <r>    0.1814    1.0000 </r>
       <r>    0.1827    1.0000 </r>
       <r>    0.1853    1.0000 </r>
       <r>    0.1893    1.0000 </r>
       <r>    0.1933    1.0000 </r>
       <r>    0.1941    1.0000 </r>
       <r>    0.2000    1.0000 </r>
       <r>    0.2017    1.0000 </r>
       <r>    0.2388    1.0000 </r>
       <r>    0.2511    1.0000 </r>
       <r>    0.2567    1.0000 </r>
       <r>    0.2573    1.0000 </r>
       <r>    0.2767    1.0000 </r>
       <r>    0.3374    1.0000 </r>
       <r>    0.3474    1.0000 </r>
       <r>    0.3586    1.0000 </r>
       <r>    0.3593    1.0000 </r>
       <r>    0.3604    1.0000 </r>
       <r>    0.3606    1.0000 </r>
       <r>    0.3883    1.0000 </r>
       <r>    0.4017    1.0000 </r>
       <r>    0.4526    1.0000 </r>
       <r>    0.4527    1.0000 </r>
       <r>    0.5788    1.0000 </r>
       <r>    0.5790    1.0000 </r>
       <r>    0.5846    1.0000 </r>
       <r>    0.6020    1.0000 </r>
       <r>    0.6021    1.0000 </r>
       <r>    0.6065    1.0000 </r>
       <r>    0.6080    1.0000 </r>
       <r>    0.6397    1.0000 </r>
       <r>    0.6509    1.0000 </r>
       <r>    0.6516    1.0000 </r>
       <r>    0.6617    1.0000 </r>
       <r>    0.6622    1.0000 </r>
       <r>    0.6654    1.0000 </r>
       <r>    0.6734    1.0000 </r>
       <r>    0.6747    1.0000 </r>
       <r>    0.6751    1.0000 </r>
       <r>    0.6966    1.0000 </r>
       <r>    0.7229    1.0000 </r>
       <r>    0.7834    1.0000 </r>
       <r>    0.8202    1.0000 </r>
       <r>    0.8294    1.0000 </r>
       <r>    0.8321    1.0000 </r>
       <r>    0.8322    1.0000 </r>
       <r>    0.8612    1.0000 </r>
       <r>    0.8614    1.0000 </r>
       <r>    0.9094    1.0000 </r>
       <r>    0.9405    1.0000 </r>
       <r>    0.9483    1.0000 </r>
       <r>    0.9484    1.0000 </r>
       <r>    0.9831    1.0000 </r>
       <r>    1.0258    1.0000 </r>
       <r>    1.0704    1.0000 </r>
       <r>    1.2694    1.0000 </r>
       <r>    1.2978    1.0000 </r>
       <r>    1.2986    1.0000 </r>
       <r>    1.3114    1.0000 </r>
       <r>    1.3329    1.0000 </r>
       <r>    1.3334    1.0000 </r>
       <r>    1.3379    1.0000 </r>
       <r>    1.3844    1.0000 </r>
       <r>    1.4050    1.0000 </r>
       <r>    1.4283    1.0000 </r>
       <r>    1.4665    1.0000 </r>
       <r>    1.4679    1.0000 </r>
       <r>    1.4685    1.0000 </r>
       <r>    1.4816    1.0000 </r>
       <r>    1.5110    1.0000 </r>
       <r>    1.5112    1.0000 </r>
       <r>    1.5410    1.0000 </r>
       <r>    1.5609    1.0000 </r>
       <r>    1.5769    1.0000 </r>
       <r>    1.6464    1.0000 </r>
       <r>    1.6554    1.0000 </r>
       <r>    1.7560    1.0000 </r>
       <r>    1.7565    1.0000 </r>
       <r>    1.7633    1.0000 </r>
       <r>    1.7781    1.0000 </r>
       <r>    1.8029    1.0000 </r>
       <r>    1.8030    1.0000 </r>
       <r>    1.8108    1.0000 </r>
       <r>    1.8232    1.0000 </r>
       <r>    1.8366    1.0000 </r>
       <r>    1.8366    1.0000 </r>
       <r>    1.8461    1.0000 </r>
       <r>    1.8469    1.0000 </r>
       <r>    1.8783    1.0000 </r>
       <r>    1.8902    1.0000 </r>
       <r>    1.9472    1.0000 </r>
       <r>    1.9934    1.0000 </r>
       <r>    1.9936    1.0000 </r>
       <r>    2.0062    1.0000 </r>
       <r>    2.0066    1.0000 </r>
       <r>    2.0100    1.0000 </r>
       <r>    2.0187    1.0000 </r>
       <r>    2.0201    1.0000 </r>
       <r>    2.0202    1.0000 </r>
       <r>    2.0394    1.0000 </r>
       <r>    2.0467    1.0000 </r>
       <r>    2.0471    1.0000 </r>
       <r>    2.0572    1.0000 </r>
       <r>    2.0686    1.0000 </r>
       <r>    2.0691    1.0000 </r>
       <r>    2.0917    1.0000 </r>
       <r>    2.1128    1.0000 </r>
       <r>    2.1907    1.0000 </r>
       <r>    2.1909    1.0000 </r>
       <r>    2.2469    1.0000 </r>
       <r>    2.2471    1.0000 </r>
       <r>    2.2704    1.0000 </r>
       <r>    2.2733    1.0000 </r>
       <r>    2.2847    1.0000 </r>
       <r>    2.4278    1.0000 </r>
       <r>    2.4660    1.0000 </r>
       <r>    2.4667    1.0000 </r>
       <r>    2.4776    1.0000 </r>
       <r>    2.5036    1.0000 </r>
       <r>    2.5276    1.0000 </r>
       <r>    2.5543    1.0000 </r>
       <r>    2.5923    1.0000 </r>
       <r>    2.6267    1.0000 </r>
       <r>    2.6269    1.0000 </r>
       <r>    2.6562    1.0000 </r>
       <r>    2.7378    1.0000 </r>
       <r>    2.7386    1.0000 </r>
       <r>    2.7609    1.0000 </r>
       <r>    2.7619    1.0000 </r>
       <r>    2.8339    1.0000 </r>
       <r>    2.8725    1.0000 </r>
       <r>    2.9265    1.0000 </r>
       <r>    2.9339    1.0000 </r>
       <r>    2.9349    1.0000 </r>
       <r>    2.9692    1.0000 </r>
       <r>    3.0270    1.0000 </r>
       <r>    3.0280    1.0000 </r>
       <r>    3.0617    1.0000 </r>
       <r>    3.0970    1.0000 </r>
       <r>    3.3079    1.0000 </r>
       <r>    3.3105    1.0000 </r>
       <r>    3.3481    1.0000 </r>
       <r>    3.3757    1.0000 </r>
       <r>    3.4213    1.0000 </r>
       <r>    3.4220    1.0000 </r>
       <r>    3.4405    1.0000 </r>
       <r>    3.4581    1.0000 </r>
       <r>    3.4590    1.0000 </r>
       <r>    3.5316    1.0000 </r>
       <r>    3.7479    1.0000 </r>
       <r>    3.8083    1.0000 </r>
       <r>    3.8092    1.0000 </r>
       <r>    3.8152    1.0000 </r>
       <r>    3.8154    1.0000 </r>
       <r>    3.8819    1.0000 </r>
       <r>    3.8832    1.0000 </r>
       <r>    3.9324    1.0000 </r>
       <r>    3.9347    1.0000 </r>
       <r>    3.9403    1.0000 </r>
       <r>    3.9409    1.0000 </r>
       <r>    4.0389    1.0000 </r>
       <r>    4.0395    1.0000 </r>
       <r>    4.0703    1.0000 </r>
       <r>    4.1385    1.0000 </r>
       <r>    4.1491    1.0000 </r>
       <r>    4.1512    1.0000 </r>
       <r>    4.3148    1.0000 </r>
       <r>    4.3181    1.0000 </r>
       <r>    4.3379    1.0000 </r>
       <r>    4.3585    1.0000 </r>
       <r>    4.3586    1.0000 </r>
       <r>    4.4285    1.0000 </r>
       <r>    4.4444    1.0000 </r>
       <r>    4.4461    1.0000 </r>
       <r>    4.4542    1.0000 </r>
       <r>    4.4561    1.0000 </r>
       <r>    4.4570    1.0000 </r>
       <r>    4.6364    1.0000 </r>
       <r>    4.6365    1.0000 </r>
       <r>    4.7323    1.0000 </r>
       <r>    4.7327    1.0000 </r>
       <r>    4.7638    1.0000 </r>
       <r>    4.7643    1.0000 </r>
       <r>    4.7690    1.0000 </r>
       <r>    4.7697    1.0000 </r>
       <r>    4.8103    1.0000 </r>
       <r>    4.8533    1.0000 </r>
       <r>    4.8534    1.0000 </r>
       <r>    4.8575    1.0000 </r>
       <r>    7.3436    0.0000 </r>
       <r>    8.1284    0.0000 </r>
       <r>    8.4449    0.0000 </r>
       <r>    8.6423    0.0000 </r>
       <r>    8.6426    0.0000 </r>
       <r>    8.8581    0.0000 </r>
       <r>    9.0837    0.0000 </r>
       <r>    9.0855    0.0000 </r>
       <r>    9.2612    0.0000 </r>
       <r>    9.2735    0.0000 </r>
       <r>    9.2891    0.0000 </r>
       <r>    9.2892    0.0000 </r>
       <r>    9.7268    0.0000 </r>
       <r>    9.7719    0.0000 </r>
       <r>    9.7720    0.0000 </r>
       <r>    9.7899    0.0000 </r>
       <r>    9.8544    0.0000 </r>
       <r>    9.8549    0.0000 </r>
       <r>    9.8590    0.0000 </r>
       <r>    9.8790    0.0000 </r>
       <r>    9.8892    0.0000 </r>
       <r>   10.0604    0.0000 </r>
       <r>   10.0827    0.0000 </r>
       <r>   10.1359    0.0000 </r>
       <r>   10.1366    0.0000 </r>
       <r>   10.3057    0.0000 </r>
       <r>   10.3068    0.0000 </r>
       <r>   10.4166    0.0000 </r>
       <r>   10.5266    0.0000 </r>
       <r>   10.5707    0.0000 </r>
       <r>   10.5715    0.0000 </r>
       <r>   10.5725    0.0000 </r>
       <r>   10.5783    0.0000 </r>
       <r>   10.5785    0.0000 </r>
       <r>   10.6757    0.0000 </r>
       <r>   10.9760    0.0000 </r>
       <r>   11.0186    0.0000 </r>
       <r>   11.0195    0.0000 </r>
       <r>   11.0401    0.0000 </r>
       <r>   11.0412    0.0000 </r>
       <r>   11.0773    0.0000 </r>
       <r>   11.1284    0.0000 </r>
       <r>   11.1782    0.0000 </r>
       <r>   11.1887    0.0000 </r>
       <r>   11.2289    0.0000 </r>
       <r>   11.2490    0.0000 </r>
       <r>   11.2500    0.0000 </r>
       <r>   11.2904    0.0000 </r>
       <r>   11.3069    0.0000 </r>
       <r>   11.4174    0.0000 </r>
       <r>   11.4178    0.0000 </r>
       <r>   11.4588    0.0000 </r>
       <r>   11.5210    0.0000 </r>
       <r>   11.5214    0.0000 </r>
       <r>   11.5304    0.0000 </r>
       <r>   11.5772    0.0000 </r>
       <r>   11.6793    0.0000 </r>
       <r>   11.6808    0.0000 </r>
       <r>   11.7970    0.0000 </r>
       <r>   11.7977    0.0000 </r>
       <r>   11.8156    0.0000 </r>
       <r>   11.8157    0.0000 </r>
       <r>   11.8823    0.0000 </r>
       <r>   11.9410    0.0000 </r>
       <r>   11.9756    0.0000 </r>
       <r>   11.9768    0.0000 </r>
       <r>   11.9818    0.0000 </r>
       <r>   12.0280    0.0000 </r>
       <r>   12.0283    0.0000 </r>
       <r>   12.0578    0.0000 </r>
       <r>   12.1617    0.0000 </r>
       <r>   12.2426    0.0000 </r>
       <r>   12.2565    0.0000 </r>
       <r>   12.2580    0.0000 </r>
       <r>   12.3155    0.0000 </r>
       <r>   12.3160    0.0000 </r>
       <r>   12.3214    0.0000 </r>
       <r>   12.3478    0.0000 </r>
       <r>   12.4614    0.0000 </r>
       <r>   12.4802    0.0000 </r>
       <r>   12.5164    0.0000 </r>
       <r>   12.5173    0.0000 </r>
       <r>   12.6136    0.0000 </r>
       <r>   12.6148    0.0000 </r>
       <r>   12.6604    0.0000 </r>
       <r>   12.6629    0.0000 </r>
       <r>   12.6635    0.0000 </r>
       <r>   12.6896    0.0000 </r>
       <r>   12.7471    0.0000 </r>
       <r>   12.8314    0.0000 </r>
       <r>   12.8716    0.0000 </r>
       <r>   12.8727    0.0000 </r>
       <r>   12.8738    0.0000 </r>
       <r>   13.1194    0.0000 </r>
       <r>   13.1211    0.0000 </r>
       <r>   13.2008    0.0000 </r>
       <r>   13.3791    0.0000 </r>
       <r>   13.4103    0.0000 </r>
       <r>   13.4105    0.0000 </r>
       <r>   13.4331    0.0000 </r>
       <r>   13.4382    0.0000 </r>
       <r>   13.4530    0.0000 </r>
       <r>   13.4944    0.0000 </r>
       <r>   13.5098    0.0000 </r>
       <r>   13.5452    0.0000 </r>
       <r>   13.5485    0.0000 </r>
      </set>
      <set comment="kpoint 2">
       <r>  -51.0579    1.0000 </r>
       <r>  -51.0554    1.0000 </r>
       <r>  -51.0552    1.0000 </r>
       <r>  -51.0548    1.0000 </r>
       <r>  -51.0543    1.0000 </r>
       <r>  -51.0542    1.0000 </r>
       <r>  -51.0537    1.0000 </r>
       <r>  -51.0536    1.0000 </r>
       <r>  -51.0527    1.0000 </r>
       <r>  -51.0524    1.0000 </r>
       <r>  -51.0520    1.0000 </r>
       <r>  -51.0518    1.0000 </r>
       <r>  -51.0515    1.0000 </r>
       <r>  -51.0512    1.0000 </r>
       <r>  -51.0506    1.0000 </r>
       <r>  -51.0487    1.0000 </r>
       <r>  -51.0477    1.0000 </r>
       <r>  -51.0452    1.0000 </r>
       <r>  -51.0450    1.0000 </r>
       <r>  -51.0442    1.0000 </r>
       <r>  -51.0439    1.0000 </r>
       <r>  -51.0429    1.0000 </r>
       <r>  -51.0428    1.0000 </r>
       <r>  -51.0410    1.0000 </r>
       <r>  -51.0404    1.0000 </r>
       <r>  -51.0401    1.0000 </r>
       <r>  -51.0394    1.0000 </r>
       <r>  -51.0394    1.0000 </r>
       <r>  -51.0393    1.0000 </r>
       <r>  -51.0389    1.0000 </r>
       <r>  -51.0386    1.0000 </r>
       <r>  -51.0377    1.0000 </r>
       <r>  -49.7055    1.0000 </r>
       <r>  -49.7029    1.0000 </r>
       <r>  -49.7027    1.0000 </r>
       <r>  -49.7018    1.0000 </r>
       <r>  -49.7013    1.0000 </r>
       <r>  -49.7004    1.0000 </r>
       <r>  -49.7002    1.0000 </r>
       <r>  -49.6976    1.0000 </r>
       <r>  -49.6958    1.0000 </r>
       <r>  -49.6947    1.0000 </r>
       <r>  -49.6940    1.0000 </r>
       <r>  -49.6940    1.0000 </r>
       <r>  -49.6940    1.0000 </r>
       <r>  -49.6940    1.0000 </r>
       <r>  -49.6933    1.0000 </r>
       <r>  -49.6922    1.0000 </r>
       <r>  -49.6005    1.0000 </r>
       <r>  -49.5987    1.0000 </r>
       <r>  -49.5981    1.0000 </r>
       <r>  -49.5978    1.0000 </r>
       <r>  -49.5976    1.0000 </r>
       <r>  -49.5973    1.0000 </r>
       <r>  -49.5969    1.0000 </r>
       <r>  -49.5967    1.0000 </r>
       <r>  -49.5966    1.0000 </r>
       <r>  -49.5965    1.0000 </r>
       <r>  -49.5959    1.0000 </r>
       <r>  -49.5957    1.0000 </r>
       <r>  -49.5956    1.0000 </r>
       <r>  -49.5953    1.0000 </r>
       <r>  -49.5950    1.0000 </r>
       <r>  -49.5931    1.0000 </r>
       <r>  -49.5692    1.0000 </r>
       <r>  -49.5674    1.0000 </r>
       <r>  -49.5670    1.0000 </r>
       <r>  -49.5663    1.0000 </r>
       <r>  -49.5662    1.0000 </r>
       <r>  -49.5659    1.0000 </r>
       <r>  -49.5654    1.0000 </r>
       <r>  -49.5652    1.0000 </r>
       <r>  -49.5650    1.0000 </r>
       <r>  -49.5647    1.0000 </r>
       <r>  -49.5642    1.0000 </r>
       <r>  -49.5640    1.0000 </r>
       <r>  -49.5636    1.0000 </r>
       <r>  -49.5636    1.0000 </r>
       <r>  -49.5631    1.0000 </r>
       <r>  -49.5613    1.0000 </r>
       <r>  -49.5578    1.0000 </r>
       <r>  -49.5558    1.0000 </r>
       <r>  -49.5557    1.0000 </r>
       <r>  -49.5544    1.0000 </r>
       <r>  -49.5538    1.0000 </r>
       <r>  -49.5525    1.0000 </r>
       <r>  -49.5524    1.0000 </r>
       <r>  -49.5505    1.0000 </r>
       <r>  -49.5414    1.0000 </r>
       <r>  -49.5402    1.0000 </r>
       <r>  -49.5394    1.0000 </r>
       <r>  -49.5394    1.0000 </r>
       <r>  -49.5394    1.0000 </r>
       <r>  -49.5394    1.0000 </r>
       <r>  -49.5387    1.0000 </r>
       <r>  -49.5374    1.0000 </r>
       <r>  -39.8723    1.0000 </r>
       <r>  -39.8671    1.0000 </r>
       <r>  -39.8671    1.0000 </r>
       <r>  -39.8657    1.0000 </r>
       <r>  -39.8654    1.0000 </r>
       <r>  -39.8650    1.0000 </r>
       <r>  -39.8649    1.0000 </r>
       <r>  -39.8648    1.0000 </r>
       <r>  -39.8647    1.0000 </r>
       <r>  -39.8646    1.0000 </r>
       <r>  -39.8645    1.0000 </r>
       <r>  -39.8640    1.0000 </r>
       <r>  -39.8637    1.0000 </r>
       <r>  -39.8627    1.0000 </r>
       <r>  -39.8626    1.0000 </r>
       <r>  -39.8567    1.0000 </r>
       <r>  -13.2084    1.0000 </r>
       <r>  -13.2074    1.0000 </r>
       <r>  -13.1956    1.0000 </r>
       <r>  -13.1713    1.0000 </r>
       <r>  -13.1591    1.0000 </r>
[...]
       <r>   -49.2845     0.0000     0.0000 </r>
       <r>   -49.0437     0.0000     0.0000 </r>
       <r>   -48.8028     0.0000     0.0000 </r>
       <r>   -48.5620     0.0000     0.0000 </r>
       <r>   -48.3211     0.0000     0.0000 </r>
       <r>   -48.0803     0.0000     0.0000 </r>
       <r>   -47.8395     0.0000     0.0000 </r>
       <r>   -47.5986     0.0000     0.0000 </r>
       <r>   -47.3578     0.0000     0.0000 </r>
       <r>   -47.1170     0.0000     0.0000 </r>
       <r>   -46.8761     0.0000     0.0000 </r>
       <r>   -46.6353     0.0000     0.0000 </r>
       <r>   -46.3944     0.3452     0.0831 </r>
       <r>   -46.1536   132.4758    31.9885 </r>
       <r>   -45.9128    59.0932    46.2204 </r>
       <r>   -45.6719   206.6923    96.0000 </r>
       <r>   -45.4311     0.0000    96.0000 </r>
       <r>   -45.1902     0.0000    96.0000 </r>
       <r>   -44.9494     0.0000    96.0000 </r>
       <r>   -44.7086     0.0000    96.0000 </r>
       <r>   -44.4677     0.0000    96.0000 </r>
       <r>   -44.2269     0.0000    96.0000 </r>
       <r>   -43.9860     0.0000    96.0000 </r>
       <r>   -43.7452     0.0000    96.0000 </r>
       <r>   -43.5044     0.0000    96.0000 </r>
       <r>   -43.2635     0.0000    96.0000 </r>
       <r>   -43.0227     0.0000    96.0000 </r>
       <r>   -42.7818     0.0000    96.0000 </r>
       <r>   -42.5410     0.0000    96.0000 </r>
       <r>   -42.3002     0.0000    96.0000 </r>
       <r>   -42.0593     0.0000    96.0000 </r>
       <r>   -41.8185     0.0000    96.0000 </r>
       <r>   -41.5777     0.0000    96.0000 </r>
       <r>   -41.3368     0.0000    96.0000 </r>
       <r>   -41.0960     0.0000    96.0000 </r>
       <r>   -40.8551     0.0000    96.0000 </r>
       <r>   -40.6143     0.0000    96.0000 </r>
       <r>   -40.3735     0.0000    96.0000 </r>
       <r>   -40.1326     0.0000    96.0000 </r>
       <r>   -39.8918    13.6882    99.2967 </r>
       <r>   -39.6509    52.7462   112.0000 </r>
       <r>   -39.4101     0.0000   112.0000 </r>
       <r>   -39.1693     0.0000   112.0000 </r>
       <r>   -38.9284     0.0000   112.0000 </r>
       <r>   -38.6876     0.0000   112.0000 </r>
       <r>   -38.4467     0.0000   112.0000 </r>
       <r>   -38.2059     0.0000   112.0000 </r>
       <r>   -37.9651     0.0000   112.0000 </r>
       <r>   -37.7242     0.0000   112.0000 </r>
       <r>   -37.4834     0.0000   112.0000 </r>
       <r>   -37.2426     0.0000   112.0000 </r>
       <r>   -37.0017     0.0000   112.0000 </r>
       <r>   -36.7609     0.0000   112.0000 </r>
       <r>   -36.5200     0.0000   112.0000 </r>
       <r>   -36.2792     0.0000   112.0000 </r>
       <r>   -36.0384     0.0000   112.0000 </r>
       <r>   -35.7975     0.0000   112.0000 </r>
       <r>   -35.5567     0.0000   112.0000 </r>
       <r>   -35.3158     0.0000   112.0000 </r>
       <r>   -35.0750     0.0000   112.0000 </r>
       <r>   -34.8342     0.0000   112.0000 </r>
       <r>   -34.5933     0.0000   112.0000 </r>
       <r>   -34.3525     0.0000   112.0000 </r>
       <r>   -34.1116     0.0000   112.0000 </r>
       <r>   -33.8708     0.0000   112.0000 </r>
       <r>   -33.6300     0.0000   112.0000 </r>
       <r>   -33.3891     0.0000   112.0000 </r>
       <r>   -33.1483     0.0000   112.0000 </r>
       <r>   -32.9075     0.0000   112.0000 </r>
       <r>   -32.6666     0.0000   112.0000 </r>
       <r>   -32.4258     0.0000   112.0000 </r>
       <r>   -32.1849     0.0000   112.0000 </r>
       <r>   -31.9441     0.0000   112.0000 </r>
       <r>   -31.7033     0.0000   112.0000 </r>
       <r>   -31.4624     0.0000   112.0000 </r>
       <r>   -31.2216     0.0000   112.0000 </r>
       <r>   -30.9807     0.0000   112.0000 </r>
       <r>   -30.7399     0.0000   112.0000 </r>
       <r>   -30.4991     0.0000   112.0000 </r>
       <r>   -30.2582     0.0000   112.0000 </r>
       <r>   -30.0174     0.0000   112.0000 </r>
       <r>   -29.7765     0.0000   112.0000 </r>
       <r>   -29.5357     0.0000   112.0000 </r>
       <r>   -29.2949     0.0000   112.0000 </r>
       <r>   -29.0540     0.0000   112.0000 </r>
       <r>   -28.8132     0.0000   112.0000 </r>
       <r>   -28.5724     0.0000   112.0000 </r>
       <r>   -28.3315     0.0000   112.0000 </r>
       <r>   -28.0907     0.0000   112.0000 </r>
       <r>   -27.8498     0.0000   112.0000 </r>
       <r>   -27.6090     0.0000   112.0000 </r>
       <r>   -27.3682     0.0000   112.0000 </r>
       <r>   -27.1273     0.0000   112.0000 </r>
       <r>   -26.8865     0.0000   112.0000 </r>
       <r>   -26.6456     0.0000   112.0000 </r>
       <r>   -26.4048     0.0000   112.0000 </r>
       <r>   -26.1640     0.0000   112.0000 </r>
       <r>   -25.9231     0.0000   112.0000 </r>
       <r>   -25.6823     0.0000   112.0000 </r>
       <r>   -25.4414     0.0000   112.0000 </r>
       <r>   -25.2006     0.0000   112.0000 </r>
       <r>   -24.9598     0.0000   112.0000 </r>
       <r>   -24.7189     0.0000   112.0000 </r>
       <r>   -24.4781     0.0000   112.0000 </r>
       <r>   -24.2372     0.0000   112.0000 </r>
       <r>   -23.9964     0.0000   112.0000 </r>
       <r>   -23.7556     0.0000   112.0000 </r>
       <r>   -23.5147     0.0000   112.0000 </r>
       <r>   -23.2739     0.0000   112.0000 </r>
       <r>   -23.0331     0.0000   112.0000 </r>
       <r>   -22.7922     0.0000   112.0000 </r>
       <r>   -22.5514     0.0000   112.0000 </r>
       <r>   -22.3105     0.0000   112.0000 </r>
       <r>   -22.0697     0.0000   112.0000 </r>
       <r>   -21.8289     0.0000   112.0000 </r>
       <r>   -21.5880     0.0000   112.0000 </r>
       <r>   -21.3472     0.0000   112.0000 </r>
       <r>   -21.1063     0.0000   112.0000 </r>
       <r>   -20.8655     0.0000   112.0000 </r>
       <r>   -20.6247     0.0000   112.0000 </r>
       <r>   -20.3838     0.0000   112.0000 </r>
       <r>   -20.1430     0.0000   112.0000 </r>
       <r>   -19.9021     0.0000   112.0000 </r>
       <r>   -19.6613     0.0000   112.0000 </r>
       <r>   -19.4205     0.0000   112.0000 </r>
       <r>   -19.1796     0.0000   112.0000 </r>
       <r>   -18.9388     0.0000   112.0000 </r>
       <r>   -18.6980     0.0000   112.0000 </r>
       <r>   -18.4571     0.0000   112.0000 </r>
       <r>   -18.2163     0.0000   112.0000 </r>
       <r>   -17.9754     0.0000   112.0000 </r>
       <r>   -17.7346     0.0000   112.0000 </r>
       <r>   -17.4938     0.0000   112.0000 </r>
       <r>   -17.2529     0.0000   112.0000 </r>
       <r>   -17.0121     0.0000   112.0000 </r>
       <r>   -16.7712     0.0000   112.0000 </r>
       <r>   -16.5304     0.0000   112.0000 </r>
       <r>   -16.2896     0.0000   112.0000 </r>
       <r>   -16.0487     0.0000   112.0000 </r>
       <r>   -15.8079     0.0000   112.0000 </r>
       <r>   -15.5670     0.0000   112.0000 </r>
       <r>   -15.3262     0.0000   112.0000 </r>
       <r>   -15.0854     0.0000   112.0000 </r>
       <r>   -14.8445     0.0000   112.0000 </r>
       <r>   -14.6037     0.0000   112.0000 </r>
       <r>   -14.3629     0.0000   112.0000 </r>
       <r>   -14.1220     0.0000   112.0000 </r>
       <r>   -13.8812     0.0000   112.0000 </r>
       <r>   -13.6403     0.0000   112.0000 </r>
       <r>   -13.3995     0.0000   112.0000 </r>
       <r>   -13.1587     0.0000   112.0000 </r>
       <r>   -12.9178     0.0096   112.0023 </r>
       <r>   -12.6770    42.7423   122.2963 </r>
       <r>   -12.4361    23.6826   128.0000 </r>
       <r>   -12.1953     0.0000   128.0000 </r>
       <r>   -11.9545     0.0000   128.0000 </r>
       <r>   -11.7136     0.0000   128.0000 </r>
       <r>   -11.4728     0.0000   128.0000 </r>
       <r>   -11.2319     0.0000   128.0000 </r>
       <r>   -10.9911     0.0000   128.0000 </r>
       <r>   -10.7503     0.0000   128.0000 </r>
       <r>   -10.5094     0.0000   128.0000 </r>
       <r>   -10.2686     0.0000   128.0000 </r>
       <r>   -10.0277     0.0000   128.0000 </r>
       <r>    -9.7869     0.0000   128.0000 </r>
       <r>    -9.5461     0.0000   128.0000 </r>
       <r>    -9.3052     0.0000   128.0000 </r>
       <r>    -9.0644     0.0000   128.0000 </r>
       <r>    -8.8236     0.0000   128.0000 </r>
       <r>    -8.5827     0.0000   128.0000 </r>
       <r>    -8.3419     0.0000   128.0000 </r>
       <r>    -8.1010     0.0000   128.0000 </r>
       <r>    -7.8602     0.0000   128.0000 </r>
       <r>    -7.6194     0.0000   128.0000 </r>
       <r>    -7.3785     0.5344   128.1287 </r>
       <r>    -7.1377    14.0171   131.5046 </r>
       <r>    -6.8968    29.4379   138.5944 </r>
       <r>    -6.6560    26.3149   144.9320 </r>
       <r>    -6.4152    29.2976   151.9880 </r>
       <r>    -6.1743     0.0498   152.0000 </r>
       <r>    -5.9335     0.0000   152.0000 </r>
       <r>    -5.6926     0.0000   152.0000 </r>
       <r>    -5.4518     0.0000   152.0000 </r>
       <r>    -5.2110     0.0000   152.0000 </r>
       <r>    -4.9701     0.0000   152.0000 </r>
       <r>    -4.7293     0.0000   152.0000 </r>
       <r>    -4.4885     0.0000   152.0000 </r>
       <r>    -4.2476     0.0000   152.0000 </r>
       <r>    -4.0068     0.0000   152.0000 </r>
       <r>    -3.7659     0.0000   152.0000 </r>
       <r>    -3.5251     0.0000   152.0000 </r>
       <r>    -3.2843     0.0000   152.0000 </r>
       <r>    -3.0434     0.0000   152.0000 </r>
       <r>    -2.8026     0.0000   152.0000 </r>
       <r>    -2.5617     0.0000   152.0000 </r>
       <r>    -2.3209     0.0000   152.0000 </r>
       <r>    -2.0801     0.0000   152.0000 </r>
       <r>    -1.8392     0.0000   152.0000 </r>
       <r>    -1.5984     0.0000   152.0000 </r>
       <r>    -1.3575     0.0000   152.0000 </r>
       <r>    -1.1167     0.0000   152.0000 </r>
       <r>    -0.8759     0.0000   152.0000 </r>
       <r>    -0.6350     0.0000   152.0000 </r>
       <r>    -0.3942     4.3093   153.0378 </r>
       <r>    -0.1534    20.3324   157.9347 </r>
       <r>     0.0875    12.2464   160.8841 </r>
       <r>     0.3283    18.6290   165.3707 </r>
       <r>     0.5692    29.6034   172.5003 </r>
       <r>     0.8100    39.2700   181.9581 </r>
       <r>     1.0508    37.3045   190.9424 </r>
       <r>     1.2917    31.0793   198.4276 </r>
       <r>     1.5325    20.7658   203.4288 </r>
       <r>     1.7734    28.8884   210.3862 </r>
       <r>     2.0142    37.0632   219.3125 </r>
       <r>     2.2550    27.4318   225.9191 </r>
       <r>     2.4959    27.0440   232.4324 </r>
       <r>     2.7367    30.9245   239.8802 </r>
       <r>     2.9776    44.4717   250.5907 </r>
       <r>     3.2184    45.4784   261.5437 </r>
       <r>     3.4592    31.8949   269.2252 </r>
       <r>     3.7001    12.3524   272.2002 </r>
       <r>     3.9409    17.9311   276.5187 </r>
       <r>     4.1817    52.3832   289.1346 </r>
       <r>     4.4226    45.0446   299.9831 </r>
       <r>     4.6634    16.6745   303.9990 </r>
       <r>     4.9043     0.0041   304.0000 </r>
       <r>     5.1451     0.0000   304.0000 </r>
       <r>     5.3859     0.0000   304.0000 </r>
       <r>     5.6268     0.0000   304.0000 </r>
       <r>     5.8676     0.0000   304.0000 </r>
       <r>     6.1085     0.0000   304.0000 </r>
       <r>     6.3493     0.4118   304.0992 </r>
       <r>     6.5901     4.2041   305.1117 </r>
       <r>     6.8310     7.9242   307.0201 </r>
       <r>     7.0718    19.4869   311.7133 </r>
       <r>     7.3127    44.3293   322.3896 </r>
       <r>     7.5535    53.5574   335.2883 </r>
       <r>     7.7943    63.1950   350.5081 </r>
       <r>     8.0352    66.0245   366.4094 </r>
       <r>     8.2760    70.2234   383.3219 </r>
       <r>     8.5169    58.9894   397.5289 </r>
       <r>     8.7577    58.7315   411.6737 </r>
       <r>     8.9985    47.5938   423.1361 </r>
       <r>     9.2394    29.6724   430.2824 </r>
       <r>     9.4802     8.8002   432.4018 </r>
       <r>     9.7210     3.0670   433.1405 </r>
       <r>     9.9619     8.3931   435.1619 </r>
       <r>    10.2027    18.7323   439.6733 </r>
       <r>    10.4436    17.9756   444.0026 </r>
       <r>    10.6844    17.2179   448.1493 </r>
       <r>    10.9252    27.5730   454.7900 </r>
       <r>    11.1661    18.9611   459.3565 </r>
       <r>    11.4069    24.0252   465.1427 </r>
       <r>    11.6478    14.6930   468.6814 </r>
       <r>    11.8886    13.8375   472.0140 </r>
       <r>    12.1294    16.1364   475.9003 </r>
       <r>    12.3703    36.9227   484.7927 </r>
       <r>    12.6111    32.5923   492.6422 </r>
       <r>    12.8520    29.6921   499.7932 </r>
       <r>    13.0928    20.2242   504.6640 </r>
       <r>    13.3336    22.3028   510.0354 </r>
       <r>    13.5745    27.2422   516.5963 </r>
       <r>    13.8153    23.7275   522.3108 </r>
       <r>    14.0561    26.2329   528.6288 </r>
       <r>    14.2970    19.1462   533.2399 </r>
       <r>    14.5378    16.7279   537.2686 </r>
       <r>    14.7787     3.0367   538.0000 </r>
       <r>    15.0195     0.0000   538.0000 </r>
       <r>    15.2603     0.0000   538.0000 </r>
       <r>    15.5012     0.0000   538.0000 </r>
       <r>    15.7420     0.0000   538.0000 </r>
       <r>    15.9829     0.0000   538.0000 </r>
       <r>    16.2237     0.0000   538.0000 </r>
       <r>    16.4645     0.0000   538.0000 </r>
       <r>    16.7054     0.0000   538.0000 </r>
       <r>    16.9462     0.0000   538.0000 </r>
       <r>    17.1871     0.0000   538.0000 </r>
       <r>    17.4279     0.0000   538.0000 </r>
       <r>    17.6687     0.0000   538.0000 </r>
       <r>    17.9096     0.0000   538.0000 </r>
      </set>
     </set>
    </array>
   </total>
  </dos>
 </calculation>
 <structure name="finalpos" >
  <crystal>
   <varray name="basis" >
    <v>      11.11223374       0.00000000      -0.00029034 </v>
    <v>       0.00000000      11.11745194       0.00000000 </v>
    <v>      -2.77510898       0.00000000      10.19872221 </v>
   </varray>
   <i name="volume">   1259.93837498 </i>
   <varray name="rec_basis" >
    <v>       0.08999155       0.00000000       0.02448702 </v>
    <v>       0.00000000       0.08994867       0.00000000 </v>
    <v>       0.00000256       0.00000000       0.09805220 </v>
   </varray>
  </crystal>
  <varray name="positions" >
   <v>       0.28894969       0.46933910       0.15583616 </v>
   <v>       0.78894969       0.46933910       0.15583616 </v>
   <v>       0.28894969       0.96933910       0.15583616 </v>
   <v>       0.78894969       0.96933910       0.15583616 </v>
   <v>       0.04646972       0.21934976       0.18586770 </v>
   <v>       0.54646972       0.21934976       0.18586770 </v>
   <v>       0.04646972       0.71934976       0.18586770 </v>
   <v>       0.54646972       0.71934976       0.18586770 </v>
   <v>       0.45353028       0.46934976       0.81413230 </v>
   <v>       0.95353028       0.46934976       0.81413230 </v>
   <v>       0.45353028       0.96934976       0.81413230 </v>
   <v>       0.95353028       0.96934976       0.81413230 </v>
   <v>       0.21105031       0.21933910       0.84416384 </v>
   <v>       0.71105031       0.21933910       0.84416384 </v>
   <v>       0.21105031       0.71933910       0.84416384 </v>
   <v>       0.71105031       0.71933910       0.84416384 </v>
   <v>       0.07654971       0.09530995       0.80250593 </v>
   <v>       0.57654971       0.09530995       0.80250593 </v>
   <v>       0.07654971       0.59530995       0.80250593 </v>
   <v>       0.57654971       0.59530995       0.80250593 </v>
   <v>       0.32470466       0.34338175       0.80250383 </v>
   <v>       0.82470466       0.34338175       0.80250383 </v>
   <v>       0.32470466       0.84338175       0.80250383 </v>
   <v>       0.82470466       0.84338175       0.80250383 </v>
   <v>       0.17529534       0.09338175       0.19749617 </v>
   <v>       0.67529534       0.09338175       0.19749617 </v>
   <v>       0.17529534       0.59338175       0.19749617 </v>
   <v>       0.67529534       0.59338175       0.19749617 </v>
   <v>       0.42345029       0.34530995       0.19749407 </v>
   <v>       0.92345029       0.34530995       0.19749407 </v>
   <v>       0.42345029       0.84530995       0.19749407 </v>
   <v>       0.92345029       0.84530995       0.19749407 </v>
   <v>       0.21868463       0.34523395       0.37102476 </v>
   <v>       0.71868463       0.34523395       0.37102476 </v>
   <v>       0.21868463       0.84523395       0.37102476 </v>
   <v>       0.71868463       0.84523395       0.37102476 </v>
   <v>       0.46681660       0.09344897       0.37102399 </v>
   <v>       0.96681660       0.09344897       0.37102399 </v>
   <v>       0.46681660       0.59344897       0.37102399 </v>
   <v>       0.96681660       0.59344897       0.37102399 </v>
   <v>       0.03318340       0.34344897       0.62897601 </v>
   <v>       0.53318340       0.34344897       0.62897601 </v>
   <v>       0.03318340       0.84344897       0.62897601 </v>
   <v>       0.53318340       0.84344897       0.62897601 </v>
   <v>       0.28131537       0.09523395       0.62897524 </v>
   <v>       0.78131537       0.09523395       0.62897524 </v>
   <v>       0.28131537       0.59523395       0.62897524 </v>
   <v>       0.78131537       0.59523395       0.62897524 </v>
   <v>       0.12439279       0.34434306       0.00000412 </v>
   <v>       0.62439279       0.34434306       0.00000412 </v>
   <v>       0.12439279       0.84434306       0.00000412 </v>
   <v>       0.62439279       0.84434306       0.00000412 </v>
   <v>       0.37560721       0.09434306       0.99999588 </v>
   <v>       0.87560721       0.09434306       0.99999588 </v>
   <v>       0.37560721       0.59434306       0.99999588 </v>
   <v>       0.87560721       0.59434306       0.99999588 </v>
   <v>       0.03824426       0.10634799       0.60632306 </v>
   <v>       0.53824426       0.10634799       0.60632306 </v>
   <v>       0.03824426       0.60634799       0.60632306 </v>
   <v>       0.53824426       0.60634799       0.60632306 </v>
   <v>       0.26492712       0.33232651       0.60632763 </v>
   <v>       0.76492712       0.33232651       0.60632763 </v>
   <v>       0.26492712       0.83232651       0.60632763 </v>
   <v>       0.76492712       0.83232651       0.60632763 </v>
   <v>       0.23507288       0.08232651       0.39367237 </v>
   <v>       0.73507288       0.08232651       0.39367237 </v>
   <v>       0.23507288       0.58232651       0.39367237 </v>
   <v>       0.73507288       0.58232651       0.39367237 </v>
   <v>       0.46175574       0.35634799       0.39367694 </v>
   <v>       0.96175574       0.35634799       0.39367694 </v>
   <v>       0.46175574       0.85634799       0.39367694 </v>
   <v>       0.96175574       0.85634799       0.39367694 </v>
   <v>       0.03848398       0.46846455       0.15397331 </v>
   <v>       0.53848398       0.46936404       0.15397331 </v>
   <v>       0.03848398       0.96936404       0.15397331 </v>
   <v>       0.53848398       0.96936404       0.15397331 </v>
   <v>       0.28861657       0.21935690       0.15447525 </v>
   <v>       0.78861657       0.21935690       0.15447525 </v>
   <v>       0.28861657       0.71935690       0.15447525 </v>
   <v>       0.78861657       0.71935690       0.15447525 </v>
   <v>       0.21138343       0.46935690       0.84552475 </v>
   <v>       0.71138343       0.46935690       0.84552475 </v>
   <v>       0.21138343       0.96935690       0.84552475 </v>
   <v>       0.71138343       0.96935690       0.84552475 </v>
   <v>       0.46151602       0.21936404       0.84602669 </v>
   <v>       0.96151602       0.21936404       0.84602669 </v>
   <v>       0.46151602       0.71936404       0.84602669 </v>
   <v>       0.96151602       0.71936404       0.84602669 </v>
  </varray>
 </structure>
</modeling>
