 160 160   0   0
  0.1215613E+02  0.1537564E-08  0.1124787E-08  0.1124760E-08  0.5000000E-15
  1.000000000000000E-004
  CAR 
 unknown system                          
     17.04848001    -54.79267056  301      4.89535204      1.00000000
    -54.793  0.0000E+00  0.0000E+00  0.0000E+00  0.0000E+00
    -54.553  0.0000E+00  0.0000E+00  0.0000E+00  0.0000E+00
    -54.314  0.0000E+00  0.0000E+00  0.0000E+00  0.0000E+00
    -54.074  0.0000E+00  0.0000E+00  0.0000E+00  0.0000E+00
    -53.835  0.0000E+00  0.0000E+00  0.0000E+00  0.0000E+00
    -53.595  0.0000E+00  0.0000E+00  0.0000E+00  0.0000E+00
    -53.356  0.0000E+00  0.0000E+00  0.0000E+00  0.0000E+00
    -53.116  0.0000E+00  0.0000E+00  0.0000E+00  0.0000E+00
    -52.877  0.0000E+00  0.0000E+00  0.0000E+00  0.0000E+00
    -52.637  0.0000E+00  0.0000E+00  0.0000E+00  0.0000E+00
    -52.398  0.0000E+00  0.0000E+00  0.0000E+00  0.0000E+00
    -52.158  0.0000E+00  0.0000E+00  0.0000E+00  0.0000E+00
    -51.919  0.0000E+00  0.0000E+00  0.0000E+00  0.0000E+00
    -51.680  0.3018E-03  0.0000E+00  0.7228E-04  0.0000E+00
    -51.440  0.7996E+02  0.0000E+00  0.1915E+02  0.0000E+00
    -51.201  0.5367E+02  0.0000E+00  0.3200E+02  0.0000E+00
    -50.961  0.0000E+00  0.0000E+00  0.3200E+02  0.0000E+00
    -50.722  0.0000E+00  0.0000E+00  0.3200E+02  0.0000E+00
    -50.482  0.3454E-13  0.0000E+00  0.3200E+02  0.0000E+00
    -50.243  0.6974E+01  0.0000E+00  0.3367E+02  0.0000E+00
    -50.003  0.1640E+03  0.0000E+00  0.7295E+02  0.0000E+00
    -49.764  0.9626E+02  0.0000E+00  0.9600E+02  0.0000E+00
    -49.524  0.0000E+00  0.0000E+00  0.9600E+02  0.0000E+00
    -49.285  0.0000E+00  0.0000E+00  0.9600E+02  0.0000E+00
    -49.045  0.0000E+00  0.0000E+00  0.9600E+02  0.0000E+00
    -48.806  0.0000E+00  0.0000E+00  0.9600E+02  0.0000E+00
    -48.566  0.0000E+00  0.0000E+00  0.9600E+02  0.0000E+00
    -48.327  0.0000E+00  0.0000E+00  0.9600E+02  0.0000E+00
    -48.087  0.0000E+00  0.0000E+00  0.9600E+02  0.0000E+00
    -47.848  0.0000E+00  0.0000E+00  0.9600E+02  0.0000E+00
    -47.609  0.0000E+00  0.0000E+00  0.9600E+02  0.0000E+00
    -47.369  0.0000E+00  0.0000E+00  0.9600E+02  0.0000E+00
    -47.130  0.0000E+00  0.0000E+00  0.9600E+02  0.0000E+00
    -46.890  0.0000E+00  0.1648E+00  0.9600E+02  0.3947E-01
    -46.651  0.0000E+00  0.1037E+03  0.9600E+02  0.2487E+02
    -46.411  0.0000E+00  0.1047E+03  0.9600E+02  0.4993E+02
    -46.172  0.0000E+00  0.1920E+03  0.9600E+02  0.9590E+02
    -45.932  0.0000E+00  0.4098E+00  0.9600E+02  0.9600E+02
    -45.693  0.0000E+00  0.0000E+00  0.9600E+02  0.9600E+02
    -45.453  0.0000E+00  0.0000E+00  0.9600E+02  0.9600E+02
    -45.214  0.0000E+00  0.0000E+00  0.9600E+02  0.9600E+02
    -44.974  0.0000E+00  0.0000E+00  0.9600E+02  0.9600E+02
    -44.735  0.0000E+00  0.0000E+00  0.9600E+02  0.9600E+02
    -44.495  0.0000E+00  0.0000E+00  0.9600E+02  0.9600E+02
    -44.256  0.0000E+00  0.0000E+00  0.9600E+02  0.9600E+02
    -44.016  0.0000E+00  0.0000E+00  0.9600E+02  0.9600E+02
    -43.777  0.0000E+00  0.0000E+00  0.9600E+02  0.9600E+02
    -43.538  0.0000E+00  0.0000E+00  0.9600E+02  0.9600E+02
    -43.298  0.0000E+00  0.0000E+00  0.9600E+02  0.9600E+02
    -43.059  0.0000E+00  0.0000E+00  0.9600E+02  0.9600E+02
    -42.819  0.0000E+00  0.0000E+00  0.9600E+02  0.9600E+02
    -42.580  0.0000E+00  0.0000E+00  0.9600E+02  0.9600E+02
    -42.340  0.0000E+00  0.0000E+00  0.9600E+02  0.9600E+02
    -42.101  0.0000E+00  0.0000E+00  0.9600E+02  0.9600E+02
    -41.861  0.0000E+00  0.0000E+00  0.9600E+02  0.9600E+02
    -41.622  0.0000E+00  0.0000E+00  0.9600E+02  0.9600E+02
    -41.382  0.0000E+00  0.0000E+00  0.9600E+02  0.9600E+02
    -41.143  0.0000E+00  0.0000E+00  0.9600E+02  0.9600E+02
    -40.903  0.0000E+00  0.0000E+00  0.9600E+02  0.9600E+02
    -40.664  0.4636E-15  0.4636E-15  0.9600E+02  0.9600E+02
    -40.424  0.3363E+01  0.2951E+01  0.9681E+02  0.9671E+02
    -40.185  0.1767E+03  0.1791E+03  0.1391E+03  0.1396E+03
    -39.945  0.8719E+02  0.8518E+02  0.1600E+03  0.1600E+03
    -39.706  0.0000E+00  0.0000E+00  0.1600E+03  0.1600E+03
    -39.467  0.0000E+00  0.0000E+00  0.1600E+03  0.1600E+03
    -39.227  0.0000E+00  0.0000E+00  0.1600E+03  0.1600E+03
    -38.988  0.0000E+00  0.0000E+00  0.1600E+03  0.1600E+03
    -38.748  0.0000E+00  0.0000E+00  0.1600E+03  0.1600E+03
    -38.509  0.0000E+00  0.0000E+00  0.1600E+03  0.1600E+03
    -38.269  0.0000E+00  0.0000E+00  0.1600E+03  0.1600E+03
    -38.030  0.0000E+00  0.0000E+00  0.1600E+03  0.1600E+03
    -37.790  0.0000E+00  0.0000E+00  0.1600E+03  0.1600E+03
    -37.551  0.0000E+00  0.0000E+00  0.1600E+03  0.1600E+03
    -37.311  0.0000E+00  0.0000E+00  0.1600E+03  0.1600E+03
    -37.072  0.0000E+00  0.0000E+00  0.1600E+03  0.1600E+03
    -36.832  0.0000E+00  0.0000E+00  0.1600E+03  0.1600E+03
    -36.593  0.0000E+00  0.0000E+00  0.1600E+03  0.1600E+03
    -36.353  0.0000E+00  0.0000E+00  0.1600E+03  0.1600E+03
    -36.114  0.0000E+00  0.0000E+00  0.1600E+03  0.1600E+03
    -35.875  0.0000E+00  0.0000E+00  0.1600E+03  0.1600E+03
    -35.635  0.0000E+00  0.0000E+00  0.1600E+03  0.1600E+03
    -35.396  0.0000E+00  0.0000E+00  0.1600E+03  0.1600E+03
    -35.156  0.0000E+00  0.0000E+00  0.1600E+03  0.1600E+03
    -34.917  0.0000E+00  0.0000E+00  0.1600E+03  0.1600E+03
    -34.677  0.0000E+00  0.0000E+00  0.1600E+03  0.1600E+03
    -34.438  0.0000E+00  0.0000E+00  0.1600E+03  0.1600E+03
    -34.198  0.0000E+00  0.0000E+00  0.1600E+03  0.1600E+03
    -33.959  0.0000E+00  0.0000E+00  0.1600E+03  0.1600E+03
    -33.719  0.0000E+00  0.0000E+00  0.1600E+03  0.1600E+03
    -33.480  0.0000E+00  0.0000E+00  0.1600E+03  0.1600E+03
    -33.240  0.0000E+00  0.0000E+00  0.1600E+03  0.1600E+03
    -33.001  0.0000E+00  0.0000E+00  0.1600E+03  0.1600E+03
    -32.761  0.0000E+00  0.0000E+00  0.1600E+03  0.1600E+03
    -32.522  0.0000E+00  0.0000E+00  0.1600E+03  0.1600E+03
    -32.282  0.0000E+00  0.0000E+00  0.1600E+03  0.1600E+03
    -32.043  0.0000E+00  0.0000E+00  0.1600E+03  0.1600E+03
    -31.804  0.0000E+00  0.0000E+00  0.1600E+03  0.1600E+03
    -31.564  0.0000E+00  0.0000E+00  0.1600E+03  0.1600E+03
    -31.325  0.0000E+00  0.0000E+00  0.1600E+03  0.1600E+03
    -31.085  0.0000E+00  0.0000E+00  0.1600E+03  0.1600E+03
    -30.846  0.0000E+00  0.0000E+00  0.1600E+03  0.1600E+03
    -30.606  0.0000E+00  0.0000E+00  0.1600E+03  0.1600E+03
    -30.367  0.0000E+00  0.0000E+00  0.1600E+03  0.1600E+03
    -30.127  0.0000E+00  0.0000E+00  0.1600E+03  0.1600E+03
    -29.888  0.0000E+00  0.0000E+00  0.1600E+03  0.1600E+03
    -29.648  0.0000E+00  0.0000E+00  0.1600E+03  0.1600E+03
    -29.409  0.0000E+00  0.0000E+00  0.1600E+03  0.1600E+03
    -29.169  0.0000E+00  0.0000E+00  0.1600E+03  0.1600E+03
    -28.930  0.0000E+00  0.0000E+00  0.1600E+03  0.1600E+03
    -28.690  0.0000E+00  0.0000E+00  0.1600E+03  0.1600E+03
    -28.451  0.0000E+00  0.0000E+00  0.1600E+03  0.1600E+03
    -28.211  0.0000E+00  0.0000E+00  0.1600E+03  0.1600E+03
    -27.972  0.0000E+00  0.0000E+00  0.1600E+03  0.1600E+03
    -27.733  0.0000E+00  0.0000E+00  0.1600E+03  0.1600E+03
    -27.493  0.0000E+00  0.0000E+00  0.1600E+03  0.1600E+03
    -27.254  0.0000E+00  0.0000E+00  0.1600E+03  0.1600E+03
    -27.014  0.0000E+00  0.0000E+00  0.1600E+03  0.1600E+03
    -26.775  0.0000E+00  0.0000E+00  0.1600E+03  0.1600E+03
    -26.535  0.0000E+00  0.0000E+00  0.1600E+03  0.1600E+03
    -26.296  0.0000E+00  0.0000E+00  0.1600E+03  0.1600E+03
    -26.056  0.0000E+00  0.0000E+00  0.1600E+03  0.1600E+03
    -25.817  0.0000E+00  0.0000E+00  0.1600E+03  0.1600E+03
    -25.577  0.0000E+00  0.0000E+00  0.1600E+03  0.1600E+03
    -25.338  0.0000E+00  0.0000E+00  0.1600E+03  0.1600E+03
    -25.098  0.0000E+00  0.0000E+00  0.1600E+03  0.1600E+03
    -24.859  0.0000E+00  0.0000E+00  0.1600E+03  0.1600E+03
    -24.619  0.0000E+00  0.0000E+00  0.1600E+03  0.1600E+03
    -24.380  0.0000E+00  0.0000E+00  0.1600E+03  0.1600E+03
    -24.140  0.0000E+00  0.0000E+00  0.1600E+03  0.1600E+03
    -23.901  0.0000E+00  0.0000E+00  0.1600E+03  0.1600E+03
    -23.662  0.0000E+00  0.0000E+00  0.1600E+03  0.1600E+03
    -23.422  0.0000E+00  0.0000E+00  0.1600E+03  0.1600E+03
    -23.183  0.0000E+00  0.0000E+00  0.1600E+03  0.1600E+03
    -22.943  0.0000E+00  0.0000E+00  0.1600E+03  0.1600E+03
    -22.704  0.0000E+00  0.0000E+00  0.1600E+03  0.1600E+03
    -22.464  0.0000E+00  0.0000E+00  0.1600E+03  0.1600E+03
    -22.225  0.0000E+00  0.0000E+00  0.1600E+03  0.1600E+03
    -21.985  0.0000E+00  0.0000E+00  0.1600E+03  0.1600E+03
    -21.746  0.0000E+00  0.0000E+00  0.1600E+03  0.1600E+03
    -21.506  0.0000E+00  0.0000E+00  0.1600E+03  0.1600E+03
    -21.267  0.0000E+00  0.0000E+00  0.1600E+03  0.1600E+03
    -21.027  0.0000E+00  0.0000E+00  0.1600E+03  0.1600E+03
    -20.788  0.0000E+00  0.0000E+00  0.1600E+03  0.1600E+03
    -20.548  0.0000E+00  0.0000E+00  0.1600E+03  0.1600E+03
    -20.309  0.0000E+00  0.0000E+00  0.1600E+03  0.1600E+03
    -20.069  0.0000E+00  0.0000E+00  0.1600E+03  0.1600E+03
    -19.830  0.0000E+00  0.0000E+00  0.1600E+03  0.1600E+03
    -19.591  0.0000E+00  0.0000E+00  0.1600E+03  0.1600E+03
    -19.351  0.0000E+00  0.0000E+00  0.1600E+03  0.1600E+03
    -19.112  0.0000E+00  0.0000E+00  0.1600E+03  0.1600E+03
    -18.872  0.0000E+00  0.0000E+00  0.1600E+03  0.1600E+03
    -18.633  0.0000E+00  0.0000E+00  0.1600E+03  0.1600E+03
    -18.393  0.0000E+00  0.0000E+00  0.1600E+03  0.1600E+03
    -18.154  0.0000E+00  0.0000E+00  0.1600E+03  0.1600E+03
    -17.914  0.0000E+00  0.0000E+00  0.1600E+03  0.1600E+03
    -17.675  0.0000E+00  0.0000E+00  0.1600E+03  0.1600E+03
    -17.435  0.0000E+00  0.0000E+00  0.1600E+03  0.1600E+03
    -17.196  0.0000E+00  0.0000E+00  0.1600E+03  0.1600E+03
    -16.956  0.0000E+00  0.0000E+00  0.1600E+03  0.1600E+03
    -16.717  0.0000E+00  0.0000E+00  0.1600E+03  0.1600E+03
    -16.477  0.0000E+00  0.0000E+00  0.1600E+03  0.1600E+03
    -16.238  0.0000E+00  0.0000E+00  0.1600E+03  0.1600E+03
    -15.998  0.0000E+00  0.0000E+00  0.1600E+03  0.1600E+03
    -15.759  0.0000E+00  0.0000E+00  0.1600E+03  0.1600E+03
    -15.520  0.0000E+00  0.0000E+00  0.1600E+03  0.1600E+03
    -15.280  0.0000E+00  0.0000E+00  0.1600E+03  0.1600E+03
    -15.041  0.0000E+00  0.0000E+00  0.1600E+03  0.1600E+03
    -14.801  0.0000E+00  0.0000E+00  0.1600E+03  0.1600E+03
    -14.562  0.0000E+00  0.0000E+00  0.1600E+03  0.1600E+03
    -14.322  0.0000E+00  0.0000E+00  0.1600E+03  0.1600E+03
    -14.083  0.0000E+00  0.0000E+00  0.1600E+03  0.1600E+03
    -13.843  0.0000E+00  0.0000E+00  0.1600E+03  0.1600E+03
    -13.604  0.1720E-01  0.0000E+00  0.1600E+03  0.1600E+03
    -13.364  0.5249E+02  0.1826E-05  0.1726E+03  0.1600E+03
    -13.125  0.7225E+02  0.2826E+02  0.1899E+03  0.1668E+03
    -12.885  0.8877E+01  0.1002E+03  0.1920E+03  0.1908E+03
    -12.646  0.0000E+00  0.5125E+01  0.1920E+03  0.1920E+03
    -12.406  0.0000E+00  0.0000E+00  0.1920E+03  0.1920E+03
    -12.167  0.0000E+00  0.0000E+00  0.1920E+03  0.1920E+03
    -11.927  0.0000E+00  0.0000E+00  0.1920E+03  0.1920E+03
    -11.688  0.0000E+00  0.0000E+00  0.1920E+03  0.1920E+03
    -11.449  0.0000E+00  0.0000E+00  0.1920E+03  0.1920E+03
    -11.209  0.0000E+00  0.0000E+00  0.1920E+03  0.1920E+03
    -10.970  0.0000E+00  0.0000E+00  0.1920E+03  0.1920E+03
    -10.730  0.0000E+00  0.0000E+00  0.1920E+03  0.1920E+03
    -10.491  0.0000E+00  0.0000E+00  0.1920E+03  0.1920E+03
    -10.251  0.0000E+00  0.0000E+00  0.1920E+03  0.1920E+03
    -10.012  0.0000E+00  0.0000E+00  0.1920E+03  0.1920E+03
     -9.772  0.0000E+00  0.0000E+00  0.1920E+03  0.1920E+03
     -9.533  0.0000E+00  0.0000E+00  0.1920E+03  0.1920E+03
     -9.293  0.0000E+00  0.0000E+00  0.1920E+03  0.1920E+03
     -9.054  0.0000E+00  0.0000E+00  0.1920E+03  0.1920E+03
     -8.814  0.0000E+00  0.0000E+00  0.1920E+03  0.1920E+03
     -8.575  0.0000E+00  0.0000E+00  0.1920E+03  0.1920E+03
     -8.335  0.0000E+00  0.0000E+00  0.1920E+03  0.1920E+03
     -8.096  0.0000E+00  0.0000E+00  0.1920E+03  0.1920E+03
     -7.856  0.3313E-10  0.0000E+00  0.1920E+03  0.1920E+03
     -7.617  0.1472E+01  0.3310E-07  0.1924E+03  0.1920E+03
     -7.378  0.4651E+02  0.7414E+01  0.2035E+03  0.1938E+03
     -7.138  0.6534E+02  0.6061E+02  0.2191E+03  0.2083E+03
     -6.899  0.2030E+02  0.5457E+02  0.2240E+03  0.2214E+03
     -6.659  0.1111E-01  0.1103E+02  0.2240E+03  0.2240E+03
     -6.420  0.0000E+00  0.4150E-02  0.2240E+03  0.2240E+03
     -6.180  0.0000E+00  0.0000E+00  0.2240E+03  0.2240E+03
     -5.941  0.0000E+00  0.0000E+00  0.2240E+03  0.2240E+03
     -5.701  0.0000E+00  0.0000E+00  0.2240E+03  0.2240E+03
     -5.462  0.0000E+00  0.0000E+00  0.2240E+03  0.2240E+03
     -5.222  0.0000E+00  0.0000E+00  0.2240E+03  0.2240E+03
     -4.983  0.0000E+00  0.0000E+00  0.2240E+03  0.2240E+03
     -4.743  0.0000E+00  0.0000E+00  0.2240E+03  0.2240E+03
     -4.504  0.0000E+00  0.0000E+00  0.2240E+03  0.2240E+03
     -4.264  0.0000E+00  0.0000E+00  0.2240E+03  0.2240E+03
     -4.025  0.0000E+00  0.0000E+00  0.2240E+03  0.2240E+03
     -3.785  0.0000E+00  0.0000E+00  0.2240E+03  0.2240E+03
     -3.546  0.0000E+00  0.0000E+00  0.2240E+03  0.2240E+03
     -3.307  0.0000E+00  0.0000E+00  0.2240E+03  0.2240E+03
     -3.067  0.0000E+00  0.0000E+00  0.2240E+03  0.2240E+03
     -2.828  0.3992E-15  0.0000E+00  0.2240E+03  0.2240E+03
     -2.588  0.3827E+00  0.0000E+00  0.2241E+03  0.2240E+03
     -2.349  0.3077E+02  0.0000E+00  0.2315E+03  0.2240E+03
     -2.109  0.1159E+02  0.0000E+00  0.2342E+03  0.2240E+03
     -1.870  0.1294E+02  0.0000E+00  0.2373E+03  0.2240E+03
     -1.630  0.1130E+02  0.0000E+00  0.2400E+03  0.2240E+03
     -1.391  0.1562E+02  0.0000E+00  0.2438E+03  0.2240E+03
     -1.151  0.6261E+02  0.1976E-05  0.2588E+03  0.2240E+03
     -0.912  0.7646E+02  0.3327E+01  0.2771E+03  0.2248E+03
     -0.672  0.6758E+02  0.3281E+02  0.2933E+03  0.2327E+03
     -0.433  0.7772E+02  0.1894E+02  0.3119E+03  0.2372E+03
     -0.193  0.1060E+03  0.1911E+02  0.3373E+03  0.2418E+03
      0.046  0.7883E+02  0.1219E+02  0.3561E+03  0.2447E+03
      0.286  0.5350E+02  0.3166E+02  0.3689E+03  0.2523E+03
      0.525  0.4755E+02  0.8124E+02  0.3803E+03  0.2717E+03
      0.764  0.4632E+02  0.6834E+02  0.3914E+03  0.2881E+03
      1.004  0.4657E+02  0.6981E+02  0.4026E+03  0.3048E+03
      1.243  0.7660E+02  0.6361E+02  0.4209E+03  0.3200E+03
      1.483  0.8752E+02  0.2169E+02  0.4419E+03  0.3252E+03
      1.722  0.5848E+02  0.5067E+02  0.4559E+03  0.3374E+03
      1.962  0.4010E+02  0.5159E+02  0.4655E+03  0.3497E+03
      2.201  0.4712E+02  0.3062E+02  0.4768E+03  0.3570E+03
      2.441  0.4170E+02  0.3898E+02  0.4868E+03  0.3664E+03
      2.680  0.5329E+02  0.6449E+02  0.4995E+03  0.3818E+03
      2.920  0.5378E+02  0.7225E+02  0.5124E+03  0.3991E+03
      3.159  0.5663E+02  0.6014E+02  0.5260E+03  0.4135E+03
      3.399  0.5310E+02  0.1614E+02  0.5387E+03  0.4174E+03
      3.638  0.5331E+02  0.3603E+02  0.5514E+03  0.4260E+03
      3.878  0.3994E+02  0.5939E+02  0.5610E+03  0.4402E+03
      4.117  0.3552E+02  0.3233E+02  0.5695E+03  0.4480E+03
      4.357  0.1929E+02  0.4638E-01  0.5741E+03  0.4480E+03
      4.596  0.7494E+01  0.0000E+00  0.5759E+03  0.4480E+03
      4.835  0.3304E+00  0.0000E+00  0.5760E+03  0.4480E+03
      5.075  0.0000E+00  0.0000E+00  0.5760E+03  0.4480E+03
      5.314  0.0000E+00  0.0000E+00  0.5760E+03  0.4480E+03
      5.554  0.0000E+00  0.0000E+00  0.5760E+03  0.4480E+03
      5.793  0.0000E+00  0.0000E+00  0.5760E+03  0.4480E+03
      6.033  0.0000E+00  0.0000E+00  0.5760E+03  0.4480E+03
      6.272  0.0000E+00  0.1288E-15  0.5760E+03  0.4480E+03
      6.512  0.0000E+00  0.6452E-01  0.5760E+03  0.4480E+03
      6.751  0.0000E+00  0.2412E+02  0.5760E+03  0.4538E+03
      6.991  0.6185E-06  0.7762E+02  0.5760E+03  0.4724E+03
      7.230  0.2289E+00  0.6325E+02  0.5761E+03  0.4875E+03
      7.470  0.1824E+00  0.6376E+02  0.5761E+03  0.5028E+03
      7.709  0.1390E+01  0.6311E+02  0.5764E+03  0.5179E+03
      7.949  0.3007E+01  0.9484E+02  0.5772E+03  0.5406E+03
      8.188  0.6533E+01  0.7294E+02  0.5787E+03  0.5581E+03
      8.428  0.9483E+01  0.4922E+02  0.5810E+03  0.5699E+03
      8.667  0.1868E+02  0.2515E+02  0.5855E+03  0.5759E+03
      8.906  0.2336E+02  0.7286E+01  0.5911E+03  0.5776E+03
      9.146  0.3140E+02  0.8592E+01  0.5986E+03  0.5797E+03
      9.385  0.2849E+02  0.1778E+02  0.6054E+03  0.5840E+03
      9.625  0.2981E+02  0.2679E+02  0.6125E+03  0.5904E+03
      9.864  0.2621E+02  0.3190E+02  0.6188E+03  0.5980E+03
     10.104  0.1758E+02  0.3785E+02  0.6230E+03  0.6071E+03
     10.343  0.2592E+02  0.3350E+02  0.6292E+03  0.6151E+03
     10.583  0.3626E+02  0.2858E+02  0.6379E+03  0.6219E+03
     10.822  0.4023E+02  0.3306E+02  0.6475E+03  0.6299E+03
     11.062  0.3298E+02  0.2824E+02  0.6554E+03  0.6366E+03
     11.301  0.4924E+02  0.2602E+02  0.6672E+03  0.6428E+03
     11.541  0.4116E+02  0.2914E+02  0.6771E+03  0.6498E+03
     11.780  0.4153E+02  0.5091E+02  0.6870E+03  0.6620E+03
     12.020  0.3403E+02  0.5025E+02  0.6952E+03  0.6741E+03
     12.259  0.3281E+02  0.5612E+02  0.7030E+03  0.6875E+03
     12.499  0.3250E+02  0.3156E+02  0.7108E+03  0.6950E+03
     12.738  0.3682E+02  0.3265E+02  0.7196E+03  0.7029E+03
     12.977  0.3454E+02  0.3215E+02  0.7279E+03  0.7106E+03
     13.217  0.1562E+02  0.3813E+02  0.7317E+03  0.7197E+03
     13.456  0.1077E+01  0.3370E+02  0.7319E+03  0.7278E+03
     13.696  0.3606E+00  0.1689E+02  0.7320E+03  0.7318E+03
     13.935  0.0000E+00  0.7776E+00  0.7320E+03  0.7320E+03
     14.175  0.0000E+00  0.3434E-05  0.7320E+03  0.7320E+03
     14.414  0.0000E+00  0.0000E+00  0.7320E+03  0.7320E+03
     14.654  0.0000E+00  0.0000E+00  0.7320E+03  0.7320E+03
     14.893  0.0000E+00  0.0000E+00  0.7320E+03  0.7320E+03
     15.133  0.0000E+00  0.0000E+00  0.7320E+03  0.7320E+03
     15.372  0.0000E+00  0.0000E+00  0.7320E+03  0.7320E+03
     15.612  0.0000E+00  0.0000E+00  0.7320E+03  0.7320E+03
     15.851  0.0000E+00  0.0000E+00  0.7320E+03  0.7320E+03
     16.091  0.0000E+00  0.0000E+00  0.7320E+03  0.7320E+03
     16.330  0.0000E+00  0.0000E+00  0.7320E+03  0.7320E+03
     16.570  0.0000E+00  0.0000E+00  0.7320E+03  0.7320E+03
     16.809  0.0000E+00  0.0000E+00  0.7320E+03  0.7320E+03
     17.048  0.0000E+00  0.0000E+00  0.7320E+03  0.7320E+03
