 160 160   0   0
  0.1218736E+02  0.1542482E-08  0.1121024E-08  0.1127703E-08  0.5000000E-15
  1.000000000000000E-004
  CAR 
 unknown system                          
     16.87229618    -54.74439422  301      4.96602140      1.00000000
    -54.744  0.0000E+00  0.0000E+00  0.0000E+00  0.0000E+00
    -54.506  0.0000E+00  0.0000E+00  0.0000E+00  0.0000E+00
    -54.267  0.0000E+00  0.0000E+00  0.0000E+00  0.0000E+00
    -54.028  0.0000E+00  0.0000E+00  0.0000E+00  0.0000E+00
    -53.790  0.0000E+00  0.0000E+00  0.0000E+00  0.0000E+00
    -53.551  0.0000E+00  0.0000E+00  0.0000E+00  0.0000E+00
    -53.312  0.0000E+00  0.0000E+00  0.0000E+00  0.0000E+00
    -53.073  0.0000E+00  0.0000E+00  0.0000E+00  0.0000E+00
    -52.835  0.0000E+00  0.0000E+00  0.0000E+00  0.0000E+00
    -52.596  0.0000E+00  0.0000E+00  0.0000E+00  0.0000E+00
    -52.357  0.0000E+00  0.0000E+00  0.0000E+00  0.0000E+00
    -52.118  0.0000E+00  0.0000E+00  0.0000E+00  0.0000E+00
    -51.880  0.0000E+00  0.0000E+00  0.0000E+00  0.0000E+00
    -51.641  0.7974E-03  0.0000E+00  0.1903E-03  0.0000E+00
    -51.402  0.1328E+03  0.0000E+00  0.3171E+02  0.0000E+00
    -51.164  0.1198E+01  0.0000E+00  0.3200E+02  0.0000E+00
    -50.925  0.0000E+00  0.0000E+00  0.3200E+02  0.0000E+00
    -50.686  0.0000E+00  0.0000E+00  0.3200E+02  0.0000E+00
    -50.447  0.0000E+00  0.0000E+00  0.3200E+02  0.0000E+00
    -50.209  0.8696E-01  0.0000E+00  0.3202E+02  0.0000E+00
    -49.970  0.2660E+03  0.0000E+00  0.9553E+02  0.0000E+00
    -49.731  0.1986E+01  0.0000E+00  0.9600E+02  0.0000E+00
    -49.493  0.0000E+00  0.0000E+00  0.9600E+02  0.0000E+00
    -49.254  0.0000E+00  0.0000E+00  0.9600E+02  0.0000E+00
    -49.015  0.0000E+00  0.0000E+00  0.9600E+02  0.0000E+00
    -48.776  0.0000E+00  0.0000E+00  0.9600E+02  0.0000E+00
    -48.538  0.0000E+00  0.0000E+00  0.9600E+02  0.0000E+00
    -48.299  0.0000E+00  0.0000E+00  0.9600E+02  0.0000E+00
    -48.060  0.0000E+00  0.0000E+00  0.9600E+02  0.0000E+00
    -47.821  0.0000E+00  0.0000E+00  0.9600E+02  0.0000E+00
    -47.583  0.0000E+00  0.0000E+00  0.9600E+02  0.0000E+00
    -47.344  0.0000E+00  0.0000E+00  0.9600E+02  0.0000E+00
    -47.105  0.0000E+00  0.0000E+00  0.9600E+02  0.0000E+00
    -46.867  0.0000E+00  0.2889E-01  0.9600E+02  0.6897E-02
    -46.628  0.0000E+00  0.1339E+03  0.9600E+02  0.3198E+02
    -46.389  0.0000E+00  0.6004E+02  0.9600E+02  0.4631E+02
    -46.150  0.0000E+00  0.2081E+03  0.9600E+02  0.9600E+02
    -45.912  0.0000E+00  0.0000E+00  0.9600E+02  0.9600E+02
    -45.673  0.0000E+00  0.0000E+00  0.9600E+02  0.9600E+02
    -45.434  0.0000E+00  0.0000E+00  0.9600E+02  0.9600E+02
    -45.196  0.0000E+00  0.0000E+00  0.9600E+02  0.9600E+02
    -44.957  0.0000E+00  0.0000E+00  0.9600E+02  0.9600E+02
    -44.718  0.0000E+00  0.0000E+00  0.9600E+02  0.9600E+02
    -44.479  0.0000E+00  0.0000E+00  0.9600E+02  0.9600E+02
    -44.241  0.0000E+00  0.0000E+00  0.9600E+02  0.9600E+02
    -44.002  0.0000E+00  0.0000E+00  0.9600E+02  0.9600E+02
    -43.763  0.0000E+00  0.0000E+00  0.9600E+02  0.9600E+02
    -43.524  0.0000E+00  0.0000E+00  0.9600E+02  0.9600E+02
    -43.286  0.0000E+00  0.0000E+00  0.9600E+02  0.9600E+02
    -43.047  0.0000E+00  0.0000E+00  0.9600E+02  0.9600E+02
    -42.808  0.0000E+00  0.0000E+00  0.9600E+02  0.9600E+02
    -42.570  0.0000E+00  0.0000E+00  0.9600E+02  0.9600E+02
    -42.331  0.0000E+00  0.0000E+00  0.9600E+02  0.9600E+02
    -42.092  0.0000E+00  0.0000E+00  0.9600E+02  0.9600E+02
    -41.853  0.0000E+00  0.0000E+00  0.9600E+02  0.9600E+02
    -41.615  0.0000E+00  0.0000E+00  0.9600E+02  0.9600E+02
    -41.376  0.0000E+00  0.0000E+00  0.9600E+02  0.9600E+02
    -41.137  0.0000E+00  0.0000E+00  0.9600E+02  0.9600E+02
    -40.899  0.0000E+00  0.0000E+00  0.9600E+02  0.9600E+02
    -40.660  0.0000E+00  0.0000E+00  0.9600E+02  0.9600E+02
    -40.421  0.9223E+00  0.8207E+00  0.9622E+02  0.9620E+02
    -40.182  0.2468E+03  0.2484E+03  0.1551E+03  0.1555E+03
    -39.944  0.2042E+02  0.1889E+02  0.1600E+03  0.1600E+03
    -39.705  0.0000E+00  0.0000E+00  0.1600E+03  0.1600E+03
    -39.466  0.0000E+00  0.0000E+00  0.1600E+03  0.1600E+03
    -39.227  0.0000E+00  0.0000E+00  0.1600E+03  0.1600E+03
    -38.989  0.0000E+00  0.0000E+00  0.1600E+03  0.1600E+03
    -38.750  0.0000E+00  0.0000E+00  0.1600E+03  0.1600E+03
    -38.511  0.0000E+00  0.0000E+00  0.1600E+03  0.1600E+03
    -38.273  0.0000E+00  0.0000E+00  0.1600E+03  0.1600E+03
    -38.034  0.0000E+00  0.0000E+00  0.1600E+03  0.1600E+03
    -37.795  0.0000E+00  0.0000E+00  0.1600E+03  0.1600E+03
    -37.556  0.0000E+00  0.0000E+00  0.1600E+03  0.1600E+03
    -37.318  0.0000E+00  0.0000E+00  0.1600E+03  0.1600E+03
    -37.079  0.0000E+00  0.0000E+00  0.1600E+03  0.1600E+03
    -36.840  0.0000E+00  0.0000E+00  0.1600E+03  0.1600E+03
    -36.601  0.0000E+00  0.0000E+00  0.1600E+03  0.1600E+03
    -36.363  0.0000E+00  0.0000E+00  0.1600E+03  0.1600E+03
    -36.124  0.0000E+00  0.0000E+00  0.1600E+03  0.1600E+03
    -35.885  0.0000E+00  0.0000E+00  0.1600E+03  0.1600E+03
    -35.647  0.0000E+00  0.0000E+00  0.1600E+03  0.1600E+03
    -35.408  0.0000E+00  0.0000E+00  0.1600E+03  0.1600E+03
    -35.169  0.0000E+00  0.0000E+00  0.1600E+03  0.1600E+03
    -34.930  0.0000E+00  0.0000E+00  0.1600E+03  0.1600E+03
    -34.692  0.0000E+00  0.0000E+00  0.1600E+03  0.1600E+03
    -34.453  0.0000E+00  0.0000E+00  0.1600E+03  0.1600E+03
    -34.214  0.0000E+00  0.0000E+00  0.1600E+03  0.1600E+03
    -33.976  0.0000E+00  0.0000E+00  0.1600E+03  0.1600E+03
    -33.737  0.0000E+00  0.0000E+00  0.1600E+03  0.1600E+03
    -33.498  0.0000E+00  0.0000E+00  0.1600E+03  0.1600E+03
    -33.259  0.0000E+00  0.0000E+00  0.1600E+03  0.1600E+03
    -33.021  0.0000E+00  0.0000E+00  0.1600E+03  0.1600E+03
    -32.782  0.0000E+00  0.0000E+00  0.1600E+03  0.1600E+03
    -32.543  0.0000E+00  0.0000E+00  0.1600E+03  0.1600E+03
    -32.304  0.0000E+00  0.0000E+00  0.1600E+03  0.1600E+03
    -32.066  0.0000E+00  0.0000E+00  0.1600E+03  0.1600E+03
    -31.827  0.0000E+00  0.0000E+00  0.1600E+03  0.1600E+03
    -31.588  0.0000E+00  0.0000E+00  0.1600E+03  0.1600E+03
    -31.350  0.0000E+00  0.0000E+00  0.1600E+03  0.1600E+03
    -31.111  0.0000E+00  0.0000E+00  0.1600E+03  0.1600E+03
    -30.872  0.0000E+00  0.0000E+00  0.1600E+03  0.1600E+03
    -30.633  0.0000E+00  0.0000E+00  0.1600E+03  0.1600E+03
    -30.395  0.0000E+00  0.0000E+00  0.1600E+03  0.1600E+03
    -30.156  0.0000E+00  0.0000E+00  0.1600E+03  0.1600E+03
    -29.917  0.0000E+00  0.0000E+00  0.1600E+03  0.1600E+03
    -29.679  0.0000E+00  0.0000E+00  0.1600E+03  0.1600E+03
    -29.440  0.0000E+00  0.0000E+00  0.1600E+03  0.1600E+03
    -29.201  0.0000E+00  0.0000E+00  0.1600E+03  0.1600E+03
    -28.962  0.0000E+00  0.0000E+00  0.1600E+03  0.1600E+03
    -28.724  0.0000E+00  0.0000E+00  0.1600E+03  0.1600E+03
    -28.485  0.0000E+00  0.0000E+00  0.1600E+03  0.1600E+03
    -28.246  0.0000E+00  0.0000E+00  0.1600E+03  0.1600E+03
    -28.007  0.0000E+00  0.0000E+00  0.1600E+03  0.1600E+03
    -27.769  0.0000E+00  0.0000E+00  0.1600E+03  0.1600E+03
    -27.530  0.0000E+00  0.0000E+00  0.1600E+03  0.1600E+03
    -27.291  0.0000E+00  0.0000E+00  0.1600E+03  0.1600E+03
    -27.053  0.0000E+00  0.0000E+00  0.1600E+03  0.1600E+03
    -26.814  0.0000E+00  0.0000E+00  0.1600E+03  0.1600E+03
    -26.575  0.0000E+00  0.0000E+00  0.1600E+03  0.1600E+03
    -26.336  0.0000E+00  0.0000E+00  0.1600E+03  0.1600E+03
    -26.098  0.0000E+00  0.0000E+00  0.1600E+03  0.1600E+03
    -25.859  0.0000E+00  0.0000E+00  0.1600E+03  0.1600E+03
    -25.620  0.0000E+00  0.0000E+00  0.1600E+03  0.1600E+03
    -25.382  0.0000E+00  0.0000E+00  0.1600E+03  0.1600E+03
    -25.143  0.0000E+00  0.0000E+00  0.1600E+03  0.1600E+03
    -24.904  0.0000E+00  0.0000E+00  0.1600E+03  0.1600E+03
    -24.665  0.0000E+00  0.0000E+00  0.1600E+03  0.1600E+03
    -24.427  0.0000E+00  0.0000E+00  0.1600E+03  0.1600E+03
    -24.188  0.0000E+00  0.0000E+00  0.1600E+03  0.1600E+03
    -23.949  0.0000E+00  0.0000E+00  0.1600E+03  0.1600E+03
    -23.710  0.0000E+00  0.0000E+00  0.1600E+03  0.1600E+03
    -23.472  0.0000E+00  0.0000E+00  0.1600E+03  0.1600E+03
    -23.233  0.0000E+00  0.0000E+00  0.1600E+03  0.1600E+03
    -22.994  0.0000E+00  0.0000E+00  0.1600E+03  0.1600E+03
    -22.756  0.0000E+00  0.0000E+00  0.1600E+03  0.1600E+03
    -22.517  0.0000E+00  0.0000E+00  0.1600E+03  0.1600E+03
    -22.278  0.0000E+00  0.0000E+00  0.1600E+03  0.1600E+03
    -22.039  0.0000E+00  0.0000E+00  0.1600E+03  0.1600E+03
    -21.801  0.0000E+00  0.0000E+00  0.1600E+03  0.1600E+03
    -21.562  0.0000E+00  0.0000E+00  0.1600E+03  0.1600E+03
    -21.323  0.0000E+00  0.0000E+00  0.1600E+03  0.1600E+03
    -21.085  0.0000E+00  0.0000E+00  0.1600E+03  0.1600E+03
    -20.846  0.0000E+00  0.0000E+00  0.1600E+03  0.1600E+03
    -20.607  0.0000E+00  0.0000E+00  0.1600E+03  0.1600E+03
    -20.368  0.0000E+00  0.0000E+00  0.1600E+03  0.1600E+03
    -20.130  0.0000E+00  0.0000E+00  0.1600E+03  0.1600E+03
    -19.891  0.0000E+00  0.0000E+00  0.1600E+03  0.1600E+03
    -19.652  0.0000E+00  0.0000E+00  0.1600E+03  0.1600E+03
    -19.413  0.0000E+00  0.0000E+00  0.1600E+03  0.1600E+03
    -19.175  0.0000E+00  0.0000E+00  0.1600E+03  0.1600E+03
    -18.936  0.0000E+00  0.0000E+00  0.1600E+03  0.1600E+03
    -18.697  0.0000E+00  0.0000E+00  0.1600E+03  0.1600E+03
    -18.459  0.0000E+00  0.0000E+00  0.1600E+03  0.1600E+03
    -18.220  0.0000E+00  0.0000E+00  0.1600E+03  0.1600E+03
    -17.981  0.0000E+00  0.0000E+00  0.1600E+03  0.1600E+03
    -17.742  0.0000E+00  0.0000E+00  0.1600E+03  0.1600E+03
    -17.504  0.0000E+00  0.0000E+00  0.1600E+03  0.1600E+03
    -17.265  0.0000E+00  0.0000E+00  0.1600E+03  0.1600E+03
    -17.026  0.0000E+00  0.0000E+00  0.1600E+03  0.1600E+03
    -16.788  0.0000E+00  0.0000E+00  0.1600E+03  0.1600E+03
    -16.549  0.0000E+00  0.0000E+00  0.1600E+03  0.1600E+03
    -16.310  0.0000E+00  0.0000E+00  0.1600E+03  0.1600E+03
    -16.071  0.0000E+00  0.0000E+00  0.1600E+03  0.1600E+03
    -15.833  0.0000E+00  0.0000E+00  0.1600E+03  0.1600E+03
    -15.594  0.0000E+00  0.0000E+00  0.1600E+03  0.1600E+03
    -15.355  0.0000E+00  0.0000E+00  0.1600E+03  0.1600E+03
    -15.116  0.0000E+00  0.0000E+00  0.1600E+03  0.1600E+03
    -14.878  0.0000E+00  0.0000E+00  0.1600E+03  0.1600E+03
    -14.639  0.0000E+00  0.0000E+00  0.1600E+03  0.1600E+03
    -14.400  0.0000E+00  0.0000E+00  0.1600E+03  0.1600E+03
    -14.162  0.0000E+00  0.0000E+00  0.1600E+03  0.1600E+03
    -13.923  0.0000E+00  0.0000E+00  0.1600E+03  0.1600E+03
    -13.684  0.6787E-05  0.0000E+00  0.1600E+03  0.1600E+03
    -13.445  0.3723E+02  0.4900E-11  0.1689E+03  0.1600E+03
    -13.207  0.7581E+02  0.7339E+01  0.1870E+03  0.1618E+03
    -12.968  0.2101E+02  0.1099E+03  0.1920E+03  0.1880E+03
    -12.729  0.0000E+00  0.1681E+02  0.1920E+03  0.1920E+03
    -12.491  0.0000E+00  0.0000E+00  0.1920E+03  0.1920E+03
    -12.252  0.0000E+00  0.0000E+00  0.1920E+03  0.1920E+03
    -12.013  0.0000E+00  0.0000E+00  0.1920E+03  0.1920E+03
    -11.774  0.0000E+00  0.0000E+00  0.1920E+03  0.1920E+03
    -11.536  0.0000E+00  0.0000E+00  0.1920E+03  0.1920E+03
    -11.297  0.0000E+00  0.0000E+00  0.1920E+03  0.1920E+03
    -11.058  0.0000E+00  0.0000E+00  0.1920E+03  0.1920E+03
    -10.819  0.0000E+00  0.0000E+00  0.1920E+03  0.1920E+03
    -10.581  0.0000E+00  0.0000E+00  0.1920E+03  0.1920E+03
    -10.342  0.0000E+00  0.0000E+00  0.1920E+03  0.1920E+03
    -10.103  0.0000E+00  0.0000E+00  0.1920E+03  0.1920E+03
     -9.865  0.0000E+00  0.0000E+00  0.1920E+03  0.1920E+03
     -9.626  0.0000E+00  0.0000E+00  0.1920E+03  0.1920E+03
     -9.387  0.0000E+00  0.0000E+00  0.1920E+03  0.1920E+03
     -9.148  0.0000E+00  0.0000E+00  0.1920E+03  0.1920E+03
     -8.910  0.0000E+00  0.0000E+00  0.1920E+03  0.1920E+03
     -8.671  0.0000E+00  0.0000E+00  0.1920E+03  0.1920E+03
     -8.432  0.0000E+00  0.0000E+00  0.1920E+03  0.1920E+03
     -8.194  0.0000E+00  0.0000E+00  0.1920E+03  0.1920E+03
     -7.955  0.0000E+00  0.0000E+00  0.1920E+03  0.1920E+03
     -7.716  0.9202E-02  0.8139E-15  0.1920E+03  0.1920E+03
     -7.477  0.2488E+02  0.1986E+00  0.1979E+03  0.1920E+03
     -7.239  0.6276E+02  0.4361E+02  0.2129E+03  0.2025E+03
     -7.000  0.4503E+02  0.6334E+02  0.2237E+03  0.2176E+03
     -6.761  0.1364E+01  0.2623E+02  0.2240E+03  0.2238E+03
     -6.522  0.0000E+00  0.6638E+00  0.2240E+03  0.2240E+03
     -6.284  0.0000E+00  0.0000E+00  0.2240E+03  0.2240E+03
     -6.045  0.0000E+00  0.0000E+00  0.2240E+03  0.2240E+03
     -5.806  0.0000E+00  0.0000E+00  0.2240E+03  0.2240E+03
     -5.568  0.0000E+00  0.0000E+00  0.2240E+03  0.2240E+03
     -5.329  0.0000E+00  0.0000E+00  0.2240E+03  0.2240E+03
     -5.090  0.0000E+00  0.0000E+00  0.2240E+03  0.2240E+03
     -4.851  0.0000E+00  0.0000E+00  0.2240E+03  0.2240E+03
     -4.613  0.0000E+00  0.0000E+00  0.2240E+03  0.2240E+03
     -4.374  0.0000E+00  0.0000E+00  0.2240E+03  0.2240E+03
     -4.135  0.0000E+00  0.0000E+00  0.2240E+03  0.2240E+03
     -3.897  0.0000E+00  0.0000E+00  0.2240E+03  0.2240E+03
     -3.658  0.0000E+00  0.0000E+00  0.2240E+03  0.2240E+03
     -3.419  0.0000E+00  0.0000E+00  0.2240E+03  0.2240E+03
     -3.180  0.0000E+00  0.0000E+00  0.2240E+03  0.2240E+03
     -2.942  0.0000E+00  0.0000E+00  0.2240E+03  0.2240E+03
     -2.703  0.1044E-03  0.0000E+00  0.2240E+03  0.2240E+03
     -2.464  0.1712E+02  0.0000E+00  0.2281E+03  0.2240E+03
     -2.225  0.1650E+02  0.0000E+00  0.2320E+03  0.2240E+03
     -1.987  0.2223E+02  0.0000E+00  0.2373E+03  0.2240E+03
     -1.748  0.2626E+00  0.0000E+00  0.2374E+03  0.2240E+03
     -1.509  0.2208E+02  0.0000E+00  0.2427E+03  0.2240E+03
     -1.271  0.3294E+02  0.1070E-13  0.2505E+03  0.2240E+03
     -1.032  0.7681E+02  0.1450E+00  0.2689E+03  0.2240E+03
     -0.793  0.7217E+02  0.2306E+02  0.2861E+03  0.2295E+03
     -0.554  0.7070E+02  0.2683E+02  0.3030E+03  0.2359E+03
     -0.316  0.9628E+02  0.1589E+02  0.3260E+03  0.2397E+03
     -0.077  0.1020E+03  0.1385E+02  0.3503E+03  0.2430E+03
      0.162  0.5382E+02  0.2734E+02  0.3632E+03  0.2496E+03
      0.400  0.4759E+02  0.5431E+02  0.3745E+03  0.2625E+03
      0.639  0.5233E+02  0.7725E+02  0.3870E+03  0.2810E+03
      0.878  0.4316E+02  0.7193E+02  0.3973E+03  0.2982E+03
      1.117  0.6443E+02  0.7660E+02  0.4127E+03  0.3164E+03
      1.355  0.8436E+02  0.2718E+02  0.4328E+03  0.3229E+03
      1.594  0.7842E+02  0.3899E+02  0.4516E+03  0.3322E+03
      1.833  0.4027E+02  0.5010E+02  0.4612E+03  0.3442E+03
      2.072  0.4043E+02  0.4200E+02  0.4708E+03  0.3542E+03
      2.310  0.4856E+02  0.2924E+02  0.4824E+03  0.3612E+03
      2.549  0.4438E+02  0.5127E+02  0.4930E+03  0.3734E+03
      2.788  0.5563E+02  0.6899E+02  0.5063E+03  0.3899E+03
      3.026  0.5567E+02  0.8125E+02  0.5196E+03  0.4093E+03
      3.265  0.5434E+02  0.2712E+02  0.5326E+03  0.4158E+03
      3.504  0.4508E+02  0.2315E+02  0.5433E+03  0.4213E+03
      3.743  0.5690E+02  0.4884E+02  0.5569E+03  0.4330E+03
      3.981  0.3659E+02  0.5433E+02  0.5656E+03  0.4459E+03
      4.220  0.2594E+02  0.8660E+01  0.5718E+03  0.4480E+03
      4.459  0.1570E+02  0.1594E-03  0.5756E+03  0.4480E+03
      4.697  0.1803E+01  0.0000E+00  0.5760E+03  0.4480E+03
      4.936  0.3072E-04  0.0000E+00  0.5760E+03  0.4480E+03
      5.175  0.0000E+00  0.0000E+00  0.5760E+03  0.4480E+03
      5.414  0.0000E+00  0.0000E+00  0.5760E+03  0.4480E+03
      5.652  0.0000E+00  0.0000E+00  0.5760E+03  0.4480E+03
      5.891  0.0000E+00  0.0000E+00  0.5760E+03  0.4480E+03
      6.130  0.0000E+00  0.0000E+00  0.5760E+03  0.4480E+03
      6.369  0.0000E+00  0.6762E-10  0.5760E+03  0.4480E+03
      6.607  0.0000E+00  0.2165E+01  0.5760E+03  0.4485E+03
      6.846  0.8294E-14  0.5667E+02  0.5760E+03  0.4620E+03
      7.085  0.5390E-01  0.7676E+02  0.5760E+03  0.4804E+03
      7.323  0.1789E+00  0.5696E+02  0.5761E+03  0.4940E+03
      7.562  0.1003E+01  0.6966E+02  0.5763E+03  0.5106E+03
      7.801  0.1550E+01  0.6573E+02  0.5767E+03  0.5263E+03
      8.040  0.3345E+01  0.9638E+02  0.5775E+03  0.5493E+03
      8.278  0.8938E+01  0.6851E+02  0.5796E+03  0.5657E+03
      8.517  0.1116E+02  0.3430E+02  0.5823E+03  0.5738E+03
      8.756  0.2267E+02  0.1141E+02  0.5877E+03  0.5766E+03
      8.994  0.2765E+02  0.8452E+01  0.5943E+03  0.5786E+03
      9.233  0.2829E+02  0.1173E+02  0.6010E+03  0.5814E+03
      9.472  0.3275E+02  0.2163E+02  0.6088E+03  0.5865E+03
      9.711  0.2891E+02  0.2577E+02  0.6157E+03  0.5927E+03
      9.949  0.2052E+02  0.4193E+02  0.6206E+03  0.6027E+03
     10.188  0.2189E+02  0.3234E+02  0.6259E+03  0.6104E+03
     10.427  0.2625E+02  0.3431E+02  0.6321E+03  0.6186E+03
     10.666  0.4170E+02  0.3189E+02  0.6421E+03  0.6262E+03
     10.904  0.3903E+02  0.2432E+02  0.6514E+03  0.6320E+03
     11.143  0.4518E+02  0.3385E+02  0.6622E+03  0.6401E+03
     11.382  0.3995E+02  0.2221E+02  0.6717E+03  0.6454E+03
     11.620  0.3902E+02  0.3755E+02  0.6810E+03  0.6544E+03
     11.859  0.4671E+02  0.5252E+02  0.6922E+03  0.6669E+03
     12.098  0.3000E+02  0.5895E+02  0.6994E+03  0.6810E+03
     12.337  0.2901E+02  0.4381E+02  0.7063E+03  0.6915E+03
     12.575  0.3350E+02  0.3089E+02  0.7143E+03  0.6988E+03
     12.814  0.4137E+02  0.3295E+02  0.7242E+03  0.7067E+03
     13.053  0.1864E+02  0.3564E+02  0.7286E+03  0.7152E+03
     13.291  0.1399E+02  0.3526E+02  0.7319E+03  0.7236E+03
     13.530  0.2315E+00  0.2869E+02  0.7320E+03  0.7305E+03
     13.769  0.0000E+00  0.6426E+01  0.7320E+03  0.7320E+03
     14.008  0.0000E+00  0.4033E-05  0.7320E+03  0.7320E+03
     14.246  0.0000E+00  0.0000E+00  0.7320E+03  0.7320E+03
     14.485  0.0000E+00  0.0000E+00  0.7320E+03  0.7320E+03
     14.724  0.0000E+00  0.0000E+00  0.7320E+03  0.7320E+03
     14.963  0.0000E+00  0.0000E+00  0.7320E+03  0.7320E+03
     15.201  0.0000E+00  0.0000E+00  0.7320E+03  0.7320E+03
     15.440  0.0000E+00  0.0000E+00  0.7320E+03  0.7320E+03
     15.679  0.0000E+00  0.0000E+00  0.7320E+03  0.7320E+03
     15.917  0.0000E+00  0.0000E+00  0.7320E+03  0.7320E+03
     16.156  0.0000E+00  0.0000E+00  0.7320E+03  0.7320E+03
     16.395  0.0000E+00  0.0000E+00  0.7320E+03  0.7320E+03
     16.634  0.0000E+00  0.0000E+00  0.7320E+03  0.7320E+03
     16.872  0.0000E+00  0.0000E+00  0.7320E+03  0.7320E+03
