 vasp.5.4.4.18Apr17-6-g9f103f2a35 (build Oct 25 2017 14:42:18) complex          
  
 executed on             LinuxIFC date 2021.04.18  00:22:48
 running on   48 total cores
 distrk:  each k-point on   24 cores,    2 groups
 distr:  one band on NCORES_PER_BAND=   6 cores,    4 groups


--------------------------------------------------------------------------------------------------------


 INCAR:
 POTCAR:    PAW_PBE Li_sv 10Sep2004               
 POTCAR:    PAW_PBE Fe_pv 02Aug2007               
 POTCAR:    PAW_PBE S 06Sep2000                   
 POTCAR:    PAW_PBE O 08Apr2002                   

 ----------------------------------------------------------------------------- 
|                                                                             |
|           W    W    AA    RRRRR   N    N  II  N    N   GGGG   !!!           |
|           W    W   A  A   R    R  NN   N  II  NN   N  G    G  !!!           |
|           W    W  A    A  R    R  N N  N  II  N N  N  G       !!!           |
|           W WW W  AAAAAA  RRRRR   N  N N  II  N  N N  G  GGG   !            |
|           WW  WW  A    A  R   R   N   NN  II  N   NN  G    G                |
|           W    W  A    A  R    R  N    N  II  N    N   GGGG   !!!           |
|                                                                             |
|      You have enabled k-point parallelism (KPAR>1).                         |
|      This developmental code was originally  written by Paul Kent at ORNL,  |
|      and carefully double checked in Vienna.                                |
|      GW as well as linear response parallelism added by Martijn Marsman     |
|      and Georg Kresse.                                                      |
|      Carefully verify results versus KPAR=1.                                |
|      Report problems to Paul Kent and Vienna.                               |
|                                                                             |
 ----------------------------------------------------------------------------- 

 POTCAR:    PAW_PBE Li_sv 10Sep2004               
  local pseudopotential read in
  atomic valenz-charges read in
  non local Contribution for L=           0  read in
    real space projection operators read in
  non local Contribution for L=           0  read in
    real space projection operators read in
  non local Contribution for L=           1  read in
    real space projection operators read in
    PAW grid and wavefunctions read in
 
   number of l-projection  operators is LMAX  =           3
   number of lm-projection operators is LMMAX =           5
 
 POTCAR:    PAW_PBE Fe_pv 02Aug2007               
  local pseudopotential read in
  partial core-charges read in
  partial kinetic energy density read in
  atomic valenz-charges read in
  non local Contribution for L=           1  read in
    real space projection operators read in
  non local Contribution for L=           1  read in
    real space projection operators read in
  non local Contribution for L=           2  read in
    real space projection operators read in
  non local Contribution for L=           2  read in
    real space projection operators read in
  non local Contribution for L=           0  read in
    real space projection operators read in
  non local Contribution for L=           0  read in
    real space projection operators read in
    PAW grid and wavefunctions read in
 
   number of l-projection  operators is LMAX  =           6
   number of lm-projection operators is LMMAX =          18
 
 POTCAR:    PAW_PBE S 06Sep2000                   
  local pseudopotential read in
  partial core-charges read in
  partial kinetic energy density read in
  atomic valenz-charges read in
  non local Contribution for L=           0  read in
    real space projection operators read in
  non local Contribution for L=           0  read in
    real space projection operators read in
  non local Contribution for L=           1  read in
    real space projection operators read in
  non local Contribution for L=           1  read in
    real space projection operators read in
    PAW grid and wavefunctions read in
 
   number of l-projection  operators is LMAX  =           4
   number of lm-projection operators is LMMAX =           8
 
 POTCAR:    PAW_PBE O 08Apr2002                   
  local pseudopotential read in
  partial core-charges read in
  partial kinetic energy density read in
  kinetic energy density of atom read in
  atomic valenz-charges read in
  non local Contribution for L=           0  read in
    real space projection operators read in
  non local Contribution for L=           0  read in
    real space projection operators read in
  non local Contribution for L=           1  read in
    real space projection operators read in
  non local Contribution for L=           1  read in
    real space projection operators read in
    PAW grid and wavefunctions read in
 
   number of l-projection  operators is LMAX  =           4
   number of lm-projection operators is LMMAX =           8
 

 ----------------------------------------------------------------------------- 
|                                                                             |
|  ADVICE TO THIS USER RUNNING 'VASP/VAMP'   (HEAR YOUR MASTER'S VOICE ...):  |
|                                                                             |
|      You have a (more or less) 'large supercell' and for larger cells       |
|      it might be more efficient to use real space projection opertators     |
|      So try LREAL= Auto  in the INCAR   file.                               |
|      Mind:          For very  accurate calculation you might also keep the  |
|      reciprocal projection scheme          (i.e. LREAL=.FALSE.)             |
|                                                                             |
 ----------------------------------------------------------------------------- 

  PAW_PBE Li_sv 10Sep2004               :
 energy of atom  1       EATOM= -202.7858
 kinetic energy error for atom=    0.0072 (will be added to EATOM!!)
  PAW_PBE Fe_pv 02Aug2007               :
 energy of atom  2       EATOM=-2457.4239
 kinetic energy error for atom=    0.0041 (will be added to EATOM!!)
  PAW_PBE S 06Sep2000                   :
 energy of atom  3       EATOM= -276.8230
 kinetic energy error for atom=    0.0008 (will be added to EATOM!!)
  PAW_PBE O 08Apr2002                   :
 energy of atom  4       EATOM= -432.3788
 kinetic energy error for atom=    0.0129 (will be added to EATOM!!)
 
 
 POSCAR: # Compound: Li48Fe36S36O24. Old comment:
  positions in direct lattice
  No initial velocities read in
 exchange correlation table for  LEXCH =        8
   RHO(1)=    0.500       N(1)  =     2000
   RHO(2)=  100.500       N(2)  =     4000
 


--------------------------------------------------------------------------------------------------------


 ion  position               nearest neighbor table
   1  0.475  0.001  0.005- 134 1.96 131 2.04  95 2.54  91 2.55
   2  0.975  0.001  0.004- 133 1.97 132 2.03  92 2.54  96 2.54
   3  0.475  0.334  0.004- 136 1.97 127 2.03  93 2.54  91 2.54
   4  0.975  0.334  0.004- 135 1.97 128 2.03  94 2.54  92 2.54
   5  0.475  0.667  0.004- 138 1.97 129 2.03  95 2.54  93 2.54
   6  0.975  0.667  0.004- 137 1.97 130 2.03  96 2.54  94 2.54
   7  0.275  0.333  0.996- 121 1.97 141 2.03  91 2.54  93 2.54
   8  0.775  0.333  0.996- 122 1.97 142 2.03  92 2.54  94 2.54
   9  0.275  0.666  0.996- 123 1.97 143 2.03  93 2.54  95 2.54
  10  0.775  0.666  0.996- 124 1.97 144 2.03  94 2.54  96 2.54
  11  0.275  0.999  0.996- 125 1.97 139 2.03  95 2.54  91 2.54
  12  0.775  0.999  0.996- 126 1.97 140 2.03  96 2.54  92 2.54
  13  0.178  0.268  0.608- 121 2.04  97 2.47 111 2.63 109 2.63
  14  0.678  0.268  0.608- 122 2.04  98 2.47 112 2.63 110 2.63
  15  0.178  0.601  0.608- 123 2.04  99 2.47 113 2.63 111 2.63
  16  0.678  0.601  0.608- 124 2.04 100 2.47 114 2.63 112 2.63
  17  0.178  0.935  0.608- 125 2.04 101 2.47 109 2.63 113 2.63
  18  0.678  0.935  0.608- 126 2.04 102 2.47 110 2.63 114 2.63
  19  0.072  0.065  0.392- 133 2.04 109 2.47 101 2.63  97 2.63
  20  0.572  0.065  0.392- 134 2.04 110 2.47 102 2.63  98 2.63
  21  0.072  0.399  0.392- 135 2.04 111 2.47  97 2.63  99 2.63
  22  0.572  0.399  0.392- 136 2.04 112 2.47  98 2.63 100 2.63
  23  0.072  0.732  0.392- 137 2.04 113 2.47  99 2.63 101 2.63
  24  0.572  0.732  0.392- 138 2.04 114 2.47 100 2.63 102 2.63
  25  0.107  0.308  0.846- 121 1.95 128 1.99  85 2.56  87 2.56
  26  0.607  0.308  0.846- 122 1.95 127 1.99  86 2.56  88 2.56
  27  0.107  0.641  0.846- 123 1.95 130 1.99  87 2.56  89 2.56
  28  0.607  0.641  0.846- 124 1.95 129 1.99  88 2.56  90 2.56
  29  0.107  0.974  0.846- 125 1.95 132 1.99  89 2.56  85 2.56
  30  0.607  0.974  0.846- 126 1.95 131 1.99  90 2.56  86 2.56
  31  0.345  0.295  0.772- 121 1.94 127 2.00 117 2.48 115 2.48
  32  0.845  0.295  0.772- 122 1.94 128 2.00 118 2.48 116 2.48
  33  0.345  0.629  0.772- 123 1.94 129 2.00 119 2.48 117 2.48
  34  0.845  0.629  0.772- 124 1.94 130 2.00 120 2.48 118 2.48
  35  0.345  0.962  0.772- 125 1.94 131 2.00 115 2.48 119 2.48
  36  0.845  0.962  0.772- 126 1.94 132 2.00 116 2.48 120 2.48
  37  0.143  0.026  0.154- 133 1.95 139 1.99  85 2.56  89 2.56
  38  0.643  0.026  0.154- 134 1.95 140 1.99  86 2.56  90 2.56
  39  0.143  0.359  0.154- 135 1.95 141 1.99  87 2.56  85 2.56
  40  0.643  0.359  0.154- 136 1.95 142 1.99  88 2.56  86 2.56
  41  0.143  0.692  0.154- 137 1.95 143 1.99  89 2.56  87 2.56
  42  0.643  0.692  0.154- 138 1.95 144 1.99  90 2.56  88 2.56
  43  0.405  0.038  0.228- 134 1.94 139 2.00 107 2.48 103 2.48
  44  0.905  0.038  0.228- 133 1.94 140 2.00 108 2.48 104 2.48
  45  0.405  0.371  0.228- 136 1.94 141 2.00 103 2.48 105 2.48
  46  0.905  0.371  0.228- 135 1.94 142 2.00 104 2.48 106 2.48
  47  0.405  0.705  0.228- 138 1.94 143 2.00 105 2.48 107 2.48
  48  0.905  0.705  0.228- 137 1.94 144 2.00 106 2.48 108 2.48
  49  0.465  0.267  0.601- 127 2.12 103 2.40 110 2.61 112 2.61
  50  0.965  0.267  0.601- 128 2.12 104 2.40 109 2.61 111 2.61
  51  0.465  0.600  0.601- 129 2.12 105 2.40 112 2.61 114 2.61
  52  0.965  0.600  0.601- 130 2.12 106 2.40 111 2.61 113 2.61
  53  0.465  0.934  0.601- 131 2.12 107 2.40 114 2.61 110 2.61
  54  0.965  0.934  0.601- 132 2.12 108 2.40 113 2.61 109 2.61
  55  0.285  0.066  0.399- 139 2.12 115 2.40  97 2.61 101 2.61
  56  0.785  0.066  0.399- 140 2.12 116 2.40  98 2.61 102 2.61
  57  0.285  0.400  0.399- 141 2.12 117 2.40  99 2.61  97 2.61
  58  0.785  0.400  0.399- 142 2.12 118 2.40 100 2.61  98 2.61
  59  0.285  0.733  0.399- 143 2.12 119 2.40 101 2.61  99 2.61
  60  0.785  0.733  0.399- 144 2.12 120 2.40 102 2.61 100 2.61
  61  0.224  0.134  0.801- 125 2.02 121 2.02 109 2.64 115 2.66  85 2.79
  62  0.724  0.134  0.801- 126 2.02 122 2.02 110 2.64 116 2.66  86 2.79
  63  0.224  0.467  0.801- 121 2.02 123 2.02 111 2.64 117 2.66  87 2.79
  64  0.724  0.467  0.801- 122 2.02 124 2.02 112 2.64 118 2.66  88 2.79
  65  0.224  0.800  0.801- 123 2.02 125 2.02 113 2.64 119 2.66  89 2.79
  66  0.724  0.800  0.801- 124 2.02 126 2.02 114 2.64 120 2.66  90 2.79
  67  0.478  0.136  0.815- 127 2.03 131 2.03 110 2.62 115 2.63  86 2.68  91 2.71
  68  0.978  0.136  0.815- 128 2.03 132 2.03 109 2.62 116 2.63  85 2.68  92 2.71
  69  0.478  0.469  0.815- 127 2.03 129 2.03 112 2.62 117 2.63  88 2.68  93 2.71
  70  0.978  0.469  0.815- 128 2.03 130 2.03 111 2.62 118 2.63  87 2.68  94 2.71
  71  0.478  0.802  0.815- 131 2.03 129 2.03 114 2.62 119 2.63  90 2.68  95 2.71
  72  0.978  0.802  0.815- 132 2.03 130 2.03 113 2.62 120 2.63  89 2.68  96 2.71
  73  0.026  0.200  0.199- 135 2.02 133 2.02  97 2.64 104 2.66  85 2.79
  74  0.526  0.200  0.199- 136 2.02 134 2.02  98 2.64 103 2.66  86 2.79
  75  0.026  0.533  0.199- 137 2.02 135 2.02  99 2.64 106 2.66  87 2.79
  76  0.526  0.533  0.199- 138 2.02 136 2.02 100 2.64 105 2.66  88 2.79
  77  0.026  0.866  0.199- 133 2.02 137 2.02 101 2.64 108 2.66  89 2.79
  78  0.526  0.866  0.199- 134 2.02 138 2.02 102 2.64 107 2.66  90 2.79
  79  0.272  0.198  0.185- 139 2.03 141 2.03  97 2.62 103 2.63  85 2.68  91 2.71
  80  0.772  0.198  0.185- 140 2.03 142 2.03  98 2.62 104 2.63  86 2.68  92 2.71
  81  0.272  0.531  0.185- 143 2.03 141 2.03  99 2.62 105 2.63  87 2.68  93 2.71
  82  0.772  0.531  0.185- 144 2.03 142 2.03 100 2.62 106 2.63  88 2.68  94 2.71
  83  0.272  0.864  0.185- 143 2.03 139 2.03 101 2.62 107 2.63  89 2.68  95 2.71
  84  0.772  0.864  0.185- 144 2.03 140 2.03 102 2.62 108 2.63  90 2.68  96 2.71
  85  0.125  0.167  0.000-  25 2.56  37 2.56  39 2.56  29 2.56  68 2.68  79 2.68  73 2.79  61 2.79

  86  0.625  0.167  0.000-  26 2.56  38 2.56  40 2.56  30 2.56  67 2.68  80 2.68  74 2.79  62 2.79

  87  0.125  0.500  0.000-  27 2.56  39 2.56  25 2.56  41 2.56  70 2.68  81 2.68  75 2.79  63 2.79

  88  0.625  0.500  0.000-  28 2.56  40 2.56  26 2.56  42 2.56  69 2.68  82 2.68  76 2.79  64 2.79

  89  0.125  0.833  0.000-  41 2.56  29 2.56  27 2.56  37 2.56  83 2.68  72 2.68  77 2.79  65 2.79

  90  0.625  0.833  0.000-  42 2.56  30 2.56  28 2.56  38 2.56  84 2.68  71 2.68  78 2.79  66 2.79

  91  0.375  0.167  0.000-   7 2.54   3 2.54  11 2.54   1 2.55  67 2.71  79 2.71
  92  0.875  0.167  0.000-   8 2.54   2 2.54   4 2.54  12 2.54  68 2.71  80 2.71
  93  0.375  0.500  0.000-   3 2.54   9 2.54   7 2.54   5 2.54  69 2.71  81 2.71
  94  0.875  0.500  0.000-   4 2.54  10 2.54   8 2.54   6 2.54  70 2.71  82 2.71
  95  0.375  0.833  0.000-   1 2.54   5 2.54  11 2.54   9 2.54  71 2.71  83 2.71
  96  0.875  0.833  0.000-   6 2.54  12 2.54  10 2.54   2 2.54  72 2.71  84 2.71
  97  0.176  0.228  0.369-  13 2.47  55 2.61  57 2.61  79 2.62  21 2.63  19 2.63  73 2.64
  98  0.676  0.228  0.369-  14 2.47  56 2.61  58 2.61  80 2.62  22 2.63  20 2.63  74 2.64
  99  0.176  0.561  0.369-  15 2.47  57 2.61  59 2.61  81 2.62  23 2.63  21 2.63  75 2.64
 100  0.676  0.561  0.369-  16 2.47  58 2.61  60 2.61  82 2.62  24 2.63  22 2.63  76 2.64
 101  0.176  0.895  0.369-  17 2.47  59 2.61  55 2.61  83 2.62  19 2.63  23 2.63  77 2.64
 102  0.676  0.895  0.369-  18 2.47  60 2.61  56 2.61  84 2.62  20 2.63  24 2.63  78 2.64
 103  0.415  0.228  0.368-  49 2.40  45 2.48  43 2.48  79 2.63  74 2.66
 104  0.915  0.228  0.368-  50 2.40  46 2.48  44 2.48  80 2.63  73 2.66
 105  0.415  0.561  0.368-  51 2.40  47 2.48  45 2.48  81 2.63  76 2.66
 106  0.915  0.561  0.368-  52 2.40  48 2.48  46 2.48  82 2.63  75 2.66
 107  0.415  0.895  0.368-  53 2.40  43 2.48  47 2.48  83 2.63  78 2.66
 108  0.915  0.895  0.368-  54 2.40  44 2.48  48 2.48  84 2.63  77 2.66
 109  0.074  0.105  0.631-  19 2.47  50 2.61  54 2.61  68 2.62  17 2.63  13 2.63  61 2.64
 110  0.574  0.105  0.631-  20 2.47  49 2.61  53 2.61  67 2.62  18 2.63  14 2.63  62 2.64
 111  0.074  0.439  0.631-  21 2.47  52 2.61  50 2.61  70 2.62  13 2.63  15 2.63  63 2.64
 112  0.574  0.439  0.631-  22 2.47  51 2.61  49 2.61  69 2.62  14 2.63  16 2.63  64 2.64
 113  0.074  0.772  0.631-  23 2.47  54 2.61  52 2.61  72 2.62  15 2.63  17 2.63  65 2.64
 114  0.574  0.772  0.631-  24 2.47  53 2.61  51 2.61  71 2.62  16 2.63  18 2.63  66 2.64
 115  0.335  0.105  0.632-  55 2.40  35 2.48  31 2.48  67 2.63  61 2.66
 116  0.835  0.105  0.632-  56 2.40  36 2.48  32 2.48  68 2.63  62 2.66
 117  0.335  0.439  0.632-  57 2.40  31 2.48  33 2.48  69 2.63  63 2.66
 118  0.835  0.439  0.632-  58 2.40  32 2.48  34 2.48  70 2.63  64 2.66
 119  0.335  0.772  0.632-  59 2.40  33 2.48  35 2.48  71 2.63  65 2.66
 120  0.835  0.772  0.632-  60 2.40  34 2.48  36 2.48  72 2.63  66 2.66
 121  0.225  0.301  0.806-  31 1.94  25 1.95   7 1.97  63 2.02  61 2.02  13 2.04
 122  0.725  0.301  0.806-  32 1.94  26 1.95   8 1.97  64 2.02  62 2.02  14 2.04
 123  0.225  0.634  0.806-  33 1.94  27 1.95   9 1.97  65 2.02  63 2.02  15 2.04
 124  0.725  0.634  0.806-  34 1.94  28 1.95  10 1.97  66 2.02  64 2.02  16 2.04
 125  0.225  0.968  0.806-  35 1.94  29 1.95  11 1.97  61 2.02  65 2.02  17 2.04
 126  0.725  0.968  0.806-  36 1.94  30 1.95  12 1.97  62 2.02  66 2.02  18 2.04
 127  0.476  0.301  0.809-  26 1.99  31 2.00  69 2.03  67 2.03   3 2.03  49 2.12
 128  0.976  0.301  0.809-  25 1.99  32 2.00  70 2.03  68 2.03   4 2.03  50 2.12
 129  0.476  0.635  0.809-  28 1.99  33 2.00  69 2.03  71 2.03   5 2.03  51 2.12
 130  0.976  0.635  0.809-  27 1.99  34 2.00  70 2.03  72 2.03   6 2.03  52 2.12
 131  0.476  0.968  0.809-  30 1.99  35 2.00  71 2.03  67 2.03   1 2.04  53 2.12
 132  0.976  0.968  0.809-  29 1.99  36 2.00  72 2.03  68 2.03   2 2.03  54 2.12
 133  0.025  0.032  0.194-  44 1.94  37 1.95   2 1.97  77 2.02  73 2.02  19 2.04
 134  0.525  0.032  0.194-  43 1.94  38 1.95   1 1.96  78 2.02  74 2.02  20 2.04
 135  0.025  0.366  0.194-  46 1.94  39 1.95   4 1.97  73 2.02  75 2.02  21 2.04
 136  0.525  0.366  0.194-  45 1.94  40 1.95   3 1.97  74 2.02  76 2.02  22 2.04
 137  0.025  0.699  0.194-  48 1.94  41 1.95   6 1.97  75 2.02  77 2.02  23 2.04
 138  0.525  0.699  0.194-  47 1.94  42 1.95   5 1.97  76 2.02  78 2.02  24 2.04
 139  0.274  0.032  0.191-  37 1.99  43 2.00  79 2.03  83 2.03  11 2.03  55 2.12
 140  0.774  0.032  0.191-  38 1.99  44 2.00  80 2.03  84 2.03  12 2.03  56 2.12
 141  0.274  0.365  0.191-  39 1.99  45 2.00  81 2.03  79 2.03   7 2.03  57 2.12
 142  0.774  0.365  0.191-  40 1.99  46 2.00  82 2.03  80 2.03   8 2.03  58 2.12
 143  0.274  0.699  0.191-  41 1.99  47 2.00  81 2.03  83 2.03   9 2.03  59 2.12
 144  0.774  0.699  0.191-  42 1.99  48 2.00  82 2.03  84 2.03  10 2.03  60 2.12
 

IMPORTANT INFORMATION: All symmetrisations will be switched off!
NOSYMM: (Re-)initialisation of all symmetry stuff for point group C_1.

 
 
 KPOINTS: # No comment                            

Automatic generation of k-mesh.
Space group operators:
 irot       det(A)        alpha          n_x          n_y          n_z        tau_x        tau_y        tau_z
    1     1.000000     0.000000     1.000000     0.000000     0.000000     0.000000     0.000000     0.000000
 
 Subroutine IBZKPT returns following result:
 ===========================================
 
 Found     10 irreducible k-points:
 
 Following reciprocal coordinates:
            Coordinates               Weight
  0.000000  0.000000  0.000000      1.000000
  0.500000 -0.000000  0.000000      1.000000
 -0.000000  0.333333 -0.000000      2.000000
  0.500000  0.333333 -0.000000      2.000000
 -0.000000  0.000000  0.333333      2.000000
  0.500000  0.000000  0.333333      2.000000
 -0.000000  0.333333  0.333333      2.000000
  0.500000  0.333333  0.333333      2.000000
 -0.000000 -0.333333  0.333333      2.000000
  0.500000 -0.333333  0.333333      2.000000
 
 Following cartesian coordinates:
            Coordinates               Weight
  0.000000  0.000000  0.000000      1.000000
  0.032907  0.001163  0.000205      1.000000
  0.000045  0.027984  0.000297      2.000000
  0.032951  0.029147  0.000502      2.000000
  0.005801  0.006063  0.031710      2.000000
  0.038707  0.007225  0.031916      2.000000
  0.005845  0.034047  0.032007      2.000000
  0.038752  0.035209  0.032212      2.000000
  0.005756 -0.021921  0.031414      2.000000
  0.038663 -0.020758  0.031619      2.000000
 


--------------------------------------------------------------------------------------------------------




 Dimension of arrays:
   k-points           NKPTS =     10   k-points in BZ     NKDIM =     10   number of bands    NBANDS=    728
   number of dos      NEDOS =    301   number of ions     NIONS =    144
   non local maximal  LDIM  =      6   non local SUM 2l+1 LMDIM =     18
   total plane-waves  NPLWV = ******
   max r-space proj   IRMAX =      1   max aug-charges    IRDMAX= 179883
   dimension x,y,z NGX =   140 NGY =  108 NGZ =   90
   dimension x,y,z NGXF=   280 NGYF=  216 NGZF=  180
   support grid    NGXF=   560 NGYF=  432 NGZF=  360
   ions per type =              48  36  36  24
   NGX,Y,Z   is equivalent  to a cutoff of  15.05, 14.78, 14.19 a.u.
   NGXF,Y,Z  is equivalent  to a cutoff of  30.10, 29.57, 28.38 a.u.

 SYSTEM =  unknown system                          
 POSCAR =  # Compound: Li48Fe36S36O24. Old comment:

 Startparameter for this run:
   NWRITE =      1    write-flag & timer
   PREC   = accura    normal or accurate (medium, high low for compatibility)
   ISTART =      0    job   : 0-new  1-cont  2-samecut
   ICHARG =      1    charge: 1-file 2-atom 10-const
   ISPIN  =      2    spin polarized calculation?
   LNONCOLLINEAR =      F non collinear calculations
   LSORBIT =      F    spin-orbit coupling
   INIWAV =      1    electr: 0-lowe 1-rand  2-diag
   LASPH  =      T    aspherical Exc in radial PAW
   METAGGA=      F    non-selfconsistent MetaGGA calc.

 Electronic Relaxation 1
   ENCUT  =  650.0 eV  47.77 Ry    6.91 a.u.  32.15 25.25 21.92*2*pi/ulx,y,z
   ENINI  =  650.0     initial cutoff
   ENAUG  =  628.9 eV  augmentation charge cutoff
   NELM   =    200;   NELMIN=  8; NELMDL=  0     # of ELM steps 
   EDIFF  = 0.1E-05   stopping-criterion for ELM
   LREAL  =      F    real-space projection
   NLSPLINE    = F    spline interpolate recip. space projectors
   LCOMPAT=      F    compatible to vasp.4.4
   GGA_COMPAT  = T    GGA compatible to vasp.4.4-vasp.4.6
   LMAXPAW     = -100 max onsite density
   LMAXMIX     =    4 max onsite mixed and CHGCAR
   VOSKOWN=      0    Vosko Wilk Nusair interpolation
   ROPT   =    0.00000   0.00000   0.00000   0.00000
 Ionic relaxation
   EDIFFG = 0.1E-04   stopping-criterion for IOM
   NSW    =      0    number of steps for IOM
   NBLOCK =      1;   KBLOCK =      1    inner block; outer block 
   IBRION =     -1    ionic relax: 0-MD 1-quasi-New 2-CG
   NFREE  =      0    steps in history (QN), initial steepest desc. (CG)
   ISIF   =      2    stress and relaxation
   IWAVPR =     10    prediction:  0-non 1-charg 2-wave 3-comb
   ISYM   =      0    0-nonsym 1-usesym 2-fastsym
   LCORR  =      T    Harris-Foulkes like correction to forces

   POTIM  = 0.5000    time-step for ionic-motion
   TEIN   =    0.0    initial temperature
   TEBEG  =    0.0;   TEEND  =   0.0 temperature during run
   SMASS  =  -3.00    Nose mass-parameter (am)
   estimated Nose-frequenzy (Omega)   =  0.10E-29 period in steps =****** mass=  -0.547E-26a.u.
   SCALEE = 1.0000    scale energy and forces
   NPACO  =    256;   APACO  = 16.0  distance and # of slots for P.C.
   PSTRESS=    0.0 pullay stress

  Mass of Ions in am
   POMASS =   7.01 55.85 32.07 16.00
  Ionic Valenz
   ZVAL   =   3.00 14.00  6.00  6.00
  Atomic Wigner-Seitz radii
   RWIGS  =  -1.00 -1.00 -1.00 -1.00
  virtual crystal weights 
   VCA    =   1.00  1.00  1.00  1.00
   NELECT =    1008.0000    total number of electrons
   NUPDOWN=      -1.0000    fix difference up-down

 DOS related values:
   EMIN   =  10.00;   EMAX   =-10.00  energy-range for DOS
   EFERMI =   0.00
   ISMEAR =     0;   SIGMA  =   0.05  broadening in eV -4-tet -1-fermi 0-gaus

 Electronic relaxation 2 (details)
   IALGO  =     38    algorithm
   LDIAG  =      T    sub-space diagonalisation (order eigenvalues)
   LSUBROT=      F    optimize rotation matrix (better conditioning)
   TURBO    =      0    0=normal 1=particle mesh
   IRESTART =      0    0=no restart 2=restart with 2 vectors
   NREBOOT  =      0    no. of reboots
   NMIN     =      0    reboot dimension
   EREF     =   0.00    reference energy to select bands
   IMIX   =      4    mixing-type and parameters
     AMIX     =   0.40;   BMIX     =  1.00
     AMIX_MAG =   1.60;   BMIX_MAG =  1.00
     AMIN     =   0.10
     WC   =   100.;   INIMIX=   1;  MIXPRE=   1;  MAXMIX= -45

 Intra band minimization:
   WEIMIN = 0.0000     energy-eigenvalue tresh-hold
   EBREAK =  0.34E-09  absolut break condition
   DEPER  =   0.30     relativ break condition  

   TIME   =   0.40     timestep for ELM

  volume/ion in A,a.u.               =      13.25        89.44
  Fermi-wavevector in a.u.,A,eV,Ry     =   1.323307  2.500688 23.825724  1.751141
  Thomas-Fermi vector in A             =   2.452925
 
 Write flags
   LWAVE        =      F    write WAVECAR
   LDOWNSAMPLE  =      F    k-point downsampling of WAVECAR
   LCHARG       =      T    write CHGCAR
   LVTOT        =      F    write LOCPOT, total local potential
   LVHAR        =      F    write LOCPOT, Hartree potential only
   LELF         =      F    write electronic localiz. function (ELF)
   LORBIT       =      0    0 simple, 1 ext, 2 COOP (PROOUT), +10 PAW based schemes


 Dipole corrections
   LMONO  =      F    monopole corrections only (constant potential shift)
   LDIPOL =      F    correct potential (dipole corrections)
   IDIPOL =      0    1-x, 2-y, 3-z, 4-all directions 
   EPSILON=  1.0000000 bulk dielectric constant

 LDA+U is selected, type is set to LDAUTYPE =  2
   angular momentum for each species LDAUL =    -1    2   -1   -1
   U (eV)           for each species LDAUU =   0.0  4.0  0.0  0.0
   J (eV)           for each species LDAUJ =   0.0  0.0  0.0  0.0
 Exchange correlation treatment:
   GGA     =    PE    GGA type
   LEXCH   =     8    internal setting for exchange type
   VOSKOWN=      0    Vosko Wilk Nusair interpolation
   LHFCALC =     F    Hartree Fock is set to
   LHFONE  =     F    Hartree Fock one center treatment
   AEXX    =    0.0000 exact exchange contribution

 Linear response parameters
   LEPSILON=     F    determine dielectric tensor
   LRPA    =     F    only Hartree local field effects (RPA)
   LNABLA  =     F    use nabla operator in PAW spheres
   LVEL    =     F    velocity operator in full k-point grid
   LINTERFAST=   F  fast interpolation
   KINTER  =     0    interpolate to denser k-point grid
   CSHIFT  =0.1000    complex shift for real part using Kramers Kronig
   OMEGAMAX=  -1.0    maximum frequency
   DEG_THRESHOLD= 0.2000000E-02 threshold for treating states as degnerate
   RTIME   =   -0.100 relaxation time in fs
  (WPLASMAI=    0.000 imaginary part of plasma frequency in eV, 0.658/RTIME)
   DFIELD  = 0.0000000 0.0000000 0.0000000 field for delta impulse in time
 
 Orbital magnetization related:
   ORBITALMAG=     F  switch on orbital magnetization
   LCHIMAG   =     F  perturbation theory with respect to B field
   DQ        =  0.001000  dq finite difference perturbation B field
   LLRAUG    =     F  two centre corrections for induced B field



--------------------------------------------------------------------------------------------------------


 Static calculation
 charge density and potential will be updated during run
 spin polarized calculation
 Variant of blocked Davidson
 Davidson routine will perform the subspace rotation
 perform sub-space diagonalisation
    after iterative eigenvector-optimisation
 modified Broyden-mixing scheme, WC =      100.0
 initial mixing is a Kerker type mixing with AMIX =  0.4000 and BMIX =      1.0000
 Hartree-type preconditioning will be used
 using additional bands          224
 reciprocal scheme for non local part
 use partial core corrections
 calculate Harris-corrections to forces 
   (improved forces if not selfconsistent)
 use gradient corrections 
 use of overlap-Matrix (Vanderbilt PP)
 Gauss-broadening in eV      SIGMA  =   0.05


--------------------------------------------------------------------------------------------------------


  energy-cutoff  :      650.00
  volume of cell :     1908.55
      direct lattice vectors                 reciprocal lattice vectors
    15.211628300  0.005169560 -2.783615920     0.065813433  0.002325485  0.000410081
    -0.407986650 11.935657740 -2.207358840     0.000134327  0.083951744  0.000889967
    -0.061755670 -0.111681970 10.544426380     0.017402163  0.018188271  0.095131394

  length of vectors
    15.464222575 12.144908886 10.545198638     0.065855782  0.083956568  0.098405440


 
 k-points in units of 2pi/SCALE and weight: # No comment                            
   0.00000000  0.00000000  0.00000000       0.056
   0.03290672  0.00116274  0.00020504       0.056
   0.00004478  0.02798391  0.00029666       0.111
   0.03295149  0.02914666  0.00050170       0.111
   0.00580072  0.00606276  0.03171046       0.111
   0.03870744  0.00722550  0.03191551       0.111
   0.00584550  0.03404667  0.03200712       0.111
   0.03875221  0.03520941  0.03221216       0.111
   0.00575595 -0.02192116  0.03141381       0.111
   0.03866266 -0.02075841  0.03161885       0.111
 
 k-points in reciprocal lattice and weights: # No comment                            
   0.00000000  0.00000000  0.00000000       0.056
   0.50000000 -0.00000000  0.00000000       0.056
  -0.00000000  0.33333333 -0.00000000       0.111
   0.50000000  0.33333333 -0.00000000       0.111
  -0.00000000  0.00000000  0.33333333       0.111
   0.50000000  0.00000000  0.33333333       0.111
  -0.00000000  0.33333333  0.33333333       0.111
   0.50000000  0.33333333  0.33333333       0.111
  -0.00000000 -0.33333333  0.33333333       0.111
   0.50000000 -0.33333333  0.33333333       0.111
 
 position of ions in fractional coordinates (direct lattice) 
   0.47527516  0.00074367  0.00541030
   0.97527516  0.00074367  0.00446200
   0.47527516  0.33407700  0.00446200
   0.97527516  0.33407700  0.00446200
   0.47527516  0.66741034  0.00446200
   0.97527516  0.66741034  0.00446200
   0.27472484  0.33258966  0.99553800
   0.77472484  0.33258966  0.99553800
   0.27472484  0.66592300  0.99553800
   0.77472484  0.66592300  0.99553800
   0.27472484  0.99925633  0.99553800
   0.77472484  0.99925633  0.99553800
   0.17788805  0.26797179  0.60783074
   0.67788805  0.26797179  0.60783074
   0.17788805  0.60130513  0.60783074
   0.67788805  0.60130513  0.60783074
   0.17788805  0.93463846  0.60783074
   0.67788805  0.93463846  0.60783074
   0.07211195  0.06536154  0.39216926
   0.57211195  0.06536154  0.39216926
   0.07211195  0.39869487  0.39216926
   0.57211195  0.39869487  0.39216926
   0.07211195  0.73202821  0.39216926
   0.57211195  0.73202821  0.39216926
   0.10733875  0.30765571  0.84593428
   0.60733875  0.30765571  0.84593428
   0.10733875  0.64098905  0.84593428
   0.60733875  0.64098905  0.84593428
   0.10733875  0.97432238  0.84593428
   0.60733875  0.97432238  0.84593428
   0.34464416  0.29539312  0.77235872
   0.84464416  0.29539312  0.77235872
   0.34464416  0.62872645  0.77235872
   0.84464416  0.62872645  0.77235872
   0.34464416  0.96205979  0.77235872
   0.84464416  0.96205979  0.77235872
   0.14266125  0.02567762  0.15406572
   0.64266125  0.02567762  0.15406572
   0.14266125  0.35901095  0.15406572
   0.64266125  0.35901095  0.15406572
   0.14266125  0.69234429  0.15406572
   0.64266125  0.69234429  0.15406572
   0.40535584  0.03794021  0.22764128
   0.90535584  0.03794021  0.22764128
   0.40535584  0.37127355  0.22764128
   0.90535584  0.37127355  0.22764128
   0.40535584  0.70460688  0.22764128
   0.90535584  0.70460688  0.22764128
   0.46517249  0.26691416  0.60148498
   0.96517249  0.26691416  0.60148498
   0.46517249  0.60024750  0.60148498
   0.96517249  0.60024750  0.60148498
   0.46517249  0.93358083  0.60148498
   0.96517249  0.93358083  0.60148498
   0.28482751  0.06641917  0.39851502
   0.78482751  0.06641917  0.39851502
   0.28482751  0.39975250  0.39851502
   0.78482751  0.39975250  0.39851502
   0.28482751  0.73308584  0.39851502
   0.78482751  0.73308584  0.39851502
   0.22447416  0.13353711  0.80122268
   0.72447416  0.13353711  0.80122268
   0.22447416  0.46687045  0.80122268
   0.72447416  0.46687045  0.80122268
   0.22447416  0.80020378  0.80122268
   0.72447416  0.80020378  0.80122268
   0.47796479  0.13582521  0.81495126
   0.97796479  0.13582521  0.81495126
   0.47796479  0.46915854  0.81495126
   0.97796479  0.46915854  0.81495126
   0.47796479  0.80249188  0.81495126
   0.97796479  0.80249188  0.81495126
   0.02552584  0.19979622  0.19877732
   0.52552584  0.19979622  0.19877732
   0.02552584  0.53312955  0.19877732
   0.52552584  0.53312955  0.19877732
   0.02552584  0.86646289  0.19877732
   0.52552584  0.86646289  0.19877732
   0.27203521  0.19750812  0.18504874
   0.77203521  0.19750812  0.18504874
   0.27203521  0.53084146  0.18504874
   0.77203521  0.53084146  0.18504874
   0.27203521  0.86417479  0.18504874
   0.77203521  0.86417479  0.18504874
   0.12500000  0.16666667  0.00000000
   0.62500000  0.16666667  0.00000000
   0.12500000  0.50000000  0.00000000
   0.62500000  0.50000000  0.00000000
   0.12500000  0.83333333  0.00000000
   0.62500000  0.83333333  0.00000000
   0.37500000  0.16666667  0.00000000
   0.87500000  0.16666667  0.00000000
   0.37500000  0.50000000  0.00000000
   0.87500000  0.50000000  0.00000000
   0.37500000  0.83333333  0.00000000
   0.87500000  0.83333333  0.00000000
   0.17614737  0.22809805  0.36858830
   0.67614737  0.22809805  0.36858830
   0.17614737  0.56143138  0.36858830
   0.67614737  0.56143138  0.36858830
   0.17614737  0.89476472  0.36858830
   0.67614737  0.89476472  0.36858830
   0.41542106  0.22793643  0.36761855
   0.91542106  0.22793643  0.36761855
   0.41542106  0.56126976  0.36761855
   0.91542106  0.56126976  0.36761855
   0.41542106  0.89460309  0.36761855
   0.91542106  0.89460309  0.36761855
   0.07385263  0.10523528  0.63141170
   0.57385263  0.10523528  0.63141170
   0.07385263  0.43856862  0.63141170
   0.57385263  0.43856862  0.63141170
   0.07385263  0.77190195  0.63141170
   0.57385263  0.77190195  0.63141170
   0.33457894  0.10539691  0.63238145
   0.83457894  0.10539691  0.63238145
   0.33457894  0.43873024  0.63238145
   0.83457894  0.43873024  0.63238145
   0.33457894  0.77206357  0.63238145
   0.83457894  0.77206357  0.63238145
   0.22527003  0.30093342  0.80560053
   0.72527003  0.30093342  0.80560053
   0.22527003  0.63426676  0.80560053
   0.72527003  0.63426676  0.80560053
   0.22527003  0.96760009  0.80560053
   0.72527003  0.96760009  0.80560053
   0.47618324  0.30143353  0.80860116
   0.97618324  0.30143353  0.80860116
   0.47618324  0.63476686  0.80860116
   0.97618324  0.63476686  0.80860116
   0.47618324  0.96810019  0.80860116
   0.97618324  0.96810019  0.80860116
   0.02472997  0.03239991  0.19439947
   0.52472997  0.03239991  0.19439947
   0.02472997  0.36573324  0.19439947
   0.52472997  0.36573324  0.19439947
   0.02472997  0.69906658  0.19439947
   0.52472997  0.69906658  0.19439947
   0.27381676  0.03189981  0.19139884
   0.77381676  0.03189981  0.19139884
   0.27381676  0.36523314  0.19139884
   0.77381676  0.36523314  0.19139884
   0.27381676  0.69856647  0.19139884
   0.77381676  0.69856647  0.19139884
 
 position of ions in cartesian coordinates  (Angst):
   7.22907155  0.01072892 -1.26757655
  14.83494426  0.01341961 -2.66938378
   7.09313456  3.98938741 -2.01336210
  14.69894871  3.99197219 -3.40517006
   6.95713901  7.96793999 -2.74914838
  14.56295316  7.97052477 -4.14095634
   3.98183989  3.85991295  8.99850398
  11.58765404  3.86249773  7.60669602
   3.84584434  7.83846553  8.26271770
  11.45165849  7.84105031  6.87090974
   3.70984879 11.81701811  7.52693142
  11.31566294 11.81960289  6.13512346
   2.55910106  3.13145548  5.32254456
  10.16491521  3.13404026  3.93073660
   2.42310551  7.11000806  4.58675828
  10.02891966  7.11259284  3.19495032
   2.28710996 11.08856064  3.85097200
   9.89292411 11.09114542  2.45916404
   1.04605479  0.73670752  3.79019156
   8.65186894  0.73929230  2.39838360
   0.91005924  4.71526010  3.05440528
   8.51587339  4.71784488  1.66259732
   0.77406369  8.69381268  2.31861900
   8.37987784  8.69639746  0.92681104
   1.45503651  3.57815258  7.94199533
   9.06085066  3.58073736  6.55018737
   1.31904096  7.55670516  7.20620905
   8.92485511  7.55928994  5.81440109
   1.18304541 11.53525774  6.47042277
   8.78885956 11.53784252  5.07861481
   5.07438488  3.44123429  6.53268408
  12.68019903  3.44381907  5.14087612
   4.93838933  7.41978687  5.79689780
  12.54420348  7.42237165  4.40508984
   4.80239378 11.39833945  5.06111152
  12.40820793 11.40092423  3.66930356
   2.15011935  0.29001042  1.17074079
   9.75593350  0.29259520 -0.22106717
   2.01412380  4.26856300  0.43495451
   9.61993795  4.27114778 -0.95685345
   1.87812825  8.24711558 -0.30083177
   9.48394240  8.24970036 -1.69263973
   6.13658513  0.42951349  1.18824408
  13.74239928  0.43209827 -0.20356388
   6.00058958  4.40806607  0.45245780
  13.60640373  4.41065085 -0.93935016
   5.86459403  8.38661865 -0.28332848
  13.47040818  8.38920343 -1.67513644
   6.92998849  3.12102581  4.45827720
  14.53580264  3.12361059  3.06646924
   6.79399294  7.09957839  3.72249092
  14.39980709  7.10216317  2.33068296
   6.65799739 11.07813097  2.98670464
  14.26381154 11.08071575  1.59489668
   4.28098152  0.74972197  3.26265096
  11.88679567  0.75230675  1.87084300
   4.14498597  4.72827455  2.52686468
  11.75080012  4.73085933  1.13505672
   4.00899041  8.70682713  1.79107840
  11.61480456  8.70941191  0.39927044
   3.31065601  1.50553159  7.52881940
  10.91647016  1.50811637  6.13701144
   3.17466046  5.48408417  6.79303312
  10.78047461  5.48666895  5.40122516
   3.03866491  9.46263675  6.05724684
  10.64447906  9.46522153  4.66543888
   7.16488007  1.53261872  6.96290817
  14.77069422  1.53520350  5.57110021
   7.02888452  5.51117130  6.22712189
  14.63469867  5.51375608  4.83531393
   6.89288897  9.48972388  5.49133561
  14.49870312  9.49230866  4.09952765
   0.29449985  2.36263141  1.58391672
   7.90031400  2.36521619  0.19210876
   0.15850430  6.34118399  0.84813044
   7.76431845  6.34376877 -0.54367752
   0.02250875 10.31973657  0.11234416
   7.62832290 10.32232135 -1.27946380
   4.04608994  2.33812906  0.75801999
  11.65190409  2.34071384 -0.63378797
   3.91009439  6.31668164  0.02223371
  11.51590854  6.31926642 -1.36957425
   3.77409884 10.29523422 -0.71355257
  11.37991299 10.29781900 -2.10536053
   1.83345576  1.98992249 -0.71584513
   9.43926991  1.99250727 -2.10765309
   1.69746021  5.96847506 -1.45163141
   9.30327436  5.97105985 -2.84343937
   1.56146466  9.94702764 -2.18741769
   9.16727881  9.94961242 -3.57922565
   5.63636284  1.99121488 -1.41174911
  13.24217699  1.99379966 -2.80355707
   5.50036729  5.96976746 -2.14753539
  13.10618144  5.97235223 -3.53934335
   5.36437174  9.94832003 -2.88332167
  12.97018589  9.95090481 -4.27512963
   2.56366502  2.68224619  2.89273131
  10.16947917  2.68483097  1.50092335
   2.42766947  6.66079877  2.15694503
  10.03348362  6.66338355  0.76513707
   2.29167392 10.63935135  1.42115875
   9.89748807 10.64193613  0.02935079
   6.20353328  2.68166236  2.21681656
  13.80934743  2.68424714  0.82500860
   6.06753773  6.66021494  1.48103028
  13.67335188  6.66279972  0.08922232
   5.93154218 10.63876752  0.74524400
  13.53735633 10.64135230 -0.64656396
   1.04149084  1.18591681  6.22000481
   8.64730499  1.18850159  4.82819685
   0.90549529  5.16446939  5.48421853
   8.51130944  5.16705417  4.09241057
   0.76949974  9.14302197  4.74843225
   8.37531389  9.14560675  3.35662429
   5.00743673  1.18908542  5.50411160
  12.61325088  1.19167020  4.11230364
   4.87144118  5.16763800  4.76832532
  12.47725533  5.17022278  3.37651736
   4.73544563  9.14619058  4.03253904
  12.34125978  9.14877536  2.64073108
   3.25419674  3.50303184  7.20326219
  10.86001089  3.50561662  5.81145423
   3.11820119  7.48158442  6.46747591
  10.72401534  7.48416920  5.07566795
   2.98220564 11.46013700  5.73168963
  10.58801979 11.46272178  4.33988167
   7.07060589  3.50996289  6.53535219
  14.67642004  3.51254767  5.14354423
   6.93461034  7.48851547  5.79956591
  14.54042449  7.49110025  4.40775795
   6.79861479 11.46706805  5.06377964
  14.40442894 11.46965283  3.67197168
   0.35095911  0.36513116  1.90947393
   7.95677326  0.36771594  0.51766597
   0.21496356  4.34368374  1.17368765
   7.82077771  4.34626852 -0.21812031
   0.07896801  8.32223632  0.43790137
   7.68478216  8.32482110 -0.95390659
   4.14036412  0.36078489  1.18557596
  11.74617827  0.36336967 -0.20623200
   4.00436857  4.33933747  0.44978969
  11.61018272  4.34192225 -0.94201827
   3.86837302  8.31789005 -0.28599659
  11.47418717  8.32047483 -1.67780455
 


--------------------------------------------------------------------------------------------------------


 k-point  1 :   0.0000 0.0000 0.0000  plane waves:   71753
 k-point  2 :   0.5000-0.0000 0.0000  plane waves:   71808
 k-point  3 :  -0.0000 0.3333-0.0000  plane waves:   71807
 k-point  4 :   0.5000 0.3333-0.0000  plane waves:   71794
 k-point  5 :  -0.0000 0.0000 0.3333  plane waves:   71835
 k-point  6 :   0.5000 0.0000 0.3333  plane waves:   71814
 k-point  7 :  -0.0000 0.3333 0.3333  plane waves:   71857
 k-point  8 :   0.5000 0.3333 0.3333  plane waves:   71843
 k-point  9 :  -0.0000-0.3333 0.3333  plane waves:   71798
 k-point 10 :   0.5000-0.3333 0.3333  plane waves:   71816

 maximum and minimum number of plane-waves per node :     12032    11922

 maximum number of plane-waves:     71857
 maximum index in each direction: 
   IXMAX=   32   IYMAX=   25   IZMAX=   21
   IXMIN=  -32   IYMIN=  -25   IZMIN=  -22


 parallel 3D FFT for wavefunctions:
    minimum data exchange during FFTs selected (reduces bandwidth)
 parallel 3D FFT for charge:
    minimum data exchange during FFTs selected (reduces bandwidth)


 total amount of memory used by VASP MPI-rank0   980488. kBytes
=======================================================================

   base      :      30000. kBytes
   nonl-proj :      97026. kBytes
   fftplans  :      74745. kBytes
   grid      :      63949. kBytes
   one-center:        746. kBytes
   wavefun   :     714022. kBytes
 
     INWAV:  cpu time    0.0000: real time    0.0000
 Broyden mixing: mesh for mixing (old mesh)
   NGX = 65   NGY = 51   NGZ = 43
  (NGX  =280   NGY  =216   NGZ  =180)
  gives a total of 142545 points

 initial charge density was supplied:
 number of electron    1008.0000022 magnetization     143.9995912
 keeping initial charge density in first step


--------------------------------------------------------------------------------------------------------


 Maximum index for augmentation-charges         8931 (set IRDMAX)


--------------------------------------------------------------------------------------------------------


 First call to EWALD:  gamma=   0.143
 Maximum number of real-space cells 2x 3x 3
 Maximum number of reciprocal cells 3x 3x 2

    FEWALD:  cpu time    0.1719: real time    0.2004


--------------------------------------- Iteration      1(   1)  ---------------------------------------


    POTLOK:  cpu time    0.8202: real time    0.8493
    SETDIJ:  cpu time    1.7592: real time    1.7815
     EDDAV:  cpu time  337.3053: real time  340.9483
       DOS:  cpu time    0.0041: real time    0.0047
    --------------------------------------------
      LOOP:  cpu time  339.8888: real time  343.5839

 eigenvalue-minimisations  : 30512
 total energy-change (2. order) : 0.1337973E+05  (-0.5513866E+05)
 number of electron    1008.0000022 magnetization     143.9995912
 augmentation part     1008.0000022 magnetization     143.9995912

 Free energy of the ion-electron system (eV)
  ---------------------------------------------------
  alpha Z        PSCENC =      2668.72143546
  Ewald energy   TEWEN  =    -68026.02584223
  -Hartree energ DENC   =    -39875.25162076
  -exchange      EXHF   =         0.00000000
  -V(xc)+E(xc)   XCENC  =      4298.62066930
  PAW double counting   =    114383.84820647  -118048.71515856
  entropy T*S    EENTRO =        -0.02987777
  eigenvalues    EBANDS =      -564.31042495
  atomic energy  EATOM  =    118542.86816856
  Solvation  Ediel_sol  =         0.00000000
  ---------------------------------------------------
  free energy    TOTEN  =     13379.72555552 eV

  energy without entropy =    13379.75543330  energy(sigma->0) =    13379.74049441


--------------------------------------------------------------------------------------------------------




--------------------------------------- Iteration      1(   2)  ---------------------------------------


     EDDAV:  cpu time  326.6455: real time  330.1226
       DOS:  cpu time    0.0050: real time    0.0050
    --------------------------------------------
      LOOP:  cpu time  326.6504: real time  330.1276

 eigenvalue-minimisations  : 29120
 total energy-change (2. order) :-0.1195784E+05  (-0.1116173E+05)
 number of electron    1008.0000022 magnetization     143.9995912
 augmentation part     1008.0000022 magnetization     143.9995912

 Free energy of the ion-electron system (eV)
  ---------------------------------------------------
  alpha Z        PSCENC =      2668.72143546
  Ewald energy   TEWEN  =    -68026.02584223
  -Hartree energ DENC   =    -39875.25162076
  -exchange      EXHF   =         0.00000000
  -V(xc)+E(xc)   XCENC  =      4298.62066930
  PAW double counting   =    114383.84820647  -118048.71515856
  entropy T*S    EENTRO =        -0.08477585
  eigenvalues    EBANDS =    -12522.09945258
  atomic energy  EATOM  =    118542.86816856
  Solvation  Ediel_sol  =         0.00000000
  ---------------------------------------------------
  free energy    TOTEN  =      1421.88162982 eV

  energy without entropy =     1421.96640567  energy(sigma->0) =     1421.92401775


--------------------------------------------------------------------------------------------------------




--------------------------------------- Iteration      1(   3)  ---------------------------------------


     EDDAV:  cpu time  350.7355: real time  354.6799
       DOS:  cpu time    0.0018: real time    0.0018
    --------------------------------------------
      LOOP:  cpu time  350.7373: real time  354.6817

 eigenvalue-minimisations  : 32160
 total energy-change (2. order) :-0.1895064E+04  (-0.1678340E+04)
 number of electron    1008.0000022 magnetization     143.9995912
 augmentation part     1008.0000022 magnetization     143.9995912

 Free energy of the ion-electron system (eV)
  ---------------------------------------------------
  alpha Z        PSCENC =      2668.72143546
  Ewald energy   TEWEN  =    -68026.02584223
  -Hartree energ DENC   =    -39875.25162076
  -exchange      EXHF   =         0.00000000
  -V(xc)+E(xc)   XCENC  =      4298.62066930
  PAW double counting   =    114383.84820647  -118048.71515856
  entropy T*S    EENTRO =        -0.00000000
  eigenvalues    EBANDS =    -14417.24775430
  atomic energy  EATOM  =    118542.86816856
  Solvation  Ediel_sol  =         0.00000000
  ---------------------------------------------------
  free energy    TOTEN  =      -473.18189605 eV

  energy without entropy =     -473.18189605  energy(sigma->0) =     -473.18189605


--------------------------------------------------------------------------------------------------------




--------------------------------------- Iteration      1(   4)  ---------------------------------------


     EDDAV:  cpu time  393.8479: real time  398.7785
       DOS:  cpu time    0.0019: real time    0.0019
    --------------------------------------------
      LOOP:  cpu time  393.8497: real time  398.7804

 eigenvalue-minimisations  : 36968
 total energy-change (2. order) :-0.2427586E+03  (-0.2398434E+03)
 number of electron    1008.0000022 magnetization     143.9995912
 augmentation part     1008.0000022 magnetization     143.9995912

 Free energy of the ion-electron system (eV)
  ---------------------------------------------------
  alpha Z        PSCENC =      2668.72143546
  Ewald energy   TEWEN  =    -68026.02584223
  -Hartree energ DENC   =    -39875.25162076
  -exchange      EXHF   =         0.00000000
  -V(xc)+E(xc)   XCENC  =      4298.62066930
  PAW double counting   =    114383.84820647  -118048.71515856
  entropy T*S    EENTRO =        -0.00000000
  eigenvalues    EBANDS =    -14660.00630531
  atomic energy  EATOM  =    118542.86816856
  Solvation  Ediel_sol  =         0.00000000
  ---------------------------------------------------
  free energy    TOTEN  =      -715.94044706 eV

  energy without entropy =     -715.94044706  energy(sigma->0) =     -715.94044706


--------------------------------------------------------------------------------------------------------




--------------------------------------- Iteration      1(   5)  ---------------------------------------


     EDDAV:  cpu time  518.2316: real time  523.6103
       DOS:  cpu time    0.0022: real time    0.0023
    CHARGE:  cpu time   10.9068: real time   10.9939
    MIXING:  cpu time    0.0582: real time    0.0609
    --------------------------------------------
      LOOP:  cpu time  529.1989: real time  534.6675

 eigenvalue-minimisations  : 51656
 total energy-change (2. order) :-0.2942638E+02  (-0.2915779E+02)
 number of electron    1008.0000022 magnetization     143.9996870
 augmentation part      339.4166947 magnetization      94.9098281

 Broyden mixing:
  rms(total) = 0.35380E+00    rms(broyden)= 0.35362E+00
  rms(prec ) = 0.35676E+00
  weight for this iteration     100.00

 Free energy of the ion-electron system (eV)
  ---------------------------------------------------
  alpha Z        PSCENC =      2668.72143546
  Ewald energy   TEWEN  =    -68026.02584223
  -Hartree energ DENC   =    -39875.25162076
  -exchange      EXHF   =         0.00000000
  -V(xc)+E(xc)   XCENC  =      4298.62066930
  PAW double counting   =    114383.84820647  -118048.71515856
  entropy T*S    EENTRO =        -0.00000000
  eigenvalues    EBANDS =    -14689.43268165
  atomic energy  EATOM  =    118542.86816856
  Solvation  Ediel_sol  =         0.00000000
  ---------------------------------------------------
  free energy    TOTEN  =      -745.36682340 eV

  energy without entropy =     -745.36682340  energy(sigma->0) =     -745.36682340


--------------------------------------------------------------------------------------------------------




--------------------------------------- Iteration      1(   6)  ---------------------------------------


    POTLOK:  cpu time    0.8068: real time    0.8109
    SETDIJ:  cpu time    1.7687: real time    1.7779
     EDDAV:  cpu time  413.9324: real time  418.7293
       DOS:  cpu time    0.0024: real time    0.0024
    CHARGE:  cpu time   10.9578: real time   11.0011
    MIXING:  cpu time    0.0451: real time    0.0491
    --------------------------------------------
      LOOP:  cpu time  427.5132: real time  432.3707

 eigenvalue-minimisations  : 39536
 total energy-change (2. order) :-0.1216804E+01  (-0.1261330E+01)
 number of electron    1008.0000022 magnetization     143.9997390
 augmentation part      337.9490835 magnetization      94.7879247

 Broyden mixing:
  rms(total) = 0.14835E+00    rms(broyden)= 0.14816E+00
  rms(prec ) = 0.14918E+00
  weight for this iteration     100.00

 eigenvalues of (default mixing * dielectric matrix)
  average eigenvalue GAMMA=   0.6859
  0.6859

 Free energy of the ion-electron system (eV)
  ---------------------------------------------------
  alpha Z        PSCENC =      2668.72143546
  Ewald energy   TEWEN  =    -68026.02584223
  -Hartree energ DENC   =    -39867.81891614
  -exchange      EXHF   =         0.00000000
  -V(xc)+E(xc)   XCENC  =      4297.56089185
  PAW double counting   =    114123.30085256  -117783.05417867
  entropy T*S    EENTRO =        -0.00000000
  eigenvalues    EBANDS =    -14702.13603902
  atomic energy  EATOM  =    118542.86816856
  Solvation  Ediel_sol  =         0.00000000
  ---------------------------------------------------
  free energy    TOTEN  =      -746.58362763 eV

  energy without entropy =     -746.58362763  energy(sigma->0) =     -746.58362763


--------------------------------------------------------------------------------------------------------




--------------------------------------- Iteration      1(   7)  ---------------------------------------


    POTLOK:  cpu time    0.8011: real time    0.8043
    SETDIJ:  cpu time    1.7711: real time    1.7720
     EDDAV:  cpu time  469.9593: real time  475.3480
       DOS:  cpu time    0.0021: real time    0.0021
    CHARGE:  cpu time   10.8210: real time   10.9593
    MIXING:  cpu time    0.0413: real time    0.0443
    --------------------------------------------
      LOOP:  cpu time  483.3958: real time  488.9299

 eigenvalue-minimisations  : 45976
 total energy-change (2. order) :-0.5276764E-01  (-0.5398982E-01)
 number of electron    1008.0000022 magnetization     143.9997632
 augmentation part      337.7539589 magnetization      94.7552404

 Broyden mixing:
  rms(total) = 0.10369E+00    rms(broyden)= 0.10363E+00
  rms(prec ) = 0.10487E+00
  weight for this iteration     100.00

 eigenvalues of (default mixing * dielectric matrix)
  average eigenvalue GAMMA=   0.6082
  0.6082  0.6082

 Free energy of the ion-electron system (eV)
  ---------------------------------------------------
  alpha Z        PSCENC =      2668.72143546
  Ewald energy   TEWEN  =    -68026.02584223
  -Hartree energ DENC   =    -39870.61909829
  -exchange      EXHF   =         0.00000000
  -V(xc)+E(xc)   XCENC  =      4297.88495270
  PAW double counting   =    114192.28052543  -117853.51644271
  entropy T*S    EENTRO =        -0.00000000
  eigenvalues    EBANDS =    -14698.23009419
  atomic energy  EATOM  =    118542.86816856
  Solvation  Ediel_sol  =         0.00000000
  ---------------------------------------------------
  free energy    TOTEN  =      -746.63639527 eV

  energy without entropy =     -746.63639527  energy(sigma->0) =     -746.63639527


--------------------------------------------------------------------------------------------------------




--------------------------------------- Iteration      1(   8)  ---------------------------------------


    POTLOK:  cpu time    0.8200: real time    0.8323
    SETDIJ:  cpu time    1.7745: real time    1.7751
     EDDAV:  cpu time  442.6211: real time  447.7529
       DOS:  cpu time    0.0021: real time    0.0021
    CHARGE:  cpu time   10.9790: real time   10.9877
    MIXING:  cpu time    0.0482: real time    0.0487
    --------------------------------------------
      LOOP:  cpu time  456.2450: real time  461.3987

 eigenvalue-minimisations  : 42856
 total energy-change (2. order) : 0.7692395E-03  (-0.1810086E-02)
 number of electron    1008.0000022 magnetization     143.9997709
 augmentation part      337.7228277 magnetization      94.7324872

 Broyden mixing:
  rms(total) = 0.90731E-01    rms(broyden)= 0.90726E-01
  rms(prec ) = 0.91796E-01
  weight for this iteration     100.00

 eigenvalues of (default mixing * dielectric matrix)
  average eigenvalue GAMMA=   0.5247
  0.6131  0.6131  0.3480

 Free energy of the ion-electron system (eV)
  ---------------------------------------------------
  alpha Z        PSCENC =      2668.72143546
  Ewald energy   TEWEN  =    -68026.02584223
  -Hartree energ DENC   =    -39871.37095912
  -exchange      EXHF   =         0.00000000
  -V(xc)+E(xc)   XCENC  =      4298.00770011
  PAW double counting   =    114225.10069043  -117886.96221775
  entropy T*S    EENTRO =        -0.00000000
  eigenvalues    EBANDS =    -14696.97460150
  atomic energy  EATOM  =    118542.86816856
  Solvation  Ediel_sol  =         0.00000000
  ---------------------------------------------------
  free energy    TOTEN  =      -746.63562603 eV

  energy without entropy =     -746.63562603  energy(sigma->0) =     -746.63562603


--------------------------------------------------------------------------------------------------------




--------------------------------------- Iteration      1(   9)  ---------------------------------------


    POTLOK:  cpu time    0.8041: real time    0.8067
    SETDIJ:  cpu time    1.8142: real time    1.8189
     EDDAV:  cpu time  470.7812: real time  476.7370
       DOS:  cpu time    0.0034: real time    0.0044
    CHARGE:  cpu time   10.9072: real time   10.9789
    MIXING:  cpu time    0.0662: real time    0.0662
    --------------------------------------------
      LOOP:  cpu time  484.3763: real time  490.4122

 eigenvalue-minimisations  : 46080
 total energy-change (2. order) : 0.6067981E-03  (-0.1207337E-03)
 number of electron    1008.0000022 magnetization     143.9997866
 augmentation part      337.7319344 magnetization      94.7298998

 Broyden mixing:
  rms(total) = 0.85135E-01    rms(broyden)= 0.85135E-01
  rms(prec ) = 0.86115E-01
  weight for this iteration     100.00

 eigenvalues of (default mixing * dielectric matrix)
  average eigenvalue GAMMA=   0.5791
  0.7036  0.7036  0.4545  0.4545

 Free energy of the ion-electron system (eV)
  ---------------------------------------------------
  alpha Z        PSCENC =      2668.72143546
  Ewald energy   TEWEN  =    -68026.02584223
  -Hartree energ DENC   =    -39871.53074663
  -exchange      EXHF   =         0.00000000
  -V(xc)+E(xc)   XCENC  =      4298.04351394
  PAW double counting   =    114232.82024706  -117894.85297388
  entropy T*S    EENTRO =        -0.00000000
  eigenvalues    EBANDS =    -14696.67882151
  atomic energy  EATOM  =    118542.86816856
  Solvation  Ediel_sol  =         0.00000000
  ---------------------------------------------------
  free energy    TOTEN  =      -746.63501923 eV

  energy without entropy =     -746.63501923  energy(sigma->0) =     -746.63501923


--------------------------------------------------------------------------------------------------------




--------------------------------------- Iteration      1(  10)  ---------------------------------------


    POTLOK:  cpu time    0.8029: real time    0.8047
    SETDIJ:  cpu time    1.7998: real time    1.8009
     EDDAV:  cpu time  475.1703: real time  480.9755
       DOS:  cpu time    0.0025: real time    0.0030
    CHARGE:  cpu time   10.7534: real time   11.0637
    MIXING:  cpu time    0.0569: real time    0.0580
    --------------------------------------------
      LOOP:  cpu time  488.5858: real time  494.7057

 eigenvalue-minimisations  : 46376
 total energy-change (2. order) : 0.9898994E-03  (-0.1835498E-04)
 number of electron    1008.0000022 magnetization     143.9998358
 augmentation part      337.7387600 magnetization      94.7279079

 Broyden mixing:
  rms(total) = 0.75909E-01    rms(broyden)= 0.75909E-01
  rms(prec ) = 0.76750E-01
  weight for this iteration     100.00

 eigenvalues of (default mixing * dielectric matrix)
  average eigenvalue GAMMA=   0.7388
  1.0759  1.0759  0.5578  0.5578  0.4264

 Free energy of the ion-electron system (eV)
  ---------------------------------------------------
  alpha Z        PSCENC =      2668.72143546
  Ewald energy   TEWEN  =    -68026.02584223
  -Hartree energ DENC   =    -39871.97390876
  -exchange      EXHF   =         0.00000000
  -V(xc)+E(xc)   XCENC  =      4298.11530451
  PAW double counting   =    114247.95610334  -117910.32851069
  entropy T*S    EENTRO =        -0.00000000
  eigenvalues    EBANDS =    -14695.96677952
  atomic energy  EATOM  =    118542.86816856
  Solvation  Ediel_sol  =         0.00000000
  ---------------------------------------------------
  free energy    TOTEN  =      -746.63402933 eV

  energy without entropy =     -746.63402933  energy(sigma->0) =     -746.63402933


--------------------------------------------------------------------------------------------------------




--------------------------------------- Iteration      1(  11)  ---------------------------------------


    POTLOK:  cpu time    0.8044: real time    0.8051
    SETDIJ:  cpu time    1.7749: real time    1.7761
     EDDAV:  cpu time  487.1272: real time  492.5198
       DOS:  cpu time    0.0019: real time    0.0019
    CHARGE:  cpu time   10.9434: real time   11.0225
    MIXING:  cpu time    0.0741: real time    0.0743
    --------------------------------------------
      LOOP:  cpu time  500.7258: real time  506.1997

 eigenvalue-minimisations  : 48072
 total energy-change (2. order) : 0.2010193E-02  (-0.7883879E-04)
 number of electron    1008.0000022 magnetization     143.9998605
 augmentation part      337.7564119 magnetization      94.7276438

 Broyden mixing:
  rms(total) = 0.49845E-01    rms(broyden)= 0.49845E-01
  rms(prec ) = 0.50319E-01
  weight for this iteration     100.00

 eigenvalues of (default mixing * dielectric matrix)
  average eigenvalue GAMMA=   0.7922
  1.2820  1.2820  0.6230  0.6230  0.4716  0.4716

 Free energy of the ion-electron system (eV)
  ---------------------------------------------------
  alpha Z        PSCENC =      2668.72143546
  Ewald energy   TEWEN  =    -68026.02584223
  -Hartree energ DENC   =    -39873.21647341
  -exchange      EXHF   =         0.00000000
  -V(xc)+E(xc)   XCENC  =      4298.31126078
  PAW double counting   =    114292.45069233  -117955.77296269
  entropy T*S    EENTRO =        -0.00000000
  eigenvalues    EBANDS =    -14693.96829794
  atomic energy  EATOM  =    118542.86816856
  Solvation  Ediel_sol  =         0.00000000
  ---------------------------------------------------
  free energy    TOTEN  =      -746.63201914 eV

  energy without entropy =     -746.63201914  energy(sigma->0) =     -746.63201914


--------------------------------------------------------------------------------------------------------




--------------------------------------- Iteration      1(  12)  ---------------------------------------


    POTLOK:  cpu time    0.8057: real time    0.8064
    SETDIJ:  cpu time    1.8057: real time    1.8099
     EDDAV:  cpu time  377.7771: real time  381.7316
       DOS:  cpu time    0.0030: real time    0.0030
    CHARGE:  cpu time   10.7919: real time   10.9496
    MIXING:  cpu time    0.0487: real time    0.0571
    --------------------------------------------
      LOOP:  cpu time  391.2321: real time  395.3576

 eigenvalue-minimisations  : 35200
 total energy-change (2. order) : 0.4775030E-03  (-0.4377556E-04)
 number of electron    1008.0000022 magnetization     143.9998783
 augmentation part      337.7647291 magnetization      94.7263369

 Broyden mixing:
  rms(total) = 0.38827E-01    rms(broyden)= 0.38827E-01
  rms(prec ) = 0.39164E-01
  weight for this iteration     100.00

 eigenvalues of (default mixing * dielectric matrix)
  average eigenvalue GAMMA=   0.8215
  1.4439  1.4439  0.7075  0.7075  0.5041  0.5041  0.4396

 Free energy of the ion-electron system (eV)
  ---------------------------------------------------
  alpha Z        PSCENC =      2668.72143546
  Ewald energy   TEWEN  =    -68026.02584223
  -Hartree energ DENC   =    -39873.70272307
  -exchange      EXHF   =         0.00000000
  -V(xc)+E(xc)   XCENC  =      4298.38778109
  PAW double counting   =    114311.70380169  -117975.39640308
  entropy T*S    EENTRO =        -0.00000000
  eigenvalues    EBANDS =    -14693.18776007
  atomic energy  EATOM  =    118542.86816856
  Solvation  Ediel_sol  =         0.00000000
  ---------------------------------------------------
  free energy    TOTEN  =      -746.63154163 eV

  energy without entropy =     -746.63154163  energy(sigma->0) =     -746.63154163


--------------------------------------------------------------------------------------------------------




--------------------------------------- Iteration      1(  13)  ---------------------------------------


    POTLOK:  cpu time    0.8207: real time    0.8397
    SETDIJ:  cpu time    1.7696: real time    1.7846
     EDDAV:  cpu time  432.6601: real time  437.2247
       DOS:  cpu time    0.0025: real time    0.0025
    CHARGE:  cpu time   10.9782: real time   11.0916
    MIXING:  cpu time    0.0448: real time    0.0499
    --------------------------------------------
      LOOP:  cpu time  446.2758: real time  450.9930

 eigenvalue-minimisations  : 41752
 total energy-change (2. order) : 0.2195774E-03  (-0.1220762E-04)
 number of electron    1008.0000022 magnetization     143.9998912
 augmentation part      337.7694991 magnetization      94.7263184

 Broyden mixing:
  rms(total) = 0.32019E-01    rms(broyden)= 0.32019E-01
  rms(prec ) = 0.32280E-01
  weight for this iteration     100.00

 eigenvalues of (default mixing * dielectric matrix)
  average eigenvalue GAMMA=   0.8424
  1.6147  1.6147  0.7842  0.7842  0.5269  0.5269  0.4439  0.4439

 Free energy of the ion-electron system (eV)
  ---------------------------------------------------
  alpha Z        PSCENC =      2668.72143546
  Ewald energy   TEWEN  =    -68026.02584223
  -Hartree energ DENC   =    -39873.97708470
  -exchange      EXHF   =         0.00000000
  -V(xc)+E(xc)   XCENC  =      4298.43353403
  PAW double counting   =    114324.08033147  -117987.98975295
  entropy T*S    EENTRO =        -0.00000000
  eigenvalues    EBANDS =    -14692.74211170
  atomic energy  EATOM  =    118542.86816856
  Solvation  Ediel_sol  =         0.00000000
  ---------------------------------------------------
  free energy    TOTEN  =      -746.63132206 eV

  energy without entropy =     -746.63132206  energy(sigma->0) =     -746.63132206


--------------------------------------------------------------------------------------------------------




--------------------------------------- Iteration      1(  14)  ---------------------------------------


    POTLOK:  cpu time    0.8138: real time    0.8289
    SETDIJ:  cpu time    1.7789: real time    1.7942
     EDDAV:  cpu time  418.2599: real time  422.6789
       DOS:  cpu time    0.0022: real time    0.0022
    CHARGE:  cpu time   10.7265: real time   10.9640
    MIXING:  cpu time    0.0553: real time    0.0570
    --------------------------------------------
      LOOP:  cpu time  431.6366: real time  436.3252

 eigenvalue-minimisations  : 40032
 total energy-change (2. order) : 0.6127996E-04  (-0.8316659E-05)
 number of electron    1008.0000022 magnetization     143.9999091
 augmentation part      337.7753486 magnetization      94.7258307

 Broyden mixing:
  rms(total) = 0.28213E-01    rms(broyden)= 0.28213E-01
  rms(prec ) = 0.28441E-01
  weight for this iteration     100.00

 eigenvalues of (default mixing * dielectric matrix)
  average eigenvalue GAMMA=   0.8878
  1.8542  1.8542  0.8899  0.8899  0.5776  0.5776  0.4595  0.4595  0.4279

 Free energy of the ion-electron system (eV)
  ---------------------------------------------------
  alpha Z        PSCENC =      2668.72143546
  Ewald energy   TEWEN  =    -68026.02584223
  -Hartree energ DENC   =    -39874.10865140
  -exchange      EXHF   =         0.00000000
  -V(xc)+E(xc)   XCENC  =      4298.45251690
  PAW double counting   =    114330.89635422  -117994.89174011
  entropy T*S    EENTRO =        -0.00000000
  eigenvalues    EBANDS =    -14692.54350218
  atomic energy  EATOM  =    118542.86816856
  Solvation  Ediel_sol  =         0.00000000
  ---------------------------------------------------
  free energy    TOTEN  =      -746.63126078 eV

  energy without entropy =     -746.63126078  energy(sigma->0) =     -746.63126078


--------------------------------------------------------------------------------------------------------




--------------------------------------- Iteration      1(  15)  ---------------------------------------


    POTLOK:  cpu time    0.8220: real time    0.8289
    SETDIJ:  cpu time    1.7827: real time    1.7966
     EDDAV:  cpu time  310.2564: real time  313.8737
       DOS:  cpu time    0.0022: real time    0.0022
    CHARGE:  cpu time   10.8794: real time   11.0318
    MIXING:  cpu time    0.0704: real time    0.0783
    --------------------------------------------
      LOOP:  cpu time  323.8132: real time  327.6115

 eigenvalue-minimisations  : 27144
 total energy-change (2. order) : 0.1010464E-03  (-0.1862455E-05)
 number of electron    1008.0000022 magnetization     143.9999640
 augmentation part      337.7772063 magnetization      94.7254282

 Broyden mixing:
  rms(total) = 0.22876E-01    rms(broyden)= 0.22876E-01
  rms(prec ) = 0.23069E-01
  weight for this iteration     100.00

 eigenvalues of (default mixing * dielectric matrix)
  average eigenvalue GAMMA=   1.0438
  2.4368  2.4368  1.0636  1.0636  0.7066  0.7066  0.5443  0.5443  0.4680  0.4680

 Free energy of the ion-electron system (eV)
  ---------------------------------------------------
  alpha Z        PSCENC =      2668.72143546
  Ewald energy   TEWEN  =    -68026.02584223
  -Hartree energ DENC   =    -39874.32044001
  -exchange      EXHF   =         0.00000000
  -V(xc)+E(xc)   XCENC  =      4298.48316190
  PAW double counting   =    114341.08274889  -118005.22710312
  entropy T*S    EENTRO =        -0.00000000
  eigenvalues    EBANDS =    -14692.21328919
  atomic energy  EATOM  =    118542.86816856
  Solvation  Ediel_sol  =         0.00000000
  ---------------------------------------------------
  free energy    TOTEN  =      -746.63115973 eV

  energy without entropy =     -746.63115973  energy(sigma->0) =     -746.63115973


--------------------------------------------------------------------------------------------------------




--------------------------------------- Iteration      1(  16)  ---------------------------------------


    POTLOK:  cpu time    0.8212: real time    0.8297
    SETDIJ:  cpu time    1.7436: real time    1.7746
     EDDAV:  cpu time  465.5331: real time  470.3547
       DOS:  cpu time    0.0024: real time    0.0024
    CHARGE:  cpu time   10.9695: real time   11.0793
    MIXING:  cpu time    0.0580: real time    0.0651
    --------------------------------------------
      LOOP:  cpu time  479.1278: real time  484.1058

 eigenvalue-minimisations  : 45608
 total energy-change (2. order) : 0.2123014E-03  (-0.2091275E-04)
 number of electron    1008.0000022 magnetization     143.9999753
 augmentation part      337.7857532 magnetization      94.7246991

 Broyden mixing:
  rms(total) = 0.56737E-02    rms(broyden)= 0.56718E-02
  rms(prec ) = 0.57240E-02
  weight for this iteration     100.00

 eigenvalues of (default mixing * dielectric matrix)
  average eigenvalue GAMMA=   1.0451
  2.5548  2.5548  1.1462  1.1462  0.7682  0.7682  0.5845  0.5845  0.4524  0.4679
  0.4679

 Free energy of the ion-electron system (eV)
  ---------------------------------------------------
  alpha Z        PSCENC =      2668.72143546
  Ewald energy   TEWEN  =    -68026.02584223
  -Hartree energ DENC   =    -39875.05730542
  -exchange      EXHF   =         0.00000000
  -V(xc)+E(xc)   XCENC  =      4298.59026932
  PAW double counting   =    114373.05940141  -118037.72246046
  entropy T*S    EENTRO =        -0.00000000
  eigenvalues    EBANDS =    -14691.06461406
  atomic energy  EATOM  =    118542.86816856
  Solvation  Ediel_sol  =         0.00000000
  ---------------------------------------------------
  free energy    TOTEN  =      -746.63094743 eV

  energy without entropy =     -746.63094743  energy(sigma->0) =     -746.63094743


--------------------------------------------------------------------------------------------------------




--------------------------------------- Iteration      1(  17)  ---------------------------------------


    POTLOK:  cpu time    0.8174: real time    0.8281
    SETDIJ:  cpu time    1.7530: real time    1.7802
     EDDAV:  cpu time  369.1593: real time  373.7976
       DOS:  cpu time    0.0023: real time    0.0023
    CHARGE:  cpu time   10.9407: real time   11.0513
    MIXING:  cpu time    0.0688: real time    0.0688
    --------------------------------------------
      LOOP:  cpu time  382.7414: real time  387.5283

 eigenvalue-minimisations  : 34184
 total energy-change (2. order) : 0.4330286E-05  (-0.7337269E-05)
 number of electron    1008.0000022 magnetization     143.9999767
 augmentation part      337.7877742 magnetization      94.7243249

 Broyden mixing:
  rms(total) = 0.29535E-02    rms(broyden)= 0.29506E-02
  rms(prec ) = 0.29676E-02
  weight for this iteration     100.00

 eigenvalues of (default mixing * dielectric matrix)
  average eigenvalue GAMMA=   1.0022
  2.6012  2.6012  1.1893  1.1893  0.7840  0.7840  0.5909  0.5909  0.4521  0.4521
  0.3958  0.3958

 Free energy of the ion-electron system (eV)
  ---------------------------------------------------
  alpha Z        PSCENC =      2668.72143546
  Ewald energy   TEWEN  =    -68026.02584223
  -Hartree energ DENC   =    -39875.20272409
  -exchange      EXHF   =         0.00000000
  -V(xc)+E(xc)   XCENC  =      4298.60938521
  PAW double counting   =    114378.50218461  -118043.26175108
  entropy T*S    EENTRO =        -0.00000000
  eigenvalues    EBANDS =    -14690.84179956
  atomic energy  EATOM  =    118542.86816856
  Solvation  Ediel_sol  =         0.00000000
  ---------------------------------------------------
  free energy    TOTEN  =      -746.63094310 eV

  energy without entropy =     -746.63094310  energy(sigma->0) =     -746.63094310


--------------------------------------------------------------------------------------------------------




--------------------------------------- Iteration      1(  18)  ---------------------------------------


    POTLOK:  cpu time    0.8109: real time    0.8387
    SETDIJ:  cpu time    1.7692: real time    1.7703
     EDDAV:  cpu time  360.7532: real time  364.7064
       DOS:  cpu time    0.0024: real time    0.0024
    CHARGE:  cpu time   10.8939: real time   11.0542
    MIXING:  cpu time    0.0695: real time    0.0794
    --------------------------------------------
      LOOP:  cpu time  374.2991: real time  378.4514

 eigenvalue-minimisations  : 32984
 total energy-change (2. order) :-0.1689536E-05  (-0.9961425E-06)
 number of electron    1008.0000022 magnetization     143.9999770
 augmentation part      337.7892840 magnetization      94.7242800

 Broyden mixing:
  rms(total) = 0.28700E-02    rms(broyden)= 0.28673E-02
  rms(prec ) = 0.28811E-02
  weight for this iteration     100.00

 eigenvalues of (default mixing * dielectric matrix)
  average eigenvalue GAMMA=   0.9371
  2.6301  2.6301  1.1917  1.1917  0.7804  0.7804  0.5857  0.5857  0.4576  0.4576
  0.4153  0.2380  0.2380

 Free energy of the ion-electron system (eV)
  ---------------------------------------------------
  alpha Z        PSCENC =      2668.72143546
  Ewald energy   TEWEN  =    -68026.02584223
  -Hartree energ DENC   =    -39875.20162770
  -exchange      EXHF   =         0.00000000
  -V(xc)+E(xc)   XCENC  =      4298.60898356
  PAW double counting   =    114378.65491564  -118043.41564913
  entropy T*S    EENTRO =        -0.00000000
  eigenvalues    EBANDS =    -14690.84132895
  atomic energy  EATOM  =    118542.86816856
  Solvation  Ediel_sol  =         0.00000000
  ---------------------------------------------------
  free energy    TOTEN  =      -746.63094479 eV

  energy without entropy =     -746.63094479  energy(sigma->0) =     -746.63094479


--------------------------------------------------------------------------------------------------------




--------------------------------------- Iteration      1(  19)  ---------------------------------------


    POTLOK:  cpu time    0.8106: real time    0.8302
    SETDIJ:  cpu time    1.7983: real time    1.8311
     EDDAV:  cpu time  239.7019: real time  242.8913
       DOS:  cpu time    0.0024: real time    0.0026
    --------------------------------------------
      LOOP:  cpu time  242.3132: real time  245.5551

 eigenvalue-minimisations  : 18816
 total energy-change (2. order) :-0.7823546E-06  (-0.2832970E-07)
 number of electron    1008.0000022 magnetization     143.9999770
 augmentation part      337.7892840 magnetization      94.7242800

 Free energy of the ion-electron system (eV)
  ---------------------------------------------------
  alpha Z        PSCENC =      2668.72143546
  Ewald energy   TEWEN  =    -68026.02584223
  -Hartree energ DENC   =    -39875.19680902
  -exchange      EXHF   =         0.00000000
  -V(xc)+E(xc)   XCENC  =      4298.60802151
  PAW double counting   =    114378.54537781  -118043.30335963
  entropy T*S    EENTRO =        -0.00000000
  eigenvalues    EBANDS =    -14690.84793804
  atomic energy  EATOM  =    118542.86816856
  Solvation  Ediel_sol  =         0.00000000
  ---------------------------------------------------
  free energy    TOTEN  =      -746.63094557 eV

  energy without entropy =     -746.63094557  energy(sigma->0) =     -746.63094557


--------------------------------------------------------------------------------------------------------




 average (electrostatic) potential at core
  the test charge radii are     0.7079  0.9500  0.9698  0.7215
  (the norm of the test charge is              1.0000)
       1 -59.3396       2 -59.3410       3 -59.3419       4 -59.3424       5 -59.3426
       6 -59.3424       7 -59.3425       8 -59.3418       9 -59.3427      10 -59.3419
      11 -59.3427      12 -59.3421      13 -59.5855      14 -59.5852      15 -59.5855
      16 -59.5851      17 -59.5851      18 -59.5852      19 -59.5857      20 -59.5872
      21 -59.5855      22 -59.5859      23 -59.5854      24 -59.5855      25 -59.1669
      26 -59.1662      27 -59.1672      28 -59.1665      29 -59.1670      30 -59.1638
      31 -59.1057      32 -59.1057      33 -59.1059      34 -59.1058      35 -59.1030
      36 -59.1058      37 -59.1667      38 -59.1691      39 -59.1664      40 -59.1666
      41 -59.1666      42 -59.1669      43 -59.1099      44 -59.1060      45 -59.1059
      46 -59.1059      47 -59.1061      48 -59.1059      49 -79.1137      50 -79.1139
      51 -79.1136      52 -79.1140      53 -79.1122      54 -79.1139      55 -79.1139
      56 -79.1141      57 -79.1140      58 -79.1141      59 -79.1138      60 -79.1141
      61 -78.8421      62 -78.8418      63 -78.8422      64 -78.8420      65 -78.8424
      66 -78.8420      67 -78.9365      68 -78.9391      69 -78.9389      70 -78.9392
      71 -78.9372      72 -78.9392      73 -78.8421      74 -78.8442      75 -78.8421
      76 -78.8423      77 -78.8421      78 -78.8447      79 -78.9391      80 -78.9389
      81 -78.9391      82 -78.9391      83 -78.9393      84 -78.9392      85 -85.7924
      86 -85.7914      87 -85.7925      88 -85.7923      89 -85.7926      90 -85.7924
      91 -85.8158      92 -85.8158      93 -85.8160      94 -85.8159      95 -85.8172
      96 -85.8159      97 -85.8199      98 -85.8204      99 -85.8198     100 -85.8200
     101 -85.8199     102 -85.8205     103 -85.8441     104 -85.8437     105 -85.8437
     106 -85.8437     107 -85.8440     108 -85.8437     109 -85.8199     110 -85.8191
     111 -85.8200     112 -85.8197     113 -85.8199     114 -85.8191     115 -85.8429
     116 -85.8437     117 -85.8436     118 -85.8437     119 -85.8431     120 -85.8437
     121 -69.8787     122 -69.8785     123 -69.8790     124 -69.8786     125 -69.8785
     126 -69.8783     127 -70.3562     128 -70.3568     129 -70.3566     130 -70.3568
     131 -70.3492     132 -70.3567     133 -69.8785     134 -69.8861     135 -69.8786
     136 -69.8789     137 -69.8787     138 -69.8792     139 -70.3572     140 -70.3569
     141 -70.3567     142 -70.3567     143 -70.3568     144 -70.3568
 
 
 
 E-fermi :   5.0891     XC(G=0): -10.2425     alpha+bet :-12.3269


 spin component 1

 k-point     1 :       0.0000    0.0000    0.0000
  band No.  band energies     occupation 
      1     -51.6030      1.00000
      2     -51.6029      1.00000
      3     -51.6027      1.00000
      4     -51.6027      1.00000
      5     -51.6027      1.00000
      6     -51.6027      1.00000
      7     -51.6027      1.00000
      8     -51.6025      1.00000
      9     -51.6024      1.00000
     10     -51.6023      1.00000
     11     -51.6022      1.00000
     12     -51.6007      1.00000
     13     -51.4180      1.00000
     14     -51.4178      1.00000
     15     -51.4178      1.00000
     16     -51.4178      1.00000
     17     -51.4178      1.00000
     18     -51.4177      1.00000
     19     -51.4175      1.00000
     20     -51.4174      1.00000
     21     -51.4174      1.00000
     22     -51.4173      1.00000
     23     -51.4155      1.00000
     24     -51.4149      1.00000
     25     -51.3006      1.00000
     26     -51.2999      1.00000
     27     -51.2981      1.00000
     28     -51.2979      1.00000
     29     -51.2979      1.00000
     30     -51.2979      1.00000
[...]
   -.110E+03 -.119E+02 -.437E+02   0.110E+03 0.118E+02 0.436E+02   -.222E+00 0.124E-02 0.566E-01   -.225E-03 -.203E-04 0.897E-04
   -.110E+03 -.118E+02 -.436E+02   0.110E+03 0.118E+02 0.436E+02   -.224E+00 0.278E-02 0.582E-01   -.267E-03 0.878E-04 0.179E-03
   -.110E+03 -.118E+02 -.436E+02   0.110E+03 0.118E+02 0.436E+02   -.224E+00 0.263E-02 0.577E-01   -.230E-03 -.135E-04 0.103E-03
   -.110E+03 -.118E+02 -.436E+02   0.110E+03 0.118E+02 0.436E+02   -.224E+00 0.287E-02 0.582E-01   -.254E-03 0.555E-04 0.137E-03
   -.110E+03 -.118E+02 -.437E+02   0.110E+03 0.118E+02 0.436E+02   -.222E+00 0.366E-02 0.550E-01   -.187E-03 0.455E-04 0.602E-04
   -.110E+03 -.118E+02 -.436E+02   0.110E+03 0.118E+02 0.436E+02   -.224E+00 0.278E-02 0.581E-01   -.269E-03 -.438E-04 0.123E-03
   -.101E+03 0.332E+02 0.198E+03   0.101E+03 -.334E+02 -.199E+03   -.480E+00 0.165E+00 0.974E+00   -.251E-03 0.957E-04 0.254E-03
   -.101E+03 0.332E+02 0.198E+03   0.101E+03 -.334E+02 -.199E+03   -.479E+00 0.166E+00 0.972E+00   -.264E-03 0.543E-04 0.209E-03
   -.101E+03 0.332E+02 0.198E+03   0.101E+03 -.334E+02 -.199E+03   -.480E+00 0.165E+00 0.974E+00   -.315E-03 0.356E-04 0.213E-03
   -.101E+03 0.332E+02 0.198E+03   0.101E+03 -.334E+02 -.199E+03   -.480E+00 0.164E+00 0.974E+00   -.257E-03 0.933E-04 0.219E-03
   -.101E+03 0.332E+02 0.198E+03   0.101E+03 -.334E+02 -.199E+03   -.480E+00 0.164E+00 0.974E+00   -.241E-03 -.148E-04 0.189E-03
   -.101E+03 0.332E+02 0.198E+03   0.101E+03 -.333E+02 -.199E+03   -.479E+00 0.163E+00 0.973E+00   -.272E-03 -.212E-04 0.206E-03
   0.110E+03 0.118E+02 0.436E+02   -.110E+03 -.118E+02 -.435E+02   0.222E+00 -.131E-02 -.594E-01   0.224E-03 -.299E-04 -.842E-04
   0.110E+03 0.118E+02 0.436E+02   -.110E+03 -.118E+02 -.436E+02   0.224E+00 -.286E-02 -.585E-01   0.186E-03 0.487E-04 -.129E-03
   0.110E+03 0.118E+02 0.436E+02   -.110E+03 -.118E+02 -.436E+02   0.223E+00 -.288E-02 -.583E-01   0.235E-03 0.369E-04 -.103E-03
   0.110E+03 0.118E+02 0.436E+02   -.110E+03 -.118E+02 -.436E+02   0.224E+00 -.289E-02 -.583E-01   0.222E-03 0.740E-05 -.887E-04
   0.110E+03 0.118E+02 0.436E+02   -.110E+03 -.118E+02 -.436E+02   0.222E+00 -.477E-02 -.583E-01   0.233E-03 -.717E-04 -.289E-04
   0.110E+03 0.118E+02 0.436E+02   -.110E+03 -.118E+02 -.436E+02   0.224E+00 -.279E-02 -.584E-01   0.207E-03 -.102E-03 -.900E-04
   0.102E+02 0.969E+01 0.504E+02   -.105E+02 -.976E+01 -.508E+02   0.330E+00 0.730E-01 0.333E+00   -.204E-04 -.317E-04 -.224E-03
   0.102E+02 0.968E+01 0.504E+02   -.105E+02 -.976E+01 -.508E+02   0.330E+00 0.735E-01 0.332E+00   -.362E-04 0.192E-04 -.153E-03
   0.102E+02 0.967E+01 0.505E+02   -.105E+02 -.975E+01 -.508E+02   0.331E+00 0.746E-01 0.333E+00   0.187E-03 -.164E-04 -.195E-03
   0.102E+02 0.967E+01 0.504E+02   -.105E+02 -.975E+01 -.508E+02   0.330E+00 0.733E-01 0.333E+00   0.672E-04 -.517E-04 -.208E-03
   0.102E+02 0.967E+01 0.505E+02   -.105E+02 -.975E+01 -.508E+02   0.328E+00 0.724E-01 0.333E+00   0.155E-03 -.504E-04 -.267E-03
   0.102E+02 0.967E+01 0.504E+02   -.106E+02 -.975E+01 -.508E+02   0.331E+00 0.725E-01 0.332E+00   -.209E-04 -.924E-04 -.260E-03
   -.603E+01 -.202E+02 -.109E+03   0.623E+01 0.208E+02 0.112E+03   -.202E+00 -.590E+00 -.317E+01   0.685E-04 -.581E-04 -.560E-04
   -.603E+01 -.203E+02 -.109E+03   0.623E+01 0.209E+02 0.112E+03   -.201E+00 -.592E+00 -.317E+01   -.100E-05 -.360E-04 -.127E-03
   -.603E+01 -.203E+02 -.109E+03   0.623E+01 0.209E+02 0.112E+03   -.202E+00 -.593E+00 -.317E+01   -.300E-04 0.461E-05 -.107E-03
   -.603E+01 -.203E+02 -.109E+03   0.623E+01 0.209E+02 0.112E+03   -.201E+00 -.592E+00 -.317E+01   -.192E-03 -.845E-04 -.148E-03
   -.602E+01 -.204E+02 -.109E+03   0.622E+01 0.210E+02 0.112E+03   -.200E+00 -.610E+00 -.323E+01   -.359E-04 0.161E-03 0.732E-03
   -.603E+01 -.203E+02 -.109E+03   0.623E+01 0.209E+02 0.112E+03   -.201E+00 -.592E+00 -.317E+01   -.136E-03 0.625E-04 0.421E-03
   -.102E+02 -.968E+01 -.504E+02   0.105E+02 0.975E+01 0.508E+02   -.329E+00 -.732E-01 -.332E+00   -.116E-03 -.715E-04 -.394E-03
   -.105E+02 -.983E+01 -.509E+02   0.109E+02 0.992E+01 0.513E+02   -.364E+00 -.899E-01 -.379E+00   0.295E-03 0.162E-03 0.723E-03
   -.102E+02 -.968E+01 -.504E+02   0.105E+02 0.975E+01 0.508E+02   -.330E+00 -.730E-01 -.332E+00   0.106E-03 0.438E-04 0.130E-03
   -.102E+02 -.969E+01 -.504E+02   0.105E+02 0.977E+01 0.508E+02   -.330E+00 -.742E-01 -.331E+00   -.395E-04 0.710E-04 0.871E-04
   -.102E+02 -.968E+01 -.504E+02   0.105E+02 0.975E+01 0.508E+02   -.330E+00 -.729E-01 -.332E+00   0.704E-04 -.160E-04 0.237E-03
   -.102E+02 -.964E+01 -.504E+02   0.105E+02 0.972E+01 0.508E+02   -.330E+00 -.706E-01 -.333E+00   -.133E-04 -.339E-04 0.147E-03
   0.609E+01 0.203E+02 0.109E+03   -.629E+01 -.209E+02 -.112E+03   0.204E+00 0.591E+00 0.317E+01   -.914E-04 -.755E-05 0.608E-04
   0.602E+01 0.203E+02 0.109E+03   -.622E+01 -.209E+02 -.112E+03   0.201E+00 0.592E+00 0.317E+01   -.140E-03 -.197E-05 0.183E-03
   0.604E+01 0.203E+02 0.109E+03   -.624E+01 -.209E+02 -.112E+03   0.201E+00 0.593E+00 0.317E+01   -.195E-04 0.518E-04 0.144E-03
   0.603E+01 0.203E+02 0.109E+03   -.623E+01 -.209E+02 -.112E+03   0.202E+00 0.593E+00 0.317E+01   -.835E-04 0.695E-04 0.108E-03
   0.604E+01 0.203E+02 0.109E+03   -.624E+01 -.209E+02 -.112E+03   0.201E+00 0.592E+00 0.317E+01   -.337E-04 0.393E-04 -.122E-05
   0.603E+01 0.203E+02 0.109E+03   -.623E+01 -.209E+02 -.112E+03   0.202E+00 0.592E+00 0.317E+01   -.510E-04 0.145E-04 0.125E-03
 -----------------------------------------------------------------------------------------------
   0.522E-01 0.426E-01 0.209E+00   0.444E-14 -.625E-12 -.583E-12   -.517E-01 -.428E-01 -.211E+00   -.561E-03 0.131E-03 0.172E-02
 
 
 POSITION                                       TOTAL-FORCE (eV/Angst)
 -----------------------------------------------------------------------------------
      7.22907      0.01073     -1.26758        -0.006883     -0.004800     -0.051495
     14.83494      0.01342     -2.66938         0.000079     -0.000059     -0.000161
      7.09313      3.98939     -2.01336         0.000281     -0.000336     -0.000376
     14.69895      3.99197     -3.40517         0.000115     -0.000139     -0.000114
      6.95714      7.96794     -2.74915         0.000389     -0.000411     -0.000383
     14.56295      7.97052     -4.14096         0.000113     -0.000129     -0.000109
      3.98184      3.85991      8.99850        -0.000141      0.000077      0.000433
     11.58765      3.86250      7.60670        -0.000314     -0.000053      0.000214
      3.84584      7.83847      8.26272        -0.000339     -0.000140      0.000531
     11.45166      7.84105      6.87091        -0.000164      0.000103      0.000162
      3.70985     11.81702      7.52693        -0.000817      0.000338     -0.000362
     11.31566     11.81960      6.13512        -0.000284      0.000209      0.000044
      2.55910      3.13146      5.32254        -0.000303      0.000311      0.000087
     10.16492      3.13404      3.93074        -0.000619      0.000275      0.000359
      2.42311      7.11001      4.58676        -0.000340      0.000488     -0.000004
     10.02892      7.11259      3.19495        -0.000635      0.000587      0.000155
      2.28711     11.08856      3.85097        -0.000287      0.000460      0.000126
      9.89292     11.09115      2.45916        -0.000689      0.000495      0.000419
      1.04605      0.73671      3.79019         0.000478     -0.000409     -0.000105
      8.65187      0.73929      2.39838         0.000858     -0.000096      0.001343
      0.91006      4.71526      3.05441         0.000461     -0.000420     -0.000157
      8.51587      4.71784      1.66260         0.000426     -0.000289     -0.000014
      0.77406      8.69381      2.31862         0.000474     -0.000449     -0.000133
      8.37988      8.69640      0.92681         0.000450     -0.000488      0.000247
      1.45504      3.57815      7.94200        -0.000321      0.000079     -0.000191
      9.06085      3.58074      6.55019        -0.000399     -0.000097     -0.000128
      1.31904      7.55671      7.20621        -0.000372      0.000077     -0.000196
      8.92486      7.55929      5.81440        -0.000443      0.000099     -0.000295
      1.18305     11.53526      6.47042        -0.000276      0.000135     -0.000246
      8.78886     11.53784      5.07861        -0.004033      0.000588      0.001728
      5.07438      3.44123      6.53268        -0.001186     -0.000358     -0.000325
     12.68020      3.44382      5.14088        -0.001367     -0.000256      0.000015
      4.93839      7.41979      5.79690        -0.001197     -0.000457     -0.000511
     12.54420      7.42237      4.40509        -0.001349     -0.000240     -0.000012
      4.80239     11.39834      5.06111         0.002491      0.000492      0.001799
     12.40821     11.40092      3.66930        -0.001404     -0.000223      0.000006
      2.15012      0.29001      1.17074         0.000245     -0.000061      0.000220
      9.75593      0.29260     -0.22107         0.003585      0.000199     -0.000432
      2.01412      4.26856      0.43495         0.000331     -0.000108      0.000243
      9.61994      4.27115     -0.95685         0.000480     -0.000315     -0.000119
      1.87813      8.24712     -0.30083         0.000296     -0.000110      0.000261
      9.48394      8.24970     -1.69264         0.000500     -0.000163     -0.000023
      6.13659      0.42951      1.18824        -0.002262      0.001457      0.005824
     13.74240      0.43210     -0.20356         0.001313      0.000267      0.000010
      6.00059      4.40807      0.45246         0.001121      0.000210     -0.000096
     13.60640      4.41065     -0.93935         0.001291      0.000231      0.000005
      5.86459      8.38662     -0.28333         0.001150      0.000132      0.000156
     13.47041      8.38920     -1.67514         0.001320      0.000228      0.000013
      6.92999      3.12103      4.45828         0.000269      0.000276      0.000376
     14.53580      3.12361      3.06647        -0.000003      0.000403     -0.000173
      6.79399      7.09958      3.72249         0.000134      0.000723     -0.000108
     14.39981      7.10216      2.33068        -0.000014      0.000459     -0.000228
      6.65800     11.07813      2.98670         0.000648      0.001297      0.003812
     14.26381     11.08072      1.59490         0.000008      0.000482     -0.000159
      4.28098      0.74972      3.26265        -0.000088     -0.000279      0.000968
     11.88680      0.75231      1.87084         0.000317     -0.000376      0.000210
      4.14499      4.72827      2.52686        -0.000222     -0.000266      0.000171
     11.75080      4.73086      1.13506         0.000204     -0.000249     -0.000030
      4.00899      8.70683      1.79108        -0.000104     -0.000587      0.000700
     11.61480      8.70941      0.39927         0.000240     -0.000734      0.000169
      3.31066      1.50553      7.52882         0.000038     -0.000526     -0.000113
     10.91647      1.50812      6.13701        -0.000269     -0.000316      0.000254
      3.17466      5.48408      6.79303         0.000067     -0.000377      0.000182
     10.78047      5.48667      5.40123         0.000006     -0.000302      0.000228
      3.03866      9.46264      6.05725        -0.000508      0.000083     -0.000668
     10.64448      9.46522      4.66544        -0.000125     -0.000047     -0.000178
      7.16488      1.53262      6.96291         0.000237     -0.008833      0.006907
     14.77069      1.53520      5.57110        -0.000235      0.000035     -0.000095
      7.02888      5.51117      6.22712        -0.000176     -0.000162     -0.000229
     14.63470      5.51376      4.83531        -0.000238     -0.000020     -0.000113
      6.89289      9.48972      5.49134        -0.000316      0.008948      0.000681
     14.49870      9.49231      4.09953        -0.000271      0.000032     -0.000183
      0.29450      2.36263      1.58392        -0.000073      0.000252     -0.000279
      7.90031      2.36522      0.19211         0.001114      0.008666      0.000238
      0.15850      6.34118      0.84813        -0.000044      0.000172     -0.000179
      7.76432      6.34377     -0.54368        -0.000029      0.000021     -0.000166
      0.02251     10.31974      0.11234        -0.000067      0.000188     -0.000169
      7.62832     10.32232     -1.27946         0.002607     -0.008086      0.005992
      4.04609      2.33813      0.75802         0.000244      0.000417     -0.000415
     11.65190      2.34071     -0.63379        -0.000162      0.000120     -0.000511
      3.91009      6.31668      0.02223         0.000226     -0.000091      0.000244
     11.51591      6.31927     -1.36957         0.000208     -0.000112      0.000119
      3.77410     10.29523     -0.71355        -0.000000     -0.000337      0.000427
     11.37991     10.29782     -2.10536         0.000169     -0.000203     -0.000147
      1.83346      1.98992     -0.71585        -0.000041     -0.000041     -0.000014
      9.43927      1.99251     -2.10765         0.001179      0.001133      0.001790
      1.69746      5.96848     -1.45163         0.000023      0.000037     -0.000061
      9.30327      5.97106     -2.84344        -0.000027      0.000157      0.000147
      1.56146      9.94703     -2.18742         0.000187     -0.000027     -0.000065
      9.16728      9.94961     -3.57923         0.000212      0.000054      0.002167
      5.63636      1.99121     -1.41175         0.000379     -0.000316      0.003208
     13.24218      1.99380     -2.80356         0.000183     -0.000007     -0.000014
      5.50037      5.96977     -2.14754        -0.000023      0.000214      0.000045
     13.10618      5.97235     -3.53934         0.000052      0.000036     -0.000008
      5.36437      9.94832     -2.88332        -0.000174     -0.000109      0.003176
     12.97019      9.95090     -4.27513         0.000045     -0.000027      0.000024
      2.56367      2.68225      2.89273        -0.000000     -0.000378      0.000059
     10.16948      2.68483      1.50092        -0.000751     -0.001100      0.000019
      2.42767      6.66080      2.15695        -0.000068     -0.000449      0.000109
     10.03348      6.66338      0.76514        -0.000009     -0.000412      0.000066
      2.29167     10.63935      1.42116         0.000006     -0.000413      0.000011
      9.89749     10.64194      0.02935        -0.000818      0.000131     -0.000354
      6.20353      2.68166      2.21682         0.000687     -0.001003     -0.000773
     13.80935      2.68425      0.82501         0.000051     -0.000316      0.000068
      6.06754      6.66021      1.48103         0.000126     -0.000370     -0.000236
     13.67335      6.66280      0.08922         0.000111     -0.000281      0.000042
      5.93154     10.63877      0.74524         0.000463      0.000009     -0.001612
     13.53736     10.64135     -0.64656         0.000024     -0.000314      0.000019
      1.04149      1.18592      6.22000        -0.000076      0.000387     -0.000147
      8.64730      1.18850      4.82820         0.000523      0.000995     -0.001304
      0.90550      5.16447      5.48422         0.000029      0.000429     -0.000124
      8.51131      5.16705      4.09241         0.000021      0.000363     -0.000273
      0.76950      9.14302      4.74843        -0.000025      0.000369     -0.000085
      8.37531      9.14561      3.35662         0.000599     -0.000506     -0.000738
      5.00744      1.18909      5.50411        -0.000983      0.000833     -0.000824
     12.61325      1.19167      4.11230        -0.000104      0.000273     -0.000171
      4.87144      5.16764      4.76833        -0.000196      0.000272     -0.000085
     12.47726      5.17022      3.37652        -0.000154      0.000266     -0.000099
      4.73545      9.14619      4.03254        -0.000907     -0.000481     -0.000324
     12.34126      9.14878      2.64073        -0.000105      0.000322     -0.000129
      3.25420      3.50303      7.20326         0.000156      0.000094      0.000308
     10.86001      3.50562      5.81145         0.000136      0.000296     -0.000054
      3.11820      7.48158      6.46748         0.000377      0.000647      0.000387
     10.72402      7.48417      5.07567         0.000050      0.000161      0.000172
      2.98221     11.46014      5.73169        -0.000314     -0.000168      0.000412
     10.58802     11.46272      4.33988         0.000425     -0.000082     -0.000024
      7.07061      3.50996      6.53535        -0.000687      0.000765     -0.000529
     14.67642      3.51255      5.14354        -0.000420     -0.000080     -0.000254
      6.93461      7.48852      5.79957        -0.000643     -0.000601      0.000131
     14.54042      7.49110      4.40776        -0.000402     -0.000099     -0.000225
      6.79861     11.46707      5.06378        -0.000507     -0.000315      0.005124
     14.40443     11.46965      3.67197        -0.000396     -0.000210     -0.000260
      0.35096      0.36513      1.90947         0.000061     -0.000153      0.000061
      7.95677      0.36772      0.51767         0.002925      0.001149      0.013231
      0.21496      4.34368      1.17369         0.000006     -0.000072     -0.000017
      7.82078      4.34627     -0.21812         0.000057     -0.000740      0.000285
      0.07897      8.32224      0.43790         0.000017     -0.000045     -0.000049
      7.68478      8.32482     -0.95391        -0.000116      0.001010     -0.000354
      4.14036      0.36078      1.18558         0.001025     -0.000135     -0.000069
     11.74618      0.36337     -0.20623         0.000289     -0.000008      0.000533
      4.00437      4.33934      0.44979         0.000323      0.000428      0.000495
     11.61018      4.34192     -0.94202         0.000642      0.000463      0.000581
      3.86837      8.31789     -0.28600         0.000442      0.000194      0.000176
     11.47419      8.32047     -1.67780         0.000499      0.000170      0.000482
 -----------------------------------------------------------------------------------
    total drift:                               -0.000099     -0.000083     -0.000270


--------------------------------------------------------------------------------------------------------



  FREE ENERGIE OF THE ION-ELECTRON SYSTEM (eV)
  ---------------------------------------------------
  free  energy   TOTEN  =      -746.63094557 eV

  energy  without entropy=     -746.63094557  energy(sigma->0) =     -746.63094557
 


--------------------------------------------------------------------------------------------------------


    POTLOK:  cpu time    2.6062: real time    2.6125


--------------------------------------------------------------------------------------------------------


     LOOP+:  cpu time 8432.1206: real time 8527.0792
    4ORBIT:  cpu time    0.0000: real time    0.0000

 total amount of memory used by VASP MPI-rank0   980488. kBytes
=======================================================================

   base      :      30000. kBytes
   nonl-proj :      97026. kBytes
   fftplans  :      74745. kBytes
   grid      :      63949. kBytes
   one-center:        746. kBytes
   wavefun   :     714022. kBytes
 
  
  
 General timing and accounting informations for this job:
 ========================================================
  
                  Total CPU time used (sec):     8568.515
                            User time (sec):     8490.758
                          System time (sec):       77.756
                         Elapsed time (sec):     8665.464
  
                   Maximum memory used (kb):     1175200.
                   Average memory used (kb):           0.
  
                          Minor page faults:       771550
                          Major page faults:           40
                 Voluntary context switches:        85754
