<?xml version="1.0" encoding="ISO-8859-1"?>
<modeling>
 <generator>
  <i name="program" type="string">vasp </i>
  <i name="version" type="string">5.4.4.18Apr17-6-g9f103f2a35  </i>
  <i name="subversion" type="string">(build Oct 25 2017 14:42:18) complex            parallel </i>
  <i name="platform" type="string">LinuxIFC </i>
  <i name="date" type="string">2021 04 18 </i>
  <i name="time" type="string">00:22:48 </i>
 </generator>
 <incar>
  <i type="string" name="PREC">accurate</i>
  <i type="string" name="ALGO"> normal</i>
  <i type="logical" name="ADDGRID"> T  </i>
  <i type="int" name="ISPIN">     2</i>
  <i type="int" name="ICHARG">     1</i>
  <i type="int" name="NELM">   200</i>
  <i type="int" name="NELMIN">     8</i>
  <i name="EDIFF">      0.00000100</i>
  <i type="int" name="ISYM">     0</i>
  <i name="ENCUT">    650.00000000</i>
  <v name="MAGMOM">      0.60000000      0.60000000      0.60000000      0.60000000      0.60000000      0.60000000      0.60000000      0.60000000      0.60000000      0.60000000      0.60000000      0.60000000      0.60000000      0.60000000      0.60000000      0.60000000      0.60000000      0.60000000      0.60000000      0.60000000
      0.60000000      0.60000000      0.60000000      0.60000000      0.60000000      0.60000000      0.60000000      0.60000000      0.60000000      0.60000000      0.60000000      0.60000000      0.60000000      0.60000000      0.60000000      0.60000000      0.60000000      0.60000000      0.60000000      0.60000000
      0.60000000      0.60000000      0.60000000      0.60000000      0.60000000      0.60000000      0.60000000      0.60000000      5.00000000      5.00000000      5.00000000      5.00000000      5.00000000      5.00000000      5.00000000      5.00000000      5.00000000      5.00000000      5.00000000      5.00000000
      5.00000000      5.00000000      5.00000000      5.00000000      5.00000000      5.00000000      5.00000000      5.00000000      5.00000000      5.00000000      5.00000000      5.00000000      5.00000000      5.00000000      5.00000000      5.00000000      5.00000000      5.00000000      5.00000000      5.00000000
      5.00000000      5.00000000      5.00000000      5.00000000      0.60000000      0.60000000      0.60000000      0.60000000      0.60000000      0.60000000      0.60000000      0.60000000      0.60000000      0.60000000      0.60000000      0.60000000      0.60000000      0.60000000      0.60000000      0.60000000
      0.60000000      0.60000000      0.60000000      0.60000000      0.60000000      0.60000000      0.60000000      0.60000000      0.60000000      0.60000000      0.60000000      0.60000000      0.60000000      0.60000000      0.60000000      0.60000000      0.60000000      0.60000000      0.60000000      0.60000000
      0.60000000      0.60000000      0.60000000      0.60000000      0.60000000      0.60000000      0.60000000      0.60000000      0.60000000      0.60000000      0.60000000      0.60000000      0.60000000      0.60000000      0.60000000      0.60000000      0.60000000      0.60000000      0.60000000      0.60000000
      0.60000000      0.60000000      0.60000000      0.60000000</v>
  <i type="logical" name="LREAL"> F  </i>
  <i type="int" name="ISMEAR">     0</i>
  <i name="SIGMA">      0.05000000</i>
  <i type="int" name="NWRITE">     1</i>
  <i type="int" name="LMAXMIX">     4</i>
  <i type="logical" name="LWAVE"> F  </i>
  <i type="logical" name="LASPH"> T  </i>
  <v type="int" name="KPOINT_BSE">    -1     0     0     0</v>
  <i type="int" name="NELM">   200</i>
  <i type="string" name="GGA"> pe</i>
  <i type="logical" name="LDAU"> T  </i>
  <v type="int" name="LDAUTYPE">     2</v>
  <v type="int" name="LDAUL">    -1     2    -1    -1</v>
  <v name="LDAUU">      0.00000000      4.00000000      0.00000000      0.00000000</v>
  <v name="LDAUJ">      0.00000000      0.00000000      0.00000000      0.00000000</v>
  <i type="logical" name="LASPH"> T  </i>
 </incar>
 <structure name="primitive_cell" >
  <crystal>
   <varray name="basis" >
    <v>      15.21162830       0.00516956      -2.78361592 </v>
    <v>      -0.40798665      11.93565774      -2.20735884 </v>
    <v>      -0.06175567      -0.11168197      10.54442638 </v>
   </varray>
   <i name="volume">   1908.54869108 </i>
   <varray name="rec_basis" >
    <v>       0.06581343       0.00232549       0.00041008 </v>
    <v>       0.00013433       0.08395174       0.00088997 </v>
    <v>       0.01740216       0.01818827       0.09513139 </v>
   </varray>
  </crystal>
  <varray name="positions" >
   <v>       0.47527516       0.00074367       0.00541030 </v>
   <v>      -0.47527003       0.03239991       0.19439947 </v>
   <v>       0.47618324      -0.03189981      -0.19139884 </v>
   <v>       0.37500000      -0.16666667       0.00000000 </v>
   <v>       0.37500000       0.16666667       0.00000000 </v>
   <v>       0.40535584       0.03794021       0.22764128 </v>
   <v>      -0.35733875       0.02567762       0.15406572 </v>
   <v>       0.47796480      -0.19750812      -0.18504874 </v>
   <v>       0.47796480       0.13582521      -0.18504874 </v>
   <v>       0.34464416      -0.03794021      -0.22764128 </v>
   <v>      -0.47447416      -0.13353711       0.19877732 </v>
   <v>      -0.47447416       0.19979622       0.19877732 </v>
   <v>      -0.39266125      -0.02567762      -0.15406572 </v>
   <v>      -0.37500000      -0.16666667       0.00000000 </v>
   <v>       0.27472484      -0.00074367      -0.00446200 </v>
   <v>      -0.37500000       0.16666667       0.00000000 </v>
   <v>       0.27381676       0.03189981       0.19139884 </v>
   <v>      -0.42788806       0.06536154       0.39216926 </v>
   <v>       0.22527003      -0.03239991      -0.19439947 </v>
   <v>       0.47527516      -0.33258966       0.00446200 </v>
   <v>       0.47527516       0.33407700       0.00446200 </v>
   <v>       0.46517249      -0.06641917      -0.39851502 </v>
   <v>       0.27203520      -0.13582521       0.18504874 </v>
   <v>       0.27203520       0.19750812       0.18504874 </v>
   <v>      -0.47527003      -0.30093342       0.19439947 </v>
   <v>      -0.47527003       0.36573324       0.19439947 </v>
   <v>       0.41542107      -0.10539691       0.36761855 </v>
   <v>       0.41542107       0.22793643       0.36761855 </v>
   <v>       0.22447416      -0.19979622      -0.19877732 </v>
   <v>       0.22447416       0.13353711      -0.19877732 </v>
   <v>       0.47618324      -0.36523314      -0.19139884 </v>
   <v>       0.33457893      -0.22793643      -0.36761855 </v>
   <v>       0.33457893       0.10539691      -0.36761855 </v>
   <v>       0.47618324       0.30143353      -0.19139884 </v>
   <v>      -0.22527516      -0.00074367      -0.00446200 </v>
   <v>      -0.22618324       0.03189981       0.19139884 </v>
   <v>      -0.27472997      -0.03239991      -0.19439947 </v>
   <v>      -0.32385262      -0.10523528       0.36858830 </v>
   <v>      -0.32385262       0.22809805       0.36858830 </v>
   <v>      -0.42614738      -0.22809805      -0.36858830 </v>
   <v>      -0.42614738       0.10523528      -0.36858830 </v>
   <v>       0.40535584      -0.29539312       0.22764128 </v>
   <v>       0.40535584       0.37127355       0.22764128 </v>
   <v>      -0.35733875      -0.30765571       0.15406572 </v>
   <v>      -0.35733875       0.35901095       0.15406572 </v>
   <v>       0.34464416      -0.37127355      -0.22764128 </v>
   <v>       0.34464416       0.29539312      -0.22764128 </v>
   <v>      -0.39266125      -0.35901095      -0.15406572 </v>
   <v>      -0.39266125       0.30765571      -0.15406572 </v>
   <v>      -0.22796480      -0.13582521       0.18504874 </v>
   <v>      -0.22796480       0.19750812       0.18504874 </v>
   <v>       0.27472484      -0.33407700      -0.00446200 </v>
   <v>       0.27472484       0.33258966      -0.00446200 </v>
   <v>      -0.27552584      -0.19979622      -0.19877732 </v>
   <v>      -0.27552584       0.13353711      -0.19877732 </v>
   <v>       0.28482751       0.06641917       0.39851502 </v>
   <v>       0.17788806      -0.06536154      -0.39216926 </v>
   <v>       0.10733875      -0.02567762      -0.15406572 </v>
   <v>      -0.32211194      -0.06536154      -0.39216926 </v>
   <v>       0.14266125       0.02567762       0.15406572 </v>
   <v>       0.27381676      -0.30143353       0.19139884 </v>
   <v>       0.27381676       0.36523314       0.19139884 </v>
   <v>      -0.21517249       0.06641917       0.39851502 </v>
   <v>      -0.42788806      -0.26797179       0.39216926 </v>
   <v>      -0.42788806       0.39869487       0.39216926 </v>
   <v>       0.22527003      -0.36573324      -0.19439947 </v>
   <v>       0.22527003       0.30093342      -0.19439947 </v>
   <v>       0.12500000      -0.16666667       0.00000000 </v>
   <v>       0.12500000       0.16666667       0.00000000 </v>
   <v>       0.46517249      -0.39975250      -0.39851502 </v>
   <v>       0.46517249       0.26691416      -0.39851502 </v>
   <v>      -0.22527516      -0.33407700      -0.00446200 </v>
   <v>      -0.22618324      -0.30143353       0.19139884 </v>
   <v>      -0.22527516       0.33258966      -0.00446200 </v>
   <v>      -0.22618324       0.36523314       0.19139884 </v>
   <v>      -0.27472997      -0.36573324      -0.19439947 </v>
   <v>      -0.27472997       0.30093342      -0.19439947 </v>
   <v>       0.37500000      -0.50000000       0.00000000 </v>
   <v>       0.47796480       0.46915854      -0.18504874 </v>
   <v>      -0.47447416      -0.46687045       0.19877732 </v>
   <v>      -0.37500000      -0.50000000       0.00000000 </v>
   <v>      -0.12500000      -0.16666667       0.00000000 </v>
   <v>      -0.12500000       0.16666667       0.00000000 </v>
   <v>      -0.15535584      -0.03794021      -0.22764128 </v>
   <v>      -0.09464416       0.03794021       0.22764128 </v>
   <v>       0.28482751      -0.26691416       0.39851502 </v>
   <v>      -0.32211194       0.26797179      -0.39216926 </v>
   <v>       0.28482751       0.39975250       0.39851502 </v>
   <v>       0.17614738      -0.10523528       0.36858830 </v>
   <v>       0.17614738       0.22809805       0.36858830 </v>
   <v>       0.17788806      -0.39869487      -0.39216926 </v>
   <v>       0.17788806       0.26797179      -0.39216926 </v>
   <v>       0.10733875      -0.35901095      -0.15406572 </v>
   <v>       0.10733875       0.30765571      -0.15406572 </v>
   <v>      -0.32211194      -0.39869487      -0.39216926 </v>
   <v>       0.14266125      -0.30765571       0.15406572 </v>
   <v>       0.14266125       0.35901095       0.15406572 </v>
   <v>      -0.21517249      -0.26691416       0.39851502 </v>
   <v>      -0.21517249       0.39975250       0.39851502 </v>
   <v>       0.07385262      -0.22809805      -0.36858830 </v>
   <v>       0.07385262       0.10523528      -0.36858830 </v>
   <v>       0.27203520      -0.46915854       0.18504874 </v>
   <v>       0.41542107      -0.43873024       0.36761855 </v>
   <v>       0.22447416       0.46687045      -0.19877732 </v>
   <v>       0.33457893       0.43873024      -0.36761855 </v>
   <v>      -0.08457893      -0.10539691       0.36761855 </v>
   <v>      -0.08457893       0.22793643       0.36761855 </v>
   <v>      -0.32385262      -0.43856862       0.36858830 </v>
   <v>      -0.42614738       0.43856862      -0.36858830 </v>
   <v>       0.02472997       0.03239991       0.19439947 </v>
   <v>      -0.02381676      -0.03189981      -0.19139884 </v>
   <v>      -0.16542107      -0.22793643      -0.36761855 </v>
   <v>      -0.16542107       0.10539691      -0.36761855 </v>
   <v>      -0.22796480      -0.46915854       0.18504874 </v>
   <v>      -0.27552584       0.46687045      -0.19877732 </v>
   <v>      -0.02472484       0.00074367       0.00446200 </v>
   <v>      -0.15535584      -0.37127355      -0.22764128 </v>
   <v>      -0.15535584       0.29539312      -0.22764128 </v>
   <v>      -0.09464416      -0.29539312       0.22764128 </v>
   <v>      -0.09464416       0.37127355       0.22764128 </v>
   <v>      -0.02203520      -0.19750812      -0.18504874 </v>
   <v>      -0.02203520       0.13582521      -0.18504874 </v>
   <v>       0.02552584      -0.13353711       0.19877732 </v>
   <v>       0.02552584       0.19979622       0.19877732 </v>
   <v>       0.07211194       0.06536154       0.39216926 </v>
   <v>       0.12500000      -0.50000000       0.00000000 </v>
   <v>      -0.03482751      -0.06641917      -0.39851502 </v>
   <v>       0.07211194      -0.26797179       0.39216926 </v>
   <v>       0.17614738      -0.43856862       0.36858830 </v>
   <v>       0.02472997      -0.30093342       0.19439947 </v>
   <v>       0.02472997       0.36573324       0.19439947 </v>
   <v>      -0.02381676      -0.36523314      -0.19139884 </v>
   <v>      -0.02381676       0.30143353      -0.19139884 </v>
   <v>      -0.12500000      -0.50000000       0.00000000 </v>
   <v>      -0.16542107       0.43873024      -0.36761855 </v>
   <v>      -0.02472484      -0.33258966       0.00446200 </v>
   <v>      -0.02472484       0.33407700       0.00446200 </v>
   <v>       0.07211194       0.39869487       0.39216926 </v>
   <v>       0.07385262       0.43856862      -0.36858830 </v>
   <v>      -0.03482751       0.26691416      -0.39851502 </v>
   <v>      -0.03482751      -0.39975250      -0.39851502 </v>
   <v>      -0.08457893      -0.43873024       0.36761855 </v>
   <v>      -0.02203520       0.46915854      -0.18504874 </v>
   <v>       0.02552584      -0.46687045       0.19877732 </v>
  </varray>
 </structure>
 <varray name="primitive_index" >
  <v type="int" >        1 </v>
  <v type="int" >      134 </v>
  <v type="int" >      131 </v>
  <v type="int" >       95 </v>
  <v type="int" >       91 </v>
  <v type="int" >       43 </v>
  <v type="int" >       38 </v>
  <v type="int" >       71 </v>
  <v type="int" >       67 </v>
  <v type="int" >       35 </v>
  <v type="int" >       78 </v>
  <v type="int" >       74 </v>
  <v type="int" >       30 </v>
  <v type="int" >       90 </v>
  <v type="int" >       11 </v>
  <v type="int" >       86 </v>
  <v type="int" >      139 </v>
  <v type="int" >       20 </v>
  <v type="int" >      125 </v>
  <v type="int" >        5 </v>
  <v type="int" >        3 </v>
  <v type="int" >       53 </v>
  <v type="int" >       83 </v>
  <v type="int" >       79 </v>
  <v type="int" >      138 </v>
  <v type="int" >      136 </v>
  <v type="int" >      107 </v>
  <v type="int" >      103 </v>
  <v type="int" >       65 </v>
  <v type="int" >       61 </v>
  <v type="int" >      129 </v>
  <v type="int" >      119 </v>
  <v type="int" >      115 </v>
  <v type="int" >      127 </v>
  <v type="int" >       12 </v>
  <v type="int" >      140 </v>
  <v type="int" >      126 </v>
  <v type="int" >      102 </v>
  <v type="int" >       98 </v>
  <v type="int" >      114 </v>
  <v type="int" >      110 </v>
  <v type="int" >       47 </v>
  <v type="int" >       45 </v>
  <v type="int" >       42 </v>
  <v type="int" >       40 </v>
  <v type="int" >       33 </v>
  <v type="int" >       31 </v>
  <v type="int" >       28 </v>
  <v type="int" >       26 </v>
  <v type="int" >       84 </v>
  <v type="int" >       80 </v>
  <v type="int" >        9 </v>
  <v type="int" >        7 </v>
  <v type="int" >       66 </v>
  <v type="int" >       62 </v>
  <v type="int" >       55 </v>
  <v type="int" >       17 </v>
  <v type="int" >       29 </v>
  <v type="int" >       18 </v>
  <v type="int" >       37 </v>
  <v type="int" >      143 </v>
  <v type="int" >      141 </v>
  <v type="int" >       56 </v>
  <v type="int" >       24 </v>
  <v type="int" >       22 </v>
  <v type="int" >      123 </v>
  <v type="int" >      121 </v>
  <v type="int" >       89 </v>
  <v type="int" >       85 </v>
  <v type="int" >       51 </v>
  <v type="int" >       49 </v>
  <v type="int" >       10 </v>
  <v type="int" >      144 </v>
  <v type="int" >        8 </v>
  <v type="int" >      142 </v>
  <v type="int" >      124 </v>
  <v type="int" >      122 </v>
  <v type="int" >       93 </v>
  <v type="int" >       69 </v>
  <v type="int" >       76 </v>
  <v type="int" >       88 </v>
  <v type="int" >       96 </v>
  <v type="int" >       92 </v>
  <v type="int" >       36 </v>
  <v type="int" >       44 </v>
  <v type="int" >       59 </v>
  <v type="int" >       14 </v>
  <v type="int" >       57 </v>
  <v type="int" >      101 </v>
  <v type="int" >       97 </v>
  <v type="int" >       15 </v>
  <v type="int" >       13 </v>
  <v type="int" >       27 </v>
  <v type="int" >       25 </v>
  <v type="int" >       16 </v>
  <v type="int" >       41 </v>
  <v type="int" >       39 </v>
  <v type="int" >       60 </v>
  <v type="int" >       58 </v>
  <v type="int" >      113 </v>
  <v type="int" >      109 </v>
  <v type="int" >       81 </v>
  <v type="int" >      105 </v>
  <v type="int" >       63 </v>
  <v type="int" >      117 </v>
  <v type="int" >      108 </v>
  <v type="int" >      104 </v>
  <v type="int" >      100 </v>
  <v type="int" >      112 </v>
  <v type="int" >      133 </v>
  <v type="int" >      132 </v>
  <v type="int" >      120 </v>
  <v type="int" >      116 </v>
  <v type="int" >       82 </v>
  <v type="int" >       64 </v>
  <v type="int" >        2 </v>
  <v type="int" >       34 </v>
  <v type="int" >       32 </v>
  <v type="int" >       48 </v>
  <v type="int" >       46 </v>
  <v type="int" >       72 </v>
  <v type="int" >       68 </v>
  <v type="int" >       77 </v>
  <v type="int" >       73 </v>
  <v type="int" >       19 </v>
  <v type="int" >       87 </v>
  <v type="int" >       54 </v>
  <v type="int" >       23 </v>
  <v type="int" >       99 </v>
  <v type="int" >      137 </v>
  <v type="int" >      135 </v>
  <v type="int" >      130 </v>
  <v type="int" >      128 </v>
  <v type="int" >       94 </v>
  <v type="int" >      118 </v>
  <v type="int" >        6 </v>
  <v type="int" >        4 </v>
  <v type="int" >       21 </v>
  <v type="int" >      111 </v>
  <v type="int" >       50 </v>
  <v type="int" >       52 </v>
  <v type="int" >      106 </v>
  <v type="int" >       70 </v>
  <v type="int" >       75 </v>
 </varray>
 <kpoints>
  <generation param="Gamma">
   <v type="int" name="divisions">       2        3        3 </v>
   <v name="usershift">      0.00000000       0.00000000       0.00000000 </v>
   <v name="genvec1">      0.50000000       0.00000000      -0.00000000 </v>
   <v name="genvec2">      0.00000000       0.33333333       0.00000000 </v>
   <v name="genvec3">      0.00000000       0.00000000       0.33333333 </v>
   <v name="shift">      0.00000000       0.00000000       0.00000000 </v>
  </generation>
  <varray name="kpointlist" >
   <v>       0.00000000       0.00000000       0.00000000 </v>
   <v>       0.50000000      -0.00000000       0.00000000 </v>
   <v>      -0.00000000       0.33333333      -0.00000000 </v>
   <v>       0.50000000       0.33333333      -0.00000000 </v>
   <v>      -0.00000000       0.00000000       0.33333333 </v>
   <v>       0.50000000       0.00000000       0.33333333 </v>
   <v>      -0.00000000       0.33333333       0.33333333 </v>
   <v>       0.50000000       0.33333333       0.33333333 </v>
   <v>      -0.00000000      -0.33333333       0.33333333 </v>
   <v>       0.50000000      -0.33333333       0.33333333 </v>
  </varray>
  <varray name="weights" >
   <v>       0.05555556 </v>
   <v>       0.05555556 </v>
   <v>       0.11111111 </v>
   <v>       0.11111111 </v>
   <v>       0.11111111 </v>
   <v>       0.11111111 </v>
   <v>       0.11111111 </v>
   <v>       0.11111111 </v>
   <v>       0.11111111 </v>
   <v>       0.11111111 </v>
  </varray>
 </kpoints>
 <parameters>
  <separator name="general" >
   <i type="string" name="SYSTEM">unknown system</i>
   <i type="logical" name="LCOMPAT"> F  </i>
  </separator>
  <separator name="electronic" >
   <i type="string" name="PREC">accura</i>
   <i name="ENMAX">    650.00000000</i>
   <i name="ENAUG">    628.94500000</i>
   <i name="EDIFF">      0.00000100</i>
   <i type="int" name="IALGO">    38</i>
   <i type="int" name="IWAVPR">    10</i>
   <i type="int" name="NBANDS">   728</i>
   <i name="NELECT">   1008.00000000</i>
   <i type="int" name="TURBO">     0</i>
   <i type="int" name="IRESTART">     0</i>
   <i type="int" name="NREBOOT">     0</i>
   <i type="int" name="NMIN">     0</i>
   <i name="EREF">      0.00000000</i>
   <separator name="electronic smearing" >
    <i type="int" name="ISMEAR">     0</i>
    <i name="SIGMA">      0.05000000</i>
    <i name="KSPACING">      0.50000000</i>
    <i type="logical" name="KGAMMA"> T  </i>
   </separator>
   <separator name="electronic projectors" >
    <i type="logical" name="LREAL"> F  </i>
    <v name="ROPT">      0.00000000      0.00000000      0.00000000      0.00000000</v>
    <i type="int" name="LMAXPAW">  -100</i>
    <i type="int" name="LMAXMIX">     4</i>
    <i type="logical" name="NLSPLINE"> F  </i>
   </separator>
   <separator name="electronic startup" >
    <i type="int" name="ISTART">     0</i>
    <i type="int" name="ICHARG">     1</i>
    <i type="int" name="INIWAV">     1</i>
   </separator>
   <separator name="electronic spin" >
    <i type="int" name="ISPIN">     2</i>
    <i type="logical" name="LNONCOLLINEAR"> F  </i>
    <v name="MAGMOM">      0.60000000      0.60000000      0.60000000      0.60000000      0.60000000      0.60000000      0.60000000      0.60000000      0.60000000      0.60000000      0.60000000      0.60000000      0.60000000      0.60000000      0.60000000      0.60000000      0.60000000      0.60000000      0.60000000      0.60000000
      0.60000000      0.60000000      0.60000000      0.60000000      0.60000000      0.60000000      0.60000000      0.60000000      0.60000000      0.60000000      0.60000000      0.60000000      0.60000000      0.60000000      0.60000000      0.60000000      0.60000000      0.60000000      0.60000000      0.60000000
      0.60000000      0.60000000      0.60000000      0.60000000      0.60000000      0.60000000      0.60000000      0.60000000      5.00000000      5.00000000      5.00000000      5.00000000      5.00000000      5.00000000      5.00000000      5.00000000      5.00000000      5.00000000      5.00000000      5.00000000
      5.00000000      5.00000000      5.00000000      5.00000000      5.00000000      5.00000000      5.00000000      5.00000000      5.00000000      5.00000000      5.00000000      5.00000000      5.00000000      5.00000000      5.00000000      5.00000000      5.00000000      5.00000000      5.00000000      5.00000000
      5.00000000      5.00000000      5.00000000      5.00000000      0.60000000      0.60000000      0.60000000      0.60000000      0.60000000      0.60000000      0.60000000      0.60000000      0.60000000      0.60000000      0.60000000      0.60000000      0.60000000      0.60000000      0.60000000      0.60000000
      0.60000000      0.60000000      0.60000000      0.60000000      0.60000000      0.60000000      0.60000000      0.60000000      0.60000000      0.60000000      0.60000000      0.60000000      0.60000000      0.60000000      0.60000000      0.60000000      0.60000000      0.60000000      0.60000000      0.60000000
      0.60000000      0.60000000      0.60000000      0.60000000      0.60000000      0.60000000      0.60000000      0.60000000      0.60000000      0.60000000      0.60000000      0.60000000      0.60000000      0.60000000      0.60000000      0.60000000      0.60000000      0.60000000      0.60000000      0.60000000
      0.60000000      0.60000000      0.60000000      0.60000000</v>
    <i name="NUPDOWN">     -1.00000000</i>
    <i type="logical" name="LSORBIT"> F  </i>
    <v name="SAXIS">      0.00000000      0.00000000      1.00000000</v>
    <i type="logical" name="LSPIRAL"> F  </i>
    <v name="QSPIRAL">      0.00000000      0.00000000      0.00000000</v>
    <i type="logical" name="LZEROZ"> F  </i>
   </separator>
   <separator name="electronic exchange-correlation" >
    <i type="logical" name="LASPH"> T  </i>
    <i type="logical" name="LMETAGGA"> F  </i>
   </separator>
   <separator name="electronic convergence" >
    <i type="int" name="NELM">   200</i>
    <i type="int" name="NELMDL">     0</i>
    <i type="int" name="NELMIN">     8</i>
    <i name="ENINI">    650.00000000</i>
    <separator name="electronic convergence detail" >
     <i type="logical" name="LDIAG"> T  </i>
     <i type="logical" name="LSUBROT"> F  </i>
     <i name="WEIMIN">      0.00000000</i>
     <i name="EBREAK">      0.00000000</i>
     <i name="DEPER">      0.30000000</i>
     <i type="int" name="NRMM">     4</i>
     <i name="TIME">      0.40000000</i>
    </separator>
   </separator>
   <separator name="electronic mixer" >
    <i name="AMIX">      0.40000000</i>
    <i name="BMIX">      1.00000000</i>
    <i name="AMIN">      0.10000000</i>
    <i name="AMIX_MAG">      1.60000000</i>
    <i name="BMIX_MAG">      1.00000000</i>
    <separator name="electronic mixer details" >
     <i type="int" name="IMIX">     4</i>
     <i type="logical" name="MIXFIRST"> F  </i>
     <i type="int" name="MAXMIX">   -45</i>
     <i name="WC">    100.00000000</i>
     <i type="int" name="INIMIX">     1</i>
     <i type="int" name="MIXPRE">     1</i>
     <i type="int" name="MREMOVE">     5</i>
    </separator>
   </separator>
   <separator name="electronic dipolcorrection" >
    <i type="logical" name="LDIPOL"> F  </i>
    <i type="logical" name="LMONO"> F  </i>
    <i type="int" name="IDIPOL">     0</i>
    <i name="EPSILON">      1.00000000</i>
    <v name="DIPOL">   -100.00000000   -100.00000000   -100.00000000</v>
    <i name="EFIELD">      0.00000000</i>
   </separator>
  </separator>
  <separator name="grids" >
   <i type="int" name="NGX">   140</i>
   <i type="int" name="NGY">   108</i>
   <i type="int" name="NGZ">    90</i>
   <i type="int" name="NGXF">   280</i>
   <i type="int" name="NGYF">   216</i>
   <i type="int" name="NGZF">   180</i>
   <i type="logical" name="ADDGRID"> T  </i>
  </separator>
  <separator name="ionic" >
   <i type="int" name="NSW">     0</i>
   <i type="int" name="IBRION">    -1</i>
   <i type="int" name="MDALGO">     0</i>
   <i type="int" name="ISIF">     2</i>
   <i name="PSTRESS">      0.00000000</i>
   <i name="EDIFFG">      0.00001000</i>
   <i type="int" name="NFREE">     0</i>
   <i name="POTIM">      0.50000000</i>
   <i name="SMASS">     -3.00000000</i>
   <i name="SCALEE">      1.00000000</i>
  </separator>
  <separator name="ionic md" >
   <i name="TEBEG">      0.00010000</i>
   <i name="TEEND">      0.00010000</i>
   <i type="int" name="NBLOCK">     1</i>
   <i type="int" name="KBLOCK">     1</i>
   <i type="int" name="NPACO">   256</i>
   <i name="APACO">     16.00000000</i>
  </separator>
  <separator name="symmetry" >
   <i type="int" name="ISYM">     0</i>
   <i name="SYMPREC">      0.00001000</i>
  </separator>
  <separator name="dos" >
   <i type="int" name="LORBIT">     0</i>
   <v name="RWIGS">     -1.00000000     -1.00000000     -1.00000000     -1.00000000</v>
   <i type="int" name="NEDOS">   301</i>
   <i name="EMIN">     10.00000000</i>
   <i name="EMAX">    -10.00000000</i>
   <i name="EFERMI">      0.00000000</i>
  </separator>
  <separator name="writing" >
   <i type="int" name="NWRITE">     1</i>
   <i type="logical" name="LWAVE"> F  </i>
   <i type="logical" name="LDOWNSAMPLE"> F  </i>
   <i type="logical" name="LCHARG"> T  </i>
   <i type="logical" name="LPARD"> F  </i>
   <i type="logical" name="LVTOT"> F  </i>
   <i type="logical" name="LVHAR"> F  </i>
   <i type="logical" name="LELF"> F  </i>
   <i type="logical" name="LOPTICS"> F  </i>
   <v name="STM">      0.00000000      0.00000000      0.00000000      0.00000000      0.00000000      0.00000000      0.00000000</v>
  </separator>
  <separator name="performance" >
   <i type="int" name="NPAR">     4</i>
   <i type="int" name="NSIM">     4</i>
   <i type="int" name="NBLK">    -1</i>
   <i type="logical" name="LPLANE"> T  </i>
   <i type="logical" name="LSCALAPACK"> T  </i>
   <i type="logical" name="LSCAAWARE"> F  </i>
   <i type="logical" name="LSCALU"> F  </i>
   <i type="logical" name="LASYNC"> F  </i>
   <i type="logical" name="LORBITALREAL"> F  </i>
  </separator>
  <separator name="miscellaneous" >
   <i type="int" name="IDIOT">     3</i>
   <i type="int" name="ISPECIAL">     0</i>
   <i type="logical" name="LMUSIC"> F  </i>
   <v name="POMASS">      7.01000000     55.84700000     32.06600000     16.00000000</v>
   <v name="DARWINR">      0.00000000      0.00000000      0.00000000      0.00000000</v>
   <v name="DARWINV">      1.00000000      1.00000000      1.00000000      1.00000000</v>
   <i type="logical" name="LCORR"> T  </i>
  </separator>
  <i type="logical" name="GGA_COMPAT"> T  </i>
  <i type="logical" name="LBERRY"> F  </i>
  <i type="int" name="ICORELEVEL">     0</i>
  <i type="logical" name="LDAU"> T  </i>
  <v type="int" name="LDAUTYPE">     2</v>
  <v type="int" name="LDAUL">    -1</v>
  <v name="LDAUU">      0.00000000</v>
  <v name="LDAUJ">      0.00000000</v>
  <i type="int" name="LDAUPRINT">     0</i>
  <i type="int" name="I_CONSTRAINED_M">     0</i>
  <separator name="electronic exchange-correlation" >
   <i type="string" name="GGA">PE</i>
   <i type="int" name="VOSKOWN">     0</i>
   <i type="logical" name="LHFCALC"> F  </i>
   <i type="string" name="PRECFOCK"></i>
   <i type="logical" name="LSYMGRAD"> F  </i>
   <i type="logical" name="LHFONE"> F  </i>
   <i type="logical" name="LRHFCALC"> F  </i>
   <i type="logical" name="LTHOMAS"> F  </i>
   <i type="logical" name="LMODELHF"> F  </i>
   <i name="ENCUT4O">     -1.00000000</i>
   <i type="int" name="EXXOEP">     0</i>
   <i type="int" name="FOURORBIT">     0</i>
   <i name="AEXX">      0.00000000</i>
   <i name="HFALPHA">      0.00000000</i>
   <i name="MCALPHA">      0.00000000</i>
   <i name="ALDAX">      1.00000000</i>
   <i name="AGGAX">      1.00000000</i>
   <i name="ALDAC">      1.00000000</i>
   <i name="AGGAC">      1.00000000</i>
   <i type="int" name="NKREDX">     1</i>
   <i type="int" name="NKREDY">     1</i>
   <i type="int" name="NKREDZ">     1</i>
   <i type="logical" name="SHIFTRED"> F  </i>
   <i type="logical" name="ODDONLY"> F  </i>
   <i type="logical" name="EVENONLY"> F  </i>
   <i type="int" name="LMAXFOCK">     0</i>
   <i type="int" name="NMAXFOCKAE">     0</i>
   <i type="logical" name="LFOCKAEDFT"> F  </i>
   <i name="HFSCREEN">      0.00000000</i>
   <i name="HFSCREENC">      0.00000000</i>
   <i type="int" name="NBANDSGWLOW">     0</i>
  </separator>
  <separator name="vdW DFT" >
   <i type="logical" name="LUSE_VDW"> F  </i>
   <i name="Zab_VDW">     -0.84910000</i>
   <i name="PARAM1">      0.12340000</i>
   <i name="PARAM2">      1.00000000</i>
   <i name="PARAM3">      0.00000000</i>
  </separator>
  <separator name="model GW" >
   <i type="int" name="MODEL_GW">     0</i>
   <i name="MODEL_EPS0">      7.95228621</i>
   <i name="MODEL_ALPHA">      1.00000000</i>
  </separator>
  <separator name="linear response parameters" >
   <i type="logical" name="LEPSILON"> F  </i>
   <i type="logical" name="LRPA"> F  </i>
   <i type="logical" name="LNABLA"> F  </i>
   <i type="logical" name="LVEL"> F  </i>
   <i type="int" name="KINTER">     0</i>
   <i name="CSHIFT">      0.10000000</i>
   <i name="OMEGAMAX">     -1.00000000</i>
   <i name="DEG_THRESHOLD">      0.00200000</i>
   <i name="RTIME">     -0.10000000</i>
   <i name="WPLASMAI">      0.00000000</i>
   <v name="DFIELD">      0.00000000      0.00000000      0.00000000</v>
   <v name="WPLASMA">      0.00000000      0.00000000      0.00000000      0.00000000      0.00000000      0.00000000      0.00000000      0.00000000      0.00000000</v>
  </separator>
  <separator name="orbital magnetization" >
   <i type="logical" name="NUCIND"> F  </i>
   <v name="MAGPOS">      0.00000000      0.00000000      0.00000000</v>
   <i type="logical" name="LNICSALL"> T  </i>
   <i type="logical" name="ORBITALMAG"> F  </i>
   <i type="logical" name="LMAGBLOCH"> F  </i>
   <i type="logical" name="LCHIMAG"> F  </i>
   <i type="logical" name="LGAUGE"> T  </i>
   <i type="int" name="MAGATOM">     0</i>
   <v name="MAGDIPOL">      0.00000000      0.00000000      0.00000000</v>
   <v name="AVECCONST">      0.00000000      0.00000000      0.00000000</v>
  </separator>
  <separator name="response functions" >
   <i type="logical" name="LADDER"> F  </i>
   <i type="logical" name="LRPAFORCE"> F  </i>
   <i type="logical" name="LFXC"> F  </i>
   <i type="logical" name="LHARTREE"> T  </i>
   <i type="int" name="IBSE">     0</i>
   <v type="int" name="KPOINT">    -1     0     0     0</v>
   <i type="logical" name="LTCTE"> F  </i>
   <i type="logical" name="LTETE"> F  </i>
   <i type="logical" name="LTRIPLET"> F  </i>
   <i type="logical" name="LFXCEPS"> F  </i>
   <i type="logical" name="LFXHEG"> F  </i>
   <i type="int" name="NATURALO">     2</i>
   <i type="logical" name="L2ORDER"> F  </i>
   <i type="logical" name="LMP2LT"> F  </i>
   <i type="logical" name="LUSEW"> F  </i>
   <i name="ENCUTGW">     -2.00000000</i>
   <i name="ENCUTGWSOFT">     -2.00000000</i>
   <i name="ENCUTLF">     -1.00000000</i>
   <i type="int" name="LMAXMP2">    -1</i>
   <i name="SCISSOR">      0.00000000</i>
   <i type="int" name="NOMEGA">     0</i>
   <i type="int" name="NOMEGAR">     0</i>
   <i type="int" name="NBANDSGW">    -1</i>
   <i type="int" name="NBANDSO">    -1</i>
   <i type="int" name="NBANDSV">    -1</i>
   <i type="int" name="NELM">   200</i>
   <i type="int" name="NELMHF">     1</i>
   <i type="int" name="DIM">     3</i>
   <i type="int" name="ANTIRES">     0</i>
   <i name="OMEGAMAX">    -30.00000000</i>
   <i name="OMEGAMIN">    -30.00000000</i>
   <i name="OMEGATL">   -200.00000000</i>
   <i type="int" name="OMEGAGRID">   140</i>
   <i name="CSHIFT">     -0.10000000</i>
   <i type="logical" name="SELFENERGY"> F  </i>
   <i type="logical" name="LSPECTRAL"> F  </i>
   <i type="logical" name="LSPECTRALGW"> F  </i>
   <i type="logical" name="LSINGLES"> F  </i>
   <i type="logical" name="LFERMIGW"> F  </i>
   <i type="logical" name="ODDONLYGW"> F  </i>
   <i type="logical" name="EVENONLYGW"> F  </i>
   <i type="int" name="NKREDLFX">     1</i>
   <i type="int" name="NKREDLFY">     1</i>
   <i type="int" name="NKREDLFZ">     1</i>
   <i type="int" name="MAXMEM">  2800</i>
   <i type="int" name="TELESCOPE">     0</i>
   <i type="int" name="TAUPAR">     1</i>
   <i type="int" name="OMEGAPAR">    -1</i>
   <i name="LAMBDA">      1.00000000</i>
  </separator>
  <separator name="External order field" >
   <i name="OFIELD_KAPPA">      0.00000000</i>
   <v name="OFIELD_K">      0.00000000      0.00000000      0.00000000</v>
   <i name="OFIELD_Q6_NEAR">      0.00000000</i>
   <i name="OFIELD_Q6_FAR">      0.00000000</i>
   <i name="OFIELD_A">      0.00000000</i>
  </separator>
 </parameters>
 <atominfo>
  <atoms>     144 </atoms>
  <types>       4 </types>
  <array name="atoms" >
   <dimension dim="1">ion</dimension>
   <field type="string">element</field>
   <field type="int">atomtype</field>
   <set>
    <rc><c>Li</c><c>   1</c></rc>
    <rc><c>Li</c><c>   1</c></rc>
    <rc><c>Li</c><c>   1</c></rc>
    <rc><c>Li</c><c>   1</c></rc>
    <rc><c>Li</c><c>   1</c></rc>
    <rc><c>Li</c><c>   1</c></rc>
    <rc><c>Li</c><c>   1</c></rc>
    <rc><c>Li</c><c>   1</c></rc>
    <rc><c>Li</c><c>   1</c></rc>
    <rc><c>Li</c><c>   1</c></rc>
    <rc><c>Li</c><c>   1</c></rc>
    <rc><c>Li</c><c>   1</c></rc>
    <rc><c>Li</c><c>   1</c></rc>
    <rc><c>Li</c><c>   1</c></rc>
    <rc><c>Li</c><c>   1</c></rc>
    <rc><c>Li</c><c>   1</c></rc>
    <rc><c>Li</c><c>   1</c></rc>
    <rc><c>Li</c><c>   1</c></rc>
    <rc><c>Li</c><c>   1</c></rc>
    <rc><c>Li</c><c>   1</c></rc>
    <rc><c>Li</c><c>   1</c></rc>
    <rc><c>Li</c><c>   1</c></rc>
    <rc><c>Li</c><c>   1</c></rc>
    <rc><c>Li</c><c>   1</c></rc>
    <rc><c>Li</c><c>   1</c></rc>
    <rc><c>Li</c><c>   1</c></rc>
    <rc><c>Li</c><c>   1</c></rc>
    <rc><c>Li</c><c>   1</c></rc>
    <rc><c>Li</c><c>   1</c></rc>
    <rc><c>Li</c><c>   1</c></rc>
    <rc><c>Li</c><c>   1</c></rc>
    <rc><c>Li</c><c>   1</c></rc>
    <rc><c>Li</c><c>   1</c></rc>
    <rc><c>Li</c><c>   1</c></rc>
    <rc><c>Li</c><c>   1</c></rc>
    <rc><c>Li</c><c>   1</c></rc>
    <rc><c>Li</c><c>   1</c></rc>
    <rc><c>Li</c><c>   1</c></rc>
    <rc><c>Li</c><c>   1</c></rc>
    <rc><c>Li</c><c>   1</c></rc>
    <rc><c>Li</c><c>   1</c></rc>
    <rc><c>Li</c><c>   1</c></rc>
    <rc><c>Li</c><c>   1</c></rc>
    <rc><c>Li</c><c>   1</c></rc>
    <rc><c>Li</c><c>   1</c></rc>
    <rc><c>Li</c><c>   1</c></rc>
    <rc><c>Li</c><c>   1</c></rc>
    <rc><c>Li</c><c>   1</c></rc>
    <rc><c>Fe</c><c>   2</c></rc>
    <rc><c>Fe</c><c>   2</c></rc>
    <rc><c>Fe</c><c>   2</c></rc>
    <rc><c>Fe</c><c>   2</c></rc>
    <rc><c>Fe</c><c>   2</c></rc>
    <rc><c>Fe</c><c>   2</c></rc>
    <rc><c>Fe</c><c>   2</c></rc>
    <rc><c>Fe</c><c>   2</c></rc>
    <rc><c>Fe</c><c>   2</c></rc>
    <rc><c>Fe</c><c>   2</c></rc>
    <rc><c>Fe</c><c>   2</c></rc>
    <rc><c>Fe</c><c>   2</c></rc>
    <rc><c>Fe</c><c>   2</c></rc>
    <rc><c>Fe</c><c>   2</c></rc>
    <rc><c>Fe</c><c>   2</c></rc>
    <rc><c>Fe</c><c>   2</c></rc>
    <rc><c>Fe</c><c>   2</c></rc>
    <rc><c>Fe</c><c>   2</c></rc>
    <rc><c>Fe</c><c>   2</c></rc>
    <rc><c>Fe</c><c>   2</c></rc>
    <rc><c>Fe</c><c>   2</c></rc>
    <rc><c>Fe</c><c>   2</c></rc>
    <rc><c>Fe</c><c>   2</c></rc>
    <rc><c>Fe</c><c>   2</c></rc>
    <rc><c>Fe</c><c>   2</c></rc>
    <rc><c>Fe</c><c>   2</c></rc>
    <rc><c>Fe</c><c>   2</c></rc>
    <rc><c>Fe</c><c>   2</c></rc>
    <rc><c>Fe</c><c>   2</c></rc>
    <rc><c>Fe</c><c>   2</c></rc>
    <rc><c>Fe</c><c>   2</c></rc>
    <rc><c>Fe</c><c>   2</c></rc>
    <rc><c>Fe</c><c>   2</c></rc>
    <rc><c>Fe</c><c>   2</c></rc>
    <rc><c>Fe</c><c>   2</c></rc>
    <rc><c>Fe</c><c>   2</c></rc>
    <rc><c>S </c><c>   3</c></rc>
    <rc><c>S </c><c>   3</c></rc>
    <rc><c>S </c><c>   3</c></rc>
    <rc><c>S </c><c>   3</c></rc>
    <rc><c>S </c><c>   3</c></rc>
    <rc><c>S </c><c>   3</c></rc>
    <rc><c>S </c><c>   3</c></rc>
    <rc><c>S </c><c>   3</c></rc>
    <rc><c>S </c><c>   3</c></rc>
    <rc><c>S </c><c>   3</c></rc>
    <rc><c>S </c><c>   3</c></rc>
    <rc><c>S </c><c>   3</c></rc>
    <rc><c>S </c><c>   3</c></rc>
    <rc><c>S </c><c>   3</c></rc>
    <rc><c>S </c><c>   3</c></rc>
    <rc><c>S </c><c>   3</c></rc>
    <rc><c>S </c><c>   3</c></rc>
    <rc><c>S </c><c>   3</c></rc>
    <rc><c>S </c><c>   3</c></rc>
    <rc><c>S </c><c>   3</c></rc>
    <rc><c>S </c><c>   3</c></rc>
    <rc><c>S </c><c>   3</c></rc>
    <rc><c>S </c><c>   3</c></rc>
    <rc><c>S </c><c>   3</c></rc>
    <rc><c>S </c><c>   3</c></rc>
    <rc><c>S </c><c>   3</c></rc>
    <rc><c>S </c><c>   3</c></rc>
    <rc><c>S </c><c>   3</c></rc>
    <rc><c>S </c><c>   3</c></rc>
    <rc><c>S </c><c>   3</c></rc>
    <rc><c>S </c><c>   3</c></rc>
    <rc><c>S </c><c>   3</c></rc>
    <rc><c>S </c><c>   3</c></rc>
    <rc><c>S </c><c>   3</c></rc>
    <rc><c>S </c><c>   3</c></rc>
    <rc><c>S </c><c>   3</c></rc>
    <rc><c>O </c><c>   4</c></rc>
    <rc><c>O </c><c>   4</c></rc>
    <rc><c>O </c><c>   4</c></rc>
    <rc><c>O </c><c>   4</c></rc>
    <rc><c>O </c><c>   4</c></rc>
    <rc><c>O </c><c>   4</c></rc>
    <rc><c>O </c><c>   4</c></rc>
    <rc><c>O </c><c>   4</c></rc>
    <rc><c>O </c><c>   4</c></rc>
    <rc><c>O </c><c>   4</c></rc>
    <rc><c>O </c><c>   4</c></rc>
    <rc><c>O </c><c>   4</c></rc>
    <rc><c>O </c><c>   4</c></rc>
    <rc><c>O </c><c>   4</c></rc>
    <rc><c>O </c><c>   4</c></rc>
    <rc><c>O </c><c>   4</c></rc>
    <rc><c>O </c><c>   4</c></rc>
    <rc><c>O </c><c>   4</c></rc>
    <rc><c>O </c><c>   4</c></rc>
    <rc><c>O </c><c>   4</c></rc>
    <rc><c>O </c><c>   4</c></rc>
    <rc><c>O </c><c>   4</c></rc>
    <rc><c>O </c><c>   4</c></rc>
    <rc><c>O </c><c>   4</c></rc>
   </set>
  </array>
  <array name="atomtypes" >
   <dimension dim="1">type</dimension>
   <field type="int">atomspertype</field>
   <field type="string">element</field>
   <field>mass</field>
   <field>valence</field>
   <field type="string">pseudopotential</field>
   <set>
    <rc><c>  48</c><c>Li</c><c>      7.01000000</c><c>      3.00000000</c><c>  PAW_PBE Li_sv 10Sep2004               </c></rc>
    <rc><c>  36</c><c>Fe</c><c>     55.84700000</c><c>     14.00000000</c><c>  PAW_PBE Fe_pv 02Aug2007               </c></rc>
    <rc><c>  36</c><c>S </c><c>     32.06600000</c><c>      6.00000000</c><c>  PAW_PBE S 06Sep2000                   </c></rc>
    <rc><c>  24</c><c>O </c><c>     16.00000000</c><c>      6.00000000</c><c>  PAW_PBE O 08Apr2002                   </c></rc>
   </set>
  </array>
 </atominfo>
 <structure name="initialpos" >
  <crystal>
   <varray name="basis" >
    <v>      15.21162830       0.00516956      -2.78361592 </v>
    <v>      -0.40798665      11.93565774      -2.20735884 </v>
    <v>      -0.06175567      -0.11168197      10.54442638 </v>
   </varray>
   <i name="volume">   1908.54869108 </i>
   <varray name="rec_basis" >
    <v>       0.06581343       0.00232549       0.00041008 </v>
    <v>       0.00013433       0.08395174       0.00088997 </v>
    <v>       0.01740216       0.01818827       0.09513139 </v>
   </varray>
  </crystal>
  <varray name="positions" >
   <v>       0.47527516       0.00074367       0.00541030 </v>
   <v>       0.97527516       0.00074367       0.00446200 </v>
   <v>       0.47527516       0.33407700       0.00446200 </v>
   <v>       0.97527516       0.33407700       0.00446200 </v>
   <v>       0.47527516       0.66741034       0.00446200 </v>
   <v>       0.97527516       0.66741034       0.00446200 </v>
   <v>       0.27472484       0.33258966       0.99553800 </v>
   <v>       0.77472484       0.33258966       0.99553800 </v>
   <v>       0.27472484       0.66592300       0.99553800 </v>
   <v>       0.77472484       0.66592300       0.99553800 </v>
   <v>       0.27472484       0.99925633       0.99553800 </v>
   <v>       0.77472484       0.99925633       0.99553800 </v>
   <v>       0.17788805       0.26797179       0.60783074 </v>
   <v>       0.67788805       0.26797179       0.60783074 </v>
   <v>       0.17788805       0.60130513       0.60783074 </v>
   <v>       0.67788805       0.60130513       0.60783074 </v>
   <v>       0.17788805       0.93463846       0.60783074 </v>
   <v>       0.67788805       0.93463846       0.60783074 </v>
   <v>       0.07211195       0.06536154       0.39216926 </v>
   <v>       0.57211195       0.06536154       0.39216926 </v>
   <v>       0.07211195       0.39869487       0.39216926 </v>
   <v>       0.57211195       0.39869487       0.39216926 </v>
   <v>       0.07211195       0.73202821       0.39216926 </v>
   <v>       0.57211195       0.73202821       0.39216926 </v>
   <v>       0.10733875       0.30765571       0.84593428 </v>
   <v>       0.60733875       0.30765571       0.84593428 </v>
   <v>       0.10733875       0.64098905       0.84593428 </v>
   <v>       0.60733875       0.64098905       0.84593428 </v>
   <v>       0.10733875       0.97432238       0.84593428 </v>
   <v>       0.60733875       0.97432238       0.84593428 </v>
   <v>       0.34464416       0.29539312       0.77235872 </v>
   <v>       0.84464416       0.29539312       0.77235872 </v>
   <v>       0.34464416       0.62872645       0.77235872 </v>
   <v>       0.84464416       0.62872645       0.77235872 </v>
   <v>       0.34464416       0.96205979       0.77235872 </v>
   <v>       0.84464416       0.96205979       0.77235872 </v>
   <v>       0.14266125       0.02567762       0.15406572 </v>
   <v>       0.64266125       0.02567762       0.15406572 </v>
   <v>       0.14266125       0.35901095       0.15406572 </v>
   <v>       0.64266125       0.35901095       0.15406572 </v>
   <v>       0.14266125       0.69234429       0.15406572 </v>
   <v>       0.64266125       0.69234429       0.15406572 </v>
   <v>       0.40535584       0.03794021       0.22764128 </v>
   <v>       0.90535584       0.03794021       0.22764128 </v>
   <v>       0.40535584       0.37127355       0.22764128 </v>
   <v>       0.90535584       0.37127355       0.22764128 </v>
   <v>       0.40535584       0.70460688       0.22764128 </v>
   <v>       0.90535584       0.70460688       0.22764128 </v>
   <v>       0.46517249       0.26691416       0.60148498 </v>
   <v>       0.96517249       0.26691416       0.60148498 </v>
   <v>       0.46517249       0.60024750       0.60148498 </v>
   <v>       0.96517249       0.60024750       0.60148498 </v>
   <v>       0.46517249       0.93358083       0.60148498 </v>
   <v>       0.96517249       0.93358083       0.60148498 </v>
   <v>       0.28482751       0.06641917       0.39851502 </v>
   <v>       0.78482751       0.06641917       0.39851502 </v>
   <v>       0.28482751       0.39975250       0.39851502 </v>
   <v>       0.78482751       0.39975250       0.39851502 </v>
   <v>       0.28482751       0.73308584       0.39851502 </v>
   <v>       0.78482751       0.73308584       0.39851502 </v>
   <v>       0.22447416       0.13353711       0.80122268 </v>
   <v>       0.72447416       0.13353711       0.80122268 </v>
   <v>       0.22447416       0.46687045       0.80122268 </v>
   <v>       0.72447416       0.46687045       0.80122268 </v>
   <v>       0.22447416       0.80020378       0.80122268 </v>
   <v>       0.72447416       0.80020378       0.80122268 </v>
   <v>       0.47796479       0.13582521       0.81495126 </v>
   <v>       0.97796479       0.13582521       0.81495126 </v>
   <v>       0.47796479       0.46915854       0.81495126 </v>
   <v>       0.97796479       0.46915854       0.81495126 </v>
   <v>       0.47796479       0.80249188       0.81495126 </v>
   <v>       0.97796479       0.80249188       0.81495126 </v>
   <v>       0.02552584       0.19979622       0.19877732 </v>
   <v>       0.52552584       0.19979622       0.19877732 </v>
   <v>       0.02552584       0.53312955       0.19877732 </v>
   <v>       0.52552584       0.53312955       0.19877732 </v>
   <v>       0.02552584       0.86646289       0.19877732 </v>
   <v>       0.52552584       0.86646289       0.19877732 </v>
   <v>       0.27203521       0.19750812       0.18504874 </v>
   <v>       0.77203521       0.19750812       0.18504874 </v>
   <v>       0.27203521       0.53084146       0.18504874 </v>
   <v>       0.77203521       0.53084146       0.18504874 </v>
   <v>       0.27203521       0.86417479       0.18504874 </v>
   <v>       0.77203521       0.86417479       0.18504874 </v>
   <v>       0.12500000       0.16666667       0.00000000 </v>
   <v>       0.62500000       0.16666667       0.00000000 </v>
   <v>       0.12500000       0.50000000       0.00000000 </v>
   <v>       0.62500000       0.50000000       0.00000000 </v>
   <v>       0.12500000       0.83333333       0.00000000 </v>
   <v>       0.62500000       0.83333333       0.00000000 </v>
   <v>       0.37500000       0.16666667       0.00000000 </v>
   <v>       0.87500000       0.16666667       0.00000000 </v>
   <v>       0.37500000       0.50000000       0.00000000 </v>
   <v>       0.87500000       0.50000000       0.00000000 </v>
   <v>       0.37500000       0.83333333       0.00000000 </v>
   <v>       0.87500000       0.83333333       0.00000000 </v>
   <v>       0.17614737       0.22809805       0.36858830 </v>
   <v>       0.67614737       0.22809805       0.36858830 </v>
   <v>       0.17614737       0.56143138       0.36858830 </v>
   <v>       0.67614737       0.56143138       0.36858830 </v>
   <v>       0.17614737       0.89476472       0.36858830 </v>
   <v>       0.67614737       0.89476472       0.36858830 </v>
   <v>       0.41542106       0.22793643       0.36761855 </v>
   <v>       0.91542106       0.22793643       0.36761855 </v>
   <v>       0.41542106       0.56126976       0.36761855 </v>
   <v>       0.91542106       0.56126976       0.36761855 </v>
   <v>       0.41542106       0.89460309       0.36761855 </v>
   <v>       0.91542106       0.89460309       0.36761855 </v>
   <v>       0.07385263       0.10523528       0.63141170 </v>
   <v>       0.57385263       0.10523528       0.63141170 </v>
   <v>       0.07385263       0.43856862       0.63141170 </v>
   <v>       0.57385263       0.43856862       0.63141170 </v>
   <v>       0.07385263       0.77190195       0.63141170 </v>
   <v>       0.57385263       0.77190195       0.63141170 </v>
   <v>       0.33457894       0.10539691       0.63238145 </v>
   <v>       0.83457894       0.10539691       0.63238145 </v>
   <v>       0.33457894       0.43873024       0.63238145 </v>
   <v>       0.83457894       0.43873024       0.63238145 </v>
   <v>       0.33457894       0.77206357       0.63238145 </v>
   <v>       0.83457894       0.77206357       0.63238145 </v>
   <v>       0.22527003       0.30093342       0.80560053 </v>
   <v>       0.72527003       0.30093342       0.80560053 </v>
   <v>       0.22527003       0.63426676       0.80560053 </v>
   <v>       0.72527003       0.63426676       0.80560053 </v>
   <v>       0.22527003       0.96760009       0.80560053 </v>
   <v>       0.72527003       0.96760009       0.80560053 </v>
   <v>       0.47618324       0.30143353       0.80860116 </v>
   <v>       0.97618324       0.30143353       0.80860116 </v>
   <v>       0.47618324       0.63476686       0.80860116 </v>
   <v>       0.97618324       0.63476686       0.80860116 </v>
   <v>       0.47618324       0.96810019       0.80860116 </v>
   <v>       0.97618324       0.96810019       0.80860116 </v>
   <v>       0.02472997       0.03239991       0.19439947 </v>
   <v>       0.52472997       0.03239991       0.19439947 </v>
   <v>       0.02472997       0.36573324       0.19439947 </v>
   <v>       0.52472997       0.36573324       0.19439947 </v>
   <v>       0.02472997       0.69906658       0.19439947 </v>
   <v>       0.52472997       0.69906658       0.19439947 </v>
   <v>       0.27381676       0.03189981       0.19139884 </v>
   <v>       0.77381676       0.03189981       0.19139884 </v>
   <v>       0.27381676       0.36523314       0.19139884 </v>
   <v>       0.77381676       0.36523314       0.19139884 </v>
   <v>       0.27381676       0.69856647       0.19139884 </v>
   <v>       0.77381676       0.69856647       0.19139884 </v>
  </varray>
 </structure>
 <calculation>
  <scstep>
   <time name="dav">  337.31  340.95</time>
   <time name="total">  339.89  343.58</time>
   <energy>
    <i name="alphaZ">   2668.72143546 </i>
    <i name="ewald"> -68026.02584223 </i>
    <i name="hartreedc"> -39875.25162076 </i>
    <i name="XCdc">   4298.62066930 </i>
    <i name="pawpsdc"> 114383.84820647 </i>
    <i name="pawaedc">-118048.71515856 </i>
    <i name="eentropy">     -0.02987777 </i>
    <i name="bandstr">   -564.31042495 </i>
    <i name="atom"> 118542.86816856 </i>
    <i name="e_fr_energy">  13379.72555552 </i>
    <i name="e_wo_entrp">  13379.75543330 </i>
    <i name="e_0_energy">  13379.74049441 </i>
   </energy>
  </scstep>
  <scstep>
   <time name="dav">  326.65  330.12</time>
   <time name="total">  326.65  330.13</time>
   <energy>
    <i name="e_fr_energy">   1421.88162982 </i>
    <i name="e_wo_entrp">   1421.96640567 </i>
    <i name="e_0_energy">   1421.92401775 </i>
   </energy>
  </scstep>
  <scstep>
   <time name="dav">  350.74  354.68</time>
   <time name="total">  350.74  354.68</time>
   <energy>
    <i name="e_fr_energy">   -473.18189605 </i>
    <i name="e_wo_entrp">   -473.18189605 </i>
    <i name="e_0_energy">   -473.18189605 </i>
   </energy>
  </scstep>
  <scstep>
   <time name="dav">  393.85  398.78</time>
   <time name="total">  393.85  398.78</time>
   <energy>
    <i name="e_fr_energy">   -715.94044706 </i>
    <i name="e_wo_entrp">   -715.94044706 </i>
    <i name="e_0_energy">   -715.94044706 </i>
   </energy>
  </scstep>
  <scstep>
   <time name="dav">  518.23  523.61</time>
   <time name="total">  529.20  534.67</time>
   <energy>
    <i name="e_fr_energy">   -745.36682340 </i>
    <i name="e_wo_entrp">   -745.36682340 </i>
    <i name="e_0_energy">   -745.36682340 </i>
   </energy>
  </scstep>
  <scstep>
   <time name="dav">  413.93  418.73</time>
   <time name="total">  427.51  432.37</time>
   <energy>
    <i name="e_fr_energy">   -746.58362763 </i>
    <i name="e_wo_entrp">   -746.58362763 </i>
    <i name="e_0_energy">   -746.58362763 </i>
   </energy>
  </scstep>
  <scstep>
   <time name="dav">  469.96  475.35</time>
   <time name="total">  483.40  488.93</time>
   <energy>
    <i name="e_fr_energy">   -746.63639527 </i>
    <i name="e_wo_entrp">   -746.63639527 </i>
    <i name="e_0_energy">   -746.63639527 </i>
   </energy>
  </scstep>
  <scstep>
   <time name="dav">  442.62  447.75</time>
   <time name="total">  456.24  461.40</time>
   <energy>
    <i name="e_fr_energy">   -746.63562603 </i>
    <i name="e_wo_entrp">   -746.63562603 </i>
    <i name="e_0_energy">   -746.63562603 </i>
   </energy>
  </scstep>
  <scstep>
   <time name="dav">  470.78  476.74</time>
   <time name="total">  484.38  490.41</time>
   <energy>
    <i name="e_fr_energy">   -746.63501923 </i>
    <i name="e_wo_entrp">   -746.63501923 </i>
    <i name="e_0_energy">   -746.63501923 </i>
   </energy>
  </scstep>
  <scstep>
   <time name="dav">  475.17  480.98</time>
   <time name="total">  488.59  494.71</time>
   <energy>
    <i name="e_fr_energy">   -746.63402933 </i>
    <i name="e_wo_entrp">   -746.63402933 </i>
    <i name="e_0_energy">   -746.63402933 </i>
   </energy>
  </scstep>
  <scstep>
   <time name="dav">  487.13  492.52</time>
   <time name="total">  500.73  506.20</time>
   <energy>
    <i name="e_fr_energy">   -746.63201914 </i>
    <i name="e_wo_entrp">   -746.63201914 </i>
    <i name="e_0_energy">   -746.63201914 </i>
   </energy>
  </scstep>
  <scstep>
   <time name="dav">  377.78  381.73</time>
   <time name="total">  391.23  395.36</time>
   <energy>
    <i name="e_fr_energy">   -746.63154163 </i>
    <i name="e_wo_entrp">   -746.63154163 </i>
    <i name="e_0_energy">   -746.63154163 </i>
   </energy>
  </scstep>
  <scstep>
   <time name="dav">  432.66  437.22</time>
   <time name="total">  446.28  450.99</time>
   <energy>
    <i name="e_fr_energy">   -746.63132206 </i>
    <i name="e_wo_entrp">   -746.63132206 </i>
    <i name="e_0_energy">   -746.63132206 </i>
   </energy>
  </scstep>
  <scstep>
   <time name="dav">  418.26  422.68</time>
   <time name="total">  431.64  436.33</time>
   <energy>
    <i name="e_fr_energy">   -746.63126078 </i>
    <i name="e_wo_entrp">   -746.63126078 </i>
    <i name="e_0_energy">   -746.63126078 </i>
   </energy>
  </scstep>
  <scstep>
   <time name="dav">  310.26  313.87</time>
   <time name="total">  323.81  327.61</time>
   <energy>
    <i name="e_fr_energy">   -746.63115973 </i>
    <i name="e_wo_entrp">   -746.63115973 </i>
    <i name="e_0_energy">   -746.63115973 </i>
   </energy>
  </scstep>
  <scstep>
   <time name="dav">  465.53  470.35</time>
   <time name="total">  479.13  484.11</time>
   <energy>
    <i name="e_fr_energy">   -746.63094743 </i>
    <i name="e_wo_entrp">   -746.63094743 </i>
    <i name="e_0_energy">   -746.63094743 </i>
   </energy>
  </scstep>
  <scstep>
   <time name="dav">  369.16  373.80</time>
   <time name="total">  382.74  387.53</time>
   <energy>
    <i name="e_fr_energy">   -746.63094310 </i>
    <i name="e_wo_entrp">   -746.63094310 </i>
    <i name="e_0_energy">   -746.63094310 </i>
   </energy>
  </scstep>
  <scstep>
   <time name="dav">  360.75  364.71</time>
   <time name="total">  374.30  378.45</time>
   <energy>
    <i name="e_fr_energy">   -746.63094479 </i>
    <i name="e_wo_entrp">   -746.63094479 </i>
    <i name="e_0_energy">   -746.63094479 </i>
   </energy>
  </scstep>
  <scstep>
   <time name="dav">  239.70  242.89</time>
   <time name="total">  242.31  245.56</time>
   <energy>
    <i name="alphaZ">   2668.72143546 </i>
    <i name="ewald"> -68026.02584223 </i>
    <i name="hartreedc"> -39875.19680902 </i>
    <i name="XCdc">   4298.60802151 </i>
    <i name="pawpsdc"> 114378.54537781 </i>
    <i name="pawaedc">-118043.30335963 </i>
    <i name="eentropy">     -0.00000000 </i>
    <i name="bandstr"> -14690.84793804 </i>
    <i name="atom"> 118542.86816856 </i>
    <i name="e_fr_energy">   -746.63094557 </i>
    <i name="e_wo_entrp">   -746.63094557 </i>
    <i name="e_0_energy">   -746.63094557 </i>
   </energy>
  </scstep>
  <structure>
   <crystal>
    <varray name="basis" >
     <v>      15.21162830       0.00516956      -2.78361592 </v>
     <v>      -0.40798665      11.93565774      -2.20735884 </v>
     <v>      -0.06175567      -0.11168197      10.54442638 </v>
    </varray>
    <i name="volume">   1908.54869108 </i>
    <varray name="rec_basis" >
     <v>       0.06581343       0.00232549       0.00041008 </v>
     <v>       0.00013433       0.08395174       0.00088997 </v>
     <v>       0.01740216       0.01818827       0.09513139 </v>
    </varray>
   </crystal>
   <varray name="positions" >
    <v>       0.47527516       0.00074367       0.00541030 </v>
    <v>       0.97527516       0.00074367       0.00446200 </v>
    <v>       0.47527516       0.33407700       0.00446200 </v>
    <v>       0.97527516       0.33407700       0.00446200 </v>
    <v>       0.47527516       0.66741034       0.00446200 </v>
    <v>       0.97527516       0.66741034       0.00446200 </v>
    <v>       0.27472484       0.33258966       0.99553800 </v>
    <v>       0.77472484       0.33258966       0.99553800 </v>
    <v>       0.27472484       0.66592300       0.99553800 </v>
    <v>       0.77472484       0.66592300       0.99553800 </v>
    <v>       0.27472484       0.99925633       0.99553800 </v>
    <v>       0.77472484       0.99925633       0.99553800 </v>
    <v>       0.17788805       0.26797179       0.60783074 </v>
    <v>       0.67788805       0.26797179       0.60783074 </v>
    <v>       0.17788805       0.60130513       0.60783074 </v>
    <v>       0.67788805       0.60130513       0.60783074 </v>
    <v>       0.17788805       0.93463846       0.60783074 </v>
    <v>       0.67788805       0.93463846       0.60783074 </v>
    <v>       0.07211195       0.06536154       0.39216926 </v>
    <v>       0.57211195       0.06536154       0.39216926 </v>
    <v>       0.07211195       0.39869487       0.39216926 </v>
    <v>       0.57211195       0.39869487       0.39216926 </v>
    <v>       0.07211195       0.73202821       0.39216926 </v>
    <v>       0.57211195       0.73202821       0.39216926 </v>
    <v>       0.10733875       0.30765571       0.84593428 </v>
    <v>       0.60733875       0.30765571       0.84593428 </v>
    <v>       0.10733875       0.64098905       0.84593428 </v>
    <v>       0.60733875       0.64098905       0.84593428 </v>
    <v>       0.10733875       0.97432238       0.84593428 </v>
    <v>       0.60733875       0.97432238       0.84593428 </v>
    <v>       0.34464416       0.29539312       0.77235872 </v>
    <v>       0.84464416       0.29539312       0.77235872 </v>
    <v>       0.34464416       0.62872645       0.77235872 </v>
    <v>       0.84464416       0.62872645       0.77235872 </v>
    <v>       0.34464416       0.96205979       0.77235872 </v>
    <v>       0.84464416       0.96205979       0.77235872 </v>
    <v>       0.14266125       0.02567762       0.15406572 </v>
    <v>       0.64266125       0.02567762       0.15406572 </v>
    <v>       0.14266125       0.35901095       0.15406572 </v>
    <v>       0.64266125       0.35901095       0.15406572 </v>
    <v>       0.14266125       0.69234429       0.15406572 </v>
    <v>       0.64266125       0.69234429       0.15406572 </v>
    <v>       0.40535584       0.03794021       0.22764128 </v>
    <v>       0.90535584       0.03794021       0.22764128 </v>
    <v>       0.40535584       0.37127355       0.22764128 </v>
    <v>       0.90535584       0.37127355       0.22764128 </v>
    <v>       0.40535584       0.70460688       0.22764128 </v>
    <v>       0.90535584       0.70460688       0.22764128 </v>
    <v>       0.46517249       0.26691416       0.60148498 </v>
    <v>       0.96517249       0.26691416       0.60148498 </v>
    <v>       0.46517249       0.60024750       0.60148498 </v>
    <v>       0.96517249       0.60024750       0.60148498 </v>
    <v>       0.46517249       0.93358083       0.60148498 </v>
    <v>       0.96517249       0.93358083       0.60148498 </v>
    <v>       0.28482751       0.06641917       0.39851502 </v>
    <v>       0.78482751       0.06641917       0.39851502 </v>
    <v>       0.28482751       0.39975250       0.39851502 </v>
    <v>       0.78482751       0.39975250       0.39851502 </v>
    <v>       0.28482751       0.73308584       0.39851502 </v>
    <v>       0.78482751       0.73308584       0.39851502 </v>
    <v>       0.22447416       0.13353711       0.80122268 </v>
    <v>       0.72447416       0.13353711       0.80122268 </v>
    <v>       0.22447416       0.46687045       0.80122268 </v>
    <v>       0.72447416       0.46687045       0.80122268 </v>
    <v>       0.22447416       0.80020378       0.80122268 </v>
    <v>       0.72447416       0.80020378       0.80122268 </v>
    <v>       0.47796479       0.13582521       0.81495126 </v>
    <v>       0.97796479       0.13582521       0.81495126 </v>
    <v>       0.47796479       0.46915854       0.81495126 </v>
    <v>       0.97796479       0.46915854       0.81495126 </v>
    <v>       0.47796479       0.80249188       0.81495126 </v>
    <v>       0.97796479       0.80249188       0.81495126 </v>
    <v>       0.02552584       0.19979622       0.19877732 </v>
    <v>       0.52552584       0.19979622       0.19877732 </v>
    <v>       0.02552584       0.53312955       0.19877732 </v>
    <v>       0.52552584       0.53312955       0.19877732 </v>
    <v>       0.02552584       0.86646289       0.19877732 </v>
    <v>       0.52552584       0.86646289       0.19877732 </v>
    <v>       0.27203521       0.19750812       0.18504874 </v>
    <v>       0.77203521       0.19750812       0.18504874 </v>
    <v>       0.27203521       0.53084146       0.18504874 </v>
    <v>       0.77203521       0.53084146       0.18504874 </v>
    <v>       0.27203521       0.86417479       0.18504874 </v>
    <v>       0.77203521       0.86417479       0.18504874 </v>
    <v>       0.12500000       0.16666667       0.00000000 </v>
    <v>       0.62500000       0.16666667       0.00000000 </v>
    <v>       0.12500000       0.50000000       0.00000000 </v>
    <v>       0.62500000       0.50000000       0.00000000 </v>
    <v>       0.12500000       0.83333333       0.00000000 </v>
    <v>       0.62500000       0.83333333       0.00000000 </v>
    <v>       0.37500000       0.16666667       0.00000000 </v>
    <v>       0.87500000       0.16666667       0.00000000 </v>
    <v>       0.37500000       0.50000000       0.00000000 </v>
    <v>       0.87500000       0.50000000       0.00000000 </v>
    <v>       0.37500000       0.83333333       0.00000000 </v>
    <v>       0.87500000       0.83333333       0.00000000 </v>
    <v>       0.17614737       0.22809805       0.36858830 </v>
    <v>       0.67614737       0.22809805       0.36858830 </v>
    <v>       0.17614737       0.56143138       0.36858830 </v>
    <v>       0.67614737       0.56143138       0.36858830 </v>
    <v>       0.17614737       0.89476472       0.36858830 </v>
    <v>       0.67614737       0.89476472       0.36858830 </v>
    <v>       0.41542106       0.22793643       0.36761855 </v>
    <v>       0.91542106       0.22793643       0.36761855 </v>
    <v>       0.41542106       0.56126976       0.36761855 </v>
    <v>       0.91542106       0.56126976       0.36761855 </v>
    <v>       0.41542106       0.89460309       0.36761855 </v>
    <v>       0.91542106       0.89460309       0.36761855 </v>
    <v>       0.07385263       0.10523528       0.63141170 </v>
    <v>       0.57385263       0.10523528       0.63141170 </v>
    <v>       0.07385263       0.43856862       0.63141170 </v>
    <v>       0.57385263       0.43856862       0.63141170 </v>
    <v>       0.07385263       0.77190195       0.63141170 </v>
    <v>       0.57385263       0.77190195       0.63141170 </v>
    <v>       0.33457894       0.10539691       0.63238145 </v>
    <v>       0.83457894       0.10539691       0.63238145 </v>
    <v>       0.33457894       0.43873024       0.63238145 </v>
    <v>       0.83457894       0.43873024       0.63238145 </v>
    <v>       0.33457894       0.77206357       0.63238145 </v>
    <v>       0.83457894       0.77206357       0.63238145 </v>
    <v>       0.22527003       0.30093342       0.80560053 </v>
    <v>       0.72527003       0.30093342       0.80560053 </v>
    <v>       0.22527003       0.63426676       0.80560053 </v>
    <v>       0.72527003       0.63426676       0.80560053 </v>
    <v>       0.22527003       0.96760009       0.80560053 </v>
    <v>       0.72527003       0.96760009       0.80560053 </v>
    <v>       0.47618324       0.30143353       0.80860116 </v>
    <v>       0.97618324       0.30143353       0.80860116 </v>
    <v>       0.47618324       0.63476686       0.80860116 </v>
    <v>       0.97618324       0.63476686       0.80860116 </v>
    <v>       0.47618324       0.96810019       0.80860116 </v>
    <v>       0.97618324       0.96810019       0.80860116 </v>
    <v>       0.02472997       0.03239991       0.19439947 </v>
    <v>       0.52472997       0.03239991       0.19439947 </v>
    <v>       0.02472997       0.36573324       0.19439947 </v>
    <v>       0.52472997       0.36573324       0.19439947 </v>
    <v>       0.02472997       0.69906658       0.19439947 </v>
    <v>       0.52472997       0.69906658       0.19439947 </v>
    <v>       0.27381676       0.03189981       0.19139884 </v>
    <v>       0.77381676       0.03189981       0.19139884 </v>
    <v>       0.27381676       0.36523314       0.19139884 </v>
    <v>       0.77381676       0.36523314       0.19139884 </v>
    <v>       0.27381676       0.69856647       0.19139884 </v>
    <v>       0.77381676       0.69856647       0.19139884 </v>
   </varray>
  </structure>
  <varray name="forces" >
   <v>      -0.00688270      -0.00480047      -0.05149539 </v>
   <v>       0.00007918      -0.00005892      -0.00016139 </v>
   <v>       0.00028089      -0.00033592      -0.00037576 </v>
   <v>       0.00011549      -0.00013943      -0.00011368 </v>
   <v>       0.00038889      -0.00041144      -0.00038330 </v>
   <v>       0.00011335      -0.00012933      -0.00010935 </v>
   <v>      -0.00014120       0.00007682       0.00043274 </v>
   <v>      -0.00031446      -0.00005343       0.00021439 </v>
   <v>      -0.00033853      -0.00013995       0.00053064 </v>
   <v>      -0.00016395       0.00010280       0.00016196 </v>
   <v>      -0.00081731       0.00033837      -0.00036183 </v>
   <v>      -0.00028433       0.00020921       0.00004364 </v>
   <v>      -0.00030257       0.00031118       0.00008749 </v>
   <v>      -0.00061894       0.00027505       0.00035888 </v>
   <v>      -0.00033986       0.00048832      -0.00000398 </v>
   <v>      -0.00063486       0.00058730       0.00015467 </v>
   <v>      -0.00028707       0.00045979       0.00012553 </v>
   <v>      -0.00068868       0.00049539       0.00041917 </v>
   <v>       0.00047833      -0.00040931      -0.00010487 </v>
   <v>       0.00085822      -0.00009619       0.00134315 </v>
   <v>       0.00046098      -0.00042016      -0.00015728 </v>
   <v>       0.00042627      -0.00028870      -0.00001387 </v>
   <v>       0.00047412      -0.00044878      -0.00013311 </v>
   <v>       0.00045040      -0.00048837       0.00024681 </v>
   <v>      -0.00032128       0.00007864      -0.00019105 </v>
   <v>      -0.00039905      -0.00009662      -0.00012767 </v>
   <v>      -0.00037194       0.00007657      -0.00019558 </v>
   <v>      -0.00044293       0.00009906      -0.00029453 </v>
   <v>      -0.00027592       0.00013466      -0.00024622 </v>
   <v>      -0.00403312       0.00058761       0.00172756 </v>
   <v>      -0.00118637      -0.00035768      -0.00032509 </v>
   <v>      -0.00136737      -0.00025576       0.00001490 </v>
   <v>      -0.00119711      -0.00045662      -0.00051058 </v>
   <v>      -0.00134883      -0.00023979      -0.00001244 </v>
   <v>       0.00249087       0.00049227       0.00179934 </v>
   <v>      -0.00140411      -0.00022260       0.00000607 </v>
   <v>       0.00024536      -0.00006060       0.00021965 </v>
   <v>       0.00358521       0.00019920      -0.00043168 </v>
   <v>       0.00033150      -0.00010794       0.00024272 </v>
   <v>       0.00047975      -0.00031478      -0.00011892 </v>
   <v>       0.00029574      -0.00011035       0.00026064 </v>
   <v>       0.00050043      -0.00016263      -0.00002274 </v>
   <v>      -0.00226155       0.00145696       0.00582393 </v>
   <v>       0.00131270       0.00026672       0.00000955 </v>
   <v>       0.00112103       0.00020976      -0.00009632 </v>
   <v>       0.00129065       0.00023131       0.00000544 </v>
   <v>       0.00114978       0.00013218       0.00015631 </v>
   <v>       0.00131984       0.00022838       0.00001297 </v>
   <v>       0.00026887       0.00027609       0.00037562 </v>
   <v>      -0.00000255       0.00040274      -0.00017251 </v>
   <v>       0.00013421       0.00072306      -0.00010839 </v>
   <v>      -0.00001414       0.00045864      -0.00022800 </v>
   <v>       0.00064794       0.00129714       0.00381161 </v>
   <v>       0.00000753       0.00048176      -0.00015893 </v>
   <v>      -0.00008778      -0.00027904       0.00096838 </v>
   <v>       0.00031694      -0.00037573       0.00020999 </v>
   <v>      -0.00022155      -0.00026582       0.00017084 </v>
   <v>       0.00020430      -0.00024935      -0.00002981 </v>
   <v>      -0.00010433      -0.00058662       0.00070036 </v>
   <v>       0.00023962      -0.00073358       0.00016948 </v>
   <v>       0.00003770      -0.00052593      -0.00011311 </v>
   <v>      -0.00026929      -0.00031617       0.00025378 </v>
   <v>       0.00006712      -0.00037716       0.00018161 </v>
   <v>       0.00000631      -0.00030214       0.00022781 </v>
   <v>      -0.00050783       0.00008285      -0.00066807 </v>
   <v>      -0.00012519      -0.00004718      -0.00017755 </v>
   <v>       0.00023680      -0.00883311       0.00690684 </v>
   <v>      -0.00023522       0.00003498      -0.00009530 </v>
   <v>      -0.00017553      -0.00016244      -0.00022891 </v>
   <v>      -0.00023801      -0.00002041      -0.00011336 </v>
   <v>      -0.00031589       0.00894752       0.00068111 </v>
   <v>      -0.00027130       0.00003222      -0.00018301 </v>
   <v>      -0.00007349       0.00025189      -0.00027938 </v>
   <v>       0.00111374       0.00866571       0.00023789 </v>
   <v>      -0.00004421       0.00017199      -0.00017880 </v>
   <v>      -0.00002906       0.00002109      -0.00016583 </v>
   <v>      -0.00006705       0.00018752      -0.00016889 </v>
   <v>       0.00260650      -0.00808575       0.00599222 </v>
   <v>       0.00024415       0.00041658      -0.00041470 </v>
   <v>      -0.00016182       0.00012029      -0.00051136 </v>
   <v>       0.00022595      -0.00009115       0.00024362 </v>
   <v>       0.00020751      -0.00011184       0.00011874 </v>
   <v>      -0.00000046      -0.00033686       0.00042673 </v>
   <v>       0.00016909      -0.00020262      -0.00014661 </v>
   <v>      -0.00004076      -0.00004107      -0.00001395 </v>
   <v>       0.00117929       0.00113297       0.00179041 </v>
   <v>       0.00002261       0.00003673      -0.00006061 </v>
   <v>      -0.00002716       0.00015715       0.00014696 </v>
   <v>       0.00018710      -0.00002710      -0.00006484 </v>
   <v>       0.00021249       0.00005443       0.00216670 </v>
   <v>       0.00037855      -0.00031606       0.00320758 </v>
   <v>       0.00018293      -0.00000692      -0.00001374 </v>
   <v>      -0.00002331       0.00021361       0.00004505 </v>
   <v>       0.00005192       0.00003589      -0.00000801 </v>
   <v>      -0.00017411      -0.00010906       0.00317563 </v>
   <v>       0.00004460      -0.00002733       0.00002449 </v>
   <v>      -0.00000014      -0.00037804       0.00005920 </v>
   <v>      -0.00075055      -0.00109983       0.00001867 </v>
   <v>      -0.00006816      -0.00044872       0.00010899 </v>
   <v>      -0.00000926      -0.00041152       0.00006619 </v>
   <v>       0.00000600      -0.00041342       0.00001103 </v>
   <v>      -0.00081822       0.00013139      -0.00035440 </v>
   <v>       0.00068697      -0.00100316      -0.00077267 </v>
   <v>       0.00005074      -0.00031563       0.00006788 </v>
   <v>       0.00012603      -0.00036967      -0.00023552 </v>
   <v>       0.00011110      -0.00028077       0.00004192 </v>
   <v>       0.00046338       0.00000854      -0.00161168 </v>
   <v>       0.00002448      -0.00031378       0.00001851 </v>
   <v>      -0.00007554       0.00038677      -0.00014667 </v>
   <v>       0.00052350       0.00099541      -0.00130423 </v>
   <v>       0.00002930       0.00042916      -0.00012401 </v>
   <v>       0.00002122       0.00036308      -0.00027295 </v>
   <v>      -0.00002489       0.00036897      -0.00008544 </v>
   <v>       0.00059947      -0.00050599      -0.00073764 </v>
   <v>      -0.00098309       0.00083251      -0.00082389 </v>
   <v>      -0.00010414       0.00027299      -0.00017119 </v>
   <v>      -0.00019562       0.00027191      -0.00008485 </v>
   <v>      -0.00015435       0.00026621      -0.00009855 </v>
   <v>      -0.00090684      -0.00048056      -0.00032411 </v>
   <v>      -0.00010503       0.00032187      -0.00012913 </v>
   <v>       0.00015558       0.00009443       0.00030792 </v>
   <v>       0.00013582       0.00029632      -0.00005367 </v>
   <v>       0.00037718       0.00064654       0.00038735 </v>
   <v>       0.00004957       0.00016113       0.00017169 </v>
   <v>      -0.00031371      -0.00016789       0.00041178 </v>
   <v>       0.00042523      -0.00008195      -0.00002410 </v>
   <v>      -0.00068690       0.00076485      -0.00052867 </v>
   <v>      -0.00041989      -0.00007981      -0.00025386 </v>
   <v>      -0.00064323      -0.00060101       0.00013058 </v>
   <v>      -0.00040184      -0.00009946      -0.00022495 </v>
   <v>      -0.00050712      -0.00031487       0.00512362 </v>
   <v>      -0.00039648      -0.00021030      -0.00025962 </v>
   <v>       0.00006144      -0.00015324       0.00006065 </v>
   <v>       0.00292476       0.00114884       0.01323102 </v>
   <v>       0.00000579      -0.00007203      -0.00001684 </v>
   <v>       0.00005725      -0.00074039       0.00028550 </v>
   <v>       0.00001691      -0.00004542      -0.00004918 </v>
   <v>      -0.00011567       0.00101043      -0.00035390 </v>
   <v>       0.00102490      -0.00013457      -0.00006893 </v>
   <v>       0.00028891      -0.00000785       0.00053274 </v>
   <v>       0.00032350       0.00042764       0.00049527 </v>
   <v>       0.00064181       0.00046270       0.00058055 </v>
   <v>       0.00044205       0.00019360       0.00017648 </v>
   <v>       0.00049913       0.00017047       0.00048182 </v>
  </varray>
  <varray name="stress" >
   <v>      -0.12057777       0.01888239       0.02458470 </v>
   <v>       0.00891548      -0.15051071      -0.07338369 </v>
   <v>      -0.01401025      -0.04450637      -0.10126061 </v>
  </varray>
  <energy>
   <i name="e_fr_energy">   -746.63094557 </i>
   <i name="e_wo_entrp">   -746.63094557 </i>
   <i name="e_0_energy">     -0.00000000 </i>
  </energy>
  <time name="totalsc"> 8432.12 8527.08</time>
  <eigenvalues>
   <array>
    <dimension dim="1">band</dimension>
    <dimension dim="2">kpoint</dimension>
    <dimension dim="3">spin</dimension>
    <field>eigene</field>
    <field>occ</field>
    <set>
     <set comment="spin 1">
      <set comment="kpoint 1">
       <r>  -51.6030    1.0000 </r>
       <r>  -51.6029    1.0000 </r>
       <r>  -51.6027    1.0000 </r>
       <r>  -51.6027    1.0000 </r>
       <r>  -51.6027    1.0000 </r>
       <r>  -51.6027    1.0000 </r>
       <r>  -51.6027    1.0000 </r>
       <r>  -51.6025    1.0000 </r>
       <r>  -51.6024    1.0000 </r>
       <r>  -51.6023    1.0000 </r>
       <r>  -51.6022    1.0000 </r>
       <r>  -51.6007    1.0000 </r>
       <r>  -51.4180    1.0000 </r>
       <r>  -51.4178    1.0000 </r>
       <r>  -51.4178    1.0000 </r>
       <r>  -51.4178    1.0000 </r>
       <r>  -51.4178    1.0000 </r>
       <r>  -51.4177    1.0000 </r>
       <r>  -51.4175    1.0000 </r>
       <r>  -51.4174    1.0000 </r>
       <r>  -51.4174    1.0000 </r>
       <r>  -51.4173    1.0000 </r>
       <r>  -51.4155    1.0000 </r>
       <r>  -51.4149    1.0000 </r>
       <r>  -51.3006    1.0000 </r>
       <r>  -51.2999    1.0000 </r>
       <r>  -51.2981    1.0000 </r>
       <r>  -51.2979    1.0000 </r>
       <r>  -51.2979    1.0000 </r>
       <r>  -51.2979    1.0000 </r>
       <r>  -51.2978    1.0000 </r>
       <r>  -51.2978    1.0000 </r>
       <r>  -51.2977    1.0000 </r>
       <r>  -51.2972    1.0000 </r>
       <r>  -51.2971    1.0000 </r>
       <r>  -51.2969    1.0000 </r>
       <r>  -50.1578    1.0000 </r>
       <r>  -50.1577    1.0000 </r>
       <r>  -50.1575    1.0000 </r>
       <r>  -50.1575    1.0000 </r>
       <r>  -50.1575    1.0000 </r>
       <r>  -50.1575    1.0000 </r>
       <r>  -50.1572    1.0000 </r>
       <r>  -50.1571    1.0000 </r>
       <r>  -50.1569    1.0000 </r>
       <r>  -50.1567    1.0000 </r>
       <r>  -50.1567    1.0000 </r>
       <r>  -50.1555    1.0000 </r>
       <r>  -50.0662    1.0000 </r>
       <r>  -50.0660    1.0000 </r>
       <r>  -50.0660    1.0000 </r>
       <r>  -50.0659    1.0000 </r>
       <r>  -50.0657    1.0000 </r>
       <r>  -50.0657    1.0000 </r>
       <r>  -50.0657    1.0000 </r>
       <r>  -50.0657    1.0000 </r>
       <r>  -50.0656    1.0000 </r>
       <r>  -50.0654    1.0000 </r>
       <r>  -50.0653    1.0000 </r>
       <r>  -50.0641    1.0000 </r>
       <r>  -49.9618    1.0000 </r>
       <r>  -49.9618    1.0000 </r>
       <r>  -49.9617    1.0000 </r>
       <r>  -49.9616    1.0000 </r>
       <r>  -49.9616    1.0000 </r>
       <r>  -49.9615    1.0000 </r>
       <r>  -49.9615    1.0000 </r>
       <r>  -49.9615    1.0000 </r>
       <r>  -49.9614    1.0000 </r>
       <r>  -49.9613    1.0000 </r>
       <r>  -49.9598    1.0000 </r>
       <r>  -49.9592    1.0000 </r>
       <r>  -49.9527    1.0000 </r>
       <r>  -49.9526    1.0000 </r>
       <r>  -49.9526    1.0000 </r>
       <r>  -49.9524    1.0000 </r>
       <r>  -49.9524    1.0000 </r>
       <r>  -49.9524    1.0000 </r>
       <r>  -49.9524    1.0000 </r>
       <r>  -49.9523    1.0000 </r>
       <r>  -49.9523    1.0000 </r>
       <r>  -49.9523    1.0000 </r>
       <r>  -49.9507    1.0000 </r>
       <r>  -49.9500    1.0000 </r>
       <r>  -49.8914    1.0000 </r>
       <r>  -49.8907    1.0000 </r>
       <r>  -49.8890    1.0000 </r>
       <r>  -49.8889    1.0000 </r>
       <r>  -49.8888    1.0000 </r>
       <r>  -49.8888    1.0000 </r>
       <r>  -49.8887    1.0000 </r>
       <r>  -49.8887    1.0000 </r>
       <r>  -49.8887    1.0000 </r>
       <r>  -49.8887    1.0000 </r>
       <r>  -49.8886    1.0000 </r>
       <r>  -49.8884    1.0000 </r>
       <r>  -49.8494    1.0000 </r>
[...]
       <r>   -32.5877     0.0000   156.0000 </r>
       <r>   -32.3481     0.0000   156.0000 </r>
       <r>   -32.1085     0.0000   156.0000 </r>
       <r>   -31.8689     0.0000   156.0000 </r>
       <r>   -31.6293     0.0000   156.0000 </r>
       <r>   -31.3897     0.0000   156.0000 </r>
       <r>   -31.1501     0.0000   156.0000 </r>
       <r>   -30.9105     0.0000   156.0000 </r>
       <r>   -30.6709     0.0000   156.0000 </r>
       <r>   -30.4313     0.0000   156.0000 </r>
       <r>   -30.1917     0.0000   156.0000 </r>
       <r>   -29.9521     0.0000   156.0000 </r>
       <r>   -29.7125     0.0000   156.0000 </r>
       <r>   -29.4729     0.0000   156.0000 </r>
       <r>   -29.2333     0.0000   156.0000 </r>
       <r>   -28.9937     0.0000   156.0000 </r>
       <r>   -28.7541     0.0000   156.0000 </r>
       <r>   -28.5145     0.0000   156.0000 </r>
       <r>   -28.2749     0.0000   156.0000 </r>
       <r>   -28.0353     0.0000   156.0000 </r>
       <r>   -27.7957     0.0000   156.0000 </r>
       <r>   -27.5561     0.0000   156.0000 </r>
       <r>   -27.3165     0.0000   156.0000 </r>
       <r>   -27.0769     0.0000   156.0000 </r>
       <r>   -26.8373     0.0000   156.0000 </r>
       <r>   -26.5977     0.0000   156.0000 </r>
       <r>   -26.3581     0.0000   156.0000 </r>
       <r>   -26.1185     0.0000   156.0000 </r>
       <r>   -25.8789     0.0000   156.0000 </r>
       <r>   -25.6393     0.0000   156.0000 </r>
       <r>   -25.3997     0.0000   156.0000 </r>
       <r>   -25.1601     0.0000   156.0000 </r>
       <r>   -24.9205     0.0000   156.0000 </r>
       <r>   -24.6809     0.0000   156.0000 </r>
       <r>   -24.4413     0.0000   156.0000 </r>
       <r>   -24.2017     0.0000   156.0000 </r>
       <r>   -23.9621     0.0000   156.0000 </r>
       <r>   -23.7225     0.0000   156.0000 </r>
       <r>   -23.4829     0.0000   156.0000 </r>
       <r>   -23.2433     0.0000   156.0000 </r>
       <r>   -23.0037     0.0000   156.0000 </r>
       <r>   -22.7641     0.0000   156.0000 </r>
       <r>   -22.5245     0.0000   156.0000 </r>
       <r>   -22.2849     0.0000   156.0000 </r>
       <r>   -22.0454     0.0000   156.0000 </r>
       <r>   -21.8058     0.0000   156.0000 </r>
       <r>   -21.5662     0.0000   156.0000 </r>
       <r>   -21.3266     0.0000   156.0000 </r>
       <r>   -21.0870     0.0000   156.0000 </r>
       <r>   -20.8474     0.0000   156.0000 </r>
       <r>   -20.6078     0.0000   156.0000 </r>
       <r>   -20.3682     0.0000   156.0000 </r>
       <r>   -20.1286     0.0000   156.0000 </r>
       <r>   -19.8890     0.0000   156.0000 </r>
       <r>   -19.6494     0.0000   156.0000 </r>
       <r>   -19.4098     0.0000   156.0000 </r>
       <r>   -19.1702     0.0000   156.0000 </r>
       <r>   -18.9306     0.0000   156.0000 </r>
       <r>   -18.6910     0.0000   156.0000 </r>
       <r>   -18.4514     0.0000   156.0000 </r>
       <r>   -18.2118     0.0000   156.0000 </r>
       <r>   -17.9722     0.0000   156.0000 </r>
       <r>   -17.7326     0.0000   156.0000 </r>
       <r>   -17.4930     0.0000   156.0000 </r>
       <r>   -17.2534     0.0000   156.0000 </r>
       <r>   -17.0138     0.0000   156.0000 </r>
       <r>   -16.7742     0.0000   156.0000 </r>
       <r>   -16.5346     0.0000   156.0000 </r>
       <r>   -16.2950     0.0000   156.0000 </r>
       <r>   -16.0554     0.0000   156.0000 </r>
       <r>   -15.8158     0.0000   156.0000 </r>
       <r>   -15.5762     0.0000   156.0000 </r>
       <r>   -15.3366     0.0000   156.0000 </r>
       <r>   -15.0970     0.0000   156.0000 </r>
       <r>   -14.8574     0.0000   156.0000 </r>
       <r>   -14.6178     0.0000   156.0000 </r>
       <r>   -14.3782     0.0000   156.0000 </r>
       <r>   -14.1386     0.0000   156.0000 </r>
       <r>   -13.8990     0.0000   156.0000 </r>
       <r>   -13.6594     0.0000   156.0000 </r>
       <r>   -13.4198     1.7580   156.4212 </r>
       <r>   -13.1802    44.4211   167.0644 </r>
       <r>   -12.9406     4.6849   168.1869 </r>
       <r>   -12.7010    42.2870   178.3188 </r>
       <r>   -12.4614     7.0168   180.0000 </r>
       <r>   -12.2218     0.0000   180.0000 </r>
       <r>   -11.9822     0.0000   180.0000 </r>
       <r>   -11.7426     0.0000   180.0000 </r>
       <r>   -11.5030     0.0000   180.0000 </r>
       <r>   -11.2634     0.0000   180.0000 </r>
       <r>   -11.0238     0.0000   180.0000 </r>
       <r>   -10.7843     0.0000   180.0000 </r>
       <r>   -10.5447     0.0000   180.0000 </r>
       <r>   -10.3051     0.0000   180.0000 </r>
       <r>   -10.0655     0.0000   180.0000 </r>
       <r>    -9.8259     0.0000   180.0000 </r>
       <r>    -9.5863     0.0000   180.0000 </r>
       <r>    -9.3467     0.0000   180.0000 </r>
       <r>    -9.1071     0.0000   180.0000 </r>
       <r>    -8.8675     0.0000   180.0000 </r>
       <r>    -8.6279     0.0000   180.0000 </r>
       <r>    -8.3883     0.0000   180.0000 </r>
       <r>    -8.1487     0.0000   180.0000 </r>
       <r>    -7.9091     0.0000   180.0000 </r>
       <r>    -7.6695     0.0174   180.0042 </r>
       <r>    -7.4299    12.0145   182.8828 </r>
       <r>    -7.1903    28.6313   189.7428 </r>
       <r>    -6.9507    59.9483   204.1063 </r>
       <r>    -6.7111    46.3462   215.2107 </r>
       <r>    -6.4715     3.2941   216.0000 </r>
       <r>    -6.2319     0.0000   216.0000 </r>
       <r>    -5.9923     0.0000   216.0000 </r>
       <r>    -5.7527     0.0000   216.0000 </r>
       <r>    -5.5131     0.0000   216.0000 </r>
       <r>    -5.2735     0.0000   216.0000 </r>
       <r>    -5.0339     0.0000   216.0000 </r>
       <r>    -4.7943     0.0000   216.0000 </r>
       <r>    -4.5547     0.0000   216.0000 </r>
       <r>    -4.3151     0.0000   216.0000 </r>
       <r>    -4.0755     0.0000   216.0000 </r>
       <r>    -3.8359     0.0000   216.0000 </r>
       <r>    -3.5963     0.0000   216.0000 </r>
       <r>    -3.3567     0.0000   216.0000 </r>
       <r>    -3.1171     0.0000   216.0000 </r>
       <r>    -2.8775     0.0000   216.0000 </r>
       <r>    -2.6379     0.0000   216.0000 </r>
       <r>    -2.3983     0.0000   216.0000 </r>
       <r>    -2.1587     0.0000   216.0000 </r>
       <r>    -1.9191     0.0000   216.0000 </r>
       <r>    -1.6795     0.0000   216.0000 </r>
       <r>    -1.4399     0.0000   216.0000 </r>
       <r>    -1.2003     0.0858   216.0206 </r>
       <r>    -0.9607     4.4114   217.0775 </r>
       <r>    -0.7211    14.1137   220.4591 </r>
       <r>    -0.4815    15.3348   224.1333 </r>
       <r>    -0.2419    19.5604   228.8199 </r>
       <r>    -0.0023    41.2285   238.6982 </r>
       <r>     0.2372    33.9769   246.8390 </r>
       <r>     0.4768    42.0875   256.9230 </r>
       <r>     0.7164    33.8201   265.0263 </r>
       <r>     0.9560    53.0882   277.7461 </r>
       <r>     1.1956    60.3131   292.1970 </r>
       <r>     1.4352    44.4185   302.8396 </r>
       <r>     1.6748    40.0360   312.4321 </r>
       <r>     1.9144    38.4514   321.6450 </r>
       <r>     2.1540    37.3822   330.6017 </r>
       <r>     2.3936    38.2915   339.7762 </r>
       <r>     2.6332    49.4424   351.6225 </r>
       <r>     2.8728    62.8840   366.6894 </r>
       <r>     3.1124    58.7590   380.7679 </r>
       <r>     3.3520    47.9370   392.2535 </r>
       <r>     3.5916    29.9715   399.4346 </r>
       <r>     3.8312    61.4031   414.1467 </r>
       <r>     4.0708    73.1563   431.6748 </r>
       <r>     4.3104     1.3573   432.0000 </r>
       <r>     4.5500     0.0000   432.0000 </r>
       <r>     4.7896     0.0000   432.0000 </r>
       <r>     5.0292     0.0000   432.0000 </r>
       <r>     5.2688     0.0000   432.0000 </r>
       <r>     5.5084     0.0000   432.0000 </r>
       <r>     5.7480     0.0000   432.0000 </r>
       <r>     5.9876     0.0000   432.0000 </r>
       <r>     6.2272     0.1442   432.0345 </r>
       <r>     6.4668     8.1463   433.9864 </r>
       <r>     6.7064    30.2783   441.2410 </r>
       <r>     6.9460    43.4645   451.6550 </r>
       <r>     7.1856    73.2425   469.2037 </r>
       <r>     7.4252    80.8159   488.5671 </r>
       <r>     7.6648    65.3477   504.2242 </r>
       <r>     7.9044    87.9095   525.2872 </r>
       <r>     8.1440    71.2762   542.3648 </r>
       <r>     8.3836    54.4180   555.4032 </r>
       <r>     8.6232    37.1960   564.3153 </r>
       <r>     8.8628    39.1504   573.6957 </r>
       <r>     9.1024    19.3535   578.3327 </r>
       <r>     9.3420    13.9132   581.6663 </r>
       <r>     9.5816    20.5836   586.5981 </r>
       <r>     9.8212    30.0063   593.7875 </r>
       <r>    10.0608    26.5520   600.1493 </r>
       <r>    10.3004    34.7504   608.4755 </r>
       <r>    10.5400    35.4287   616.9641 </r>
       <r>    10.7796    27.9484   623.6605 </r>
       <r>    11.0192    22.4259   629.0337 </r>
       <r>    11.2588    21.5990   634.2087 </r>
       <r>    11.4983    32.2986   641.9474 </r>
       <r>    11.7379    38.7436   651.2303 </r>
       <r>    11.9775    42.6083   661.4392 </r>
       <r>    12.2171    51.9765   673.8926 </r>
       <r>    12.4567    46.7909   685.1036 </r>
       <r>    12.6963    35.9700   693.7220 </r>
       <r>    12.9359    41.2667   703.6094 </r>
       <r>    13.1755    39.7246   713.1273 </r>
       <r>    13.4151    34.2320   721.3292 </r>
       <r>    13.6547    23.9930   727.0779 </r>
       <r>    13.8943     3.8486   728.0000 </r>
       <r>    14.1339     0.0000   728.0000 </r>
       <r>    14.3735     0.0000   728.0000 </r>
       <r>    14.6131     0.0000   728.0000 </r>
       <r>    14.8527     0.0000   728.0000 </r>
       <r>    15.0923     0.0000   728.0000 </r>
       <r>    15.3319     0.0000   728.0000 </r>
       <r>    15.5715     0.0000   728.0000 </r>
       <r>    15.8111     0.0000   728.0000 </r>
       <r>    16.0507     0.0000   728.0000 </r>
       <r>    16.2903     0.0000   728.0000 </r>
       <r>    16.5299     0.0000   728.0000 </r>
       <r>    16.7695     0.0000   728.0000 </r>
       <r>    17.0091     0.0000   728.0000 </r>
      </set>
     </set>
    </array>
   </total>
  </dos>
 </calculation>
 <structure name="finalpos" >
  <crystal>
   <varray name="basis" >
    <v>      15.21162830       0.00516956      -2.78361592 </v>
    <v>      -0.40798665      11.93565774      -2.20735884 </v>
    <v>      -0.06175567      -0.11168197      10.54442638 </v>
   </varray>
   <i name="volume">   1908.54869108 </i>
   <varray name="rec_basis" >
    <v>       0.06581343       0.00232549       0.00041008 </v>
    <v>       0.00013433       0.08395174       0.00088997 </v>
    <v>       0.01740216       0.01818827       0.09513139 </v>
   </varray>
  </crystal>
  <varray name="positions" >
   <v>       0.47527516       0.00074367       0.00541030 </v>
   <v>       0.97527516       0.00074367       0.00446200 </v>
   <v>       0.47527516       0.33407700       0.00446200 </v>
   <v>       0.97527516       0.33407700       0.00446200 </v>
   <v>       0.47527516       0.66741034       0.00446200 </v>
   <v>       0.97527516       0.66741034       0.00446200 </v>
   <v>       0.27472484       0.33258966       0.99553800 </v>
   <v>       0.77472484       0.33258966       0.99553800 </v>
   <v>       0.27472484       0.66592300       0.99553800 </v>
   <v>       0.77472484       0.66592300       0.99553800 </v>
   <v>       0.27472484       0.99925633       0.99553800 </v>
   <v>       0.77472484       0.99925633       0.99553800 </v>
   <v>       0.17788805       0.26797179       0.60783074 </v>
   <v>       0.67788805       0.26797179       0.60783074 </v>
   <v>       0.17788805       0.60130513       0.60783074 </v>
   <v>       0.67788805       0.60130513       0.60783074 </v>
   <v>       0.17788805       0.93463846       0.60783074 </v>
   <v>       0.67788805       0.93463846       0.60783074 </v>
   <v>       0.07211195       0.06536154       0.39216926 </v>
   <v>       0.57211195       0.06536154       0.39216926 </v>
   <v>       0.07211195       0.39869487       0.39216926 </v>
   <v>       0.57211195       0.39869487       0.39216926 </v>
   <v>       0.07211195       0.73202821       0.39216926 </v>
   <v>       0.57211195       0.73202821       0.39216926 </v>
   <v>       0.10733875       0.30765571       0.84593428 </v>
   <v>       0.60733875       0.30765571       0.84593428 </v>
   <v>       0.10733875       0.64098905       0.84593428 </v>
   <v>       0.60733875       0.64098905       0.84593428 </v>
   <v>       0.10733875       0.97432238       0.84593428 </v>
   <v>       0.60733875       0.97432238       0.84593428 </v>
   <v>       0.34464416       0.29539312       0.77235872 </v>
   <v>       0.84464416       0.29539312       0.77235872 </v>
   <v>       0.34464416       0.62872645       0.77235872 </v>
   <v>       0.84464416       0.62872645       0.77235872 </v>
   <v>       0.34464416       0.96205979       0.77235872 </v>
   <v>       0.84464416       0.96205979       0.77235872 </v>
   <v>       0.14266125       0.02567762       0.15406572 </v>
   <v>       0.64266125       0.02567762       0.15406572 </v>
   <v>       0.14266125       0.35901095       0.15406572 </v>
   <v>       0.64266125       0.35901095       0.15406572 </v>
   <v>       0.14266125       0.69234429       0.15406572 </v>
   <v>       0.64266125       0.69234429       0.15406572 </v>
   <v>       0.40535584       0.03794021       0.22764128 </v>
   <v>       0.90535584       0.03794021       0.22764128 </v>
   <v>       0.40535584       0.37127355       0.22764128 </v>
   <v>       0.90535584       0.37127355       0.22764128 </v>
   <v>       0.40535584       0.70460688       0.22764128 </v>
   <v>       0.90535584       0.70460688       0.22764128 </v>
   <v>       0.46517249       0.26691416       0.60148498 </v>
   <v>       0.96517249       0.26691416       0.60148498 </v>
   <v>       0.46517249       0.60024750       0.60148498 </v>
   <v>       0.96517249       0.60024750       0.60148498 </v>
   <v>       0.46517249       0.93358083       0.60148498 </v>
   <v>       0.96517249       0.93358083       0.60148498 </v>
   <v>       0.28482751       0.06641917       0.39851502 </v>
   <v>       0.78482751       0.06641917       0.39851502 </v>
   <v>       0.28482751       0.39975250       0.39851502 </v>
   <v>       0.78482751       0.39975250       0.39851502 </v>
   <v>       0.28482751       0.73308584       0.39851502 </v>
   <v>       0.78482751       0.73308584       0.39851502 </v>
   <v>       0.22447416       0.13353711       0.80122268 </v>
   <v>       0.72447416       0.13353711       0.80122268 </v>
   <v>       0.22447416       0.46687045       0.80122268 </v>
   <v>       0.72447416       0.46687045       0.80122268 </v>
   <v>       0.22447416       0.80020378       0.80122268 </v>
   <v>       0.72447416       0.80020378       0.80122268 </v>
   <v>       0.47796479       0.13582521       0.81495126 </v>
   <v>       0.97796479       0.13582521       0.81495126 </v>
   <v>       0.47796479       0.46915854       0.81495126 </v>
   <v>       0.97796479       0.46915854       0.81495126 </v>
   <v>       0.47796479       0.80249188       0.81495126 </v>
   <v>       0.97796479       0.80249188       0.81495126 </v>
   <v>       0.02552584       0.19979622       0.19877732 </v>
   <v>       0.52552584       0.19979622       0.19877732 </v>
   <v>       0.02552584       0.53312955       0.19877732 </v>
   <v>       0.52552584       0.53312955       0.19877732 </v>
   <v>       0.02552584       0.86646289       0.19877732 </v>
   <v>       0.52552584       0.86646289       0.19877732 </v>
   <v>       0.27203521       0.19750812       0.18504874 </v>
   <v>       0.77203521       0.19750812       0.18504874 </v>
   <v>       0.27203521       0.53084146       0.18504874 </v>
   <v>       0.77203521       0.53084146       0.18504874 </v>
   <v>       0.27203521       0.86417479       0.18504874 </v>
   <v>       0.77203521       0.86417479       0.18504874 </v>
   <v>       0.12500000       0.16666667       0.00000000 </v>
   <v>       0.62500000       0.16666667       0.00000000 </v>
   <v>       0.12500000       0.50000000       0.00000000 </v>
   <v>       0.62500000       0.50000000       0.00000000 </v>
   <v>       0.12500000       0.83333333       0.00000000 </v>
   <v>       0.62500000       0.83333333       0.00000000 </v>
   <v>       0.37500000       0.16666667       0.00000000 </v>
   <v>       0.87500000       0.16666667       0.00000000 </v>
   <v>       0.37500000       0.50000000       0.00000000 </v>
   <v>       0.87500000       0.50000000       0.00000000 </v>
   <v>       0.37500000       0.83333333       0.00000000 </v>
   <v>       0.87500000       0.83333333       0.00000000 </v>
   <v>       0.17614737       0.22809805       0.36858830 </v>
   <v>       0.67614737       0.22809805       0.36858830 </v>
   <v>       0.17614737       0.56143138       0.36858830 </v>
   <v>       0.67614737       0.56143138       0.36858830 </v>
   <v>       0.17614737       0.89476472       0.36858830 </v>
   <v>       0.67614737       0.89476472       0.36858830 </v>
   <v>       0.41542106       0.22793643       0.36761855 </v>
   <v>       0.91542106       0.22793643       0.36761855 </v>
   <v>       0.41542106       0.56126976       0.36761855 </v>
   <v>       0.91542106       0.56126976       0.36761855 </v>
   <v>       0.41542106       0.89460309       0.36761855 </v>
   <v>       0.91542106       0.89460309       0.36761855 </v>
   <v>       0.07385263       0.10523528       0.63141170 </v>
   <v>       0.57385263       0.10523528       0.63141170 </v>
   <v>       0.07385263       0.43856862       0.63141170 </v>
   <v>       0.57385263       0.43856862       0.63141170 </v>
   <v>       0.07385263       0.77190195       0.63141170 </v>
   <v>       0.57385263       0.77190195       0.63141170 </v>
   <v>       0.33457894       0.10539691       0.63238145 </v>
   <v>       0.83457894       0.10539691       0.63238145 </v>
   <v>       0.33457894       0.43873024       0.63238145 </v>
   <v>       0.83457894       0.43873024       0.63238145 </v>
   <v>       0.33457894       0.77206357       0.63238145 </v>
   <v>       0.83457894       0.77206357       0.63238145 </v>
   <v>       0.22527003       0.30093342       0.80560053 </v>
   <v>       0.72527003       0.30093342       0.80560053 </v>
   <v>       0.22527003       0.63426676       0.80560053 </v>
   <v>       0.72527003       0.63426676       0.80560053 </v>
   <v>       0.22527003       0.96760009       0.80560053 </v>
   <v>       0.72527003       0.96760009       0.80560053 </v>
   <v>       0.47618324       0.30143353       0.80860116 </v>
   <v>       0.97618324       0.30143353       0.80860116 </v>
   <v>       0.47618324       0.63476686       0.80860116 </v>
   <v>       0.97618324       0.63476686       0.80860116 </v>
   <v>       0.47618324       0.96810019       0.80860116 </v>
   <v>       0.97618324       0.96810019       0.80860116 </v>
   <v>       0.02472997       0.03239991       0.19439947 </v>
   <v>       0.52472997       0.03239991       0.19439947 </v>
   <v>       0.02472997       0.36573324       0.19439947 </v>
   <v>       0.52472997       0.36573324       0.19439947 </v>
   <v>       0.02472997       0.69906658       0.19439947 </v>
   <v>       0.52472997       0.69906658       0.19439947 </v>
   <v>       0.27381676       0.03189981       0.19139884 </v>
   <v>       0.77381676       0.03189981       0.19139884 </v>
   <v>       0.27381676       0.36523314       0.19139884 </v>
   <v>       0.77381676       0.36523314       0.19139884 </v>
   <v>       0.27381676       0.69856647       0.19139884 </v>
   <v>       0.77381676       0.69856647       0.19139884 </v>
  </varray>
 </structure>
</modeling>
