   12   12    1    2
  0.1496832E+02  0.9271355E-09  0.7028872E-09  0.7028872E-09  0.5000000E-15
  1.000000000000000E-004
  CAR 
 unknown system                          
     84     47     60
 
  0.0000000E+00  0.0000000E+00  0.0000000E+00  0.6944444E-02
    1      -56.893330    -50.235926   1.000000   1.000000
    2      -56.892722    -50.234192   1.000000   1.000000
    3      -56.664623    -50.201274   1.000000   1.000000
    4      -55.389615    -50.200048   1.000000   1.000000
    5      -55.388893    -50.187712   1.000000   1.000000
    6      -55.329567    -50.186212   1.000000   1.000000
    7      -55.329093    -50.015457   1.000000   1.000000
    8      -55.194889    -49.976173   1.000000   1.000000
    9      -55.161048    -49.958821   1.000000   1.000000
   10      -44.512040    -44.498622   1.000000   1.000000
   11      -44.492331    -44.479115   1.000000   1.000000
   12      -44.466638    -44.453348   1.000000   1.000000
   13      -44.451473    -44.438332   1.000000   1.000000
   14      -16.784676    -16.086897   1.000000   1.000000
   15      -10.369188    -10.119458   1.000000   1.000000
   16       -9.545443     -9.292003   1.000000   1.000000
   17       -9.416110     -9.196505   1.000000   1.000000
   18       -9.317266     -9.088030   1.000000   1.000000
   19       -3.466685     -2.015031   1.000000   1.000000
   20       -2.392441     -1.173272   1.000000   1.000000
   21       -2.385575     -0.889064   1.000000   1.000000
   22       -2.088048     -0.829373   1.000000   1.000000
   23       -2.019482     -0.539064   1.000000   1.000000
   24       -1.960505     -0.070895   1.000000   1.000000
   25       -1.670987      0.803714   1.000000   1.000000
   26       -1.467447      1.011751   1.000000   1.000000
   27       -1.321511      1.363980   1.000000   1.000000
   28       -1.313921      1.488031   1.000000   1.000000
   29       -1.089825      1.526095   1.000000   1.000000
   30       -0.907617      1.866284   1.000000   1.000000
   31       -0.755789      2.575202   1.000000   1.000000
   32       -0.743622      2.608396   1.000000   1.000000
   33       -0.076430      2.843174   1.000000   1.000000
   34       -0.075630      2.855638   1.000000   1.000000
   35        0.289193      3.027654   1.000000   1.000000
   36        0.356858      3.359501   1.000000   1.000000
   37        0.673928      5.615189   1.000000   0.000000
   38        0.839791      6.635326   1.000000   0.000000
   39        1.045172      7.049949   1.000000   0.000000
   40        1.436109      7.231439   1.000000   0.000000
   41        1.896936      7.603436   1.000000   0.000000
   42        1.951666      7.616355   1.000000   0.000000
   43        2.325226      7.621722   1.000000   0.000000
   44        2.397467      7.887305   1.000000   0.000000
   45        2.429552      7.953942   1.000000   0.000000
   46        2.754338      8.251659   1.000000   0.000000
   47        2.872010      8.359113   1.000000   0.000000
   48        3.012102      8.415357   1.000000   0.000000
   49        7.524772      8.753472   0.000000   0.000000
   50        8.965593      9.500739   0.000000   0.000000
   51        9.112713      9.511468   0.000000   0.000000
   52        9.375896      9.952577   0.000000   0.000000
   53       10.057154     10.837359   0.000000   0.000000
   54       10.627894     10.978240   0.000000   0.000000
   55       10.942264     11.349910   0.000000   0.000000
   56       11.400169     11.875552   0.000000   0.000000
   57       11.731063     12.450750   0.000000   0.000000
   58       11.935800     12.489710   0.000000   0.000000
   59       12.197871     12.735748   0.000000   0.000000
   60       12.258906     12.741071   0.000000   0.000000
 
  0.2500000E+00  0.8866081E-17 -0.4983249E-15  0.1388889E-01
    1      -56.893228    -50.236766   1.000000   1.000000
    2      -56.892793    -50.233407   1.000000   1.000000
    3      -56.664616    -50.202223   1.000000   1.000000
    4      -55.389505    -50.199079   1.000000   1.000000
    5      -55.388992    -50.187982   1.000000   1.000000
    6      -55.329592    -50.185949   1.000000   1.000000
    7      -55.329067    -50.015414   1.000000   1.000000
    8      -55.194889    -49.976154   1.000000   1.000000
    9      -55.161044    -49.958814   1.000000   1.000000
   10      -44.511795    -44.498383   1.000000   1.000000
   11      -44.492850    -44.479611   1.000000   1.000000
   12      -44.466181    -44.452914   1.000000   1.000000
   13      -44.451601    -44.438454   1.000000   1.000000
   14      -16.782582    -16.084420   1.000000   1.000000
   15      -10.328403    -10.082321   1.000000   1.000000
   16       -9.658025     -9.405172   1.000000   1.000000
   17       -9.403198     -9.171450   1.000000   1.000000
   18       -9.298615     -9.072672   1.000000   1.000000
   19       -3.361805     -1.887244   1.000000   1.000000
   20       -2.359179     -1.320692   1.000000   1.000000
   21       -2.340705     -0.830117   1.000000   1.000000
   22       -2.143686     -0.718801   1.000000   1.000000
   23       -1.984158     -0.308667   1.000000   1.000000
   24       -1.855281     -0.090414   1.000000   1.000000
   25       -1.641722      0.975918   1.000000   1.000000
   26       -1.511164      1.046185   1.000000   1.000000
   27       -1.434615      1.220583   1.000000   1.000000
   28       -1.373306      1.395890   1.000000   1.000000
   29       -0.977281      1.722828   1.000000   1.000000
   30       -0.873296      1.814963   1.000000   1.000000
   31       -0.839786      2.100328   1.000000   1.000000
   32       -0.698153      2.397496   1.000000   1.000000
   33       -0.211477      2.734638   1.000000   1.000000
   34        0.138527      2.892301   1.000000   1.000000
   35        0.211693      2.966951   1.000000   1.000000
   36        0.384712      3.368677   1.000000   1.000000
   37        0.682552      5.903292   1.000000   0.000000
   38        0.767773      6.933536   1.000000   0.000000
   39        1.056452      7.099376   1.000000   0.000000
   40        1.516425      7.205141   1.000000   0.000000
   41        1.590211      7.528648   1.000000   0.000000
   42        2.150956      7.645822   1.000000   0.000000
   43        2.231613      7.686702   1.000000   0.000000
   44        2.360736      7.851387   1.000000   0.000000
   45        2.395699      7.949601   1.000000   0.000000
   46        2.682705      8.121566   1.000000   0.000000
   47        2.767937      8.307327   1.000000   0.000000
   48        3.170266      8.495489   1.000000   0.000000
   49        8.070952      8.837047   0.000000   0.000000
   50        8.332769      9.083910   0.000000   0.000000
   51        9.104088      9.666778   0.000000   0.000000
   52        9.342224      9.804912   0.000000   0.000000
   53       10.057166     10.561517   0.000000   0.000000
   54       10.654447     11.082099   0.000000   0.000000
   55       10.710698     11.433606   0.000000   0.000000
   56       10.769362     11.437030   0.000000   0.000000
   57       11.539145     12.202242   0.000000   0.000000
   58       11.826317     12.280532   0.000000   0.000000
   59       12.147253     12.784780   0.000000   0.000000
   60       12.435930     13.214495   0.000000   0.000000
 
  0.5000000E+00  0.1773216E-16 -0.9966497E-15  0.6944444E-02
    1      -56.893106    -50.237339   1.000000   1.000000
    2      -56.892941    -50.232917   1.000000   1.000000
    3      -56.664621    -50.202783   1.000000   1.000000
    4      -55.389302    -50.198513   1.000000   1.000000
    5      -55.389196    -50.188194   1.000000   1.000000
    6      -55.329613    -50.185744   1.000000   1.000000
    7      -55.329046    -50.015376   1.000000   1.000000
    8      -55.194890    -49.976136   1.000000   1.000000
    9      -55.161044    -49.958817   1.000000   1.000000
   10      -44.511530    -44.498125   1.000000   1.000000
   11      -44.493413    -44.480153   1.000000   1.000000
   12      -44.465714    -44.452468   1.000000   1.000000
   13      -44.451765    -44.438611   1.000000   1.000000
   14      -16.780516    -16.081971   1.000000   1.000000
   15      -10.273986    -10.034503   1.000000   1.000000
   16       -9.772306     -9.512441   1.000000   1.000000
   17       -9.382022     -9.123926   1.000000   1.000000
   18       -9.299512     -9.095951   1.000000   1.000000
   19       -3.213348     -1.819121   1.000000   1.000000
   20       -2.359615     -1.234815   1.000000   1.000000
   21       -2.324092     -0.877797   1.000000   1.000000
   22       -2.194427     -0.830821   1.000000   1.000000
   23       -2.026629      0.060013   1.000000   1.000000
   24       -1.789198      0.548807   1.000000   1.000000
   25       -1.610686      0.638959   1.000000   1.000000
   26       -1.575592      0.894271   1.000000   1.000000
   27       -1.491476      1.030270   1.000000   1.000000
   28       -1.447676      1.230338   1.000000   1.000000
   29       -0.866718      1.499104   1.000000   1.000000
   30       -0.795326      1.974678   1.000000   1.000000
   31       -0.552068      2.079749   1.000000   1.000000
   32       -0.413513      2.329680   1.000000   1.000000
   33       -0.350821      2.499376   1.000000   1.000000
   34       -0.310208      2.828430   1.000000   1.000000
   35        0.324365      3.026011   1.000000   1.000000
   36        0.404584      3.361560   1.000000   1.000000
   37        0.573242      6.234608   1.000000   0.000000
   38        0.768858      7.138659   1.000000   0.000000
   39        1.093915      7.308147   1.000000   0.000000
   40        1.170108      7.326881   1.000000   0.000000
   41        1.604134      7.336018   1.000000   0.000000
   42        2.024446      7.382239   1.000000   0.000000
   43        2.341317      7.543134   1.000000   0.000000
   44        2.395191      7.814711   1.000000   0.000000
   45        2.432913      8.110075   1.000000   0.000000
   46        2.804151      8.130238   1.000000   0.000000
   47        2.878316      8.155436   1.000000   0.000000
   48        2.989986      8.323263   1.000000   0.000000
   49        8.329846      8.711529   0.000000   0.000000
   50        8.395947      9.348801   0.000000   0.000000
   51        9.034788      9.713921   0.000000   0.000000
   52        9.370403     10.285108   0.000000   0.000000
   53        9.738268     10.526210   0.000000   0.000000
   54       10.151925     10.715450   0.000000   0.000000
   55       10.534925     11.107212   0.000000   0.000000
   56       10.893606     11.775367   0.000000   0.000000
   57       11.868617     12.310318   0.000000   0.000000
   58       12.171617     12.710822   0.000000   0.000000
   59       12.504668     13.309956   0.000000   0.000000
   60       13.156553     13.904585   0.000000   0.000000
 
  0.4677177E-18  0.1666667E+00 -0.3409156E-15  0.2777778E-01
    1      -56.893871    -50.235586   1.000000   1.000000
    2      -56.892705    -50.234912   1.000000   1.000000
    3      -56.664195    -50.201107   1.000000   1.000000
    4      -55.390216    -50.200431   1.000000   1.000000
    5      -55.389085    -50.187501   1.000000   1.000000
    6      -55.329508    -50.186158   1.000000   1.000000
    7      -55.329078    -50.014955   1.000000   1.000000
    8      -55.194752    -49.975985   1.000000   1.000000
    9      -55.160718    -49.958429   1.000000   1.000000
   10      -44.510296    -44.496893   1.000000   1.000000
   11      -44.493255    -44.480026   1.000000   1.000000
   12      -44.466794    -44.453489   1.000000   1.000000
   13      -44.451709    -44.438546   1.000000   1.000000
   14      -16.720653    -16.024747   1.000000   1.000000
   15      -10.265755    -10.017653   1.000000   1.000000
   16       -9.526529     -9.267959   1.000000   1.000000
   17       -9.415828     -9.191352   1.000000   1.000000
   18       -9.284829     -9.053589   1.000000   1.000000
   19       -3.564965     -2.013574   1.000000   1.000000
   20       -2.943055     -1.570105   1.000000   1.000000
   21       -2.315312     -1.046979   1.000000   1.000000
   22       -2.236564     -0.535870   1.000000   1.000000
   23       -1.939929     -0.409492   1.000000   1.000000
   24       -1.896251     -0.177262   1.000000   1.000000
   25       -1.628923      0.775144   1.000000   1.000000
   26       -1.481688      0.891719   1.000000   1.000000
   27       -1.443448      0.961082   1.000000   1.000000
   28       -1.295132      1.049427   1.000000   1.000000
   29       -1.022781      1.544784   1.000000   1.000000
   30       -0.889434      1.708957   1.000000   1.000000
   31       -0.849034      1.920943   1.000000   1.000000
   32       -0.730952      2.323151   1.000000   1.000000
   33       -0.352787      2.647583   1.000000   1.000000
   34        0.007609      2.990806   1.000000   1.000000
   35        0.130400      3.090827   1.000000   1.000000
   36        0.437860      3.352148   1.000000   1.000000
   37        0.850574      5.920733   1.000000   0.000000
   38        0.940784      6.822131   1.000000   0.000000
   39        1.051079      7.044316   1.000000   0.000000
   40        1.297397      7.349136   1.000000   0.000000
   41        1.466893      7.482648   1.000000   0.000000
   42        1.768525      7.653937   1.000000   0.000000
   43        2.061998      7.972558   1.000000   0.000000
   44        2.106859      8.003704   1.000000   0.000000
   45        2.437911      8.089064   1.000000   0.000000
   46        2.870250      8.324413   1.000000   0.000000
   47        2.994729      8.356331   1.000000   0.000000
   48        3.351464      8.884733   1.000000   0.000000
   49        8.243166      9.269967   0.000000   0.000000
   50        9.121613      9.816760   0.000000   0.000000
   51        9.821978     10.290995   0.000000   0.000000
   52        9.894047     10.366995   0.000000   0.000000
   53       10.105679     10.535875   0.000000   0.000000
   54       10.432809     10.825794   0.000000   0.000000
   55       10.587613     11.007006   0.000000   0.000000
   56       10.886311     11.576970   0.000000   0.000000
   57       11.402572     11.961454   0.000000   0.000000
   58       11.515699     12.277652   0.000000   0.000000
   59       12.246126     12.575536   0.000000   0.000000
   60       13.138146     13.811982   0.000000   0.000000
 
  0.2500000E+00  0.1666667E+00 -0.8125967E-15  0.2777778E-01
    1      -56.893816    -50.235889   1.000000   1.000000
    2      -56.892753    -50.234605   1.000000   1.000000
    3      -56.664196    -50.201367   1.000000   1.000000
    4      -55.390172    -50.200200   1.000000   1.000000
    5      -55.389133    -50.187604   1.000000   1.000000
    6      -55.329516    -50.186065   1.000000   1.000000
    7      -55.329073    -50.014936   1.000000   1.000000
    8      -55.194753    -49.975982   1.000000   1.000000
    9      -55.160720    -49.958426   1.000000   1.000000
   10      -44.510229    -44.496829   1.000000   1.000000
   11      -44.493400    -44.480165   1.000000   1.000000
   12      -44.466695    -44.453397   1.000000   1.000000
   13      -44.451733    -44.438568   1.000000   1.000000
   14      -16.719993    -16.023969   1.000000   1.000000
   15      -10.250967    -10.003519   1.000000   1.000000
   16       -9.572674     -9.309953   1.000000   1.000000
   17       -9.389347     -9.180624   1.000000   1.000000
   18       -9.293965     -9.048978   1.000000   1.000000
   19       -3.538828     -1.977697   1.000000   1.000000
   20       -2.924849     -1.530783   1.000000   1.000000
   21       -2.343015     -1.079769   1.000000   1.000000
   22       -2.195753     -0.516692   1.000000   1.000000
   23       -1.913989     -0.372503   1.000000   1.000000
   24       -1.845250     -0.150076   1.000000   1.000000
   25       -1.648877      0.692511   1.000000   1.000000
   26       -1.516252      0.795070   1.000000   1.000000
   27       -1.481584      1.078520   1.000000   1.000000
   28       -1.233201      1.179761   1.000000   1.000000
   29       -1.009500      1.509116   1.000000   1.000000
   30       -0.907500      1.710852   1.000000   1.000000
   31       -0.843541      1.869019   1.000000   1.000000
   32       -0.825481      2.223264   1.000000   1.000000
   33       -0.345400      2.602275   1.000000   1.000000
   34        0.078008      2.975158   1.000000   1.000000
   35        0.131485      3.024431   1.000000   1.000000
   36        0.476266      3.369874   1.000000   1.000000
   37        0.746915      5.968728   1.000000   0.000000
   38        0.826071      6.963099   1.000000   0.000000
   39        1.160876      7.134988   1.000000   0.000000
   40        1.354365      7.277121   1.000000   0.000000
   41        1.556695      7.564811   1.000000   0.000000
   42        1.649136      7.635005   1.000000   0.000000
   43        1.915795      7.927201   1.000000   0.000000
   44        2.081806      7.982061   1.000000   0.000000
   45        2.548913      8.159606   1.000000   0.000000
   46        2.900414      8.184374   1.000000   0.000000
   47        2.999039      8.379524   1.000000   0.000000
   48        3.327091      8.802201   1.000000   0.000000
   49        8.399863      9.378609   0.000000   0.000000
   50        9.010136      9.637392   0.000000   0.000000
   51        9.613840     10.239449   0.000000   0.000000
   52        9.955655     10.357040   0.000000   0.000000
   53       10.176616     10.483833   0.000000   0.000000
   54       10.400855     10.910094   0.000000   0.000000
   55       10.687575     11.136183   0.000000   0.000000
   56       11.196288     11.893342   0.000000   0.000000
   57       11.522480     11.955774   0.000000   0.000000
   58       11.896569     12.509133   0.000000   0.000000
   59       12.332234     12.859547   0.000000   0.000000
   60       13.381054     13.869843   0.000000   0.000000
 
  0.5000000E+00  0.1666667E+00 -0.1256522E-14  0.2777778E-01
    1      -56.893590    -50.236475   1.000000   1.000000
    2      -56.892994    -50.234024   1.000000   1.000000
    3      -56.664200    -50.201936   1.000000   1.000000
    4      -55.389922    -50.199730   1.000000   1.000000
    5      -55.389392    -50.187893   1.000000   1.000000
    6      -55.329538    -50.185803   1.000000   1.000000
    7      -55.329059    -50.014877   1.000000   1.000000
    8      -55.194756    -49.975963   1.000000   1.000000
    9      -55.160723    -49.958417   1.000000   1.000000
   10      -44.509967    -44.496574   1.000000   1.000000
   11      -44.493948    -44.480691   1.000000   1.000000
   12      -44.466277    -44.452999   1.000000   1.000000
   13      -44.451868    -44.438698   1.000000   1.000000
   14      -16.717531    -16.021066   1.000000   1.000000
   15      -10.175610     -9.933453   1.000000   1.000000
   16       -9.717163     -9.457378   1.000000   1.000000
   17       -9.369703     -9.128604   1.000000   1.000000
   18       -9.297108     -9.071189   1.000000   1.000000
   19       -3.380744     -1.806861   1.000000   1.000000
   20       -2.878996     -1.515161   1.000000   1.000000
   21       -2.416677     -0.886726   1.000000   1.000000
   22       -2.092881     -0.670410   1.000000   1.000000
   23       -1.992057     -0.159921   1.000000   1.000000
   24       -1.759217      0.003659   1.000000   1.000000
   25       -1.630107      0.409331   1.000000   1.000000
   26       -1.548794      0.912210   1.000000   1.000000
   27       -1.520992      1.031652   1.000000   1.000000
   28       -1.319745      1.157020   1.000000   1.000000
   29       -0.956897      1.481170   1.000000   1.000000
   30       -0.904796      1.577458   1.000000   1.000000
   31       -0.847631      1.817058   1.000000   1.000000
   32       -0.629462      2.138059   1.000000   1.000000
   33       -0.251550      2.285418   1.000000   1.000000
   34        0.117131      2.965012   1.000000   1.000000
   35        0.169340      3.084675   1.000000   1.000000
   36        0.424181      3.379022   1.000000   1.000000
   37        0.572073      6.289148   1.000000   0.000000
   38        0.646780      7.024876   1.000000   0.000000
   39        0.867042      7.234662   1.000000   0.000000
   40        1.152850      7.340982   1.000000   0.000000
   41        1.661261      7.449327   1.000000   0.000000
   42        1.800202      7.625798   1.000000   0.000000
   43        2.042662      7.709183   1.000000   0.000000
   44        2.142526      8.065124   1.000000   0.000000
   45        2.670327      8.124989   1.000000   0.000000
   46        2.821586      8.191677   1.000000   0.000000
   47        3.017179      8.392863   1.000000   0.000000
   48        3.201749      8.584137   1.000000   0.000000
   49        8.810331      9.179778   0.000000   0.000000
   50        9.003093      9.817088   0.000000   0.000000
   51        9.102282     10.152778   0.000000   0.000000
   52        9.688292     10.304890   0.000000   0.000000
   53        9.836997     10.541432   0.000000   0.000000
   54       10.375100     10.913338   0.000000   0.000000
   55       10.676535     11.179534   0.000000   0.000000
   56       11.354652     11.806890   0.000000   0.000000
   57       11.751827     12.201457   0.000000   0.000000
   58       11.930285     12.760223   0.000000   0.000000
   59       12.464038     13.030566   0.000000   0.000000
   60       12.865513     13.362903   0.000000   0.000000
 
 -0.2500000E+00  0.1666667E+00  0.1851649E-15  0.2777778E-01
    1      -56.893650    -50.236336   1.000000   1.000000
    2      -56.892902    -50.234143   1.000000   1.000000
    3      -56.664195    -50.201809   1.000000   1.000000
    4      -55.390000    -50.199820   1.000000   1.000000
    5      -55.389300    -50.187813   1.000000   1.000000
    6      -55.329523    -50.185863   1.000000   1.000000
    7      -55.329060    -50.014888   1.000000   1.000000
    8      -55.194749    -49.975961   1.000000   1.000000
    9      -55.160713    -49.958416   1.000000   1.000000
   10      -44.510034    -44.496638   1.000000   1.000000
   11      -44.493798    -44.480547   1.000000   1.000000
   12      -44.466375    -44.453090   1.000000   1.000000
   13      -44.451837    -44.438669   1.000000   1.000000
   14      -16.718178    -16.021832   1.000000   1.000000
   15      -10.199119     -9.954769   1.000000   1.000000
   16       -9.670197     -9.416483   1.000000   1.000000
   17       -9.395973     -9.144504   1.000000   1.000000
   18       -9.280621     -9.062619   1.000000   1.000000
   19       -3.427681     -1.827021   1.000000   1.000000
   20       -2.888784     -1.513791   1.000000   1.000000
   21       -2.412004     -1.040816   1.000000   1.000000
   22       -2.054060     -0.514441   1.000000   1.000000
   23       -1.941019     -0.281477   1.000000   1.000000
   24       -1.825287     -0.113971   1.000000   1.000000
   25       -1.627734      0.684604   1.000000   1.000000
   26       -1.591179      0.817135   1.000000   1.000000
   27       -1.513008      1.010197   1.000000   1.000000
   28       -1.283534      1.233110   1.000000   1.000000
   29       -0.982288      1.366350   1.000000   1.000000
   30       -0.921816      1.691151   1.000000   1.000000
   31       -0.866130      1.821160   1.000000   1.000000
   32       -0.633727      2.024957   1.000000   1.000000
   33       -0.344873      2.444306   1.000000   1.000000
   34        0.063778      2.992292   1.000000   1.000000
   35        0.161424      3.113311   1.000000   1.000000
   36        0.449645      3.375808   1.000000   1.000000
   37        0.705684      6.195815   1.000000   0.000000
   38        0.725560      7.004601   1.000000   0.000000
   39        1.044547      7.157747   1.000000   0.000000
   40        1.072126      7.351938   1.000000   0.000000
   41        1.668168      7.493354   1.000000   0.000000
   42        1.788637      7.611791   1.000000   0.000000
   43        2.026429      7.756178   1.000000   0.000000
   44        2.126055      8.027882   1.000000   0.000000
   45        2.603053      8.077855   1.000000   0.000000
   46        2.832146      8.205257   1.000000   0.000000
   47        2.939635      8.348715   1.000000   0.000000
   48        3.280960      8.660646   1.000000   0.000000
   49        8.542063      9.321036   0.000000   0.000000
   50        8.917384      9.761934   0.000000   0.000000
   51        9.393035     10.013708   0.000000   0.000000
   52        9.727081     10.326826   0.000000   0.000000
   53        9.929850     10.553315   0.000000   0.000000
   54       10.397764     11.146600   0.000000   0.000000
   55       10.825194     11.243686   0.000000   0.000000
   56       11.191736     11.550092   0.000000   0.000000
   57       11.917867     12.340733   0.000000   0.000000
   58       12.080835     12.479315   0.000000   0.000000
   59       12.495681     12.607903   0.000000   0.000000
   60       12.542157     13.136965   0.000000   0.000000
 
  0.5017546E-18  0.3333333E+00  0.4286417E-14  0.2777778E-01
    1      -56.894942    -50.236676   1.000000   1.000000
    2      -56.892688    -50.234218   1.000000   1.000000
    3      -56.663331    -50.202649   1.000000   1.000000
    4      -55.391404    -50.199726   1.000000   1.000000
    5      -55.389483    -50.186999   1.000000   1.000000
    6      -55.329354    -50.186158   1.000000   1.000000
    7      -55.329078    -50.013950   1.000000   1.000000
    8      -55.194488    -49.975610   1.000000   1.000000
    9      -55.160056    -49.957651   1.000000   1.000000
   10      -44.505817    -44.492458   1.000000   1.000000
   11      -44.496007    -44.482747   1.000000   1.000000
   12      -44.467271    -44.453930   1.000000   1.000000
   13      -44.452103    -44.438904   1.000000   1.000000
   14      -16.587739    -15.896206   1.000000   1.000000
   15      -10.009669     -9.760626   1.000000   1.000000
   16       -9.542563     -9.268784   1.000000   1.000000
   17       -9.365228     -9.145163   1.000000   1.000000
   18       -9.258342     -9.020444   1.000000   1.000000
   19       -3.868718     -2.328525   1.000000   1.000000
   20       -3.699583     -2.007047   1.000000   1.000000
   21       -2.545924     -0.847003   1.000000   1.000000
   22       -2.128722     -0.670537   1.000000   1.000000
   23       -1.908250     -0.397277   1.000000   1.000000
   24       -1.778267     -0.022263   1.000000   1.000000
   25       -1.711655      0.100431   1.000000   1.000000
   26       -1.631559      0.465416   1.000000   1.000000
   27       -1.422136      0.815815   1.000000   1.000000
   28       -1.266676      0.945009   1.000000   1.000000
   29       -1.041733      1.114910   1.000000   1.000000
   30       -0.922114      1.348481   1.000000   1.000000
   31       -0.776520      1.772981   1.000000   1.000000
   32       -0.523713      1.889569   1.000000   1.000000
   33       -0.417634      2.202291   1.000000   1.000000
   34       -0.305033      3.005290   1.000000   1.000000
   35       -0.028696      3.072261   1.000000   1.000000
   36        0.338470      3.267289   1.000000   1.000000
   37        0.623745      6.437174   1.000000   0.000000
   38        0.841918      6.817937   1.000000   0.000000
   39        0.925814      7.032930   1.000000   0.000000
   40        1.065807      7.364694   1.000000   0.000000
   41        1.399784      7.528775   1.000000   0.000000
   42        1.688571      7.743460   1.000000   0.000000
   43        1.899357      7.986017   1.000000   0.000000
   44        2.093874      8.149621   1.000000   0.000000
   45        2.646607      8.282009   1.000000   0.000000
   46        2.836227      8.417676   1.000000   0.000000
   47        2.971939      8.678119   1.000000   0.000000
   48        3.394211      8.845884   1.000000   0.000000
   49        8.576566      9.401779   0.000000   0.000000
   50        8.912099      9.783115   0.000000   0.000000
   51        9.575499     10.548471   0.000000   0.000000
   52       10.131972     10.770710   0.000000   0.000000
   53       10.330268     10.869207   0.000000   0.000000
   54       10.447120     11.246074   0.000000   0.000000
   55       11.114887     11.587583   0.000000   0.000000
   56       11.479802     12.076127   0.000000   0.000000
   57       11.661227     12.192711   0.000000   0.000000
   58       12.358191     12.894310   0.000000   0.000000
   59       12.490763     13.072633   0.000000   0.000000
   60       12.840672     13.333203   0.000000   0.000000
 
  0.2500000E+00  0.3333333E+00  0.3791427E-14  0.2777778E-01
    1      -56.894975    -50.236791   1.000000   1.000000
    2      -56.892666    -50.234143   1.000000   1.000000
    3      -56.663339    -50.202742   1.000000   1.000000
    4      -55.391442    -50.199601   1.000000   1.000000
    5      -55.389455    -50.186921   1.000000   1.000000
    6      -55.329360    -50.186235   1.000000   1.000000
    7      -55.329080    -50.013968   1.000000   1.000000
    8      -55.194494    -49.975617   1.000000   1.000000
    9      -55.160060    -49.957663   1.000000   1.000000
   10      -44.505855    -44.492495   1.000000   1.000000
   11      -44.495956    -44.482697   1.000000   1.000000
   12      -44.467296    -44.453954   1.000000   1.000000
   13      -44.452104    -44.438904   1.000000   1.000000
   14      -16.588150    -15.896679   1.000000   1.000000
   15      -10.026273     -9.777219   1.000000   1.000000
   16       -9.529760     -9.251576   1.000000   1.000000
   17       -9.342751     -9.139885   1.000000   1.000000
   18       -9.266702     -9.016575   1.000000   1.000000
   19       -3.853661     -2.315625   1.000000   1.000000
   20       -3.739951     -2.098550   1.000000   1.000000
   21       -2.531361     -0.890719   1.000000   1.000000
   22       -2.218966     -0.674695   1.000000   1.000000
   23       -1.837630     -0.164923   1.000000   1.000000
   24       -1.780868     -0.102936   1.000000   1.000000