 144 144   0   0
  0.1325381E+02  0.1546422E-08  0.1214491E-08  0.1054520E-08  0.5000000E-15
  1.000000000000000E-004
  CAR 
 unknown system                          
     16.99016829    -54.87085107  301      5.07321591      1.00000000
    -54.871  0.0000E+00  0.0000E+00  0.0000E+00  0.0000E+00
    -54.631  0.0000E+00  0.0000E+00  0.0000E+00  0.0000E+00
    -54.392  0.0000E+00  0.0000E+00  0.0000E+00  0.0000E+00
    -54.152  0.0000E+00  0.0000E+00  0.0000E+00  0.0000E+00
    -53.913  0.0000E+00  0.0000E+00  0.0000E+00  0.0000E+00
    -53.673  0.0000E+00  0.0000E+00  0.0000E+00  0.0000E+00
    -53.434  0.0000E+00  0.0000E+00  0.0000E+00  0.0000E+00
    -53.194  0.0000E+00  0.0000E+00  0.0000E+00  0.0000E+00
    -52.955  0.0000E+00  0.0000E+00  0.0000E+00  0.0000E+00
    -52.715  0.0000E+00  0.0000E+00  0.0000E+00  0.0000E+00
    -52.475  0.0000E+00  0.0000E+00  0.0000E+00  0.0000E+00
    -52.236  0.0000E+00  0.0000E+00  0.0000E+00  0.0000E+00
    -51.996  0.0000E+00  0.0000E+00  0.0000E+00  0.0000E+00
    -51.757  0.3228E-03  0.0000E+00  0.7732E-04  0.0000E+00
    -51.517  0.4982E+02  0.0000E+00  0.1193E+02  0.0000E+00
    -51.278  0.8602E+02  0.0000E+00  0.3254E+02  0.0000E+00
    -51.038  0.1445E+02  0.0000E+00  0.3600E+02  0.0000E+00
    -50.799  0.0000E+00  0.0000E+00  0.3600E+02  0.0000E+00
    -50.559  0.0000E+00  0.0000E+00  0.3600E+02  0.0000E+00
    -50.320  0.1101E-03  0.0000E+00  0.3600E+02  0.0000E+00
    -50.080  0.6652E+02  0.0000E+00  0.5193E+02  0.0000E+00
    -49.841  0.2082E+03  0.0000E+00  0.1018E+03  0.0000E+00
    -49.601  0.2589E+02  0.0000E+00  0.1080E+03  0.0000E+00
    -49.362  0.0000E+00  0.0000E+00  0.1080E+03  0.0000E+00
    -49.122  0.0000E+00  0.0000E+00  0.1080E+03  0.0000E+00
    -48.882  0.0000E+00  0.0000E+00  0.1080E+03  0.0000E+00
    -48.643  0.0000E+00  0.0000E+00  0.1080E+03  0.0000E+00
    -48.403  0.0000E+00  0.0000E+00  0.1080E+03  0.0000E+00
    -48.164  0.0000E+00  0.0000E+00  0.1080E+03  0.0000E+00
    -47.924  0.0000E+00  0.0000E+00  0.1080E+03  0.0000E+00
    -47.685  0.0000E+00  0.0000E+00  0.1080E+03  0.0000E+00
    -47.445  0.0000E+00  0.0000E+00  0.1080E+03  0.0000E+00
    -47.206  0.0000E+00  0.0000E+00  0.1080E+03  0.0000E+00
    -46.966  0.0000E+00  0.5439E-01  0.1080E+03  0.1303E-01
    -46.727  0.0000E+00  0.5084E+02  0.1080E+03  0.1219E+02
    -46.487  0.0000E+00  0.9507E+02  0.1080E+03  0.3496E+02
    -46.248  0.0000E+00  0.1442E+03  0.1080E+03  0.6950E+02
    -46.008  0.0000E+00  0.1607E+03  0.1080E+03  0.1080E+03
    -45.768  0.0000E+00  0.5917E-02  0.1080E+03  0.1080E+03
    -45.529  0.0000E+00  0.0000E+00  0.1080E+03  0.1080E+03
    -45.289  0.0000E+00  0.0000E+00  0.1080E+03  0.1080E+03
    -45.050  0.0000E+00  0.0000E+00  0.1080E+03  0.1080E+03
    -44.810  0.0000E+00  0.0000E+00  0.1080E+03  0.1080E+03
    -44.571  0.0000E+00  0.0000E+00  0.1080E+03  0.1080E+03
    -44.331  0.0000E+00  0.0000E+00  0.1080E+03  0.1080E+03
    -44.092  0.0000E+00  0.0000E+00  0.1080E+03  0.1080E+03
    -43.852  0.0000E+00  0.0000E+00  0.1080E+03  0.1080E+03
    -43.613  0.0000E+00  0.0000E+00  0.1080E+03  0.1080E+03
    -43.373  0.0000E+00  0.0000E+00  0.1080E+03  0.1080E+03
    -43.134  0.0000E+00  0.0000E+00  0.1080E+03  0.1080E+03
    -42.894  0.0000E+00  0.0000E+00  0.1080E+03  0.1080E+03
    -42.654  0.0000E+00  0.0000E+00  0.1080E+03  0.1080E+03
    -42.415  0.0000E+00  0.0000E+00  0.1080E+03  0.1080E+03
    -42.175  0.0000E+00  0.0000E+00  0.1080E+03  0.1080E+03
    -41.936  0.0000E+00  0.0000E+00  0.1080E+03  0.1080E+03
    -41.696  0.0000E+00  0.0000E+00  0.1080E+03  0.1080E+03
    -41.457  0.0000E+00  0.0000E+00  0.1080E+03  0.1080E+03
    -41.217  0.0000E+00  0.0000E+00  0.1080E+03  0.1080E+03
    -40.978  0.0000E+00  0.0000E+00  0.1080E+03  0.1080E+03
    -40.738  0.6572E-09  0.2103E-09  0.1080E+03  0.1080E+03
    -40.499  0.2701E+02  0.2371E+02  0.1145E+03  0.1137E+03
    -40.259  0.4620E+02  0.4977E+02  0.1255E+03  0.1256E+03
    -40.020  0.9973E+02  0.9979E+02  0.1494E+03  0.1495E+03
    -39.780  0.2745E+02  0.2712E+02  0.1560E+03  0.1560E+03
    -39.541  0.0000E+00  0.0000E+00  0.1560E+03  0.1560E+03
    -39.301  0.0000E+00  0.0000E+00  0.1560E+03  0.1560E+03
    -39.061  0.0000E+00  0.0000E+00  0.1560E+03  0.1560E+03
    -38.822  0.0000E+00  0.0000E+00  0.1560E+03  0.1560E+03
    -38.582  0.0000E+00  0.0000E+00  0.1560E+03  0.1560E+03
    -38.343  0.0000E+00  0.0000E+00  0.1560E+03  0.1560E+03
    -38.103  0.0000E+00  0.0000E+00  0.1560E+03  0.1560E+03
    -37.864  0.0000E+00  0.0000E+00  0.1560E+03  0.1560E+03
    -37.624  0.0000E+00  0.0000E+00  0.1560E+03  0.1560E+03
    -37.385  0.0000E+00  0.0000E+00  0.1560E+03  0.1560E+03
    -37.145  0.0000E+00  0.0000E+00  0.1560E+03  0.1560E+03
    -36.906  0.0000E+00  0.0000E+00  0.1560E+03  0.1560E+03
    -36.666  0.0000E+00  0.0000E+00  0.1560E+03  0.1560E+03
    -36.427  0.0000E+00  0.0000E+00  0.1560E+03  0.1560E+03
    -36.187  0.0000E+00  0.0000E+00  0.1560E+03  0.1560E+03
    -35.947  0.0000E+00  0.0000E+00  0.1560E+03  0.1560E+03
    -35.708  0.0000E+00  0.0000E+00  0.1560E+03  0.1560E+03
    -35.468  0.0000E+00  0.0000E+00  0.1560E+03  0.1560E+03
    -35.229  0.0000E+00  0.0000E+00  0.1560E+03  0.1560E+03
    -34.989  0.0000E+00  0.0000E+00  0.1560E+03  0.1560E+03
    -34.750  0.0000E+00  0.0000E+00  0.1560E+03  0.1560E+03
    -34.510  0.0000E+00  0.0000E+00  0.1560E+03  0.1560E+03
    -34.271  0.0000E+00  0.0000E+00  0.1560E+03  0.1560E+03
    -34.031  0.0000E+00  0.0000E+00  0.1560E+03  0.1560E+03
    -33.792  0.0000E+00  0.0000E+00  0.1560E+03  0.1560E+03
    -33.552  0.0000E+00  0.0000E+00  0.1560E+03  0.1560E+03
    -33.313  0.0000E+00  0.0000E+00  0.1560E+03  0.1560E+03
    -33.073  0.0000E+00  0.0000E+00  0.1560E+03  0.1560E+03
    -32.833  0.0000E+00  0.0000E+00  0.1560E+03  0.1560E+03
    -32.594  0.0000E+00  0.0000E+00  0.1560E+03  0.1560E+03
    -32.354  0.0000E+00  0.0000E+00  0.1560E+03  0.1560E+03
    -32.115  0.0000E+00  0.0000E+00  0.1560E+03  0.1560E+03
    -31.875  0.0000E+00  0.0000E+00  0.1560E+03  0.1560E+03
    -31.636  0.0000E+00  0.0000E+00  0.1560E+03  0.1560E+03
    -31.396  0.0000E+00  0.0000E+00  0.1560E+03  0.1560E+03
    -31.157  0.0000E+00  0.0000E+00  0.1560E+03  0.1560E+03
    -30.917  0.0000E+00  0.0000E+00  0.1560E+03  0.1560E+03
    -30.678  0.0000E+00  0.0000E+00  0.1560E+03  0.1560E+03
    -30.438  0.0000E+00  0.0000E+00  0.1560E+03  0.1560E+03
    -30.199  0.0000E+00  0.0000E+00  0.1560E+03  0.1560E+03
    -29.959  0.0000E+00  0.0000E+00  0.1560E+03  0.1560E+03
    -29.719  0.0000E+00  0.0000E+00  0.1560E+03  0.1560E+03
    -29.480  0.0000E+00  0.0000E+00  0.1560E+03  0.1560E+03
    -29.240  0.0000E+00  0.0000E+00  0.1560E+03  0.1560E+03
    -29.001  0.0000E+00  0.0000E+00  0.1560E+03  0.1560E+03
    -28.761  0.0000E+00  0.0000E+00  0.1560E+03  0.1560E+03
    -28.522  0.0000E+00  0.0000E+00  0.1560E+03  0.1560E+03
    -28.282  0.0000E+00  0.0000E+00  0.1560E+03  0.1560E+03
    -28.043  0.0000E+00  0.0000E+00  0.1560E+03  0.1560E+03
    -27.803  0.0000E+00  0.0000E+00  0.1560E+03  0.1560E+03
    -27.564  0.0000E+00  0.0000E+00  0.1560E+03  0.1560E+03
    -27.324  0.0000E+00  0.0000E+00  0.1560E+03  0.1560E+03
    -27.085  0.0000E+00  0.0000E+00  0.1560E+03  0.1560E+03
    -26.845  0.0000E+00  0.0000E+00  0.1560E+03  0.1560E+03
    -26.606  0.0000E+00  0.0000E+00  0.1560E+03  0.1560E+03
    -26.366  0.0000E+00  0.0000E+00  0.1560E+03  0.1560E+03
    -26.126  0.0000E+00  0.0000E+00  0.1560E+03  0.1560E+03
    -25.887  0.0000E+00  0.0000E+00  0.1560E+03  0.1560E+03
    -25.647  0.0000E+00  0.0000E+00  0.1560E+03  0.1560E+03
    -25.408  0.0000E+00  0.0000E+00  0.1560E+03  0.1560E+03
    -25.168  0.0000E+00  0.0000E+00  0.1560E+03  0.1560E+03
    -24.929  0.0000E+00  0.0000E+00  0.1560E+03  0.1560E+03
    -24.689  0.0000E+00  0.0000E+00  0.1560E+03  0.1560E+03
    -24.450  0.0000E+00  0.0000E+00  0.1560E+03  0.1560E+03
    -24.210  0.0000E+00  0.0000E+00  0.1560E+03  0.1560E+03
    -23.971  0.0000E+00  0.0000E+00  0.1560E+03  0.1560E+03
    -23.731  0.0000E+00  0.0000E+00  0.1560E+03  0.1560E+03
    -23.492  0.0000E+00  0.0000E+00  0.1560E+03  0.1560E+03
    -23.252  0.0000E+00  0.0000E+00  0.1560E+03  0.1560E+03
    -23.012  0.0000E+00  0.0000E+00  0.1560E+03  0.1560E+03
    -22.773  0.0000E+00  0.0000E+00  0.1560E+03  0.1560E+03
    -22.533  0.0000E+00  0.0000E+00  0.1560E+03  0.1560E+03
    -22.294  0.0000E+00  0.0000E+00  0.1560E+03  0.1560E+03
    -22.054  0.0000E+00  0.0000E+00  0.1560E+03  0.1560E+03
    -21.815  0.0000E+00  0.0000E+00  0.1560E+03  0.1560E+03
    -21.575  0.0000E+00  0.0000E+00  0.1560E+03  0.1560E+03
    -21.336  0.0000E+00  0.0000E+00  0.1560E+03  0.1560E+03
    -21.096  0.0000E+00  0.0000E+00  0.1560E+03  0.1560E+03
    -20.857  0.0000E+00  0.0000E+00  0.1560E+03  0.1560E+03
    -20.617  0.0000E+00  0.0000E+00  0.1560E+03  0.1560E+03
    -20.378  0.0000E+00  0.0000E+00  0.1560E+03  0.1560E+03
    -20.138  0.0000E+00  0.0000E+00  0.1560E+03  0.1560E+03
    -19.898  0.0000E+00  0.0000E+00  0.1560E+03  0.1560E+03
    -19.659  0.0000E+00  0.0000E+00  0.1560E+03  0.1560E+03
    -19.419  0.0000E+00  0.0000E+00  0.1560E+03  0.1560E+03
    -19.180  0.0000E+00  0.0000E+00  0.1560E+03  0.1560E+03
    -18.940  0.0000E+00  0.0000E+00  0.1560E+03  0.1560E+03
    -18.701  0.0000E+00  0.0000E+00  0.1560E+03  0.1560E+03
    -18.461  0.0000E+00  0.0000E+00  0.1560E+03  0.1560E+03
    -18.222  0.0000E+00  0.0000E+00  0.1560E+03  0.1560E+03
    -17.982  0.0000E+00  0.0000E+00  0.1560E+03  0.1560E+03
    -17.743  0.0000E+00  0.0000E+00  0.1560E+03  0.1560E+03
    -17.503  0.0000E+00  0.0000E+00  0.1560E+03  0.1560E+03
    -17.264  0.0000E+00  0.0000E+00  0.1560E+03  0.1560E+03
    -17.024  0.0000E+00  0.0000E+00  0.1560E+03  0.1560E+03
    -16.785  0.0000E+00  0.0000E+00  0.1560E+03  0.1560E+03
    -16.545  0.0000E+00  0.0000E+00  0.1560E+03  0.1560E+03
    -16.305  0.0000E+00  0.0000E+00  0.1560E+03  0.1560E+03
    -16.066  0.0000E+00  0.0000E+00  0.1560E+03  0.1560E+03
    -15.826  0.0000E+00  0.0000E+00  0.1560E+03  0.1560E+03
    -15.587  0.0000E+00  0.0000E+00  0.1560E+03  0.1560E+03
    -15.347  0.0000E+00  0.0000E+00  0.1560E+03  0.1560E+03
    -15.108  0.0000E+00  0.0000E+00  0.1560E+03  0.1560E+03
    -14.868  0.0000E+00  0.0000E+00  0.1560E+03  0.1560E+03
    -14.629  0.0000E+00  0.0000E+00  0.1560E+03  0.1560E+03
    -14.389  0.0000E+00  0.0000E+00  0.1560E+03  0.1560E+03
    -14.150  0.0000E+00  0.0000E+00  0.1560E+03  0.1560E+03
    -13.910  0.3744E-03  0.0000E+00  0.1560E+03  0.1560E+03
    -13.671  0.2070E+02  0.4995E-14  0.1610E+03  0.1560E+03
    -13.431  0.2902E+02  0.1042E+01  0.1679E+03  0.1562E+03
    -13.191  0.7269E+01  0.4356E+02  0.1697E+03  0.1667E+03
    -12.952  0.3165E+02  0.5858E+01  0.1772E+03  0.1681E+03
    -12.712  0.1156E+02  0.4029E+02  0.1800E+03  0.1777E+03
    -12.473  0.0000E+00  0.9441E+01  0.1800E+03  0.1800E+03
    -12.233  0.0000E+00  0.0000E+00  0.1800E+03  0.1800E+03
    -11.994  0.0000E+00  0.0000E+00  0.1800E+03  0.1800E+03
    -11.754  0.0000E+00  0.0000E+00  0.1800E+03  0.1800E+03
    -11.515  0.0000E+00  0.0000E+00  0.1800E+03  0.1800E+03
    -11.275  0.0000E+00  0.0000E+00  0.1800E+03  0.1800E+03
    -11.036  0.0000E+00  0.0000E+00  0.1800E+03  0.1800E+03
    -10.796  0.0000E+00  0.0000E+00  0.1800E+03  0.1800E+03
    -10.557  0.0000E+00  0.0000E+00  0.1800E+03  0.1800E+03
    -10.317  0.0000E+00  0.0000E+00  0.1800E+03  0.1800E+03
    -10.077  0.0000E+00  0.0000E+00  0.1800E+03  0.1800E+03
     -9.838  0.0000E+00  0.0000E+00  0.1800E+03  0.1800E+03
     -9.598  0.0000E+00  0.0000E+00  0.1800E+03  0.1800E+03
     -9.359  0.0000E+00  0.0000E+00  0.1800E+03  0.1800E+03
     -9.119  0.0000E+00  0.0000E+00  0.1800E+03  0.1800E+03
     -8.880  0.0000E+00  0.0000E+00  0.1800E+03  0.1800E+03
     -8.640  0.0000E+00  0.0000E+00  0.1800E+03  0.1800E+03
     -8.401  0.0000E+00  0.0000E+00  0.1800E+03  0.1800E+03
     -8.161  0.0000E+00  0.0000E+00  0.1800E+03  0.1800E+03
     -7.922  0.7595E-03  0.0000E+00  0.1800E+03  0.1800E+03
     -7.682  0.8511E+01  0.6691E-02  0.1820E+03  0.1800E+03
     -7.443  0.2226E+02  0.1105E+02  0.1874E+03  0.1826E+03
     -7.203  0.5349E+02  0.2702E+02  0.2002E+03  0.1891E+03
     -6.964  0.6086E+02  0.5840E+02  0.2148E+03  0.2031E+03
     -6.724  0.5161E+01  0.4952E+02  0.2160E+03  0.2150E+03
     -6.484  0.0000E+00  0.4302E+01  0.2160E+03  0.2160E+03
     -6.245  0.0000E+00  0.0000E+00  0.2160E+03  0.2160E+03
     -6.005  0.0000E+00  0.0000E+00  0.2160E+03  0.2160E+03
     -5.766  0.0000E+00  0.0000E+00  0.2160E+03  0.2160E+03
     -5.526  0.0000E+00  0.0000E+00  0.2160E+03  0.2160E+03
     -5.287  0.0000E+00  0.0000E+00  0.2160E+03  0.2160E+03
     -5.047  0.0000E+00  0.0000E+00  0.2160E+03  0.2160E+03
     -4.808  0.0000E+00  0.0000E+00  0.2160E+03  0.2160E+03
     -4.568  0.0000E+00  0.0000E+00  0.2160E+03  0.2160E+03
     -4.329  0.0000E+00  0.0000E+00  0.2160E+03  0.2160E+03
     -4.089  0.0000E+00  0.0000E+00  0.2160E+03  0.2160E+03
     -3.850  0.0000E+00  0.0000E+00  0.2160E+03  0.2160E+03
     -3.610  0.0000E+00  0.0000E+00  0.2160E+03  0.2160E+03
     -3.370  0.0000E+00  0.0000E+00  0.2160E+03  0.2160E+03
     -3.131  0.0000E+00  0.0000E+00  0.2160E+03  0.2160E+03
     -2.891  0.7210E-15  0.0000E+00  0.2160E+03  0.2160E+03
     -2.652  0.4052E+00  0.0000E+00  0.2161E+03  0.2160E+03
     -2.412  0.1073E+02  0.0000E+00  0.2187E+03  0.2160E+03
     -2.173  0.1922E+02  0.0000E+00  0.2233E+03  0.2160E+03
     -1.933  0.3074E+01  0.0000E+00  0.2240E+03  0.2160E+03
     -1.694  0.3306E+02  0.0000E+00  0.2319E+03  0.2160E+03
     -1.454  0.1844E+02  0.2575E-16  0.2363E+03  0.2160E+03
     -1.215  0.4473E+02  0.3931E-01  0.2471E+03  0.2160E+03
     -0.975  0.4809E+02  0.4292E+01  0.2586E+03  0.2170E+03
     -0.736  0.7405E+02  0.1346E+02  0.2763E+03  0.2203E+03
     -0.496  0.1013E+03  0.1491E+02  0.3006E+03  0.2238E+03
     -0.256  0.8555E+02  0.1850E+02  0.3211E+03  0.2283E+03
     -0.017  0.1104E+03  0.4150E+02  0.3475E+03  0.2382E+03
      0.223  0.7286E+02  0.3403E+02  0.3650E+03  0.2464E+03
      0.462  0.3966E+02  0.4099E+02  0.3745E+03  0.2562E+03
      0.702  0.4558E+02  0.3473E+02  0.3854E+03  0.2645E+03
      0.941  0.4864E+02  0.5101E+02  0.3970E+03  0.2767E+03
      1.181  0.5456E+02  0.6159E+02  0.4101E+03  0.2915E+03
      1.420  0.6286E+02  0.4436E+02  0.4252E+03  0.3021E+03
      1.660  0.1003E+03  0.4104E+02  0.4492E+03  0.3119E+03
      1.899  0.5631E+02  0.3803E+02  0.4627E+03  0.3210E+03
      2.139  0.3744E+02  0.3773E+02  0.4717E+03  0.3301E+03
      2.378  0.4669E+02  0.3794E+02  0.4828E+03  0.3392E+03
      2.618  0.4764E+02  0.4768E+02  0.4943E+03  0.3506E+03
      2.858  0.4404E+02  0.6363E+02  0.5048E+03  0.3658E+03
      3.097  0.4047E+02  0.5883E+02  0.5145E+03  0.3799E+03
      3.337  0.4574E+02  0.4967E+02  0.5255E+03  0.3918E+03
      3.576  0.5305E+02  0.2836E+02  0.5382E+03  0.3986E+03
      3.816  0.4644E+02  0.5942E+02  0.5493E+03  0.4128E+03
      4.055  0.3170E+02  0.7808E+02  0.5569E+03  0.4315E+03
      4.295  0.4289E+02  0.1921E+01  0.5672E+03  0.4320E+03
      4.534  0.2457E+02  0.0000E+00  0.5730E+03  0.4320E+03
      4.774  0.1104E+02  0.0000E+00  0.5757E+03  0.4320E+03
      5.013  0.1324E+01  0.0000E+00  0.5760E+03  0.4320E+03
      5.253  0.0000E+00  0.0000E+00  0.5760E+03  0.4320E+03
      5.492  0.0000E+00  0.0000E+00  0.5760E+03  0.4320E+03
      5.732  0.0000E+00  0.0000E+00  0.5760E+03  0.4320E+03
      5.971  0.0000E+00  0.2276E-12  0.5760E+03  0.4320E+03
      6.211  0.0000E+00  0.9503E-01  0.5760E+03  0.4320E+03
      6.451  0.0000E+00  0.7361E+01  0.5760E+03  0.4338E+03
      6.690  0.0000E+00  0.2899E+02  0.5760E+03  0.4407E+03
      6.930  0.2763E-13  0.4169E+02  0.5760E+03  0.4507E+03
      7.169  0.6751E-01  0.7113E+02  0.5760E+03  0.4678E+03
      7.409  0.1662E+00  0.8165E+02  0.5761E+03  0.4873E+03
      7.648  0.7505E+00  0.6537E+02  0.5762E+03  0.5030E+03
      7.888  0.3323E+01  0.8793E+02  0.5770E+03  0.5240E+03
      8.127  0.4298E+01  0.7259E+02  0.5781E+03  0.5414E+03
      8.367  0.6647E+01  0.5551E+02  0.5797E+03  0.5547E+03
      8.606  0.1554E+02  0.3705E+02  0.5834E+03  0.5636E+03
      8.846  0.2563E+02  0.4061E+02  0.5895E+03  0.5733E+03
      9.085  0.1942E+02  0.2030E+02  0.5942E+03  0.5782E+03
      9.325  0.2435E+02  0.1301E+02  0.6000E+03  0.5813E+03
      9.565  0.3070E+02  0.2049E+02  0.6074E+03  0.5862E+03
      9.804  0.2717E+02  0.2961E+02  0.6139E+03  0.5933E+03
     10.044  0.3008E+02  0.2649E+02  0.6211E+03  0.5996E+03
     10.283  0.2284E+02  0.3347E+02  0.6265E+03  0.6077E+03
     10.523  0.2049E+02  0.3678E+02  0.6314E+03  0.6165E+03
     10.762  0.2741E+02  0.2750E+02  0.6380E+03  0.6231E+03
     11.002  0.3907E+02  0.2342E+02  0.6474E+03  0.6287E+03
     11.241  0.3919E+02  0.2086E+02  0.6568E+03  0.6337E+03
     11.481  0.3779E+02  0.3196E+02  0.6658E+03  0.6413E+03
     11.720  0.4386E+02  0.3899E+02  0.6763E+03  0.6507E+03
     11.960  0.3933E+02  0.4189E+02  0.6857E+03  0.6607E+03
     12.199  0.3800E+02  0.5133E+02  0.6948E+03  0.6730E+03
     12.439  0.3954E+02  0.4765E+02  0.7043E+03  0.6844E+03
     12.679  0.3729E+02  0.3618E+02  0.7132E+03  0.6931E+03
     12.918  0.3448E+02  0.4096E+02  0.7215E+03  0.7029E+03
     13.158  0.2454E+02  0.4062E+02  0.7274E+03  0.7126E+03
     13.397  0.2562E+01  0.3364E+02  0.7280E+03  0.7207E+03
     13.637  0.0000E+00  0.2526E+02  0.7280E+03  0.7267E+03
     13.876  0.0000E+00  0.5341E+01  0.7280E+03  0.7280E+03
     14.116  0.0000E+00  0.6871E-05  0.7280E+03  0.7280E+03
     14.355  0.0000E+00  0.0000E+00  0.7280E+03  0.7280E+03
     14.595  0.0000E+00  0.0000E+00  0.7280E+03  0.7280E+03
     14.834  0.0000E+00  0.0000E+00  0.7280E+03  0.7280E+03
     15.074  0.0000E+00  0.0000E+00  0.7280E+03  0.7280E+03
     15.313  0.0000E+00  0.0000E+00  0.7280E+03  0.7280E+03
     15.553  0.0000E+00  0.0000E+00  0.7280E+03  0.7280E+03
     15.792  0.0000E+00  0.0000E+00  0.7280E+03  0.7280E+03
     16.032  0.0000E+00  0.0000E+00  0.7280E+03  0.7280E+03
     16.272  0.0000E+00  0.0000E+00  0.7280E+03  0.7280E+03
     16.511  0.0000E+00  0.0000E+00  0.7280E+03  0.7280E+03
     16.751  0.0000E+00  0.0000E+00  0.7280E+03  0.7280E+03
     16.990  0.0000E+00  0.0000E+00  0.7280E+03  0.7280E+03
