 108 108   0   0
  0.1367340E+02  0.1151037E-08  0.1132740E-08  0.1132740E-08  0.5000000E-15
  1.000000000000000E-004
  CAR 
 unknown system                          
     17.82455710    -54.65585860  301      5.29148522      1.00000000
    -54.656  0.0000E+00  0.0000E+00  0.0000E+00  0.0000E+00
    -54.414  0.0000E+00  0.0000E+00  0.0000E+00  0.0000E+00
    -54.173  0.0000E+00  0.0000E+00  0.0000E+00  0.0000E+00
    -53.931  0.0000E+00  0.0000E+00  0.0000E+00  0.0000E+00
    -53.689  0.0000E+00  0.0000E+00  0.0000E+00  0.0000E+00
    -53.448  0.0000E+00  0.0000E+00  0.0000E+00  0.0000E+00
    -53.206  0.0000E+00  0.0000E+00  0.0000E+00  0.0000E+00
    -52.965  0.0000E+00  0.0000E+00  0.0000E+00  0.0000E+00
    -52.723  0.0000E+00  0.0000E+00  0.0000E+00  0.0000E+00
    -52.481  0.0000E+00  0.0000E+00  0.0000E+00  0.0000E+00
    -52.240  0.0000E+00  0.0000E+00  0.0000E+00  0.0000E+00
    -51.998  0.0000E+00  0.0000E+00  0.0000E+00  0.0000E+00
    -51.757  0.0000E+00  0.0000E+00  0.0000E+00  0.0000E+00
    -51.515  0.4760E-03  0.0000E+00  0.1150E-03  0.0000E+00
    -51.273  0.9853E+02  0.0000E+00  0.2380E+02  0.0000E+00
    -51.032  0.4365E+02  0.0000E+00  0.3435E+02  0.0000E+00
    -50.790  0.6835E+01  0.0000E+00  0.3600E+02  0.0000E+00
    -50.549  0.0000E+00  0.0000E+00  0.3600E+02  0.0000E+00
    -50.307  0.2245E-03  0.0000E+00  0.3600E+02  0.0000E+00
    -50.065  0.9810E+02  0.0000E+00  0.5970E+02  0.0000E+00
    -49.824  0.5215E+02  0.0000E+00  0.7230E+02  0.0000E+00
    -49.582  0.1230E+03  0.0000E+00  0.1020E+03  0.0000E+00
    -49.341  0.2479E+02  0.0000E+00  0.1080E+03  0.0000E+00
    -49.099  0.0000E+00  0.0000E+00  0.1080E+03  0.0000E+00
    -48.857  0.0000E+00  0.0000E+00  0.1080E+03  0.0000E+00
    -48.616  0.0000E+00  0.0000E+00  0.1080E+03  0.0000E+00
    -48.374  0.0000E+00  0.0000E+00  0.1080E+03  0.0000E+00
    -48.133  0.0000E+00  0.0000E+00  0.1080E+03  0.0000E+00
    -47.891  0.0000E+00  0.0000E+00  0.1080E+03  0.0000E+00
    -47.649  0.0000E+00  0.0000E+00  0.1080E+03  0.0000E+00
    -47.408  0.0000E+00  0.0000E+00  0.1080E+03  0.0000E+00
    -47.166  0.0000E+00  0.0000E+00  0.1080E+03  0.0000E+00
    -46.925  0.0000E+00  0.0000E+00  0.1080E+03  0.0000E+00
    -46.683  0.0000E+00  0.1554E+01  0.1080E+03  0.3756E+00
    -46.441  0.0000E+00  0.9781E+02  0.1080E+03  0.2401E+02
    -46.200  0.0000E+00  0.1770E+03  0.1080E+03  0.6676E+02
    -45.958  0.0000E+00  0.8271E+02  0.1080E+03  0.8674E+02
    -45.717  0.0000E+00  0.8798E+02  0.1080E+03  0.1080E+03
    -45.475  0.0000E+00  0.3108E-03  0.1080E+03  0.1080E+03
    -45.233  0.0000E+00  0.0000E+00  0.1080E+03  0.1080E+03
    -44.992  0.0000E+00  0.0000E+00  0.1080E+03  0.1080E+03
    -44.750  0.0000E+00  0.0000E+00  0.1080E+03  0.1080E+03
    -44.509  0.0000E+00  0.0000E+00  0.1080E+03  0.1080E+03
    -44.267  0.0000E+00  0.0000E+00  0.1080E+03  0.1080E+03
    -44.025  0.0000E+00  0.0000E+00  0.1080E+03  0.1080E+03
    -43.784  0.0000E+00  0.0000E+00  0.1080E+03  0.1080E+03
    -43.542  0.0000E+00  0.0000E+00  0.1080E+03  0.1080E+03
    -43.301  0.0000E+00  0.0000E+00  0.1080E+03  0.1080E+03
    -43.059  0.0000E+00  0.0000E+00  0.1080E+03  0.1080E+03
    -42.817  0.0000E+00  0.0000E+00  0.1080E+03  0.1080E+03
    -42.576  0.0000E+00  0.0000E+00  0.1080E+03  0.1080E+03
    -42.334  0.0000E+00  0.0000E+00  0.1080E+03  0.1080E+03
    -42.093  0.0000E+00  0.0000E+00  0.1080E+03  0.1080E+03
    -41.851  0.0000E+00  0.0000E+00  0.1080E+03  0.1080E+03
    -41.609  0.0000E+00  0.0000E+00  0.1080E+03  0.1080E+03
    -41.368  0.0000E+00  0.0000E+00  0.1080E+03  0.1080E+03
    -41.126  0.0000E+00  0.0000E+00  0.1080E+03  0.1080E+03
    -40.885  0.0000E+00  0.0000E+00  0.1080E+03  0.1080E+03
    -40.643  0.0000E+00  0.0000E+00  0.1080E+03  0.1080E+03
    -40.401  0.4724E-12  0.9188E-12  0.1080E+03  0.1080E+03
    -40.160  0.1793E+02  0.2023E+02  0.1123E+03  0.1129E+03
    -39.918  0.8141E+02  0.7911E+02  0.1320E+03  0.1320E+03
    -39.677  0.0000E+00  0.0000E+00  0.1320E+03  0.1320E+03
    -39.435  0.0000E+00  0.0000E+00  0.1320E+03  0.1320E+03
    -39.193  0.0000E+00  0.0000E+00  0.1320E+03  0.1320E+03
    -38.952  0.0000E+00  0.0000E+00  0.1320E+03  0.1320E+03
    -38.710  0.0000E+00  0.0000E+00  0.1320E+03  0.1320E+03
    -38.469  0.0000E+00  0.0000E+00  0.1320E+03  0.1320E+03
    -38.227  0.0000E+00  0.0000E+00  0.1320E+03  0.1320E+03
    -37.985  0.0000E+00  0.0000E+00  0.1320E+03  0.1320E+03
    -37.744  0.0000E+00  0.0000E+00  0.1320E+03  0.1320E+03
    -37.502  0.0000E+00  0.0000E+00  0.1320E+03  0.1320E+03
    -37.261  0.0000E+00  0.0000E+00  0.1320E+03  0.1320E+03
    -37.019  0.0000E+00  0.0000E+00  0.1320E+03  0.1320E+03
    -36.777  0.0000E+00  0.0000E+00  0.1320E+03  0.1320E+03
    -36.536  0.0000E+00  0.0000E+00  0.1320E+03  0.1320E+03
    -36.294  0.0000E+00  0.0000E+00  0.1320E+03  0.1320E+03
    -36.053  0.0000E+00  0.0000E+00  0.1320E+03  0.1320E+03
    -35.811  0.0000E+00  0.0000E+00  0.1320E+03  0.1320E+03
    -35.569  0.0000E+00  0.0000E+00  0.1320E+03  0.1320E+03
    -35.328  0.0000E+00  0.0000E+00  0.1320E+03  0.1320E+03
    -35.086  0.0000E+00  0.0000E+00  0.1320E+03  0.1320E+03
    -34.845  0.0000E+00  0.0000E+00  0.1320E+03  0.1320E+03
    -34.603  0.0000E+00  0.0000E+00  0.1320E+03  0.1320E+03
    -34.361  0.0000E+00  0.0000E+00  0.1320E+03  0.1320E+03
    -34.120  0.0000E+00  0.0000E+00  0.1320E+03  0.1320E+03
    -33.878  0.0000E+00  0.0000E+00  0.1320E+03  0.1320E+03
    -33.637  0.0000E+00  0.0000E+00  0.1320E+03  0.1320E+03
    -33.395  0.0000E+00  0.0000E+00  0.1320E+03  0.1320E+03
    -33.153  0.0000E+00  0.0000E+00  0.1320E+03  0.1320E+03
    -32.912  0.0000E+00  0.0000E+00  0.1320E+03  0.1320E+03
    -32.670  0.0000E+00  0.0000E+00  0.1320E+03  0.1320E+03
    -32.429  0.0000E+00  0.0000E+00  0.1320E+03  0.1320E+03
    -32.187  0.0000E+00  0.0000E+00  0.1320E+03  0.1320E+03
    -31.945  0.0000E+00  0.0000E+00  0.1320E+03  0.1320E+03
    -31.704  0.0000E+00  0.0000E+00  0.1320E+03  0.1320E+03
    -31.462  0.0000E+00  0.0000E+00  0.1320E+03  0.1320E+03
    -31.221  0.0000E+00  0.0000E+00  0.1320E+03  0.1320E+03
    -30.979  0.0000E+00  0.0000E+00  0.1320E+03  0.1320E+03
    -30.737  0.0000E+00  0.0000E+00  0.1320E+03  0.1320E+03
    -30.496  0.0000E+00  0.0000E+00  0.1320E+03  0.1320E+03
    -30.254  0.0000E+00  0.0000E+00  0.1320E+03  0.1320E+03
    -30.013  0.0000E+00  0.0000E+00  0.1320E+03  0.1320E+03
    -29.771  0.0000E+00  0.0000E+00  0.1320E+03  0.1320E+03
    -29.529  0.0000E+00  0.0000E+00  0.1320E+03  0.1320E+03
    -29.288  0.0000E+00  0.0000E+00  0.1320E+03  0.1320E+03
    -29.046  0.0000E+00  0.0000E+00  0.1320E+03  0.1320E+03
    -28.805  0.0000E+00  0.0000E+00  0.1320E+03  0.1320E+03
    -28.563  0.0000E+00  0.0000E+00  0.1320E+03  0.1320E+03
    -28.321  0.0000E+00  0.0000E+00  0.1320E+03  0.1320E+03
    -28.080  0.0000E+00  0.0000E+00  0.1320E+03  0.1320E+03
    -27.838  0.0000E+00  0.0000E+00  0.1320E+03  0.1320E+03
    -27.597  0.0000E+00  0.0000E+00  0.1320E+03  0.1320E+03
    -27.355  0.0000E+00  0.0000E+00  0.1320E+03  0.1320E+03
    -27.113  0.0000E+00  0.0000E+00  0.1320E+03  0.1320E+03
    -26.872  0.0000E+00  0.0000E+00  0.1320E+03  0.1320E+03
    -26.630  0.0000E+00  0.0000E+00  0.1320E+03  0.1320E+03
    -26.388  0.0000E+00  0.0000E+00  0.1320E+03  0.1320E+03
    -26.147  0.0000E+00  0.0000E+00  0.1320E+03  0.1320E+03
    -25.905  0.0000E+00  0.0000E+00  0.1320E+03  0.1320E+03
    -25.664  0.0000E+00  0.0000E+00  0.1320E+03  0.1320E+03
    -25.422  0.0000E+00  0.0000E+00  0.1320E+03  0.1320E+03
    -25.180  0.0000E+00  0.0000E+00  0.1320E+03  0.1320E+03
    -24.939  0.0000E+00  0.0000E+00  0.1320E+03  0.1320E+03
    -24.697  0.0000E+00  0.0000E+00  0.1320E+03  0.1320E+03
    -24.456  0.0000E+00  0.0000E+00  0.1320E+03  0.1320E+03
    -24.214  0.0000E+00  0.0000E+00  0.1320E+03  0.1320E+03
    -23.972  0.0000E+00  0.0000E+00  0.1320E+03  0.1320E+03
    -23.731  0.0000E+00  0.0000E+00  0.1320E+03  0.1320E+03
    -23.489  0.0000E+00  0.0000E+00  0.1320E+03  0.1320E+03
    -23.248  0.0000E+00  0.0000E+00  0.1320E+03  0.1320E+03
    -23.006  0.0000E+00  0.0000E+00  0.1320E+03  0.1320E+03
    -22.764  0.0000E+00  0.0000E+00  0.1320E+03  0.1320E+03
    -22.523  0.0000E+00  0.0000E+00  0.1320E+03  0.1320E+03
    -22.281  0.0000E+00  0.0000E+00  0.1320E+03  0.1320E+03
    -22.040  0.0000E+00  0.0000E+00  0.1320E+03  0.1320E+03
    -21.798  0.0000E+00  0.0000E+00  0.1320E+03  0.1320E+03
    -21.556  0.0000E+00  0.0000E+00  0.1320E+03  0.1320E+03
    -21.315  0.0000E+00  0.0000E+00  0.1320E+03  0.1320E+03
    -21.073  0.0000E+00  0.0000E+00  0.1320E+03  0.1320E+03
    -20.832  0.0000E+00  0.0000E+00  0.1320E+03  0.1320E+03
    -20.590  0.0000E+00  0.0000E+00  0.1320E+03  0.1320E+03
    -20.348  0.0000E+00  0.0000E+00  0.1320E+03  0.1320E+03
    -20.107  0.0000E+00  0.0000E+00  0.1320E+03  0.1320E+03
    -19.865  0.0000E+00  0.0000E+00  0.1320E+03  0.1320E+03
    -19.624  0.0000E+00  0.0000E+00  0.1320E+03  0.1320E+03
    -19.382  0.0000E+00  0.0000E+00  0.1320E+03  0.1320E+03
    -19.140  0.0000E+00  0.0000E+00  0.1320E+03  0.1320E+03
    -18.899  0.0000E+00  0.0000E+00  0.1320E+03  0.1320E+03
    -18.657  0.0000E+00  0.0000E+00  0.1320E+03  0.1320E+03
    -18.416  0.0000E+00  0.0000E+00  0.1320E+03  0.1320E+03
    -18.174  0.0000E+00  0.0000E+00  0.1320E+03  0.1320E+03
    -17.932  0.0000E+00  0.0000E+00  0.1320E+03  0.1320E+03
    -17.691  0.0000E+00  0.0000E+00  0.1320E+03  0.1320E+03
    -17.449  0.0000E+00  0.0000E+00  0.1320E+03  0.1320E+03
    -17.208  0.0000E+00  0.0000E+00  0.1320E+03  0.1320E+03
    -16.966  0.0000E+00  0.0000E+00  0.1320E+03  0.1320E+03
    -16.724  0.0000E+00  0.0000E+00  0.1320E+03  0.1320E+03
    -16.483  0.0000E+00  0.0000E+00  0.1320E+03  0.1320E+03
    -16.241  0.0000E+00  0.0000E+00  0.1320E+03  0.1320E+03
    -16.000  0.0000E+00  0.0000E+00  0.1320E+03  0.1320E+03
    -15.758  0.0000E+00  0.0000E+00  0.1320E+03  0.1320E+03
    -15.516  0.0000E+00  0.0000E+00  0.1320E+03  0.1320E+03
    -15.275  0.0000E+00  0.0000E+00  0.1320E+03  0.1320E+03
    -15.033  0.0000E+00  0.0000E+00  0.1320E+03  0.1320E+03
    -14.792  0.0000E+00  0.0000E+00  0.1320E+03  0.1320E+03
    -14.550  0.0000E+00  0.0000E+00  0.1320E+03  0.1320E+03
    -14.308  0.0000E+00  0.0000E+00  0.1320E+03  0.1320E+03
    -14.067  0.0000E+00  0.0000E+00  0.1320E+03  0.1320E+03
    -13.825  0.1704E-11  0.0000E+00  0.1320E+03  0.1320E+03
    -13.584  0.2390E+01  0.0000E+00  0.1326E+03  0.1320E+03
    -13.342  0.5809E+02  0.1858E-05  0.1466E+03  0.1320E+03
    -13.100  0.3872E+02  0.1917E+02  0.1560E+03  0.1366E+03
    -12.859  0.1331E+00  0.7620E+02  0.1560E+03  0.1550E+03
    -12.617  0.0000E+00  0.3970E+01  0.1560E+03  0.1560E+03
    -12.376  0.0000E+00  0.0000E+00  0.1560E+03  0.1560E+03
    -12.134  0.0000E+00  0.0000E+00  0.1560E+03  0.1560E+03
    -11.892  0.0000E+00  0.0000E+00  0.1560E+03  0.1560E+03
    -11.651  0.0000E+00  0.0000E+00  0.1560E+03  0.1560E+03
    -11.409  0.0000E+00  0.0000E+00  0.1560E+03  0.1560E+03
    -11.168  0.0000E+00  0.0000E+00  0.1560E+03  0.1560E+03
    -10.926  0.0000E+00  0.0000E+00  0.1560E+03  0.1560E+03
    -10.684  0.0000E+00  0.0000E+00  0.1560E+03  0.1560E+03
    -10.443  0.0000E+00  0.0000E+00  0.1560E+03  0.1560E+03
    -10.201  0.0000E+00  0.0000E+00  0.1560E+03  0.1560E+03
     -9.960  0.0000E+00  0.0000E+00  0.1560E+03  0.1560E+03
     -9.718  0.0000E+00  0.0000E+00  0.1560E+03  0.1560E+03
     -9.476  0.0000E+00  0.0000E+00  0.1560E+03  0.1560E+03
     -9.235  0.0000E+00  0.0000E+00  0.1560E+03  0.1560E+03
     -8.993  0.0000E+00  0.0000E+00  0.1560E+03  0.1560E+03
     -8.752  0.0000E+00  0.0000E+00  0.1560E+03  0.1560E+03
     -8.510  0.0000E+00  0.0000E+00  0.1560E+03  0.1560E+03
     -8.268  0.0000E+00  0.0000E+00  0.1560E+03  0.1560E+03
     -8.027  0.0000E+00  0.0000E+00  0.1560E+03  0.1560E+03
     -7.785  0.3640E-13  0.0000E+00  0.1560E+03  0.1560E+03
     -7.544  0.2283E+00  0.5106E-16  0.1561E+03  0.1560E+03
     -7.302  0.2245E+02  0.6935E-01  0.1615E+03  0.1560E+03
     -7.060  0.4724E+02  0.2459E+02  0.1729E+03  0.1620E+03
     -6.819  0.2918E+02  0.4658E+02  0.1799E+03  0.1732E+03
     -6.577  0.2392E+00  0.2662E+02  0.1800E+03  0.1796E+03
     -6.336  0.0000E+00  0.1477E+01  0.1800E+03  0.1800E+03
     -6.094  0.0000E+00  0.0000E+00  0.1800E+03  0.1800E+03
     -5.852  0.0000E+00  0.0000E+00  0.1800E+03  0.1800E+03
     -5.611  0.0000E+00  0.0000E+00  0.1800E+03  0.1800E+03
     -5.369  0.0000E+00  0.0000E+00  0.1800E+03  0.1800E+03
     -5.128  0.0000E+00  0.0000E+00  0.1800E+03  0.1800E+03
     -4.886  0.0000E+00  0.0000E+00  0.1800E+03  0.1800E+03
     -4.644  0.0000E+00  0.0000E+00  0.1800E+03  0.1800E+03
     -4.403  0.0000E+00  0.0000E+00  0.1800E+03  0.1800E+03
     -4.161  0.0000E+00  0.0000E+00  0.1800E+03  0.1800E+03
     -3.920  0.0000E+00  0.0000E+00  0.1800E+03  0.1800E+03
     -3.678  0.0000E+00  0.0000E+00  0.1800E+03  0.1800E+03
     -3.436  0.0000E+00  0.0000E+00  0.1800E+03  0.1800E+03
     -3.195  0.0000E+00  0.0000E+00  0.1800E+03  0.1800E+03
     -2.953  0.0000E+00  0.0000E+00  0.1800E+03  0.1800E+03
     -2.712  0.0000E+00  0.0000E+00  0.1800E+03  0.1800E+03
     -2.470  0.0000E+00  0.0000E+00  0.1800E+03  0.1800E+03
     -2.228  0.1503E-01  0.0000E+00  0.1800E+03  0.1800E+03
     -1.987  0.2734E+02  0.0000E+00  0.1866E+03  0.1800E+03
     -1.745  0.5008E+02  0.0000E+00  0.1987E+03  0.1800E+03
     -1.504  0.1579E+02  0.0000E+00  0.2025E+03  0.1800E+03
     -1.262  0.1906E+02  0.0000E+00  0.2071E+03  0.1800E+03
     -1.020  0.5925E+02  0.1649E-03  0.2214E+03  0.1800E+03
     -0.779  0.7321E+02  0.1916E+01  0.2391E+03  0.1805E+03
     -0.537  0.6485E+02  0.1003E+02  0.2548E+03  0.1829E+03
     -0.296  0.6328E+02  0.2041E+02  0.2701E+03  0.1878E+03
     -0.054  0.6207E+02  0.3415E+02  0.2851E+03  0.1961E+03
      0.188  0.5481E+02  0.2516E+02  0.2983E+03  0.2021E+03
      0.429  0.1067E+03  0.3707E+02  0.3241E+03  0.2111E+03
      0.671  0.5268E+02  0.3617E+02  0.3368E+03  0.2198E+03
      0.912  0.4679E+02  0.5716E+02  0.3481E+03  0.2337E+03
      1.154  0.5298E+02  0.5591E+02  0.3609E+03  0.2472E+03
      1.396  0.6429E+02  0.1979E+02  0.3765E+03  0.2519E+03
      1.637  0.5395E+02  0.2525E+02  0.3895E+03  0.2580E+03
      1.879  0.5845E+02  0.4734E+02  0.4036E+03  0.2695E+03
      2.120  0.4836E+02  0.3569E+02  0.4153E+03  0.2781E+03
      2.362  0.2751E+02  0.3021E+02  0.4220E+03  0.2854E+03
      2.604  0.3532E+02  0.3338E+02  0.4305E+03  0.2935E+03
      2.845  0.3371E+02  0.4464E+02  0.4386E+03  0.3043E+03
      3.087  0.3662E+02  0.3815E+02  0.4475E+03  0.3135E+03
      3.328  0.3371E+02  0.5968E+02  0.4556E+03  0.3279E+03
      3.570  0.2573E+02  0.2779E+02  0.4618E+03  0.3346E+03
      3.812  0.4118E+02  0.9332E+01  0.4718E+03  0.3369E+03
      4.053  0.4593E+02  0.1089E+02  0.4829E+03  0.3395E+03
      4.295  0.3576E+02  0.4074E+02  0.4915E+03  0.3493E+03
      4.536  0.3624E+02  0.2274E+02  0.5003E+03  0.3548E+03
      4.778  0.1536E+02  0.1986E+02  0.5040E+03  0.3596E+03
      5.020  0.1230E-01  0.1570E+01  0.5040E+03  0.3600E+03
      5.261  0.0000E+00  0.1773E-04  0.5040E+03  0.3600E+03
      5.503  0.0000E+00  0.0000E+00  0.5040E+03  0.3600E+03
      5.744  0.0000E+00  0.0000E+00  0.5040E+03  0.3600E+03
      5.986  0.0000E+00  0.2334E-07  0.5040E+03  0.3600E+03
      6.228  0.0000E+00  0.3166E+00  0.5040E+03  0.3601E+03
      6.469  0.0000E+00  0.3690E+01  0.5040E+03  0.3610E+03
      6.711  0.4762E-02  0.9776E+01  0.5040E+03  0.3633E+03
      6.952  0.1485E+00  0.3279E+02  0.5040E+03  0.3713E+03
      7.194  0.3176E+00  0.7778E+02  0.5041E+03  0.3900E+03
      7.436  0.7581E+00  0.6506E+02  0.5043E+03  0.4058E+03
      7.677  0.2533E+01  0.5150E+02  0.5049E+03  0.4182E+03
      7.919  0.2213E+01  0.8561E+02  0.5054E+03  0.4389E+03
      8.161  0.2120E+01  0.7824E+02  0.5060E+03  0.4578E+03
      8.402  0.5336E+01  0.5285E+02  0.5072E+03  0.4706E+03
      8.644  0.7904E+01  0.7297E+02  0.5092E+03  0.4882E+03
      8.885  0.1655E+02  0.4499E+02  0.5132E+03  0.4991E+03
      9.127  0.1347E+02  0.2210E+02  0.5164E+03  0.5044E+03
      9.369  0.1856E+02  0.4826E+01  0.5209E+03  0.5056E+03
      9.610  0.1985E+02  0.6658E+01  0.5257E+03  0.5072E+03
      9.852  0.1784E+02  0.1156E+02  0.5300E+03  0.5100E+03
     10.093  0.1803E+02  0.1444E+02  0.5344E+03  0.5135E+03
     10.335  0.1976E+02  0.1815E+02  0.5391E+03  0.5178E+03
     10.577  0.2425E+02  0.3198E+02  0.5450E+03  0.5256E+03
     10.818  0.2130E+02  0.2822E+02  0.5501E+03  0.5324E+03
     11.060  0.2851E+02  0.2189E+02  0.5570E+03  0.5377E+03
     11.301  0.2877E+02  0.2487E+02  0.5640E+03  0.5437E+03
     11.543  0.2222E+02  0.2207E+02  0.5693E+03  0.5490E+03
     11.785  0.2726E+02  0.2151E+02  0.5759E+03  0.5542E+03
     12.026  0.3936E+02  0.1858E+02  0.5854E+03  0.5587E+03
     12.268  0.3437E+02  0.3069E+02  0.5937E+03  0.5661E+03
     12.509  0.2812E+02  0.4270E+02  0.6005E+03  0.5764E+03
     12.751  0.2538E+02  0.3527E+02  0.6067E+03  0.5850E+03
     12.993  0.2860E+02  0.2854E+02  0.6136E+03  0.5918E+03
     13.234  0.2533E+02  0.2741E+02  0.6197E+03  0.5985E+03
     13.476  0.2167E+02  0.3661E+02  0.6249E+03  0.6073E+03
     13.717  0.1791E+02  0.2944E+02  0.6293E+03  0.6144E+03
     13.959  0.2909E+01  0.2309E+02  0.6300E+03  0.6200E+03
     14.201  0.1798E+00  0.2360E+02  0.6300E+03  0.6257E+03
     14.442  0.0000E+00  0.1638E+02  0.6300E+03  0.6297E+03
     14.684  0.0000E+00  0.1378E+01  0.6300E+03  0.6300E+03
     14.925  0.0000E+00  0.2100E-05  0.6300E+03  0.6300E+03
     15.167  0.0000E+00  0.0000E+00  0.6300E+03  0.6300E+03
     15.409  0.0000E+00  0.0000E+00  0.6300E+03  0.6300E+03
     15.650  0.0000E+00  0.0000E+00  0.6300E+03  0.6300E+03
     15.892  0.0000E+00  0.0000E+00  0.6300E+03  0.6300E+03
     16.133  0.0000E+00  0.0000E+00  0.6300E+03  0.6300E+03
     16.375  0.0000E+00  0.0000E+00  0.6300E+03  0.6300E+03
     16.617  0.0000E+00  0.0000E+00  0.6300E+03  0.6300E+03
     16.858  0.0000E+00  0.0000E+00  0.6300E+03  0.6300E+03
     17.100  0.0000E+00  0.0000E+00  0.6300E+03  0.6300E+03
     17.341  0.0000E+00  0.0000E+00  0.6300E+03  0.6300E+03
     17.583  0.0000E+00  0.0000E+00  0.6300E+03  0.6300E+03
     17.825  0.0000E+00  0.0000E+00  0.6300E+03  0.6300E+03
