<?xml version="1.0" encoding="ISO-8859-1"?>
<modeling>
 <generator>
  <i name="program" type="string">vasp </i>
  <i name="version" type="string">5.4.4.18Apr17-6-g9f103f2a35  </i>
  <i name="subversion" type="string">(build Oct 25 2017 14:42:18) complex            parallel </i>
  <i name="platform" type="string">LinuxIFC </i>
  <i name="date" type="string">2021 06 02 </i>
  <i name="time" type="string">16:17:06 </i>
 </generator>
 <incar>
  <i type="string" name="PREC">accurate</i>
  <i type="string" name="ALGO"> normal</i>
  <i type="logical" name="ADDGRID"> T  </i>
  <i type="int" name="ISPIN">     2</i>
  <i type="int" name="ICHARG">     1</i>
  <i type="int" name="NELM">   200</i>
  <i type="int" name="NELMIN">     8</i>
  <i name="EDIFF">      0.00000100</i>
  <i type="int" name="ISYM">     0</i>
  <i name="ENCUT">    650.00000000</i>
  <v name="MAGMOM">      0.60000000      0.60000000      0.60000000      0.60000000      0.60000000      0.60000000      0.60000000      0.60000000      0.60000000      0.60000000      0.60000000      0.60000000      0.60000000      0.60000000      0.60000000      0.60000000      0.60000000      0.60000000      0.60000000      0.60000000
      0.60000000      0.60000000      0.60000000      0.60000000      0.60000000      0.60000000      0.60000000      0.60000000      0.60000000      0.60000000      0.60000000      0.60000000      0.60000000      0.60000000      0.60000000      0.60000000      0.60000000      0.60000000      0.60000000      0.60000000
      0.60000000      0.60000000      0.60000000      0.60000000      0.60000000      0.60000000      0.60000000      0.60000000      0.60000000      0.60000000      0.60000000      0.60000000      0.60000000      0.60000000      0.60000000      0.60000000      5.00000000      5.00000000      5.00000000      5.00000000
      5.00000000      5.00000000      5.00000000      5.00000000      5.00000000      5.00000000      5.00000000      5.00000000      5.00000000      5.00000000      5.00000000      5.00000000      5.00000000      5.00000000      5.00000000      5.00000000      5.00000000      5.00000000      5.00000000      5.00000000
      5.00000000      5.00000000      5.00000000      5.00000000      5.00000000      5.00000000      5.00000000      5.00000000</v>
  <i type="logical" name="LREAL"> F  </i>
  <i type="int" name="ISMEAR">     0</i>
  <i name="SIGMA">      0.05000000</i>
  <i type="int" name="NWRITE">     1</i>
  <i type="int" name="LMAXMIX">     4</i>
  <i type="logical" name="LWAVE"> F  </i>
  <i type="logical" name="LASPH"> T  </i>
  <v type="int" name="KPOINT_BSE">    -1     0     0     0</v>
  <i type="int" name="NELM">   200</i>
  <i type="string" name="GGA"> pe</i>
  <i type="logical" name="LDAU"> T  </i>
  <v type="int" name="LDAUTYPE">     2</v>
  <v type="int" name="LDAUL">    -1    -1    -1     2</v>
  <v name="LDAUU">      0.00000000      0.00000000      0.00000000      4.00000000</v>
  <v name="LDAUJ">      0.00000000      0.00000000      0.00000000      0.00000000</v>
  <i type="logical" name="LASPH"> T  </i>
 </incar>
 <structure name="primitive_cell" >
  <crystal>
   <varray name="basis" >
    <v>      11.11223374       0.00000000      -0.00029034 </v>
    <v>       0.00000000      11.11745194       0.00000000 </v>
    <v>      -2.77510898       0.00000000      10.19872221 </v>
   </varray>
   <i name="volume">   1259.93837498 </i>
   <varray name="rec_basis" >
    <v>       0.08999155       0.00000000       0.02448702 </v>
    <v>       0.00000000       0.08994867       0.00000000 </v>
    <v>       0.00000256       0.00000000       0.09805220 </v>
   </varray>
  </crystal>
  <varray name="positions" >
   <v>       0.28894970       0.46933910       0.15583616 </v>
   <v>       0.17529533      -0.40661825       0.19749617 </v>
   <v>       0.42345029       0.34530995       0.19749407 </v>
   <v>       0.37560721      -0.40565694      -0.00000412 </v>
   <v>       0.12439279       0.34434306       0.00000412 </v>
   <v>      -0.46151602       0.46936404       0.15397331 </v>
   <v>       0.03848398       0.46936404       0.15397331 </v>
   <v>       0.28861657       0.21935690       0.15447525 </v>
   <v>       0.28861657      -0.28064310       0.15447525 </v>
   <v>       0.21868463       0.34523395       0.37102476 </v>
   <v>       0.46681660      -0.40655103       0.37102399 </v>
   <v>       0.23507288      -0.41767349       0.39367237 </v>
   <v>       0.46175575       0.35634799       0.39367694 </v>
   <v>       0.21138343       0.46935690      -0.15447525 </v>
   <v>       0.04646972       0.21934976       0.18586770 </v>
   <v>       0.04646972      -0.28065024       0.18586770 </v>
   <v>      -0.45353028       0.21934976       0.18586770 </v>
   <v>      -0.45353028      -0.28065024       0.18586770 </v>
   <v>       0.07654971      -0.40469005      -0.19749407 </v>
   <v>       0.32470467       0.34338175      -0.19844229 </v>
   <v>       0.21105030       0.21933910      -0.15583616 </v>
   <v>       0.21105030      -0.28066090      -0.15583616 </v>
   <v>      -0.07654971       0.34530995       0.19749407 </v>
   <v>      -0.32470467      -0.40661825       0.19749617 </v>
   <v>       0.17529533       0.09338175       0.19749617 </v>
   <v>       0.42345029      -0.15469005       0.19749407 </v>
   <v>       0.45353028       0.46934976      -0.18586770 </v>
   <v>      -0.04646972       0.46934976      -0.18586770 </v>
   <v>      -0.37560721       0.34434306       0.00000412 </v>
   <v>      -0.12439279      -0.40565694      -0.00000412 </v>
   <v>       0.37560721       0.09434306      -0.00000412 </v>
   <v>       0.12439279      -0.15565694       0.00000412 </v>
   <v>      -0.03318340      -0.40655103       0.37102399 </v>
   <v>      -0.28131537       0.34523395       0.37102476 </v>
   <v>       0.21868463      -0.15476605       0.37102476 </v>
   <v>       0.46681660       0.09344897       0.37102399 </v>
   <v>       0.46151602       0.21936404      -0.15397331 </v>
   <v>       0.46151602      -0.28063596      -0.15397331 </v>
   <v>      -0.03848398       0.21936404      -0.15397331 </v>
   <v>      -0.03848398      -0.28063596      -0.15397331 </v>
   <v>       0.26492712       0.33232651      -0.39367237 </v>
   <v>      -0.46175575      -0.39365201      -0.39367694 </v>
   <v>      -0.03824425       0.35634799       0.39367694 </v>
   <v>      -0.26492712      -0.41767349       0.39367237 </v>
   <v>       0.23507288       0.08232651       0.39367237 </v>
   <v>       0.46175575      -0.14365201       0.39367694 </v>
   <v>       0.28131537      -0.40476605      -0.37102476 </v>
   <v>      -0.46681660       0.34344897      -0.37102399 </v>
   <v>      -0.21105030       0.46933910       0.15583616 </v>
   <v>       0.28894970      -0.03066090       0.15583616 </v>
   <v>       0.32470467      -0.15661825      -0.19749617 </v>
   <v>       0.07654971       0.09530995      -0.19749407 </v>
   <v>      -0.42345029      -0.40469005      -0.19749407 </v>
   <v>      -0.17529533       0.34338175      -0.19749617 </v>
   <v>       0.03318340       0.34344897      -0.37102399 </v>
   <v>      -0.07654971      -0.15469005       0.19749407 </v>
   <v>      -0.32470467       0.09338175       0.19749617 </v>
   <v>       0.03824425      -0.39365201      -0.39367694 </v>
   <v>      -0.37560721      -0.15565694       0.00000412 </v>
   <v>      -0.12439279       0.09434306      -0.00000412 </v>
   <v>      -0.21138343       0.21935690       0.15447525 </v>
   <v>      -0.21138343      -0.28064310       0.15447525 </v>
   <v>      -0.46151602      -0.03063596       0.15397331 </v>
   <v>       0.03848398      -0.03063596       0.15397331 </v>
   <v>       0.26492712      -0.16767349      -0.39367237 </v>
   <v>      -0.46175575       0.10634799      -0.39367694 </v>
   <v>      -0.03318340       0.09344897       0.37102399 </v>
   <v>      -0.28131537      -0.15476605       0.37102476 </v>
   <v>      -0.23507288       0.33232651      -0.39367237 </v>
   <v>      -0.28861657       0.46935690      -0.15447525 </v>
   <v>       0.21138343      -0.03064310      -0.15447525 </v>
   <v>      -0.21868463      -0.40476605      -0.37102476 </v>
   <v>       0.28131537       0.09523395      -0.37102476 </v>
   <v>      -0.46681660      -0.15655103      -0.37102399 </v>
   <v>      -0.03824425      -0.14365201       0.39367694 </v>
   <v>      -0.26492712       0.08232651       0.39367237 </v>
   <v>      -0.42345029       0.09530995      -0.19749407 </v>
   <v>      -0.17529533      -0.15661825      -0.19749617 </v>
   <v>       0.03318340      -0.15655103      -0.37102399 </v>
   <v>      -0.28894970       0.21933910      -0.15583616 </v>
   <v>      -0.28894970      -0.28066090      -0.15583616 </v>
   <v>       0.03824425       0.10634799      -0.39367694 </v>
   <v>       0.45353028      -0.03065024      -0.18586770 </v>
   <v>      -0.04646972      -0.03065024      -0.18586770 </v>
   <v>      -0.23507288      -0.16767349      -0.39367237 </v>
   <v>      -0.21868463       0.09523395      -0.37102476 </v>
   <v>      -0.21105030      -0.03066090       0.15583616 </v>
   <v>      -0.28861657      -0.03064310      -0.15447525 </v>
  </varray>
 </structure>
 <varray name="primitive_index" >
  <v type="int" >        1 </v>
  <v type="int" >       27 </v>
  <v type="int" >       29 </v>
  <v type="int" >       55 </v>
  <v type="int" >       49 </v>
  <v type="int" >       74 </v>
  <v type="int" >       73 </v>
  <v type="int" >       77 </v>
  <v type="int" >       79 </v>
  <v type="int" >       33 </v>
  <v type="int" >       39 </v>
  <v type="int" >       67 </v>
  <v type="int" >       69 </v>
  <v type="int" >       81 </v>
  <v type="int" >        5 </v>
  <v type="int" >        7 </v>
  <v type="int" >        6 </v>
  <v type="int" >        8 </v>
  <v type="int" >       19 </v>
  <v type="int" >       21 </v>
  <v type="int" >       13 </v>
  <v type="int" >       15 </v>
  <v type="int" >       30 </v>
  <v type="int" >       28 </v>
  <v type="int" >       25 </v>
  <v type="int" >       31 </v>
  <v type="int" >        9 </v>
  <v type="int" >       10 </v>
  <v type="int" >       50 </v>
  <v type="int" >       56 </v>
  <v type="int" >       53 </v>
  <v type="int" >       51 </v>
  <v type="int" >       40 </v>
  <v type="int" >       34 </v>
  <v type="int" >       35 </v>
  <v type="int" >       37 </v>
  <v type="int" >       85 </v>
  <v type="int" >       87 </v>
  <v type="int" >       86 </v>
  <v type="int" >       88 </v>
  <v type="int" >       61 </v>
  <v type="int" >       60 </v>
  <v type="int" >       70 </v>
  <v type="int" >       68 </v>
  <v type="int" >       65 </v>
  <v type="int" >       71 </v>
  <v type="int" >       47 </v>
  <v type="int" >       42 </v>
  <v type="int" >        2 </v>
  <v type="int" >        3 </v>
  <v type="int" >       23 </v>
  <v type="int" >       17 </v>
  <v type="int" >       20 </v>
  <v type="int" >       22 </v>
  <v type="int" >       41 </v>
  <v type="int" >       32 </v>
  <v type="int" >       26 </v>
  <v type="int" >       59 </v>
  <v type="int" >       52 </v>
  <v type="int" >       54 </v>
  <v type="int" >       78 </v>
  <v type="int" >       80 </v>
  <v type="int" >       76 </v>
  <v type="int" >       75 </v>
  <v type="int" >       63 </v>
  <v type="int" >       58 </v>
  <v type="int" >       38 </v>
  <v type="int" >       36 </v>
  <v type="int" >       62 </v>
  <v type="int" >       82 </v>
  <v type="int" >       83 </v>
  <v type="int" >       48 </v>
  <v type="int" >       45 </v>
  <v type="int" >       44 </v>
  <v type="int" >       72 </v>
  <v type="int" >       66 </v>
  <v type="int" >       18 </v>
  <v type="int" >       24 </v>
  <v type="int" >       43 </v>
  <v type="int" >       14 </v>
  <v type="int" >       16 </v>
  <v type="int" >       57 </v>
  <v type="int" >       11 </v>
  <v type="int" >       12 </v>
  <v type="int" >       64 </v>
  <v type="int" >       46 </v>
  <v type="int" >        4 </v>
  <v type="int" >       84 </v>
 </varray>
 <kpoints>
  <generation param="Gamma">
   <v type="int" name="divisions">       3        3        3 </v>
   <v name="usershift">      0.00000000       0.00000000       0.00000000 </v>
   <v name="genvec1">      0.33333333       0.00000000       0.00000000 </v>
   <v name="genvec2">      0.00000000       0.33333333       0.00000000 </v>
   <v name="genvec3">      0.00000000       0.00000000       0.33333333 </v>
   <v name="shift">      0.00000000       0.00000000       0.00000000 </v>
  </generation>
  <varray name="kpointlist" >
   <v>       0.00000000       0.00000000       0.00000000 </v>
   <v>       0.33333333       0.00000000       0.00000000 </v>
   <v>       0.00000000       0.33333333       0.00000000 </v>
   <v>       0.33333333       0.33333333       0.00000000 </v>
   <v>      -0.33333333       0.33333333      -0.00000000 </v>
   <v>       0.00000000       0.00000000       0.33333333 </v>
   <v>       0.33333333       0.00000000       0.33333333 </v>
   <v>      -0.33333333       0.00000000       0.33333333 </v>
   <v>       0.00000000       0.33333333       0.33333333 </v>
   <v>       0.33333333       0.33333333       0.33333333 </v>
   <v>      -0.33333333       0.33333333       0.33333333 </v>
   <v>       0.00000000      -0.33333333       0.33333333 </v>
   <v>       0.33333333      -0.33333333       0.33333333 </v>
   <v>      -0.33333333      -0.33333333       0.33333333 </v>
  </varray>
  <varray name="weights" >
   <v>       0.03703704 </v>
   <v>       0.07407407 </v>
   <v>       0.07407407 </v>
   <v>       0.07407407 </v>
   <v>       0.07407407 </v>
   <v>       0.07407407 </v>
   <v>       0.07407407 </v>
   <v>       0.07407407 </v>
   <v>       0.07407407 </v>
   <v>       0.07407407 </v>
   <v>       0.07407407 </v>
   <v>       0.07407407 </v>
   <v>       0.07407407 </v>
   <v>       0.07407407 </v>
  </varray>
 </kpoints>
 <parameters>
  <separator name="general" >
   <i type="string" name="SYSTEM">unknown system</i>
   <i type="logical" name="LCOMPAT"> F  </i>
  </separator>
  <separator name="electronic" >
   <i type="string" name="PREC">accura</i>
   <i name="ENMAX">    650.00000000</i>
   <i name="ENAUG">    628.94500000</i>
   <i name="EDIFF">      0.00000100</i>
   <i type="int" name="IALGO">    38</i>
   <i type="int" name="IWAVPR">    10</i>
   <i type="int" name="NBANDS">   538</i>
   <i name="NELECT">    736.00000000</i>
   <i type="int" name="TURBO">     0</i>
   <i type="int" name="IRESTART">     0</i>
   <i type="int" name="NREBOOT">     0</i>
   <i type="int" name="NMIN">     0</i>
   <i name="EREF">      0.00000000</i>
   <separator name="electronic smearing" >
    <i type="int" name="ISMEAR">     0</i>
    <i name="SIGMA">      0.05000000</i>
    <i name="KSPACING">      0.50000000</i>
    <i type="logical" name="KGAMMA"> T  </i>
   </separator>
   <separator name="electronic projectors" >
    <i type="logical" name="LREAL"> F  </i>
    <v name="ROPT">      0.00000000      0.00000000      0.00000000      0.00000000</v>
    <i type="int" name="LMAXPAW">  -100</i>
    <i type="int" name="LMAXMIX">     4</i>
    <i type="logical" name="NLSPLINE"> F  </i>
   </separator>
   <separator name="electronic startup" >
    <i type="int" name="ISTART">     0</i>
    <i type="int" name="ICHARG">     1</i>
    <i type="int" name="INIWAV">     1</i>
   </separator>
   <separator name="electronic spin" >
    <i type="int" name="ISPIN">     2</i>
    <i type="logical" name="LNONCOLLINEAR"> F  </i>
    <v name="MAGMOM">      0.60000000      0.60000000      0.60000000      0.60000000      0.60000000      0.60000000      0.60000000      0.60000000      0.60000000      0.60000000      0.60000000      0.60000000      0.60000000      0.60000000      0.60000000      0.60000000      0.60000000      0.60000000      0.60000000      0.60000000
      0.60000000      0.60000000      0.60000000      0.60000000      0.60000000      0.60000000      0.60000000      0.60000000      0.60000000      0.60000000      0.60000000      0.60000000      0.60000000      0.60000000      0.60000000      0.60000000      0.60000000      0.60000000      0.60000000      0.60000000
      0.60000000      0.60000000      0.60000000      0.60000000      0.60000000      0.60000000      0.60000000      0.60000000      0.60000000      0.60000000      0.60000000      0.60000000      0.60000000      0.60000000      0.60000000      0.60000000      5.00000000      5.00000000      5.00000000      5.00000000
      5.00000000      5.00000000      5.00000000      5.00000000      5.00000000      5.00000000      5.00000000      5.00000000      5.00000000      5.00000000      5.00000000      5.00000000      5.00000000      5.00000000      5.00000000      5.00000000      5.00000000      5.00000000      5.00000000      5.00000000
      5.00000000      5.00000000      5.00000000      5.00000000      5.00000000      5.00000000      5.00000000      5.00000000</v>
    <i name="NUPDOWN">     -1.00000000</i>
    <i type="logical" name="LSORBIT"> F  </i>
    <v name="SAXIS">      0.00000000      0.00000000      1.00000000</v>
    <i type="logical" name="LSPIRAL"> F  </i>
    <v name="QSPIRAL">      0.00000000      0.00000000      0.00000000</v>
    <i type="logical" name="LZEROZ"> F  </i>
   </separator>
   <separator name="electronic exchange-correlation" >
    <i type="logical" name="LASPH"> T  </i>
    <i type="logical" name="LMETAGGA"> F  </i>
   </separator>
   <separator name="electronic convergence" >
    <i type="int" name="NELM">   200</i>
    <i type="int" name="NELMDL">     0</i>
    <i type="int" name="NELMIN">     8</i>
    <i name="ENINI">    650.00000000</i>
    <separator name="electronic convergence detail" >
     <i type="logical" name="LDIAG"> T  </i>
     <i type="logical" name="LSUBROT"> F  </i>
     <i name="WEIMIN">      0.00000000</i>
     <i name="EBREAK">      0.00000000</i>
     <i name="DEPER">      0.30000000</i>
     <i type="int" name="NRMM">     4</i>
     <i name="TIME">      0.40000000</i>
    </separator>
   </separator>
   <separator name="electronic mixer" >
    <i name="AMIX">      0.40000000</i>
    <i name="BMIX">      1.00000000</i>
    <i name="AMIN">      0.10000000</i>
    <i name="AMIX_MAG">      1.60000000</i>
    <i name="BMIX_MAG">      1.00000000</i>
    <separator name="electronic mixer details" >
     <i type="int" name="IMIX">     4</i>
     <i type="logical" name="MIXFIRST"> F  </i>
     <i type="int" name="MAXMIX">   -45</i>
     <i name="WC">    100.00000000</i>
     <i type="int" name="INIMIX">     1</i>
     <i type="int" name="MIXPRE">     1</i>
     <i type="int" name="MREMOVE">     5</i>
    </separator>
   </separator>
   <separator name="electronic dipolcorrection" >
    <i type="logical" name="LDIPOL"> F  </i>
    <i type="logical" name="LMONO"> F  </i>
    <i type="int" name="IDIPOL">     0</i>
    <i name="EPSILON">      1.00000000</i>
    <v name="DIPOL">   -100.00000000   -100.00000000   -100.00000000</v>
    <i name="EFIELD">      0.00000000</i>
   </separator>
  </separator>
  <separator name="grids" >
   <i type="int" name="NGX">    96</i>
   <i type="int" name="NGY">    96</i>
   <i type="int" name="NGZ">    90</i>
   <i type="int" name="NGXF">   192</i>
   <i type="int" name="NGYF">   192</i>
   <i type="int" name="NGZF">   180</i>
   <i type="logical" name="ADDGRID"> T  </i>
  </separator>
  <separator name="ionic" >
   <i type="int" name="NSW">     0</i>
   <i type="int" name="IBRION">    -1</i>
   <i type="int" name="MDALGO">     0</i>
   <i type="int" name="ISIF">     2</i>
   <i name="PSTRESS">      0.00000000</i>
   <i name="EDIFFG">      0.00001000</i>
   <i type="int" name="NFREE">     0</i>
   <i name="POTIM">      0.50000000</i>
   <i name="SMASS">     -3.00000000</i>
   <i name="SCALEE">      1.00000000</i>
  </separator>
  <separator name="ionic md" >
   <i name="TEBEG">      0.00010000</i>
   <i name="TEEND">      0.00010000</i>
   <i type="int" name="NBLOCK">     1</i>
   <i type="int" name="KBLOCK">     1</i>
   <i type="int" name="NPACO">   256</i>
   <i name="APACO">     16.00000000</i>
  </separator>
  <separator name="symmetry" >
   <i type="int" name="ISYM">     0</i>
   <i name="SYMPREC">      0.00001000</i>
  </separator>
  <separator name="dos" >
   <i type="int" name="LORBIT">     0</i>
   <v name="RWIGS">     -1.00000000     -1.00000000     -1.00000000     -1.00000000</v>
   <i type="int" name="NEDOS">   301</i>
   <i name="EMIN">     10.00000000</i>
   <i name="EMAX">    -10.00000000</i>
   <i name="EFERMI">      0.00000000</i>
  </separator>
  <separator name="writing" >
   <i type="int" name="NWRITE">     1</i>
   <i type="logical" name="LWAVE"> F  </i>
   <i type="logical" name="LDOWNSAMPLE"> F  </i>
   <i type="logical" name="LCHARG"> T  </i>
   <i type="logical" name="LPARD"> F  </i>
   <i type="logical" name="LVTOT"> F  </i>
   <i type="logical" name="LVHAR"> F  </i>
   <i type="logical" name="LELF"> F  </i>
   <i type="logical" name="LOPTICS"> F  </i>
   <v name="STM">      0.00000000      0.00000000      0.00000000      0.00000000      0.00000000      0.00000000      0.00000000</v>
  </separator>
  <separator name="performance" >
   <i type="int" name="NPAR">     2</i>
   <i type="int" name="NSIM">     4</i>
   <i type="int" name="NBLK">    -1</i>
   <i type="logical" name="LPLANE"> T  </i>
   <i type="logical" name="LSCALAPACK"> T  </i>
   <i type="logical" name="LSCAAWARE"> F  </i>
   <i type="logical" name="LSCALU"> F  </i>
   <i type="logical" name="LASYNC"> F  </i>
   <i type="logical" name="LORBITALREAL"> F  </i>
  </separator>
  <separator name="miscellaneous" >
   <i type="int" name="IDIOT">     3</i>
   <i type="int" name="ISPECIAL">     0</i>
   <i type="logical" name="LMUSIC"> F  </i>
   <v name="POMASS">      7.01000000     16.00000000     32.06600000     55.84700000</v>
   <v name="DARWINR">      0.00000000      0.00000000      0.00000000      0.00000000</v>
   <v name="DARWINV">      1.00000000      1.00000000      1.00000000      1.00000000</v>
   <i type="logical" name="LCORR"> T  </i>
  </separator>
  <i type="logical" name="GGA_COMPAT"> T  </i>
  <i type="logical" name="LBERRY"> F  </i>
  <i type="int" name="ICORELEVEL">     0</i>
  <i type="logical" name="LDAU"> T  </i>
  <v type="int" name="LDAUTYPE">     2</v>
  <v type="int" name="LDAUL">    -1</v>
  <v name="LDAUU">      0.00000000</v>
  <v name="LDAUJ">      0.00000000</v>
  <i type="int" name="LDAUPRINT">     0</i>
  <i type="int" name="I_CONSTRAINED_M">     0</i>
  <separator name="electronic exchange-correlation" >
   <i type="string" name="GGA">PE</i>
   <i type="int" name="VOSKOWN">     0</i>
   <i type="logical" name="LHFCALC"> F  </i>
   <i type="string" name="PRECFOCK"></i>
   <i type="logical" name="LSYMGRAD"> F  </i>
   <i type="logical" name="LHFONE"> F  </i>
   <i type="logical" name="LRHFCALC"> F  </i>
   <i type="logical" name="LTHOMAS"> F  </i>
   <i type="logical" name="LMODELHF"> F  </i>
   <i name="ENCUT4O">     -1.00000000</i>
   <i type="int" name="EXXOEP">     0</i>
   <i type="int" name="FOURORBIT">     0</i>
   <i name="AEXX">      0.00000000</i>
   <i name="HFALPHA">      0.00000000</i>
   <i name="MCALPHA">      0.00000000</i>
   <i name="ALDAX">      1.00000000</i>
   <i name="AGGAX">      1.00000000</i>
   <i name="ALDAC">      1.00000000</i>
   <i name="AGGAC">      1.00000000</i>
   <i type="int" name="NKREDX">     1</i>
   <i type="int" name="NKREDY">     1</i>
   <i type="int" name="NKREDZ">     1</i>
   <i type="logical" name="SHIFTRED"> F  </i>
   <i type="logical" name="ODDONLY"> F  </i>
   <i type="logical" name="EVENONLY"> F  </i>
   <i type="int" name="LMAXFOCK">     0</i>
   <i type="int" name="NMAXFOCKAE">     0</i>
   <i type="logical" name="LFOCKAEDFT"> F  </i>
   <i name="HFSCREEN">      0.00000000</i>
   <i name="HFSCREENC">      0.00000000</i>
   <i type="int" name="NBANDSGWLOW">     0</i>
  </separator>
  <separator name="vdW DFT" >
   <i type="logical" name="LUSE_VDW"> F  </i>
   <i name="Zab_VDW">     -0.84910000</i>
   <i name="PARAM1">      0.12340000</i>
   <i name="PARAM2">      1.00000000</i>
   <i name="PARAM3">      0.00000000</i>
  </separator>
  <separator name="model GW" >
   <i type="int" name="MODEL_GW">     0</i>
   <i name="MODEL_EPS0">      8.59048892</i>
   <i name="MODEL_ALPHA">      1.00000000</i>
  </separator>
  <separator name="linear response parameters" >
   <i type="logical" name="LEPSILON"> F  </i>
   <i type="logical" name="LRPA"> F  </i>
   <i type="logical" name="LNABLA"> F  </i>
   <i type="logical" name="LVEL"> F  </i>
   <i type="int" name="KINTER">     0</i>
   <i name="CSHIFT">      0.10000000</i>
   <i name="OMEGAMAX">     -1.00000000</i>
   <i name="DEG_THRESHOLD">      0.00200000</i>
   <i name="RTIME">     -0.10000000</i>
   <i name="WPLASMAI">      0.00000000</i>
   <v name="DFIELD">      0.00000000      0.00000000      0.00000000</v>
   <v name="WPLASMA">      0.00000000      0.00000000      0.00000000      0.00000000      0.00000000      0.00000000      0.00000000      0.00000000      0.00000000</v>
  </separator>
  <separator name="orbital magnetization" >
   <i type="logical" name="NUCIND"> F  </i>
   <v name="MAGPOS">      0.00000000      0.00000000      0.00000000</v>
   <i type="logical" name="LNICSALL"> T  </i>
   <i type="logical" name="ORBITALMAG"> F  </i>
   <i type="logical" name="LMAGBLOCH"> F  </i>
   <i type="logical" name="LCHIMAG"> F  </i>
   <i type="logical" name="LGAUGE"> T  </i>
   <i type="int" name="MAGATOM">     0</i>
   <v name="MAGDIPOL">      0.00000000      0.00000000      0.00000000</v>
   <v name="AVECCONST">      0.00000000      0.00000000      0.00000000</v>
  </separator>
  <separator name="response functions" >
   <i type="logical" name="LADDER"> F  </i>
   <i type="logical" name="LRPAFORCE"> F  </i>
   <i type="logical" name="LFXC"> F  </i>
   <i type="logical" name="LHARTREE"> T  </i>
   <i type="int" name="IBSE">     0</i>
   <v type="int" name="KPOINT">    -1     0     0     0</v>
   <i type="logical" name="LTCTE"> F  </i>
   <i type="logical" name="LTETE"> F  </i>
   <i type="logical" name="LTRIPLET"> F  </i>
   <i type="logical" name="LFXCEPS"> F  </i>
   <i type="logical" name="LFXHEG"> F  </i>
   <i type="int" name="NATURALO">     2</i>
   <i type="logical" name="L2ORDER"> F  </i>
   <i type="logical" name="LMP2LT"> F  </i>
   <i type="logical" name="LUSEW"> F  </i>
   <i name="ENCUTGW">     -2.00000000</i>
   <i name="ENCUTGWSOFT">     -2.00000000</i>
   <i name="ENCUTLF">     -1.00000000</i>
   <i type="int" name="LMAXMP2">    -1</i>
   <i name="SCISSOR">      0.00000000</i>
   <i type="int" name="NOMEGA">     0</i>
   <i type="int" name="NOMEGAR">     0</i>
   <i type="int" name="NBANDSGW">    -1</i>
   <i type="int" name="NBANDSO">    -1</i>
   <i type="int" name="NBANDSV">    -1</i>
   <i type="int" name="NELM">   200</i>
   <i type="int" name="NELMHF">     1</i>
   <i type="int" name="DIM">     3</i>
   <i type="int" name="ANTIRES">     0</i>
   <i name="OMEGAMAX">    -30.00000000</i>
   <i name="OMEGAMIN">    -30.00000000</i>
   <i name="OMEGATL">   -200.00000000</i>
   <i type="int" name="OMEGAGRID">   140</i>
   <i name="CSHIFT">     -0.10000000</i>
   <i type="logical" name="SELFENERGY"> F  </i>
   <i type="logical" name="LSPECTRAL"> F  </i>
   <i type="logical" name="LSPECTRALGW"> F  </i>
   <i type="logical" name="LSINGLES"> F  </i>
   <i type="logical" name="LFERMIGW"> F  </i>
   <i type="logical" name="ODDONLYGW"> F  </i>
   <i type="logical" name="EVENONLYGW"> F  </i>
   <i type="int" name="NKREDLFX">     1</i>
   <i type="int" name="NKREDLFY">     1</i>
   <i type="int" name="NKREDLFZ">     1</i>
   <i type="int" name="MAXMEM">  2800</i>
   <i type="int" name="TELESCOPE">     0</i>
   <i type="int" name="TAUPAR">     1</i>
   <i type="int" name="OMEGAPAR">    -1</i>
   <i name="LAMBDA">      1.00000000</i>
  </separator>
  <separator name="External order field" >
   <i name="OFIELD_KAPPA">      0.00000000</i>
   <v name="OFIELD_K">      0.00000000      0.00000000      0.00000000</v>
   <i name="OFIELD_Q6_NEAR">      0.00000000</i>
   <i name="OFIELD_Q6_FAR">      0.00000000</i>
   <i name="OFIELD_A">      0.00000000</i>
  </separator>
 </parameters>
 <atominfo>
  <atoms>      88 </atoms>
  <types>       4 </types>
  <array name="atoms" >
   <dimension dim="1">ion</dimension>
   <field type="string">element</field>
   <field type="int">atomtype</field>
   <set>
    <rc><c>Li</c><c>   1</c></rc>
    <rc><c>Li</c><c>   1</c></rc>
    <rc><c>Li</c><c>   1</c></rc>
    <rc><c>Li</c><c>   1</c></rc>
    <rc><c>Li</c><c>   1</c></rc>
    <rc><c>Li</c><c>   1</c></rc>
    <rc><c>Li</c><c>   1</c></rc>
    <rc><c>Li</c><c>   1</c></rc>
    <rc><c>Li</c><c>   1</c></rc>
    <rc><c>Li</c><c>   1</c></rc>
    <rc><c>Li</c><c>   1</c></rc>
    <rc><c>Li</c><c>   1</c></rc>
    <rc><c>Li</c><c>   1</c></rc>
    <rc><c>Li</c><c>   1</c></rc>
    <rc><c>Li</c><c>   1</c></rc>
    <rc><c>Li</c><c>   1</c></rc>
    <rc><c>O </c><c>   2</c></rc>
    <rc><c>O </c><c>   2</c></rc>
    <rc><c>O </c><c>   2</c></rc>
    <rc><c>O </c><c>   2</c></rc>
    <rc><c>O </c><c>   2</c></rc>
    <rc><c>O </c><c>   2</c></rc>
    <rc><c>O </c><c>   2</c></rc>
    <rc><c>O </c><c>   2</c></rc>
    <rc><c>O </c><c>   2</c></rc>
    <rc><c>O </c><c>   2</c></rc>
    <rc><c>O </c><c>   2</c></rc>
    <rc><c>O </c><c>   2</c></rc>
    <rc><c>O </c><c>   2</c></rc>
    <rc><c>O </c><c>   2</c></rc>
    <rc><c>O </c><c>   2</c></rc>
    <rc><c>O </c><c>   2</c></rc>
    <rc><c>S </c><c>   3</c></rc>
    <rc><c>S </c><c>   3</c></rc>
    <rc><c>S </c><c>   3</c></rc>
    <rc><c>S </c><c>   3</c></rc>
    <rc><c>S </c><c>   3</c></rc>
    <rc><c>S </c><c>   3</c></rc>
    <rc><c>S </c><c>   3</c></rc>
    <rc><c>S </c><c>   3</c></rc>
    <rc><c>S </c><c>   3</c></rc>
    <rc><c>S </c><c>   3</c></rc>
    <rc><c>S </c><c>   3</c></rc>
    <rc><c>S </c><c>   3</c></rc>
    <rc><c>S </c><c>   3</c></rc>
    <rc><c>S </c><c>   3</c></rc>
    <rc><c>S </c><c>   3</c></rc>
    <rc><c>S </c><c>   3</c></rc>
    <rc><c>S </c><c>   3</c></rc>
    <rc><c>S </c><c>   3</c></rc>
    <rc><c>S </c><c>   3</c></rc>
    <rc><c>S </c><c>   3</c></rc>
    <rc><c>S </c><c>   3</c></rc>
    <rc><c>S </c><c>   3</c></rc>
    <rc><c>S </c><c>   3</c></rc>
    <rc><c>S </c><c>   3</c></rc>
    <rc><c>Fe</c><c>   4</c></rc>
    <rc><c>Fe</c><c>   4</c></rc>
    <rc><c>Fe</c><c>   4</c></rc>
    <rc><c>Fe</c><c>   4</c></rc>
    <rc><c>Fe</c><c>   4</c></rc>
    <rc><c>Fe</c><c>   4</c></rc>
    <rc><c>Fe</c><c>   4</c></rc>
    <rc><c>Fe</c><c>   4</c></rc>
    <rc><c>Fe</c><c>   4</c></rc>
    <rc><c>Fe</c><c>   4</c></rc>
    <rc><c>Fe</c><c>   4</c></rc>
    <rc><c>Fe</c><c>   4</c></rc>
    <rc><c>Fe</c><c>   4</c></rc>
    <rc><c>Fe</c><c>   4</c></rc>
    <rc><c>Fe</c><c>   4</c></rc>
    <rc><c>Fe</c><c>   4</c></rc>
    <rc><c>Fe</c><c>   4</c></rc>
    <rc><c>Fe</c><c>   4</c></rc>
    <rc><c>Fe</c><c>   4</c></rc>
    <rc><c>Fe</c><c>   4</c></rc>
    <rc><c>Fe</c><c>   4</c></rc>
    <rc><c>Fe</c><c>   4</c></rc>
    <rc><c>Fe</c><c>   4</c></rc>
    <rc><c>Fe</c><c>   4</c></rc>
    <rc><c>Fe</c><c>   4</c></rc>
    <rc><c>Fe</c><c>   4</c></rc>
    <rc><c>Fe</c><c>   4</c></rc>
    <rc><c>Fe</c><c>   4</c></rc>
    <rc><c>Fe</c><c>   4</c></rc>
    <rc><c>Fe</c><c>   4</c></rc>
    <rc><c>Fe</c><c>   4</c></rc>
    <rc><c>Fe</c><c>   4</c></rc>
   </set>
  </array>
  <array name="atomtypes" >
   <dimension dim="1">type</dimension>
   <field type="int">atomspertype</field>
   <field type="string">element</field>
   <field>mass</field>
   <field>valence</field>
   <field type="string">pseudopotential</field>
   <set>
    <rc><c>  16</c><c>Li</c><c>      7.01000000</c><c>      3.00000000</c><c>  PAW_PBE Li_sv 10Sep2004               </c></rc>
    <rc><c>  16</c><c>O </c><c>     16.00000000</c><c>      6.00000000</c><c>  PAW_PBE O 08Apr2002                   </c></rc>
    <rc><c>  24</c><c>S </c><c>     32.06600000</c><c>      6.00000000</c><c>  PAW_PBE S 06Sep2000                   </c></rc>
    <rc><c>  32</c><c>Fe</c><c>     55.84700000</c><c>     14.00000000</c><c>  PAW_PBE Fe_pv 02Aug2007               </c></rc>
   </set>
  </array>
 </atominfo>
 <structure name="initialpos" >
  <crystal>
   <varray name="basis" >
    <v>      11.11223374       0.00000000      -0.00029034 </v>
    <v>       0.00000000      11.11745194       0.00000000 </v>
    <v>      -2.77510898       0.00000000      10.19872221 </v>
   </varray>
   <i name="volume">   1259.93837498 </i>
   <varray name="rec_basis" >
    <v>       0.08999155       0.00000000       0.02448702 </v>
    <v>       0.00000000       0.08994867       0.00000000 </v>
    <v>       0.00000256       0.00000000       0.09805220 </v>
   </varray>
  </crystal>
  <varray name="positions" >
   <v>       0.28894969       0.46933910       0.15583616 </v>
   <v>       0.78894969       0.46933910       0.15583616 </v>
   <v>       0.28894969       0.96933910       0.15583616 </v>
   <v>       0.78894969       0.96933910       0.15583616 </v>
   <v>       0.04646972       0.21934976       0.18586770 </v>
   <v>       0.54646972       0.21934976       0.18586770 </v>
   <v>       0.04646972       0.71934976       0.18586770 </v>
   <v>       0.54646972       0.71934976       0.18586770 </v>
   <v>       0.45353028       0.46934976       0.81413230 </v>
   <v>       0.95353028       0.46934976       0.81413230 </v>
   <v>       0.45353028       0.96934976       0.81413230 </v>
   <v>       0.95353028       0.96934976       0.81413230 </v>
   <v>       0.21105031       0.21933910       0.84416384 </v>
   <v>       0.71105031       0.21933910       0.84416384 </v>
   <v>       0.21105031       0.71933910       0.84416384 </v>
   <v>       0.71105031       0.71933910       0.84416384 </v>
   <v>       0.07654971       0.09530995       0.80250593 </v>
   <v>       0.57654971       0.09530995       0.80250593 </v>
   <v>       0.07654971       0.59530995       0.80250593 </v>
   <v>       0.57654971       0.59530995       0.80250593 </v>
   <v>       0.32470466       0.34338175       0.80155772 </v>
   <v>       0.82470466       0.34338175       0.80250383 </v>
   <v>       0.32470466       0.84338175       0.80250383 </v>
   <v>       0.82470466       0.84338175       0.80250383 </v>
   <v>       0.17529534       0.09338175       0.19749617 </v>
   <v>       0.67529534       0.09338175       0.19749617 </v>
   <v>       0.17529534       0.59338175       0.19749617 </v>
   <v>       0.67529534       0.59338175       0.19749617 </v>
   <v>       0.42345029       0.34530995       0.19749407 </v>
   <v>       0.92345029       0.34530995       0.19749407 </v>
   <v>       0.42345029       0.84530995       0.19749407 </v>
   <v>       0.92345029       0.84530995       0.19749407 </v>
   <v>       0.21868463       0.34523395       0.37102476 </v>
   <v>       0.71868463       0.34523395       0.37102476 </v>
   <v>       0.21868463       0.84523395       0.37102476 </v>
   <v>       0.71868463       0.84523395       0.37102476 </v>
   <v>       0.46681660       0.09344897       0.37102399 </v>
   <v>       0.96681660       0.09344897       0.37102399 </v>
   <v>       0.46681660       0.59344897       0.37102399 </v>
   <v>       0.96681660       0.59344897       0.37102399 </v>
   <v>       0.03318340       0.34344897       0.62897601 </v>
   <v>       0.53318340       0.34344897       0.62897601 </v>
   <v>       0.03318340       0.84344897       0.62897601 </v>
   <v>       0.53318340       0.84344897       0.62897601 </v>
   <v>       0.28131537       0.09523395       0.62897524 </v>
   <v>       0.78131537       0.09523395       0.62897524 </v>
   <v>       0.28131537       0.59523395       0.62897524 </v>
   <v>       0.78131537       0.59523395       0.62897524 </v>
   <v>       0.12439279       0.34434306       0.00000412 </v>
   <v>       0.62439279       0.34434306       0.00000412 </v>
   <v>       0.12439279       0.84434306       0.00000412 </v>
   <v>       0.62439279       0.84434306       0.00000412 </v>
   <v>       0.37560721       0.09434306       0.99999588 </v>
   <v>       0.87560721       0.09434306       0.99999588 </v>
   <v>       0.37560721       0.59434306       0.99999588 </v>
   <v>       0.87560721       0.59434306       0.99999588 </v>
   <v>       0.03824426       0.10634799       0.60632306 </v>
   <v>       0.53824426       0.10634799       0.60632306 </v>
   <v>       0.03824426       0.60634799       0.60632306 </v>
   <v>       0.53824426       0.60634799       0.60632306 </v>
   <v>       0.26492712       0.33232651       0.60632763 </v>
   <v>       0.76492712       0.33232651       0.60632763 </v>
   <v>       0.26492712       0.83232651       0.60632763 </v>
   <v>       0.76492712       0.83232651       0.60632763 </v>
   <v>       0.23507288       0.08232651       0.39367237 </v>
   <v>       0.73507288       0.08232651       0.39367237 </v>
   <v>       0.23507288       0.58232651       0.39367237 </v>
   <v>       0.73507288       0.58232651       0.39367237 </v>
   <v>       0.46175574       0.35634799       0.39367694 </v>
   <v>       0.96175574       0.35634799       0.39367694 </v>
   <v>       0.46175574       0.85634799       0.39367694 </v>
   <v>       0.96175574       0.85634799       0.39367694 </v>
   <v>       0.03848398       0.46936404       0.15397331 </v>
   <v>       0.53848398       0.46936404       0.15397331 </v>
   <v>       0.03848398       0.96936404       0.15397331 </v>
   <v>       0.53848398       0.96936404       0.15397331 </v>
   <v>       0.28861657       0.21935690       0.15447525 </v>
   <v>       0.78861657       0.21935690       0.15447525 </v>
   <v>       0.28861657       0.71935690       0.15447525 </v>
   <v>       0.78861657       0.71935690       0.15447525 </v>
   <v>       0.21138343       0.46935690       0.84552475 </v>
   <v>       0.71138343       0.46935690       0.84552475 </v>
   <v>       0.21138343       0.96935690       0.84552475 </v>
   <v>       0.71138343       0.96935690       0.84552475 </v>
   <v>       0.46151602       0.21936404       0.84602669 </v>
   <v>       0.96151602       0.21936404       0.84602669 </v>
   <v>       0.46151602       0.71936404       0.84602669 </v>
   <v>       0.96151602       0.71936404       0.84602669 </v>
  </varray>
 </structure>
 <calculation>
  <scstep>
   <time name="dav">  316.08  319.56</time>
   <time name="total">  319.43  322.91</time>
   <energy>
    <i name="alphaZ">   2314.49656628 </i>
    <i name="ewald"> -57721.81812340 </i>
    <i name="hartreedc"> -30350.02401742 </i>
    <i name="XCdc">   3229.30474765 </i>
    <i name="pawpsdc">  92679.89207989 </i>
    <i name="pawaedc"> -95535.38516353 </i>
    <i name="eentropy">     -0.01847004 </i>
    <i name="bandstr">    349.76408335 </i>
    <i name="atom">  95443.47970955 </i>
    <i name="e_fr_energy">  10409.69141232 </i>
    <i name="e_wo_entrp">  10409.70988237 </i>
    <i name="e_0_energy">  10409.70064734 </i>
   </energy>
  </scstep>
  <scstep>
   <time name="dav">  310.27  313.48</time>
   <time name="total">  310.28  313.48</time>
   <energy>
    <i name="e_fr_energy">   1177.48706002 </i>
    <i name="e_wo_entrp">   1177.55287066 </i>
    <i name="e_0_energy">   1177.51996534 </i>
   </energy>
  </scstep>
  <scstep>
   <time name="dav">  325.43  329.14</time>
   <time name="total">  325.43  329.14</time>
   <energy>
    <i name="e_fr_energy">   -308.13602358 </i>
    <i name="e_wo_entrp">   -308.13602358 </i>
    <i name="e_0_energy">   -308.13602358 </i>
   </energy>
  </scstep>
  <scstep>
   <time name="dav">  347.87  351.49</time>
   <time name="total">  347.88  351.49</time>
   <energy>
    <i name="e_fr_energy">   -476.30383636 </i>
    <i name="e_wo_entrp">   -476.30383636 </i>
    <i name="e_0_energy">   -476.30383636 </i>
   </energy>
  </scstep>
  <scstep>
   <time name="dav">  461.12  465.83</time>
   <time name="total">  470.35  475.19</time>
   <energy>
    <i name="e_fr_energy">   -488.73346171 </i>
    <i name="e_wo_entrp">   -488.73346171 </i>
    <i name="e_0_energy">   -488.73346171 </i>
   </energy>
  </scstep>
  <scstep>
   <time name="dav">  403.66  407.57</time>
   <time name="total">  416.42  420.44</time>
   <energy>
    <i name="e_fr_energy">   -489.20029149 </i>
    <i name="e_wo_entrp">   -489.20029149 </i>
    <i name="e_0_energy">   -489.20029149 </i>
   </energy>
  </scstep>
  <scstep>
   <time name="dav">  436.54  441.20</time>
   <time name="total">  449.18  453.97</time>
   <energy>
    <i name="e_fr_energy">   -489.21698893 </i>
    <i name="e_wo_entrp">   -489.21698893 </i>
    <i name="e_0_energy">   -489.21698893 </i>
   </energy>
  </scstep>
  <scstep>
   <time name="dav">  406.19  409.79</time>
   <time name="total">  419.04  422.72</time>
   <energy>
    <i name="e_fr_energy">   -489.21650361 </i>
    <i name="e_wo_entrp">   -489.21650361 </i>
    <i name="e_0_energy">   -489.21650361 </i>
   </energy>
  </scstep>
  <scstep>
   <time name="dav">  453.48  458.04</time>
   <time name="total">  466.23  470.89</time>
   <energy>
    <i name="e_fr_energy">   -489.21598144 </i>
    <i name="e_wo_entrp">   -489.21598144 </i>
    <i name="e_0_energy">   -489.21598144 </i>
   </energy>
  </scstep>
  <scstep>
   <time name="dav">  445.96  450.80</time>
   <time name="total">  458.59  463.53</time>
   <energy>
    <i name="e_fr_energy">   -489.21495771 </i>
    <i name="e_wo_entrp">   -489.21495771 </i>
    <i name="e_0_energy">   -489.21495771 </i>
   </energy>
  </scstep>
  <scstep>
   <time name="dav">  361.24  365.01</time>
   <time name="total">  374.09  377.86</time>
   <energy>
    <i name="e_fr_energy">   -489.21491153 </i>
    <i name="e_wo_entrp">   -489.21491153 </i>
    <i name="e_0_energy">   -489.21491153 </i>
   </energy>
  </scstep>
  <scstep>
   <time name="dav">  397.39  400.93</time>
   <time name="total">  410.24  413.82</time>
   <energy>
    <i name="e_fr_energy">   -489.21492343 </i>
    <i name="e_wo_entrp">   -489.21492343 </i>
    <i name="e_0_energy">   -489.21492343 </i>
   </energy>
  </scstep>
  <scstep>
   <time name="dav">  274.42  277.61</time>
   <time name="total">  277.72  280.96</time>
   <energy>
    <i name="alphaZ">   2314.49656628 </i>
    <i name="ewald"> -57721.81812340 </i>
    <i name="hartreedc"> -30350.07657768 </i>
    <i name="XCdc">   3229.30619878 </i>
    <i name="pawpsdc">  92673.50459349 </i>
    <i name="pawaedc"> -95528.96933372 </i>
    <i name="eentropy">     -0.00000000 </i>
    <i name="bandstr"> -10549.13795736 </i>
    <i name="atom">  95443.47970955 </i>
    <i name="e_fr_energy">   -489.21492406 </i>
    <i name="e_wo_entrp">   -489.21492406 </i>
    <i name="e_0_energy">   -489.21492406 </i>
   </energy>
  </scstep>
  <structure>
   <crystal>
    <varray name="basis" >
     <v>      11.11223374       0.00000000      -0.00029034 </v>
     <v>       0.00000000      11.11745194       0.00000000 </v>
     <v>      -2.77510898       0.00000000      10.19872221 </v>
    </varray>
    <i name="volume">   1259.93837498 </i>
    <varray name="rec_basis" >
     <v>       0.08999155       0.00000000       0.02448702 </v>
     <v>       0.00000000       0.08994867       0.00000000 </v>
     <v>       0.00000256       0.00000000       0.09805220 </v>
    </varray>
   </crystal>
   <varray name="positions" >
    <v>       0.28894969       0.46933910       0.15583616 </v>
    <v>       0.78894969       0.46933910       0.15583616 </v>
    <v>       0.28894969       0.96933910       0.15583616 </v>
    <v>       0.78894969       0.96933910       0.15583616 </v>
    <v>       0.04646972       0.21934976       0.18586770 </v>
    <v>       0.54646972       0.21934976       0.18586770 </v>
    <v>       0.04646972       0.71934976       0.18586770 </v>
    <v>       0.54646972       0.71934976       0.18586770 </v>
    <v>       0.45353028       0.46934976       0.81413230 </v>
    <v>       0.95353028       0.46934976       0.81413230 </v>
    <v>       0.45353028       0.96934976       0.81413230 </v>
    <v>       0.95353028       0.96934976       0.81413230 </v>
    <v>       0.21105031       0.21933910       0.84416384 </v>
    <v>       0.71105031       0.21933910       0.84416384 </v>
    <v>       0.21105031       0.71933910       0.84416384 </v>
    <v>       0.71105031       0.71933910       0.84416384 </v>
    <v>       0.07654971       0.09530995       0.80250593 </v>
    <v>       0.57654971       0.09530995       0.80250593 </v>
    <v>       0.07654971       0.59530995       0.80250593 </v>
    <v>       0.57654971       0.59530995       0.80250593 </v>
    <v>       0.32470466       0.34338175       0.80155772 </v>
    <v>       0.82470466       0.34338175       0.80250383 </v>
    <v>       0.32470466       0.84338175       0.80250383 </v>
    <v>       0.82470466       0.84338175       0.80250383 </v>
    <v>       0.17529534       0.09338175       0.19749617 </v>
    <v>       0.67529534       0.09338175       0.19749617 </v>
    <v>       0.17529534       0.59338175       0.19749617 </v>
    <v>       0.67529534       0.59338175       0.19749617 </v>
    <v>       0.42345029       0.34530995       0.19749407 </v>
    <v>       0.92345029       0.34530995       0.19749407 </v>
    <v>       0.42345029       0.84530995       0.19749407 </v>
    <v>       0.92345029       0.84530995       0.19749407 </v>
    <v>       0.21868463       0.34523395       0.37102476 </v>
    <v>       0.71868463       0.34523395       0.37102476 </v>
    <v>       0.21868463       0.84523395       0.37102476 </v>
    <v>       0.71868463       0.84523395       0.37102476 </v>
    <v>       0.46681660       0.09344897       0.37102399 </v>
    <v>       0.96681660       0.09344897       0.37102399 </v>
    <v>       0.46681660       0.59344897       0.37102399 </v>
    <v>       0.96681660       0.59344897       0.37102399 </v>
    <v>       0.03318340       0.34344897       0.62897601 </v>
    <v>       0.53318340       0.34344897       0.62897601 </v>
    <v>       0.03318340       0.84344897       0.62897601 </v>
    <v>       0.53318340       0.84344897       0.62897601 </v>
    <v>       0.28131537       0.09523395       0.62897524 </v>
    <v>       0.78131537       0.09523395       0.62897524 </v>
    <v>       0.28131537       0.59523395       0.62897524 </v>
    <v>       0.78131537       0.59523395       0.62897524 </v>
    <v>       0.12439279       0.34434306       0.00000412 </v>
    <v>       0.62439279       0.34434306       0.00000412 </v>
    <v>       0.12439279       0.84434306       0.00000412 </v>
    <v>       0.62439279       0.84434306       0.00000412 </v>
    <v>       0.37560721       0.09434306       0.99999588 </v>
    <v>       0.87560721       0.09434306       0.99999588 </v>
    <v>       0.37560721       0.59434306       0.99999588 </v>
    <v>       0.87560721       0.59434306       0.99999588 </v>
    <v>       0.03824426       0.10634799       0.60632306 </v>
    <v>       0.53824426       0.10634799       0.60632306 </v>
    <v>       0.03824426       0.60634799       0.60632306 </v>
    <v>       0.53824426       0.60634799       0.60632306 </v>
    <v>       0.26492712       0.33232651       0.60632763 </v>
    <v>       0.76492712       0.33232651       0.60632763 </v>
    <v>       0.26492712       0.83232651       0.60632763 </v>
    <v>       0.76492712       0.83232651       0.60632763 </v>
    <v>       0.23507288       0.08232651       0.39367237 </v>
    <v>       0.73507288       0.08232651       0.39367237 </v>
    <v>       0.23507288       0.58232651       0.39367237 </v>
    <v>       0.73507288       0.58232651       0.39367237 </v>
    <v>       0.46175574       0.35634799       0.39367694 </v>
    <v>       0.96175574       0.35634799       0.39367694 </v>
    <v>       0.46175574       0.85634799       0.39367694 </v>
    <v>       0.96175574       0.85634799       0.39367694 </v>
    <v>       0.03848398       0.46936404       0.15397331 </v>
    <v>       0.53848398       0.46936404       0.15397331 </v>
    <v>       0.03848398       0.96936404       0.15397331 </v>
    <v>       0.53848398       0.96936404       0.15397331 </v>
    <v>       0.28861657       0.21935690       0.15447525 </v>
    <v>       0.78861657       0.21935690       0.15447525 </v>
    <v>       0.28861657       0.71935690       0.15447525 </v>
    <v>       0.78861657       0.71935690       0.15447525 </v>
    <v>       0.21138343       0.46935690       0.84552475 </v>
    <v>       0.71138343       0.46935690       0.84552475 </v>
    <v>       0.21138343       0.96935690       0.84552475 </v>
    <v>       0.71138343       0.96935690       0.84552475 </v>
    <v>       0.46151602       0.21936404       0.84602669 </v>
    <v>       0.96151602       0.21936404       0.84602669 </v>
    <v>       0.46151602       0.71936404       0.84602669 </v>
    <v>       0.96151602       0.71936404       0.84602669 </v>
   </varray>
  </structure>
  <varray name="forces" >
   <v>      -0.00027251       0.00013832       0.00165694 </v>
   <v>       0.00015184       0.00025878       0.00052907 </v>
   <v>      -0.00054324      -0.00015376       0.00070088 </v>
   <v>       0.00017209      -0.00001102       0.00020700 </v>
   <v>      -0.00017881      -0.00039820       0.00127369 </v>
   <v>       0.00019774      -0.00000321       0.00087805 </v>
   <v>      -0.00004454       0.00013324       0.00033225 </v>
   <v>       0.00046186       0.00027352       0.00081689 </v>
   <v>       0.00355006       0.00194809      -0.00438145 </v>
   <v>      -0.00071286      -0.00013201      -0.00099857 </v>
   <v>      -0.00003726      -0.00008833      -0.00101361 </v>
   <v>      -0.00003101      -0.00002870      -0.00033938 </v>
   <v>       0.00196239       0.00045704      -0.00564651 </v>
   <v>      -0.00001863       0.00010600      -0.00087467 </v>
   <v>       0.00001842       0.00071053      -0.00085798 </v>
   <v>      -0.00008078       0.00001170      -0.00030135 </v>
   <v>       0.00062886       0.00078510       0.00144453 </v>
   <v>       0.00020194      -0.00029217       0.00143476 </v>
   <v>       0.00178170      -0.00192793       0.00185909 </v>
   <v>       0.00014724       0.00033729       0.00100675 </v>
   <v>      -0.02526470       0.01297545       0.10003044 </v>
   <v>       0.00047313      -0.00002743       0.00202255 </v>
   <v>      -0.00012911      -0.00012160       0.00204803 </v>
   <v>      -0.00011805      -0.00009242       0.00046312 </v>
   <v>       0.00055139       0.00039471      -0.00136645 </v>
   <v>      -0.00016130       0.00000324      -0.00066766 </v>
   <v>       0.00046549       0.00006301      -0.00139739 </v>
   <v>      -0.00032513      -0.00012186      -0.00072209 </v>
   <v>       0.00002015       0.00001509      -0.00257650 </v>
   <v>       0.00014714       0.00008758      -0.00166387 </v>
   <v>      -0.00005682      -0.00017030      -0.00139656 </v>
   <v>      -0.00034286      -0.00006671      -0.00024642 </v>
   <v>      -0.00010534       0.00004477      -0.00350457 </v>
   <v>       0.00048409      -0.00007707      -0.00146470 </v>
   <v>       0.00008253      -0.00023725      -0.00130193 </v>
   <v>      -0.00011001      -0.00015034      -0.00029885 </v>
   <v>       0.00037976      -0.00024138      -0.00085616 </v>
   <v>      -0.00028010       0.00006694      -0.00028059 </v>
   <v>       0.00030962       0.00055858      -0.00084750 </v>
   <v>      -0.00018954       0.00024066      -0.00026694 </v>
   <v>      -0.00526256       0.00058667       0.00042535 </v>
   <v>       0.00956044      -0.00003966      -0.00379754 </v>
   <v>      -0.00063910      -0.00003348       0.00007882 </v>
   <v>       0.00039571       0.00007024      -0.00012587 </v>
   <v>      -0.00023269      -0.00788794      -0.00220349 </v>
   <v>       0.00023312      -0.00071144       0.00004892 </v>
   <v>      -0.00074972       0.00682370      -0.00108113 </v>
   <v>       0.00030363       0.00035389       0.00007785 </v>
   <v>       0.00703921       0.00028766      -0.00526200 </v>
   <v>      -0.00361352       0.00006816      -0.00147846 </v>
   <v>       0.00036814      -0.00017877       0.00003651 </v>
   <v>      -0.00042187      -0.00002841       0.00028267 </v>
   <v>      -0.00031805       0.00507591      -0.00300756 </v>
   <v>       0.00016516       0.00035795       0.00000246 </v>
   <v>      -0.00055606      -0.00541705      -0.00363066 </v>
   <v>       0.00025009      -0.00033162      -0.00001629 </v>
   <v>       0.00066092       0.00046235      -0.00026722 </v>
   <v>      -0.00094079       0.00112223       0.00014727 </v>
   <v>       0.00034329      -0.00014739      -0.00090476 </v>
   <v>      -0.00077165      -0.00076237       0.00020009 </v>
   <v>      -0.00133044      -0.00366635      -0.05912587 </v>
   <v>      -0.00120296       0.00011826      -0.00019291 </v>
   <v>       0.00037396      -0.00009026      -0.00024732 </v>
   <v>       0.00025183      -0.00002643       0.00012665 </v>
   <v>      -0.00036731       0.00025075       0.00180573 </v>
   <v>      -0.00021375       0.00009479       0.00036783 </v>
   <v>      -0.00035837      -0.00077367       0.00137950 </v>
   <v>      -0.00021123      -0.00026446       0.00029027 </v>
   <v>      -0.00028971      -0.00011905       0.00268990 </v>
   <v>       0.00067183      -0.00001651       0.00099585 </v>
   <v>       0.00000788       0.00010493       0.00054874 </v>
   <v>       0.00046112       0.00005691       0.00007346 </v>
   <v>      -0.00039438       0.00099435       0.00227113 </v>
   <v>       0.00075772      -0.00007755       0.00210293 </v>
   <v>      -0.00001107      -0.00010207       0.00062585 </v>
   <v>       0.00095043      -0.00031046       0.00134458 </v>
   <v>      -0.00049778      -0.00046570       0.00282264 </v>
   <v>       0.00028128      -0.00053276       0.00101229 </v>
   <v>      -0.00127328       0.00049366       0.00148536 </v>
   <v>       0.00027379       0.00014726       0.00033557 </v>
   <v>       0.00901655      -0.00739651      -0.00975148 </v>
   <v>      -0.00008951      -0.00028300      -0.00150810 </v>
   <v>       0.00013630      -0.00051264      -0.00163452 </v>
   <v>      -0.00004527       0.00002919      -0.00049052 </v>
   <v>       0.00537047      -0.00341685      -0.00611289 </v>
   <v>      -0.00089537      -0.00025099      -0.00191767 </v>
   <v>       0.00027481       0.00038375      -0.00186395 </v>
   <v>      -0.00064608       0.00069288      -0.00039038 </v>
  </varray>
  <varray name="stress" >
   <v>       2.28378064       0.00611035      -0.07472629 </v>
   <v>       0.00611039       2.02432615       0.00483857 </v>
   <v>      -0.07503118       0.00483211       0.80336146 </v>
  </varray>
  <energy>
   <i name="e_fr_energy">   -489.21492406 </i>
   <i name="e_wo_entrp">   -489.21492406 </i>
   <i name="e_0_energy">     -0.00000000 </i>
  </energy>
  <time name="totalsc"> 5578.16 5634.06</time>
  <eigenvalues>
   <array>
    <dimension dim="1">band</dimension>
    <dimension dim="2">kpoint</dimension>
    <dimension dim="3">spin</dimension>
    <field>eigene</field>
    <field>occ</field>
    <set>
     <set comment="spin 1">
      <set comment="kpoint 1">
       <r>  -51.0582    1.0000 </r>
       <r>  -51.0548    1.0000 </r>
       <r>  -51.0546    1.0000 </r>
       <r>  -51.0542    1.0000 </r>
       <r>  -51.0540    1.0000 </r>
       <r>  -51.0538    1.0000 </r>
       <r>  -51.0536    1.0000 </r>
       <r>  -51.0533    1.0000 </r>
       <r>  -51.0525    1.0000 </r>
       <r>  -51.0524    1.0000 </r>
       <r>  -51.0521    1.0000 </r>
       <r>  -51.0517    1.0000 </r>
       <r>  -51.0515    1.0000 </r>
       <r>  -51.0508    1.0000 </r>
       <r>  -51.0503    1.0000 </r>
       <r>  -51.0497    1.0000 </r>
       <r>  -51.0450    1.0000 </r>
       <r>  -51.0450    1.0000 </r>
       <r>  -51.0446    1.0000 </r>
       <r>  -51.0445    1.0000 </r>
       <r>  -51.0444    1.0000 </r>
       <r>  -51.0443    1.0000 </r>
       <r>  -51.0438    1.0000 </r>
       <r>  -51.0432    1.0000 </r>
       <r>  -51.0404    1.0000 </r>
       <r>  -51.0404    1.0000 </r>
       <r>  -51.0403    1.0000 </r>
       <r>  -51.0399    1.0000 </r>
       <r>  -51.0399    1.0000 </r>
       <r>  -51.0397    1.0000 </r>
       <r>  -51.0396    1.0000 </r>
       <r>  -51.0342    1.0000 </r>
       <r>  -49.7105    1.0000 </r>
       <r>  -49.7029    1.0000 </r>
       <r>  -49.7027    1.0000 </r>
       <r>  -49.7023    1.0000 </r>
       <r>  -49.7020    1.0000 </r>
       <r>  -49.7020    1.0000 </r>
       <r>  -49.7018    1.0000 </r>
       <r>  -49.7017    1.0000 </r>
       <r>  -49.6965    1.0000 </r>
       <r>  -49.6952    1.0000 </r>
       <r>  -49.6951    1.0000 </r>
       <r>  -49.6951    1.0000 </r>
       <r>  -49.6947    1.0000 </r>
       <r>  -49.6946    1.0000 </r>
       <r>  -49.6945    1.0000 </r>
       <r>  -49.6942    1.0000 </r>
       <r>  -49.5979    1.0000 </r>
       <r>  -49.5972    1.0000 </r>
       <r>  -49.5969    1.0000 </r>
       <r>  -49.5968    1.0000 </r>
       <r>  -49.5967    1.0000 </r>
       <r>  -49.5967    1.0000 </r>
       <r>  -49.5962    1.0000 </r>
       <r>  -49.5958    1.0000 </r>
       <r>  -49.5958    1.0000 </r>
       <r>  -49.5957    1.0000 </r>
       <r>  -49.5957    1.0000 </r>
       <r>  -49.5954    1.0000 </r>
       <r>  -49.5953    1.0000 </r>
       <r>  -49.5949    1.0000 </r>
       <r>  -49.5948    1.0000 </r>
       <r>  -49.5833    1.0000 </r>
       <r>  -49.5667    1.0000 </r>
       <r>  -49.5659    1.0000 </r>
       <r>  -49.5659    1.0000 </r>
       <r>  -49.5655    1.0000 </r>
       <r>  -49.5655    1.0000 </r>
       <r>  -49.5652    1.0000 </r>
       <r>  -49.5648    1.0000 </r>
       <r>  -49.5643    1.0000 </r>
       <r>  -49.5640    1.0000 </r>
       <r>  -49.5640    1.0000 </r>
       <r>  -49.5638    1.0000 </r>
       <r>  -49.5637    1.0000 </r>
       <r>  -49.5635    1.0000 </r>
       <r>  -49.5631    1.0000 </r>
       <r>  -49.5628    1.0000 </r>
       <r>  -49.5617    1.0000 </r>
       <r>  -49.5556    1.0000 </r>
       <r>  -49.5554    1.0000 </r>
       <r>  -49.5549    1.0000 </r>
       <r>  -49.5546    1.0000 </r>
       <r>  -49.5546    1.0000 </r>
       <r>  -49.5544    1.0000 </r>
       <r>  -49.5543    1.0000 </r>
       <r>  -49.5514    1.0000 </r>
       <r>  -49.5411    1.0000 </r>
       <r>  -49.5408    1.0000 </r>
       <r>  -49.5407    1.0000 </r>
       <r>  -49.5406    1.0000 </r>
       <r>  -49.5402    1.0000 </r>
       <r>  -49.5401    1.0000 </r>
       <r>  -49.5400    1.0000 </r>
       <r>  -49.5397    1.0000 </r>
       <r>  -39.8722    1.0000 </r>
       <r>  -39.8654    1.0000 </r>
       <r>  -39.8650    1.0000 </r>
       <r>  -39.8648    1.0000 </r>
       <r>  -39.8647    1.0000 </r>
       <r>  -39.8644    1.0000 </r>
       <r>  -39.8644    1.0000 </r>
       <r>  -39.8643    1.0000 </r>
       <r>  -39.8642    1.0000 </r>
       <r>  -39.8641    1.0000 </r>
       <r>  -39.8639    1.0000 </r>
       <r>  -39.8638    1.0000 </r>
       <r>  -39.8635    1.0000 </r>
       <r>  -39.8634    1.0000 </r>
       <r>  -39.8633    1.0000 </r>
       <r>  -39.8632    1.0000 </r>
       <r>  -13.2263    1.0000 </r>
       <r>  -13.2252    1.0000 </r>
       <r>  -13.2113    1.0000 </r>
       <r>  -13.1845    1.0000 </r>
       <r>  -13.1030    1.0000 </r>
       <r>  -13.1002    1.0000 </r>
       <r>  -13.0993    1.0000 </r>
       <r>  -13.0938    1.0000 </r>
       <r>  -13.0874    1.0000 </r>
       <r>  -13.0815    1.0000 </r>
       <r>  -13.0804    1.0000 </r>
       <r>  -13.0784    1.0000 </r>
       <r>  -12.9893    1.0000 </r>
       <r>  -12.9785    1.0000 </r>
       <r>  -12.9436    1.0000 </r>
       <r>  -12.9423    1.0000 </r>
       <r>   -7.6446    1.0000 </r>
       <r>   -7.4081    1.0000 </r>
       <r>   -7.3267    1.0000 </r>
       <r>   -7.3265    1.0000 </r>
       <r>   -7.3106    1.0000 </r>
       <r>   -7.3104    1.0000 </r>
       <r>   -7.3093    1.0000 </r>
       <r>   -7.3078    1.0000 </r>
       <r>   -7.1694    1.0000 </r>
       <r>   -7.1569    1.0000 </r>
       <r>   -7.1240    1.0000 </r>
       <r>   -7.1238    1.0000 </r>
       <r>   -7.0379    1.0000 </r>
       <r>   -7.0208    1.0000 </r>
       <r>   -7.0013    1.0000 </r>
       <r>   -7.0008    1.0000 </r>
       <r>   -6.9405    1.0000 </r>
       <r>   -6.9401    1.0000 </r>
       <r>   -6.8863    1.0000 </r>
       <r>   -6.8860    1.0000 </r>
       <r>   -6.8648    1.0000 </r>
       <r>   -6.8606    1.0000 </r>
       <r>   -6.8335    1.0000 </r>
       <r>   -6.8030    1.0000 </r>
       <r>   -1.9360    1.0000 </r>
       <r>   -1.9349    1.0000 </r>
       <r>   -1.9105    1.0000 </r>
       <r>   -1.8935    1.0000 </r>
       <r>   -1.6678    1.0000 </r>
       <r>   -1.6670    1.0000 </r>
       <r>   -1.6596    1.0000 </r>
       <r>   -1.6581    1.0000 </r>
       <r>   -1.6006    1.0000 </r>
       <r>   -1.5990    1.0000 </r>
       <r>   -1.5875    1.0000 </r>
       <r>   -1.5867    1.0000 </r>
       <r>   -1.2992    1.0000 </r>
       <r>   -1.1756    1.0000 </r>
       <r>   -1.1744    1.0000 </r>
       <r>   -1.1149    1.0000 </r>
       <r>   -1.1133    1.0000 </r>
       <r>   -1.1079    1.0000 </r>
       <r>   -1.0502    1.0000 </r>
       <r>   -0.9816    1.0000 </r>
       <r>   -0.9660    1.0000 </r>
       <r>   -0.9610    1.0000 </r>
       <r>   -0.9578    1.0000 </r>
       <r>   -0.9578    1.0000 </r>
       <r>   -0.9470    1.0000 </r>
       <r>   -0.9455    1.0000 </r>
       <r>   -0.9237    1.0000 </r>
       <r>   -0.8735    1.0000 </r>
       <r>   -0.8716    1.0000 </r>
       <r>   -0.8037    1.0000 </r>
       <r>   -0.8033    1.0000 </r>
       <r>   -0.8031    1.0000 </r>
       <r>   -0.7755    1.0000 </r>
       <r>   -0.7745    1.0000 </r>
       <r>   -0.7744    1.0000 </r>
       <r>   -0.7613    1.0000 </r>
       <r>   -0.7172    1.0000 </r>
       <r>   -0.7172    1.0000 </r>
       <r>   -0.7071    1.0000 </r>
       <r>   -0.7056    1.0000 </r>
       <r>   -0.6988    1.0000 </r>
       <r>   -0.6987    1.0000 </r>
       <r>   -0.6080    1.0000 </r>
       <r>   -0.6077    1.0000 </r>
       <r>   -0.5616    1.0000 </r>
       <r>   -0.5613    1.0000 </r>
       <r>   -0.5494    1.0000 </r>
       <r>   -0.5480    1.0000 </r>
       <r>   -0.4087    1.0000 </r>
       <r>   -0.4078    1.0000 </r>
       <r>   -0.3575    1.0000 </r>
       <r>   -0.3482    1.0000 </r>
       <r>   -0.3298    1.0000 </r>
       <r>   -0.3292    1.0000 </r>
       <r>   -0.2982    1.0000 </r>
       <r>   -0.2980    1.0000 </r>
       <r>   -0.2822    1.0000 </r>
       <r>   -0.2692    1.0000 </r>
       <r>   -0.2628    1.0000 </r>
       <r>   -0.2557    1.0000 </r>
       <r>   -0.2551    1.0000 </r>
       <r>   -0.2094    1.0000 </r>
       <r>   -0.2088    1.0000 </r>
       <r>   -0.1884    1.0000 </r>
       <r>   -0.1876    1.0000 </r>
       <r>   -0.1872    1.0000 </r>
       <r>   -0.1758    1.0000 </r>
       <r>   -0.1577    1.0000 </r>
       <r>   -0.1257    1.0000 </r>
       <r>   -0.1256    1.0000 </r>
       <r>   -0.1094    1.0000 </r>
       <r>   -0.0710    1.0000 </r>
       <r>   -0.0704    1.0000 </r>
       <r>   -0.0602    1.0000 </r>
       <r>   -0.0426    1.0000 </r>
       <r>   -0.0173    1.0000 </r>
       <r>   -0.0166    1.0000 </r>
       <r>   -0.0121    1.0000 </r>
       <r>    0.0014    1.0000 </r>
       <r>    0.0019    1.0000 </r>
       <r>    0.0459    1.0000 </r>
       <r>    0.0494    1.0000 </r>
       <r>    0.0500    1.0000 </r>
       <r>    0.0915    1.0000 </r>
       <r>    0.0926    1.0000 </r>
       <r>    0.1185    1.0000 </r>
       <r>    0.1192    1.0000 </r>
       <r>    0.1566    1.0000 </r>
       <r>    0.1629    1.0000 </r>
       <r>    0.1762    1.0000 </r>
       <r>    0.1789    1.0000 </r>
       <r>    0.1817    1.0000 </r>
       <r>    0.1821    1.0000 </r>
       <r>    0.1862    1.0000 </r>
       <r>    0.1897    1.0000 </r>
       <r>    0.1921    1.0000 </r>
       <r>    0.1931    1.0000 </r>
       <r>    0.2003    1.0000 </r>
       <r>    0.2010    1.0000 </r>
       <r>    0.2382    1.0000 </r>
       <r>    0.2516    1.0000 </r>
       <r>    0.2570    1.0000 </r>
       <r>    0.2574    1.0000 </r>
       <r>    0.2772    1.0000 </r>
       <r>    0.3378    1.0000 </r>
       <r>    0.3480    1.0000 </r>
       <r>    0.3583    1.0000 </r>
       <r>    0.3587    1.0000 </r>
       <r>    0.3599    1.0000 </r>
       <r>    0.3605    1.0000 </r>
       <r>    0.3876    1.0000 </r>
       <r>    0.4013    1.0000 </r>
       <r>    0.4532    1.0000 </r>
       <r>    0.4534    1.0000 </r>
       <r>    0.5784    1.0000 </r>
       <r>    0.5787    1.0000 </r>
       <r>    0.5836    1.0000 </r>
       <r>    0.6026    1.0000 </r>
       <r>    0.6027    1.0000 </r>
       <r>    0.6060    1.0000 </r>
       <r>    0.6093    1.0000 </r>
       <r>    0.6397    1.0000 </r>
       <r>    0.6503    1.0000 </r>
       <r>    0.6509    1.0000 </r>
       <r>    0.6619    1.0000 </r>
       <r>    0.6625    1.0000 </r>
       <r>    0.6665    1.0000 </r>
       <r>    0.6741    1.0000 </r>
       <r>    0.6754    1.0000 </r>
       <r>    0.6765    1.0000 </r>
       <r>    0.6969    1.0000 </r>
       <r>    0.7228    1.0000 </r>
       <r>    0.7847    1.0000 </r>
       <r>    0.8204    1.0000 </r>
       <r>    0.8293    1.0000 </r>
       <r>    0.8324    1.0000 </r>
       <r>    0.8331    1.0000 </r>
       <r>    0.8612    1.0000 </r>
       <r>    0.8613    1.0000 </r>
       <r>    0.9105    1.0000 </r>
       <r>    0.9402    1.0000 </r>
       <r>    0.9473    1.0000 </r>
       <r>    0.9478    1.0000 </r>
       <r>    0.9830    1.0000 </r>
       <r>    1.0260    1.0000 </r>
       <r>    1.0710    1.0000 </r>
       <r>    1.2697    1.0000 </r>
       <r>    1.2982    1.0000 </r>
       <r>    1.2985    1.0000 </r>
       <r>    1.3121    1.0000 </r>
       <r>    1.3331    1.0000 </r>
       <r>    1.3337    1.0000 </r>
       <r>    1.3382    1.0000 </r>
       <r>    1.3849    1.0000 </r>
       <r>    1.4054    1.0000 </r>
       <r>    1.4287    1.0000 </r>
       <r>    1.4674    1.0000 </r>
       <r>    1.4676    1.0000 </r>
       <r>    1.4681    1.0000 </r>
       <r>    1.4818    1.0000 </r>
       <r>    1.5105    1.0000 </r>
       <r>    1.5108    1.0000 </r>
       <r>    1.5403    1.0000 </r>
       <r>    1.5609    1.0000 </r>
       <r>    1.5765    1.0000 </r>
       <r>    1.6476    1.0000 </r>
       <r>    1.6555    1.0000 </r>
       <r>    1.7566    1.0000 </r>
       <r>    1.7574    1.0000 </r>
       <r>    1.7640    1.0000 </r>
       <r>    1.7789    1.0000 </r>
       <r>    1.8017    1.0000 </r>
       <r>    1.8026    1.0000 </r>
       <r>    1.8098    1.0000 </r>
       <r>    1.8233    1.0000 </r>
       <r>    1.8361    1.0000 </r>
       <r>    1.8363    1.0000 </r>
       <r>    1.8464    1.0000 </r>
       <r>    1.8476    1.0000 </r>
       <r>    1.8773    1.0000 </r>
       <r>    1.8898    1.0000 </r>
       <r>    1.9473    1.0000 </r>
       <r>    1.9933    1.0000 </r>
       <r>    1.9937    1.0000 </r>
       <r>    2.0065    1.0000 </r>
       <r>    2.0067    1.0000 </r>
       <r>    2.0111    1.0000 </r>
       <r>    2.0198    1.0000 </r>
       <r>    2.0204    1.0000 </r>
       <r>    2.0211    1.0000 </r>
       <r>    2.0397    1.0000 </r>
       <r>    2.0471    1.0000 </r>
       <r>    2.0486    1.0000 </r>
       <r>    2.0574    1.0000 </r>
       <r>    2.0691    1.0000 </r>
       <r>    2.0696    1.0000 </r>
       <r>    2.0922    1.0000 </r>
       <r>    2.1130    1.0000 </r>
       <r>    2.1902    1.0000 </r>
       <r>    2.1928    1.0000 </r>
       <r>    2.2461    1.0000 </r>
       <r>    2.2466    1.0000 </r>
       <r>    2.2698    1.0000 </r>
       <r>    2.2729    1.0000 </r>
       <r>    2.2848    1.0000 </r>
       <r>    2.4277    1.0000 </r>
       <r>    2.4657    1.0000 </r>
       <r>    2.4664    1.0000 </r>
       <r>    2.4768    1.0000 </r>
       <r>    2.5029    1.0000 </r>
       <r>    2.5268    1.0000 </r>
       <r>    2.5534    1.0000 </r>
       <r>    2.5918    1.0000 </r>
       <r>    2.6260    1.0000 </r>
       <r>    2.6262    1.0000 </r>
       <r>    2.6564    1.0000 </r>
       <r>    2.7380    1.0000 </r>
       <r>    2.7381    1.0000 </r>
       <r>    2.7606    1.0000 </r>
       <r>    2.7608    1.0000 </r>
       <r>    2.8345    1.0000 </r>
       <r>    2.8728    1.0000 </r>
       <r>    2.9274    1.0000 </r>
       <r>    2.9345    1.0000 </r>
       <r>    2.9345    1.0000 </r>
       <r>    2.9694    1.0000 </r>
       <r>    3.0276    1.0000 </r>
       <r>    3.0287    1.0000 </r>
       <r>    3.0622    1.0000 </r>
       <r>    3.0972    1.0000 </r>
       <r>    3.3071    1.0000 </r>
       <r>    3.3099    1.0000 </r>
       <r>    3.3485    1.0000 </r>
       <r>    3.3767    1.0000 </r>
       <r>    3.4212    1.0000 </r>
       <r>    3.4214    1.0000 </r>
       <r>    3.4418    1.0000 </r>
       <r>    3.4584    1.0000 </r>
       <r>    3.4589    1.0000 </r>
       <r>    3.5322    1.0000 </r>
       <r>    3.7481    1.0000 </r>
       <r>    3.8080    1.0000 </r>
       <r>    3.8088    1.0000 </r>
       <r>    3.8147    1.0000 </r>
       <r>    3.8150    1.0000 </r>
       <r>    3.8815    1.0000 </r>
       <r>    3.8818    1.0000 </r>
       <r>    3.9320    1.0000 </r>
       <r>    3.9347    1.0000 </r>
       <r>    3.9394    1.0000 </r>
       <r>    3.9398    1.0000 </r>
       <r>    4.0380    1.0000 </r>
       <r>    4.0389    1.0000 </r>
       <r>    4.0688    1.0000 </r>
       <r>    4.1380    1.0000 </r>
       <r>    4.1497    1.0000 </r>
       <r>    4.1518    1.0000 </r>
       <r>    4.3140    1.0000 </r>
       <r>    4.3175    1.0000 </r>
       <r>    4.3368    1.0000 </r>
       <r>    4.3572    1.0000 </r>
       <r>    4.3578    1.0000 </r>
       <r>    4.4286    1.0000 </r>
       <r>    4.4436    1.0000 </r>
       <r>    4.4453    1.0000 </r>
       <r>    4.4551    1.0000 </r>
       <r>    4.4570    1.0000 </r>
       <r>    4.4580    1.0000 </r>
       <r>    4.6371    1.0000 </r>
       <r>    4.6372    1.0000 </r>
       <r>    4.7327    1.0000 </r>
       <r>    4.7338    1.0000 </r>
       <r>    4.7644    1.0000 </r>
       <r>    4.7653    1.0000 </r>
       <r>    4.7699    1.0000 </r>
       <r>    4.7708    1.0000 </r>
       <r>    4.8107    1.0000 </r>
       <r>    4.8535    1.0000 </r>
       <r>    4.8542    1.0000 </r>
       <r>    4.8587    1.0000 </r>
       <r>    7.3439    0.0000 </r>
       <r>    8.1296    0.0000 </r>
       <r>    8.4471    0.0000 </r>
       <r>    8.6425    0.0000 </r>
       <r>    8.6430    0.0000 </r>
       <r>    8.8604    0.0000 </r>
       <r>    9.0842    0.0000 </r>
       <r>    9.0852    0.0000 </r>
       <r>    9.2613    0.0000 </r>
       <r>    9.2738    0.0000 </r>
       <r>    9.2896    0.0000 </r>
       <r>    9.2912    0.0000 </r>
       <r>    9.7275    0.0000 </r>
       <r>    9.7713    0.0000 </r>
       <r>    9.7720    0.0000 </r>
       <r>    9.7900    0.0000 </r>
       <r>    9.8547    0.0000 </r>
       <r>    9.8552    0.0000 </r>
       <r>    9.8565    0.0000 </r>
       <r>    9.8773    0.0000 </r>
       <r>    9.8881    0.0000 </r>
       <r>   10.0621    0.0000 </r>
       <r>   10.0830    0.0000 </r>
       <r>   10.1366    0.0000 </r>
       <r>   10.1380    0.0000 </r>
       <r>   10.3049    0.0000 </r>
       <r>   10.3055    0.0000 </r>
       <r>   10.4177    0.0000 </r>
       <r>   10.5269    0.0000 </r>
       <r>   10.5711    0.0000 </r>
       <r>   10.5712    0.0000 </r>
       <r>   10.5718    0.0000 </r>
       <r>   10.5787    0.0000 </r>
       <r>   10.5789    0.0000 </r>
       <r>   10.6753    0.0000 </r>
       <r>   10.9762    0.0000 </r>
       <r>   11.0196    0.0000 </r>
       <r>   11.0199    0.0000 </r>
       <r>   11.0402    0.0000 </r>
       <r>   11.0416    0.0000 </r>
       <r>   11.0772    0.0000 </r>
       <r>   11.1286    0.0000 </r>
       <r>   11.1779    0.0000 </r>
       <r>   11.1896    0.0000 </r>
       <r>   11.2290    0.0000 </r>
       <r>   11.2499    0.0000 </r>
       <r>   11.2505    0.0000 </r>
       <r>   11.2885    0.0000 </r>
       <r>   11.3073    0.0000 </r>
       <r>   11.4176    0.0000 </r>
       <r>   11.4192    0.0000 </r>
       <r>   11.4593    0.0000 </r>
       <r>   11.5221    0.0000 </r>
       <r>   11.5230    0.0000 </r>
       <r>   11.5312    0.0000 </r>
       <r>   11.5768    0.0000 </r>
       <r>   11.6785    0.0000 </r>
       <r>   11.6796    0.0000 </r>
       <r>   11.7973    0.0000 </r>
       <r>   11.7979    0.0000 </r>
       <r>   11.8146    0.0000 </r>
       <r>   11.8147    0.0000 </r>
       <r>   11.8810    0.0000 </r>
       <r>   11.9412    0.0000 </r>
       <r>   11.9763    0.0000 </r>
       <r>   11.9772    0.0000 </r>
       <r>   11.9810    0.0000 </r>
       <r>   12.0272    0.0000 </r>
       <r>   12.0286    0.0000 </r>
       <r>   12.0577    0.0000 </r>
       <r>   12.1612    0.0000 </r>
       <r>   12.2431    0.0000 </r>
       <r>   12.2572    0.0000 </r>
       <r>   12.2573    0.0000 </r>
       <r>   12.3153    0.0000 </r>
       <r>   12.3165    0.0000 </r>
       <r>   12.3214    0.0000 </r>
       <r>   12.3481    0.0000 </r>
       <r>   12.4609    0.0000 </r>
       <r>   12.4802    0.0000 </r>
       <r>   12.5159    0.0000 </r>
       <r>   12.5170    0.0000 </r>
       <r>   12.6141    0.0000 </r>
       <r>   12.6145    0.0000 </r>
       <r>   12.6604    0.0000 </r>
       <r>   12.6622    0.0000 </r>
       <r>   12.6627    0.0000 </r>
       <r>   12.6898    0.0000 </r>
       <r>   12.7470    0.0000 </r>
       <r>   12.8311    0.0000 </r>
       <r>   12.8726    0.0000 </r>
       <r>   12.8729    0.0000 </r>
       <r>   12.8735    0.0000 </r>
       <r>   13.1203    0.0000 </r>
       <r>   13.1214    0.0000 </r>
       <r>   13.2021    0.0000 </r>
       <r>   13.3843    0.0000 </r>
       <r>   13.4098    0.0000 </r>
       <r>   13.4142    0.0000 </r>
       <r>   13.4351    0.0000 </r>
       <r>   13.4378    0.0000 </r>
       <r>   13.4580    0.0000 </r>
       <r>   13.4998    0.0000 </r>
       <r>   13.5151    0.0000 </r>
       <r>   13.5434    0.0000 </r>
       <r>   13.5601    0.0000 </r>
      </set>
      <set comment="kpoint 2">
       <r>  -51.0582    1.0000 </r>
       <r>  -51.0547    1.0000 </r>
       <r>  -51.0545    1.0000 </r>
       <r>  -51.0542    1.0000 </r>
       <r>  -51.0541    1.0000 </r>
       <r>  -51.0540    1.0000 </r>
       <r>  -51.0539    1.0000 </r>
       <r>  -51.0535    1.0000 </r>
       <r>  -51.0525    1.0000 </r>
       <r>  -51.0521    1.0000 </r>
       <r>  -51.0518    1.0000 </r>
       <r>  -51.0515    1.0000 </r>
       <r>  -51.0512    1.0000 </r>
       <r>  -51.0510    1.0000 </r>
       <r>  -51.0504    1.0000 </r>
       <r>  -51.0500    1.0000 </r>
       <r>  -51.0449    1.0000 </r>
       <r>  -51.0449    1.0000 </r>
       <r>  -51.0446    1.0000 </r>
       <r>  -51.0445    1.0000 </r>
       <r>  -51.0443    1.0000 </r>
       <r>  -51.0442    1.0000 </r>
       <r>  -51.0439    1.0000 </r>
       <r>  -51.0432    1.0000 </r>
       <r>  -51.0404    1.0000 </r>
       <r>  -51.0404    1.0000 </r>
       <r>  -51.0403    1.0000 </r>
       <r>  -51.0399    1.0000 </r>
       <r>  -51.0399    1.0000 </r>
       <r>  -51.0397    1.0000 </r>
       <r>  -51.0396    1.0000 </r>
       <r>  -51.0342    1.0000 </r>
       <r>  -49.7105    1.0000 </r>
       <r>  -49.7029    1.0000 </r>
       <r>  -49.7027    1.0000 </r>
       <r>  -49.7023    1.0000 </r>
       <r>  -49.7020    1.0000 </r>
       <r>  -49.7020    1.0000 </r>
       <r>  -49.7018    1.0000 </r>
       <r>  -49.7017    1.0000 </r>
       <r>  -49.6965    1.0000 </r>
       <r>  -49.6952    1.0000 </r>
       <r>  -49.6951    1.0000 </r>
       <r>  -49.6951    1.0000 </r>
       <r>  -49.6947    1.0000 </r>
       <r>  -49.6946    1.0000 </r>
       <r>  -49.6945    1.0000 </r>
       <r>  -49.6942    1.0000 </r>
       <r>  -49.5978    1.0000 </r>
       <r>  -49.5973    1.0000 </r>
       <r>  -49.5971    1.0000 </r>
       <r>  -49.5968    1.0000 </r>
       <r>  -49.5967    1.0000 </r>
       <r>  -49.5965    1.0000 </r>
       <r>  -49.5962    1.0000 </r>
       <r>  -49.5959    1.0000 </r>
       <r>  -49.5958    1.0000 </r>
       <r>  -49.5957    1.0000 </r>
       <r>  -49.5957    1.0000 </r>
       <r>  -49.5954    1.0000 </r>
       <r>  -49.5953    1.0000 </r>
       <r>  -49.5949    1.0000 </r>
       <r>  -49.5948    1.0000 </r>
       <r>  -49.5833    1.0000 </r>
       <r>  -49.5666    1.0000 </r>
       <r>  -49.5661    1.0000 </r>
       <r>  -49.5659    1.0000 </r>
       <r>  -49.5656    1.0000 </r>
       <r>  -49.5654    1.0000 </r>
       <r>  -49.5651    1.0000 </r>
       <r>  -49.5647    1.0000 </r>
       <r>  -49.5644    1.0000 </r>
       <r>  -49.5640    1.0000 </r>
       <r>  -49.5640    1.0000 </r>
       <r>  -49.5638    1.0000 </r>
       <r>  -49.5637    1.0000 </r>
       <r>  -49.5635    1.0000 </r>
       <r>  -49.5631    1.0000 </r>
       <r>  -49.5628    1.0000 </r>
       <r>  -49.5617    1.0000 </r>
       <r>  -49.5556    1.0000 </r>
       <r>  -49.5554    1.0000 </r>
       <r>  -49.5549    1.0000 </r>
       <r>  -49.5546    1.0000 </r>
       <r>  -49.5546    1.0000 </r>
       <r>  -49.5544    1.0000 </r>
       <r>  -49.5543    1.0000 </r>
       <r>  -49.5514    1.0000 </r>
       <r>  -49.5411    1.0000 </r>
       <r>  -49.5408    1.0000 </r>
       <r>  -49.5407    1.0000 </r>
       <r>  -49.5406    1.0000 </r>
       <r>  -49.5402    1.0000 </r>
       <r>  -49.5401    1.0000 </r>
       <r>  -49.5400    1.0000 </r>
       <r>  -49.5397    1.0000 </r>
       <r>  -39.8722    1.0000 </r>
       <r>  -39.8654    1.0000 </r>
       <r>  -39.8650    1.0000 </r>
       <r>  -39.8648    1.0000 </r>
       <r>  -39.8648    1.0000 </r>
       <r>  -39.8645    1.0000 </r>
       <r>  -39.8644    1.0000 </r>
       <r>  -39.8643    1.0000 </r>
       <r>  -39.8642    1.0000 </r>
       <r>  -39.8640    1.0000 </r>
       <r>  -39.8639    1.0000 </r>
       <r>  -39.8638    1.0000 </r>
       <r>  -39.8635    1.0000 </r>
       <r>  -39.8634    1.0000 </r>
       <r>  -39.8633    1.0000 </r>
       <r>  -39.8632    1.0000 </r>
       <r>  -13.2090    1.0000 </r>
       <r>  -13.2078    1.0000 </r>
       <r>  -13.1959    1.0000 </r>
       <r>  -13.1711    1.0000 </r>
       <r>  -13.1606    1.0000 </r>
       <r>  -13.1594    1.0000 </r>
       <r>  -13.1541    1.0000 </r>
       <r>  -13.1341    1.0000 </r>
       <r>  -13.0430    1.0000 </r>
       <r>  -13.0312    1.0000 </r>
       <r>  -13.0186    1.0000 </r>
       <r>  -13.0173    1.0000 </r>
       <r>  -13.0034    1.0000 </r>
       <r>  -12.9926    1.0000 </r>
       <r>  -12.9640    1.0000 </r>
       <r>  -12.9628    1.0000 </r>
       <r>   -7.5962    1.0000 </r>
       <r>   -7.4681    1.0000 </r>
       <r>   -7.3795    1.0000 </r>
       <r>   -7.3205    1.0000 </r>
       <r>   -7.3203    1.0000 </r>
       <r>   -7.3125    1.0000 </r>
       <r>   -7.3124    1.0000 </r>
       <r>   -7.2961    1.0000 </r>
       <r>   -7.1693    1.0000 </r>
       <r>   -7.1050    1.0000 </r>
       <r>   -7.1048    1.0000 </r>
       <r>   -7.0732    1.0000 </r>
[...]
       <r>   -49.2840     0.0000     0.0000 </r>
       <r>   -49.0431     0.0000     0.0000 </r>
       <r>   -48.8022     0.0000     0.0000 </r>
       <r>   -48.5612     0.0000     0.0000 </r>
       <r>   -48.3203     0.0000     0.0000 </r>
       <r>   -48.0793     0.0000     0.0000 </r>
       <r>   -47.8384     0.0000     0.0000 </r>
       <r>   -47.5975     0.0000     0.0000 </r>
       <r>   -47.3565     0.0000     0.0000 </r>
       <r>   -47.1156     0.0000     0.0000 </r>
       <r>   -46.8746     0.0000     0.0000 </r>
       <r>   -46.6337     0.0000     0.0000 </r>
       <r>   -46.3927     0.3657     0.0881 </r>
       <r>   -46.1518   132.4107    31.9913 </r>
       <r>   -45.9109    61.7176    46.8617 </r>
       <r>   -45.6699   203.9428    96.0000 </r>
       <r>   -45.4290     0.0000    96.0000 </r>
       <r>   -45.1880     0.0000    96.0000 </r>
       <r>   -44.9471     0.0000    96.0000 </r>
       <r>   -44.7062     0.0000    96.0000 </r>
       <r>   -44.4652     0.0000    96.0000 </r>
       <r>   -44.2243     0.0000    96.0000 </r>
       <r>   -43.9833     0.0000    96.0000 </r>
       <r>   -43.7424     0.0000    96.0000 </r>
       <r>   -43.5014     0.0000    96.0000 </r>
       <r>   -43.2605     0.0000    96.0000 </r>
       <r>   -43.0196     0.0000    96.0000 </r>
       <r>   -42.7786     0.0000    96.0000 </r>
       <r>   -42.5377     0.0000    96.0000 </r>
       <r>   -42.2967     0.0000    96.0000 </r>
       <r>   -42.0558     0.0000    96.0000 </r>
       <r>   -41.8149     0.0000    96.0000 </r>
       <r>   -41.5739     0.0000    96.0000 </r>
       <r>   -41.3330     0.0000    96.0000 </r>
       <r>   -41.0920     0.0000    96.0000 </r>
       <r>   -40.8511     0.0000    96.0000 </r>
       <r>   -40.6101     0.0000    96.0000 </r>
       <r>   -40.3692     0.0000    96.0000 </r>
       <r>   -40.1283     0.0000    96.0000 </r>
       <r>   -39.8873    16.0078    99.8569 </r>
       <r>   -39.6464    50.3983   112.0000 </r>
       <r>   -39.4054     0.0000   112.0000 </r>
       <r>   -39.1645     0.0000   112.0000 </r>
       <r>   -38.9236     0.0000   112.0000 </r>
       <r>   -38.6826     0.0000   112.0000 </r>
       <r>   -38.4417     0.0000   112.0000 </r>
       <r>   -38.2007     0.0000   112.0000 </r>
       <r>   -37.9598     0.0000   112.0000 </r>
       <r>   -37.7188     0.0000   112.0000 </r>
       <r>   -37.4779     0.0000   112.0000 </r>
       <r>   -37.2370     0.0000   112.0000 </r>
       <r>   -36.9960     0.0000   112.0000 </r>
       <r>   -36.7551     0.0000   112.0000 </r>
       <r>   -36.5141     0.0000   112.0000 </r>
       <r>   -36.2732     0.0000   112.0000 </r>
       <r>   -36.0323     0.0000   112.0000 </r>
       <r>   -35.7913     0.0000   112.0000 </r>
       <r>   -35.5504     0.0000   112.0000 </r>
       <r>   -35.3094     0.0000   112.0000 </r>
       <r>   -35.0685     0.0000   112.0000 </r>
       <r>   -34.8275     0.0000   112.0000 </r>
       <r>   -34.5866     0.0000   112.0000 </r>
       <r>   -34.3457     0.0000   112.0000 </r>
       <r>   -34.1047     0.0000   112.0000 </r>
       <r>   -33.8638     0.0000   112.0000 </r>
       <r>   -33.6228     0.0000   112.0000 </r>
       <r>   -33.3819     0.0000   112.0000 </r>
       <r>   -33.1410     0.0000   112.0000 </r>
       <r>   -32.9000     0.0000   112.0000 </r>
       <r>   -32.6591     0.0000   112.0000 </r>
       <r>   -32.4181     0.0000   112.0000 </r>
       <r>   -32.1772     0.0000   112.0000 </r>
       <r>   -31.9363     0.0000   112.0000 </r>
       <r>   -31.6953     0.0000   112.0000 </r>
       <r>   -31.4544     0.0000   112.0000 </r>
       <r>   -31.2134     0.0000   112.0000 </r>
       <r>   -30.9725     0.0000   112.0000 </r>
       <r>   -30.7315     0.0000   112.0000 </r>
       <r>   -30.4906     0.0000   112.0000 </r>
       <r>   -30.2497     0.0000   112.0000 </r>
       <r>   -30.0087     0.0000   112.0000 </r>
       <r>   -29.7678     0.0000   112.0000 </r>
       <r>   -29.5268     0.0000   112.0000 </r>
       <r>   -29.2859     0.0000   112.0000 </r>
       <r>   -29.0450     0.0000   112.0000 </r>
       <r>   -28.8040     0.0000   112.0000 </r>
       <r>   -28.5631     0.0000   112.0000 </r>
       <r>   -28.3221     0.0000   112.0000 </r>
       <r>   -28.0812     0.0000   112.0000 </r>
       <r>   -27.8402     0.0000   112.0000 </r>
       <r>   -27.5993     0.0000   112.0000 </r>
       <r>   -27.3584     0.0000   112.0000 </r>
       <r>   -27.1174     0.0000   112.0000 </r>
       <r>   -26.8765     0.0000   112.0000 </r>
       <r>   -26.6355     0.0000   112.0000 </r>
       <r>   -26.3946     0.0000   112.0000 </r>
       <r>   -26.1537     0.0000   112.0000 </r>
       <r>   -25.9127     0.0000   112.0000 </r>
       <r>   -25.6718     0.0000   112.0000 </r>
       <r>   -25.4308     0.0000   112.0000 </r>
       <r>   -25.1899     0.0000   112.0000 </r>
       <r>   -24.9489     0.0000   112.0000 </r>
       <r>   -24.7080     0.0000   112.0000 </r>
       <r>   -24.4671     0.0000   112.0000 </r>
       <r>   -24.2261     0.0000   112.0000 </r>
       <r>   -23.9852     0.0000   112.0000 </r>
       <r>   -23.7442     0.0000   112.0000 </r>
       <r>   -23.5033     0.0000   112.0000 </r>
       <r>   -23.2624     0.0000   112.0000 </r>
       <r>   -23.0214     0.0000   112.0000 </r>
       <r>   -22.7805     0.0000   112.0000 </r>
       <r>   -22.5395     0.0000   112.0000 </r>
       <r>   -22.2986     0.0000   112.0000 </r>
       <r>   -22.0576     0.0000   112.0000 </r>
       <r>   -21.8167     0.0000   112.0000 </r>
       <r>   -21.5758     0.0000   112.0000 </r>
       <r>   -21.3348     0.0000   112.0000 </r>
       <r>   -21.0939     0.0000   112.0000 </r>
       <r>   -20.8529     0.0000   112.0000 </r>
       <r>   -20.6120     0.0000   112.0000 </r>
       <r>   -20.3711     0.0000   112.0000 </r>
       <r>   -20.1301     0.0000   112.0000 </r>
       <r>   -19.8892     0.0000   112.0000 </r>
       <r>   -19.6482     0.0000   112.0000 </r>
       <r>   -19.4073     0.0000   112.0000 </r>
       <r>   -19.1663     0.0000   112.0000 </r>
       <r>   -18.9254     0.0000   112.0000 </r>
       <r>   -18.6845     0.0000   112.0000 </r>
       <r>   -18.4435     0.0000   112.0000 </r>
       <r>   -18.2026     0.0000   112.0000 </r>
       <r>   -17.9616     0.0000   112.0000 </r>
       <r>   -17.7207     0.0000   112.0000 </r>
       <r>   -17.4798     0.0000   112.0000 </r>
       <r>   -17.2388     0.0000   112.0000 </r>
       <r>   -16.9979     0.0000   112.0000 </r>
       <r>   -16.7569     0.0000   112.0000 </r>
       <r>   -16.5160     0.0000   112.0000 </r>
       <r>   -16.2751     0.0000   112.0000 </r>
       <r>   -16.0341     0.0000   112.0000 </r>
       <r>   -15.7932     0.0000   112.0000 </r>
       <r>   -15.5522     0.0000   112.0000 </r>
       <r>   -15.3113     0.0000   112.0000 </r>
       <r>   -15.0703     0.0000   112.0000 </r>
       <r>   -14.8294     0.0000   112.0000 </r>
       <r>   -14.5885     0.0000   112.0000 </r>
       <r>   -14.3475     0.0000   112.0000 </r>
       <r>   -14.1066     0.0000   112.0000 </r>
       <r>   -13.8656     0.0000   112.0000 </r>
       <r>   -13.6247     0.0000   112.0000 </r>
       <r>   -13.3838     0.0000   112.0000 </r>
       <r>   -13.1428     0.0000   112.0000 </r>
       <r>   -12.9019     0.0423   112.0102 </r>
       <r>   -12.6609    47.4922   123.4530 </r>
       <r>   -12.4200    18.8716   128.0000 </r>
       <r>   -12.1790     0.0000   128.0000 </r>
       <r>   -11.9381     0.0000   128.0000 </r>
       <r>   -11.6972     0.0000   128.0000 </r>
       <r>   -11.4562     0.0000   128.0000 </r>
       <r>   -11.2153     0.0000   128.0000 </r>
       <r>   -10.9743     0.0000   128.0000 </r>
       <r>   -10.7334     0.0000   128.0000 </r>
       <r>   -10.4925     0.0000   128.0000 </r>
       <r>   -10.2515     0.0000   128.0000 </r>
       <r>   -10.0106     0.0000   128.0000 </r>
       <r>    -9.7696     0.0000   128.0000 </r>
       <r>    -9.5287     0.0000   128.0000 </r>
       <r>    -9.2877     0.0000   128.0000 </r>
       <r>    -9.0468     0.0000   128.0000 </r>
       <r>    -8.8059     0.0000   128.0000 </r>
       <r>    -8.5649     0.0000   128.0000 </r>
       <r>    -8.3240     0.0000   128.0000 </r>
       <r>    -8.0830     0.0000   128.0000 </r>
       <r>    -7.8421     0.0000   128.0000 </r>
       <r>    -7.6012     0.0000   128.0000 </r>
       <r>    -7.3602     0.9047   128.2180 </r>
       <r>    -7.1193    15.9441   132.0596 </r>
       <r>    -6.8783    28.9511   139.0351 </r>
       <r>    -6.6374    28.3060   145.8552 </r>
       <r>    -6.3964    25.4896   151.9967 </r>
       <r>    -6.1555     0.0136   152.0000 </r>
       <r>    -5.9146     0.0000   152.0000 </r>
       <r>    -5.6736     0.0000   152.0000 </r>
       <r>    -5.4327     0.0000   152.0000 </r>
       <r>    -5.1917     0.0000   152.0000 </r>
       <r>    -4.9508     0.0000   152.0000 </r>
       <r>    -4.7099     0.0000   152.0000 </r>
       <r>    -4.4689     0.0000   152.0000 </r>
       <r>    -4.2280     0.0000   152.0000 </r>
       <r>    -3.9870     0.0000   152.0000 </r>
       <r>    -3.7461     0.0000   152.0000 </r>
       <r>    -3.5051     0.0000   152.0000 </r>
       <r>    -3.2642     0.0000   152.0000 </r>
       <r>    -3.0233     0.0000   152.0000 </r>
       <r>    -2.7823     0.0000   152.0000 </r>
       <r>    -2.5414     0.0000   152.0000 </r>
       <r>    -2.3004     0.0000   152.0000 </r>
       <r>    -2.0595     0.0000   152.0000 </r>
       <r>    -1.8186     0.0000   152.0000 </r>
       <r>    -1.5776     0.0000   152.0000 </r>
       <r>    -1.3367     0.0000   152.0000 </r>
       <r>    -1.0957     0.0000   152.0000 </r>
       <r>    -0.8548     0.0000   152.0000 </r>
       <r>    -0.6138     0.0000   152.0000 </r>
       <r>    -0.3729     6.0287   153.4526 </r>
       <r>    -0.1320    19.9265   158.2537 </r>
       <r>     0.1090    12.6176   161.2938 </r>
       <r>     0.3499    19.4553   165.9814 </r>
       <r>     0.5909    29.9879   173.2067 </r>
       <r>     0.8318    40.3261   182.9229 </r>
       <r>     1.0727    37.0775   191.8565 </r>
       <r>     1.3137    29.4732   198.9578 </r>
       <r>     1.5546    21.3457   204.1008 </r>
       <r>     1.7956    28.4531   210.9564 </r>
       <r>     2.0365    38.4559   220.2220 </r>
       <r>     2.2774    25.1368   226.2785 </r>
       <r>     2.5184    27.3284   232.8630 </r>
       <r>     2.7593    33.5666   240.9506 </r>
       <r>     3.0003    45.2810   251.8607 </r>
       <r>     3.2412    45.0793   262.7222 </r>
       <r>     3.4822    28.7129   269.6403 </r>
       <r>     3.7231    11.1509   272.3270 </r>
       <r>     3.9640    21.1619   277.4258 </r>
       <r>     4.2050    50.2604   289.5356 </r>
       <r>     4.4459    46.6743   300.7814 </r>
       <r>     4.6869    13.3581   303.9999 </r>
       <r>     4.9278     0.0004   304.0000 </r>
       <r>     5.1687     0.0000   304.0000 </r>
       <r>     5.4097     0.0000   304.0000 </r>
       <r>     5.6506     0.0000   304.0000 </r>
       <r>     5.8916     0.0000   304.0000 </r>
       <r>     6.1325     0.0000   304.0000 </r>
       <r>     6.3735     0.5916   304.1425 </r>
       <r>     6.6144     4.2498   305.1665 </r>
       <r>     6.8553     8.4515   307.2028 </r>
       <r>     7.0963    22.1692   312.5443 </r>
       <r>     7.3372    45.7952   323.5782 </r>
       <r>     7.5782    55.5998   336.9745 </r>
       <r>     7.8191    62.1571   351.9508 </r>
       <r>     8.0600    66.7064   368.0231 </r>
       <r>     8.3010    71.4948   385.2492 </r>
       <r>     8.5419    57.7401   399.1612 </r>
       <r>     8.7829    58.8123   413.3315 </r>
       <r>     9.0238    44.1685   423.9735 </r>
       <r>     9.2648    27.2928   430.5495 </r>
       <r>     9.5057     7.9083   432.4549 </r>
       <r>     9.7466     3.7245   433.3523 </r>
       <r>     9.9876     8.9022   435.4972 </r>
       <r>    10.2285    19.0644   440.0906 </r>
       <r>    10.4695    18.0829   444.4475 </r>
       <r>    10.7104    18.3707   448.8738 </r>
       <r>    10.9513    26.6874   455.3039 </r>
       <r>    11.1923    19.1249   459.9119 </r>
       <r>    11.4332    24.0535   465.7074 </r>
       <r>    11.6742    13.5664   468.9761 </r>
       <r>    11.9151    14.1652   472.3891 </r>
       <r>    12.1561    17.3211   476.5624 </r>
       <r>    12.3970    38.5345   485.8470 </r>
       <r>    12.6379    31.9112   493.5357 </r>
       <r>    12.8789    27.7433   500.2202 </r>
       <r>    13.1198    20.3301   505.1186 </r>
       <r>    13.3608    23.2669   510.7246 </r>
       <r>    13.6017    27.5488   517.3622 </r>
       <r>    13.8426    23.6954   523.0714 </r>
       <r>    14.0836    25.6734   529.2572 </r>
       <r>    14.3245    18.3139   533.6698 </r>
       <r>    14.5655    15.1760   537.3263 </r>
       <r>    14.8064     2.7961   538.0000 </r>
       <r>    15.0474     0.0000   538.0000 </r>
       <r>    15.2883     0.0000   538.0000 </r>
       <r>    15.5292     0.0000   538.0000 </r>
       <r>    15.7702     0.0000   538.0000 </r>
       <r>    16.0111     0.0000   538.0000 </r>
       <r>    16.2521     0.0000   538.0000 </r>
       <r>    16.4930     0.0000   538.0000 </r>
       <r>    16.7339     0.0000   538.0000 </r>
       <r>    16.9749     0.0000   538.0000 </r>
       <r>    17.2158     0.0000   538.0000 </r>
       <r>    17.4568     0.0000   538.0000 </r>
       <r>    17.6977     0.0000   538.0000 </r>
       <r>    17.9386     0.0000   538.0000 </r>
      </set>
     </set>
    </array>
   </total>
  </dos>
 </calculation>
 <structure name="finalpos" >
  <crystal>
   <varray name="basis" >
    <v>      11.11223374       0.00000000      -0.00029034 </v>
    <v>       0.00000000      11.11745194       0.00000000 </v>
    <v>      -2.77510898       0.00000000      10.19872221 </v>
   </varray>
   <i name="volume">   1259.93837498 </i>
   <varray name="rec_basis" >
    <v>       0.08999155       0.00000000       0.02448702 </v>
    <v>       0.00000000       0.08994867       0.00000000 </v>
    <v>       0.00000256       0.00000000       0.09805220 </v>
   </varray>
  </crystal>
  <varray name="positions" >
   <v>       0.28894969       0.46933910       0.15583616 </v>
   <v>       0.78894969       0.46933910       0.15583616 </v>
   <v>       0.28894969       0.96933910       0.15583616 </v>
   <v>       0.78894969       0.96933910       0.15583616 </v>
   <v>       0.04646972       0.21934976       0.18586770 </v>
   <v>       0.54646972       0.21934976       0.18586770 </v>
   <v>       0.04646972       0.71934976       0.18586770 </v>
   <v>       0.54646972       0.71934976       0.18586770 </v>
   <v>       0.45353028       0.46934976       0.81413230 </v>
   <v>       0.95353028       0.46934976       0.81413230 </v>
   <v>       0.45353028       0.96934976       0.81413230 </v>
   <v>       0.95353028       0.96934976       0.81413230 </v>
   <v>       0.21105031       0.21933910       0.84416384 </v>
   <v>       0.71105031       0.21933910       0.84416384 </v>
   <v>       0.21105031       0.71933910       0.84416384 </v>
   <v>       0.71105031       0.71933910       0.84416384 </v>
   <v>       0.07654971       0.09530995       0.80250593 </v>
   <v>       0.57654971       0.09530995       0.80250593 </v>
   <v>       0.07654971       0.59530995       0.80250593 </v>
   <v>       0.57654971       0.59530995       0.80250593 </v>
   <v>       0.32470466       0.34338175       0.80155772 </v>
   <v>       0.82470466       0.34338175       0.80250383 </v>
   <v>       0.32470466       0.84338175       0.80250383 </v>
   <v>       0.82470466       0.84338175       0.80250383 </v>
   <v>       0.17529534       0.09338175       0.19749617 </v>
   <v>       0.67529534       0.09338175       0.19749617 </v>
   <v>       0.17529534       0.59338175       0.19749617 </v>
   <v>       0.67529534       0.59338175       0.19749617 </v>
   <v>       0.42345029       0.34530995       0.19749407 </v>
   <v>       0.92345029       0.34530995       0.19749407 </v>
   <v>       0.42345029       0.84530995       0.19749407 </v>
   <v>       0.92345029       0.84530995       0.19749407 </v>
   <v>       0.21868463       0.34523395       0.37102476 </v>
   <v>       0.71868463       0.34523395       0.37102476 </v>
   <v>       0.21868463       0.84523395       0.37102476 </v>
   <v>       0.71868463       0.84523395       0.37102476 </v>
   <v>       0.46681660       0.09344897       0.37102399 </v>
   <v>       0.96681660       0.09344897       0.37102399 </v>
   <v>       0.46681660       0.59344897       0.37102399 </v>
   <v>       0.96681660       0.59344897       0.37102399 </v>
   <v>       0.03318340       0.34344897       0.62897601 </v>
   <v>       0.53318340       0.34344897       0.62897601 </v>
   <v>       0.03318340       0.84344897       0.62897601 </v>
   <v>       0.53318340       0.84344897       0.62897601 </v>
   <v>       0.28131537       0.09523395       0.62897524 </v>
   <v>       0.78131537       0.09523395       0.62897524 </v>
   <v>       0.28131537       0.59523395       0.62897524 </v>
   <v>       0.78131537       0.59523395       0.62897524 </v>
   <v>       0.12439279       0.34434306       0.00000412 </v>
   <v>       0.62439279       0.34434306       0.00000412 </v>
   <v>       0.12439279       0.84434306       0.00000412 </v>
   <v>       0.62439279       0.84434306       0.00000412 </v>
   <v>       0.37560721       0.09434306       0.99999588 </v>
   <v>       0.87560721       0.09434306       0.99999588 </v>
   <v>       0.37560721       0.59434306       0.99999588 </v>
   <v>       0.87560721       0.59434306       0.99999588 </v>
   <v>       0.03824426       0.10634799       0.60632306 </v>
   <v>       0.53824426       0.10634799       0.60632306 </v>
   <v>       0.03824426       0.60634799       0.60632306 </v>
   <v>       0.53824426       0.60634799       0.60632306 </v>
   <v>       0.26492712       0.33232651       0.60632763 </v>
   <v>       0.76492712       0.33232651       0.60632763 </v>
   <v>       0.26492712       0.83232651       0.60632763 </v>
   <v>       0.76492712       0.83232651       0.60632763 </v>
   <v>       0.23507288       0.08232651       0.39367237 </v>
   <v>       0.73507288       0.08232651       0.39367237 </v>
   <v>       0.23507288       0.58232651       0.39367237 </v>
   <v>       0.73507288       0.58232651       0.39367237 </v>
   <v>       0.46175574       0.35634799       0.39367694 </v>
   <v>       0.96175574       0.35634799       0.39367694 </v>
   <v>       0.46175574       0.85634799       0.39367694 </v>
   <v>       0.96175574       0.85634799       0.39367694 </v>
   <v>       0.03848398       0.46936404       0.15397331 </v>
   <v>       0.53848398       0.46936404       0.15397331 </v>
   <v>       0.03848398       0.96936404       0.15397331 </v>
   <v>       0.53848398       0.96936404       0.15397331 </v>
   <v>       0.28861657       0.21935690       0.15447525 </v>
   <v>       0.78861657       0.21935690       0.15447525 </v>
   <v>       0.28861657       0.71935690       0.15447525 </v>
   <v>       0.78861657       0.71935690       0.15447525 </v>
   <v>       0.21138343       0.46935690       0.84552475 </v>
   <v>       0.71138343       0.46935690       0.84552475 </v>
   <v>       0.21138343       0.96935690       0.84552475 </v>
   <v>       0.71138343       0.96935690       0.84552475 </v>
   <v>       0.46151602       0.21936404       0.84602669 </v>
   <v>       0.96151602       0.21936404       0.84602669 </v>
   <v>       0.46151602       0.71936404       0.84602669 </v>
   <v>       0.96151602       0.71936404       0.84602669 </v>
  </varray>
 </structure>
</modeling>
