 vasp.5.4.4.18Apr17-6-g9f103f2a35 (build Oct 25 2017 14:42:18) complex          
  
 executed on             LinuxIFC date 2021.06.16  20:10:21
 running on   48 total cores
 distrk:  each k-point on   24 cores,    2 groups
 distr:  one band on NCORES_PER_BAND=   6 cores,    4 groups


--------------------------------------------------------------------------------------------------------


 INCAR:
 POTCAR:    PAW_PBE Li_sv 10Sep2004               
 POTCAR:    PAW_PBE Fe_pv 02Aug2007               
 POTCAR:    PAW_PBE S 06Sep2000                   
 POTCAR:    PAW_PBE O 08Apr2002                   

 ----------------------------------------------------------------------------- 
|                                                                             |
|           W    W    AA    RRRRR   N    N  II  N    N   GGGG   !!!           |
|           W    W   A  A   R    R  NN   N  II  NN   N  G    G  !!!           |
|           W    W  A    A  R    R  N N  N  II  N N  N  G       !!!           |
|           W WW W  AAAAAA  RRRRR   N  N N  II  N  N N  G  GGG   !            |
|           WW  WW  A    A  R   R   N   NN  II  N   NN  G    G                |
|           W    W  A    A  R    R  N    N  II  N    N   GGGG   !!!           |
|                                                                             |
|      You have enabled k-point parallelism (KPAR>1).                         |
|      This developmental code was originally  written by Paul Kent at ORNL,  |
|      and carefully double checked in Vienna.                                |
|      GW as well as linear response parallelism added by Martijn Marsman     |
|      and Georg Kresse.                                                      |
|      Carefully verify results versus KPAR=1.                                |
|      Report problems to Paul Kent and Vienna.                               |
|                                                                             |
 ----------------------------------------------------------------------------- 

 POTCAR:    PAW_PBE Li_sv 10Sep2004               
  local pseudopotential read in
  atomic valenz-charges read in
  non local Contribution for L=           0  read in
    real space projection operators read in
  non local Contribution for L=           0  read in
    real space projection operators read in
  non local Contribution for L=           1  read in
    real space projection operators read in
    PAW grid and wavefunctions read in
 
   number of l-projection  operators is LMAX  =           3
   number of lm-projection operators is LMMAX =           5
 
 POTCAR:    PAW_PBE Fe_pv 02Aug2007               
  local pseudopotential read in
  partial core-charges read in
  partial kinetic energy density read in
  atomic valenz-charges read in
  non local Contribution for L=           1  read in
    real space projection operators read in
  non local Contribution for L=           1  read in
    real space projection operators read in
  non local Contribution for L=           2  read in
    real space projection operators read in
  non local Contribution for L=           2  read in
    real space projection operators read in
  non local Contribution for L=           0  read in
    real space projection operators read in
  non local Contribution for L=           0  read in
    real space projection operators read in
    PAW grid and wavefunctions read in
 
   number of l-projection  operators is LMAX  =           6
   number of lm-projection operators is LMMAX =          18
 
 POTCAR:    PAW_PBE S 06Sep2000                   
  local pseudopotential read in
  partial core-charges read in
  partial kinetic energy density read in
  atomic valenz-charges read in
  non local Contribution for L=           0  read in
    real space projection operators read in
  non local Contribution for L=           0  read in
    real space projection operators read in
  non local Contribution for L=           1  read in
    real space projection operators read in
  non local Contribution for L=           1  read in
    real space projection operators read in
    PAW grid and wavefunctions read in
 
   number of l-projection  operators is LMAX  =           4
   number of lm-projection operators is LMMAX =           8
 
 POTCAR:    PAW_PBE O 08Apr2002                   
  local pseudopotential read in
  partial core-charges read in
  partial kinetic energy density read in
  kinetic energy density of atom read in
  atomic valenz-charges read in
  non local Contribution for L=           0  read in
    real space projection operators read in
  non local Contribution for L=           0  read in
    real space projection operators read in
  non local Contribution for L=           1  read in
    real space projection operators read in
  non local Contribution for L=           1  read in
    real space projection operators read in
    PAW grid and wavefunctions read in
 
   number of l-projection  operators is LMAX  =           4
   number of lm-projection operators is LMMAX =           8
 

 ----------------------------------------------------------------------------- 
|                                                                             |
|  ADVICE TO THIS USER RUNNING 'VASP/VAMP'   (HEAR YOUR MASTER'S VOICE ...):  |
|                                                                             |
|      You have a (more or less) 'large supercell' and for larger cells       |
|      it might be more efficient to use real space projection opertators     |
|      So try LREAL= Auto  in the INCAR   file.                               |
|      Mind:          For very  accurate calculation you might also keep the  |
|      reciprocal projection scheme          (i.e. LREAL=.FALSE.)             |
|                                                                             |
 ----------------------------------------------------------------------------- 

  PAW_PBE Li_sv 10Sep2004               :
 energy of atom  1       EATOM= -202.7858
 kinetic energy error for atom=    0.0072 (will be added to EATOM!!)
  PAW_PBE Fe_pv 02Aug2007               :
 energy of atom  2       EATOM=-2457.4239
 kinetic energy error for atom=    0.0041 (will be added to EATOM!!)
  PAW_PBE S 06Sep2000                   :
 energy of atom  3       EATOM= -276.8230
 kinetic energy error for atom=    0.0008 (will be added to EATOM!!)
  PAW_PBE O 08Apr2002                   :
 energy of atom  4       EATOM= -432.3788
 kinetic energy error for atom=    0.0129 (will be added to EATOM!!)
 
 
 POSCAR: # Compound: Li64Fe32S32O32. Old comment:
  positions in direct lattice
  No initial velocities read in
 exchange correlation table for  LEXCH =        8
   RHO(1)=    0.500       N(1)  =     2000
   RHO(2)=  100.500       N(2)  =     4000
 


--------------------------------------------------------------------------------------------------------


 ion  position               nearest neighbor table
   1  0.125  0.276  0.475- 149 1.96 133 1.97  97 2.54 105 2.54
   2  0.625  0.276  0.475- 150 1.96 134 1.97  98 2.54 106 2.54
   3  0.125  0.776  0.475- 151 1.96 135 1.97  99 2.54 107 2.54
   4  0.625  0.776  0.475- 152 1.96 136 1.97 100 2.54 108 2.54
   5  0.125  0.276  0.975- 145 1.96 129 1.97 101 2.54 109 2.54
   6  0.625  0.276  0.975- 146 1.96 130 1.97 102 2.54 110 2.54
   7  0.125  0.776  0.975- 147 1.96 131 1.97 103 2.54 111 2.54
   8  0.625  0.776  0.975- 148 1.96 132 1.97 104 2.54 112 2.54
   9  0.125  0.474  0.275- 155 1.96 139 1.97 105 2.54  97 2.54
  10  0.625  0.474  0.275- 156 1.96 140 1.97 106 2.54  98 2.54
  11  0.125  0.974  0.275- 153 1.96 137 1.97 107 2.54  99 2.54
  12  0.625  0.974  0.275- 154 1.96 138 1.97 108 2.54 100 2.54
  13  0.125  0.474  0.775- 159 1.96 143 1.97 109 2.54 101 2.54
  14  0.625  0.474  0.775- 160 1.96 144 1.97 110 2.54 102 2.54
  15  0.125  0.974  0.775- 157 1.96 141 1.97 111 2.54 103 2.54
  16  0.625  0.974  0.775- 158 1.96 142 1.97 112 2.54 104 2.54
  17  0.375  0.224  0.025- 145 1.96 130 1.97 113 2.54 121 2.54
  18  0.875  0.224  0.025- 146 1.96 129 1.97 114 2.54 122 2.54
  19  0.375  0.724  0.025- 147 1.96 132 1.97 115 2.54 123 2.54
  20  0.875  0.724  0.025- 148 1.96 131 1.97 116 2.54 124 2.54
  21  0.375  0.224  0.525- 149 1.96 134 1.97 117 2.54 125 2.54
  22  0.875  0.224  0.525- 150 1.96 133 1.97 118 2.54 126 2.54
  23  0.375  0.724  0.525- 151 1.96 136 1.97 119 2.54 127 2.54
  24  0.875  0.724  0.525- 152 1.96 135 1.97 120 2.54 128 2.54
  25  0.375  0.026  0.225- 153 1.96 138 1.97 121 2.54 113 2.54
  26  0.875  0.026  0.225- 154 1.96 137 1.97 122 2.54 114 2.54
  27  0.375  0.526  0.225- 155 1.96 140 1.97 123 2.54 115 2.54
  28  0.875  0.526  0.225- 156 1.96 139 1.97 124 2.54 116 2.54
  29  0.375  0.026  0.725- 157 1.96 142 1.97 125 2.54 117 2.54
  30  0.875  0.026  0.725- 158 1.96 141 1.97 126 2.54 118 2.54
  31  0.375  0.526  0.725- 159 1.96 144 1.97 127 2.54 119 2.54
  32  0.875  0.526  0.725- 160 1.96 143 1.97 128 2.54 120 2.54
  33  0.275  0.374  0.375- 149 2.01 155 2.02 121 2.52 119 2.52
  34  0.776  0.375  0.375- 150 2.01 156 2.01 120 2.52 122 2.52
  35  0.276  0.875  0.375- 151 2.01 153 2.01 117 2.52 123 2.52
  36  0.776  0.875  0.375- 152 2.01 154 2.01 118 2.52 124 2.52
  37  0.276  0.375  0.875- 145 2.01 159 2.01 115 2.52 125 2.52
  38  0.776  0.375  0.875- 146 2.01 160 2.01 116 2.52 126 2.52
  39  0.276  0.875  0.875- 147 2.01 157 2.01 113 2.52 127 2.52
  40  0.776  0.875  0.875- 148 2.01 158 2.01 114 2.52 128 2.52
  41  0.224  0.125  0.125- 145 2.01 153 2.01 103 2.52 105 2.52
  42  0.724  0.125  0.125- 146 2.01 154 2.01 104 2.52 106 2.52
  43  0.224  0.625  0.125- 147 2.01 155 2.01 101 2.52 107 2.52
  44  0.724  0.625  0.125- 148 2.01 156 2.01 102 2.52 108 2.52
  45  0.224  0.125  0.625- 149 2.01 157 2.01  99 2.52 109 2.52
  46  0.724  0.125  0.625- 150 2.01 158 2.01 100 2.52 110 2.52
  47  0.224  0.625  0.625- 151 2.01 159 2.01  97 2.52 111 2.52
  48  0.724  0.625  0.625- 152 2.01 160 2.01  98 2.52 112 2.52
  49  0.500  0.375  0.125- 130 2.00 140 2.00
  50  1.000  0.375  0.125- 129 2.00 139 2.00
  51  0.500  0.875  0.125- 132 2.00 138 2.00
  52  1.000  0.875  0.125- 131 2.00 137 2.00
  53  0.500  0.375  0.625- 134 2.00 144 2.00
  54  1.000  0.375  0.625- 133 2.00 143 2.00
  55  0.500  0.875  0.625- 136 2.00 142 2.00
  56  1.000  0.875  0.625- 135 2.00 141 2.00
  57  0.000  0.125  0.375- 133 2.00 137 2.00
  58  0.500  0.125  0.375- 134 2.00 138 2.00
  59  0.000  0.625  0.375- 135 2.00 139 2.00
  60  0.500  0.625  0.375- 136 2.00 140 2.00
  61  0.000  0.125  0.875- 129 2.00 141 2.00
  62  0.500  0.125  0.875- 130 2.00 142 2.00
  63  0.000  0.625  0.875- 131 2.00 143 2.00
  64  0.500  0.625  0.875- 132 2.00 144 2.00
  65  0.479  0.375  0.375- 134 2.00 140 2.00 119 2.57 121 2.57
  66  0.979  0.375  0.375- 133 2.00 139 2.00 120 2.57 122 2.57
  67  0.479  0.875  0.375- 136 2.00 138 2.00 117 2.57 123 2.57
  68  0.979  0.875  0.375- 135 2.00 137 2.00 118 2.57 124 2.57
  69  0.479  0.375  0.875- 130 2.00 144 2.00 115 2.57 125 2.57
  70  0.979  0.375  0.875- 129 2.00 143 2.00 116 2.57 126 2.57
  71  0.479  0.875  0.875- 132 2.00 142 2.00 113 2.57 127 2.57
  72  0.979  0.875  0.875- 131 2.00 141 2.00 114 2.57 128 2.57
  73  0.021  0.125  0.125- 129 2.00 137 2.00 103 2.57 105 2.57
  74  0.521  0.125  0.125- 130 2.00 138 2.00 104 2.57 106 2.57
  75  0.021  0.625  0.125- 131 2.00 139 2.00 101 2.57 107 2.57
  76  0.521  0.625  0.125- 132 2.00 140 2.00 102 2.57 108 2.57
  77  0.021  0.125  0.625- 133 2.00 141 2.00  99 2.57 109 2.57
  78  0.521  0.125  0.625- 134 2.00 142 2.00 100 2.57 110 2.57
  79  0.021  0.625  0.625- 135 2.00 143 2.00  97 2.57 111 2.57
  80  0.521  0.625  0.625- 136 2.00 144 2.00  98 2.57 112 2.57
  81  0.250  0.375  0.125- 145 2.00 155 2.00 115 2.75 121 2.75 101 2.75 105 2.75
  82  0.750  0.375  0.125- 146 2.00 156 2.00 116 2.75 122 2.75 102 2.75 106 2.75
  83  0.250  0.875  0.125- 147 2.00 153 2.00 113 2.75 123 2.75 103 2.75 107 2.75
  84  0.750  0.875  0.125- 148 2.00 154 2.00 114 2.75 124 2.75 104 2.75 108 2.75
  85  0.250  0.375  0.625- 149 2.00 159 2.00 119 2.75 125 2.75  97 2.75 109 2.75
  86  0.750  0.375  0.625- 150 2.00 160 2.00 120 2.75 126 2.75  98 2.75 110 2.75
  87  0.250  0.875  0.625- 151 2.00 157 2.00 117 2.75 127 2.75  99 2.75 111 2.75
  88  0.750  0.875  0.625- 152 2.00 158 2.00 118 2.75 128 2.75 100 2.75 112 2.75
  89  0.250  0.125  0.375- 149 2.00 153 2.00  99 2.75 105 2.75 117 2.75 121 2.75
  90  0.750  0.125  0.375- 150 2.00 154 2.00 100 2.75 106 2.75 118 2.75 122 2.75
  91  0.250  0.625  0.375- 151 2.00 155 2.00  97 2.75 107 2.75 119 2.75 123 2.75
  92  0.750  0.625  0.375- 152 2.00 156 2.00  98 2.75 108 2.75 120 2.75 124 2.75
  93  0.250  0.125  0.875- 145 2.00 157 2.00 103 2.75 109 2.75 113 2.75 125 2.75
  94  0.750  0.125  0.875- 146 2.00 158 2.00 104 2.75 110 2.75 114 2.75 126 2.75
  95  0.250  0.625  0.875- 147 2.00 159 2.00 101 2.75 111 2.75 115 2.75 127 2.75
  96  0.750  0.625  0.875- 148 2.00 160 2.00 102 2.75 112 2.75 116 2.75 128 2.75
  97  0.125  0.500  0.500-  47 2.52   1 2.54   9 2.54  79 2.57  91 2.75  85 2.75
  98  0.625  0.500  0.500-  48 2.52   2 2.54  10 2.54  80 2.57  92 2.75  86 2.75
  99  0.125  1.000  0.500-  45 2.52   3 2.54  11 2.54  77 2.57  89 2.75  87 2.75
 100  0.625  1.000  0.500-  46 2.52   4 2.54  12 2.54  78 2.57  90 2.75  88 2.75
 101  0.125  0.500  1.000-  43 2.52   5 2.54  13 2.54  75 2.57  95 2.75  81 2.75
 102  0.625  0.500  1.000-  44 2.52   6 2.54  14 2.54  76 2.57  96 2.75  82 2.75
 103  0.125  1.000  1.000-  41 2.52   7 2.54  15 2.54  73 2.57  93 2.75  83 2.75
 104  0.625  1.000  1.000-  42 2.52   8 2.54  16 2.54  74 2.57  94 2.75  84 2.75
 105  0.125  0.250  0.250-  41 2.52   9 2.54   1 2.54  73 2.57  89 2.75  81 2.75
 106  0.625  0.250  0.250-  42 2.52  10 2.54   2 2.54  74 2.57  90 2.75  82 2.75
 107  0.125  0.750  0.250-  43 2.52  11 2.54   3 2.54  75 2.57  91 2.75  83 2.75
 108  0.625  0.750  0.250-  44 2.52  12 2.54   4 2.54  76 2.57  92 2.75  84 2.75
 109  0.125  0.250  0.750-  45 2.52  13 2.54   5 2.54  77 2.57  93 2.75  85 2.75
 110  0.625  0.250  0.750-  46 2.52  14 2.54   6 2.54  78 2.57  94 2.75  86 2.75
 111  0.125  0.750  0.750-  47 2.52  15 2.54   7 2.54  79 2.57  95 2.75  87 2.75
 112  0.625  0.750  0.750-  48 2.52  16 2.54   8 2.54  80 2.57  96 2.75  88 2.75
 113  0.375  0.000  0.000-  39 2.52  17 2.54  25 2.54  71 2.57  83 2.75  93 2.75
 114  0.875  0.000  0.000-  40 2.52  18 2.54  26 2.54  72 2.57  84 2.75  94 2.75
 115  0.375  0.500  0.000-  37 2.52  19 2.54  27 2.54  69 2.57  81 2.75  95 2.75
 116  0.875  0.500  0.000-  38 2.52  20 2.54  28 2.54  70 2.57  82 2.75  96 2.75
 117  0.375  0.000  0.500-  35 2.52  21 2.54  29 2.54  67 2.57  87 2.75  89 2.75
 118  0.875  0.000  0.500-  36 2.52  22 2.54  30 2.54  68 2.57  88 2.75  90 2.75
 119  0.375  0.500  0.500-  33 2.52  23 2.54  31 2.54  65 2.57  85 2.75  91 2.75
 120  0.875  0.500  0.500-  34 2.52  24 2.54  32 2.54  66 2.57  86 2.75  92 2.75
 121  0.375  0.250  0.250-  33 2.52  25 2.54  17 2.54  65 2.57  81 2.75  89 2.75
 122  0.875  0.250  0.250-  34 2.52  26 2.54  18 2.54  66 2.57  82 2.75  90 2.75
 123  0.375  0.750  0.250-  35 2.52  27 2.54  19 2.54  67 2.57  83 2.75  91 2.75
 124  0.875  0.750  0.250-  36 2.52  28 2.54  20 2.54  68 2.57  84 2.75  92 2.75
 125  0.375  0.250  0.750-  37 2.52  29 2.54  21 2.54  69 2.57  85 2.75  93 2.75
 126  0.875  0.250  0.750-  38 2.52  30 2.54  22 2.54  70 2.57  86 2.75  94 2.75
 127  0.375  0.750  0.750-  39 2.52  31 2.54  23 2.54  71 2.57  87 2.75  95 2.75
 128  0.875  0.750  0.750-  40 2.52  32 2.54  24 2.54  72 2.57  88 2.75  96 2.75
 129  0.000  0.250  0.000-   5 1.97  18 1.97  70 2.00  73 2.00  50 2.00  61 2.00
 130  0.500  0.250  0.000-   6 1.97  17 1.97  69 2.00  74 2.00  49 2.00  62 2.00
 131  0.000  0.750  0.000-   7 1.97  20 1.97  72 2.00  75 2.00  52 2.00  63 2.00
 132  0.500  0.750  0.000-   8 1.97  19 1.97  71 2.00  76 2.00  51 2.00  64 2.00
 133  0.000  0.250  0.500-   1 1.97  22 1.97  66 2.00  77 2.00  54 2.00  57 2.00
 134  0.500  0.250  0.500-   2 1.97  21 1.97  65 2.00  78 2.00  53 2.00  58 2.00
 135  0.000  0.750  0.500-   3 1.97  24 1.97  68 2.00  79 2.00  56 2.00  59 2.00
 136  0.500  0.750  0.500-   4 1.97  23 1.97  67 2.00  80 2.00  55 2.00  60 2.00
 137  0.000  0.000  0.250-  11 1.97  26 1.97  68 2.00  73 2.00  52 2.00  57 2.00
 138  0.500  0.000  0.250-  12 1.97  25 1.97  67 2.00  74 2.00  51 2.00  58 2.00
 139  0.000  0.500  0.250-   9 1.97  28 1.97  66 2.00  75 2.00  50 2.00  59 2.00
 140  0.500  0.500  0.250-  10 1.97  27 1.97  65 2.00  76 2.00  49 2.00  60 2.00
 141  0.000  0.000  0.750-  15 1.97  30 1.97  72 2.00  77 2.00  56 2.00  61 2.00
 142  0.500  0.000  0.750-  16 1.97  29 1.97  71 2.00  78 2.00  55 2.00  62 2.00
 143  0.000  0.500  0.750-  13 1.97  32 1.97  70 2.00  79 2.00  54 2.00  63 2.00
 144  0.500  0.500  0.750-  14 1.97  31 1.97  69 2.00  80 2.00  53 2.00  64 2.00
 145  0.250  0.250  0.000-   5 1.96  17 1.96  81 2.00  93 2.00  37 2.01  41 2.01
 146  0.750  0.250  0.000-   6 1.96  18 1.96  82 2.00  94 2.00  38 2.01  42 2.01
 147  0.250  0.750  0.000-   7 1.96  19 1.96  83 2.00  95 2.00  39 2.01  43 2.01
 148  0.750  0.750  0.000-   8 1.96  20 1.96  84 2.00  96 2.00  40 2.01  44 2.01
 149  0.250  0.250  0.500-   1 1.96  21 1.96  85 2.00  89 2.00  33 2.01  45 2.01
 150  0.750  0.250  0.500-   2 1.96  22 1.96  86 2.00  90 2.00  34 2.01  46 2.01
 151  0.250  0.750  0.500-   3 1.96  23 1.96  87 2.00  91 2.00  35 2.01  47 2.01
 152  0.750  0.750  0.500-   4 1.96  24 1.96  88 2.00  92 2.00  36 2.01  48 2.01
 153  0.250  0.000  0.250-  11 1.96  25 1.96  83 2.00  89 2.00  35 2.01  41 2.01
 154  0.750  0.000  0.250-  12 1.96  26 1.96  84 2.00  90 2.00  36 2.01  42 2.01
 155  0.250  0.500  0.250-   9 1.96  27 1.96  81 2.00  91 2.00  43 2.01  33 2.02
 156  0.750  0.500  0.250-  10 1.96  28 1.96  82 2.00  92 2.00  34 2.01  44 2.01
 157  0.250  0.000  0.750-  15 1.96  29 1.96  87 2.00  93 2.00  39 2.01  45 2.01
 158  0.750  0.000  0.750-  16 1.96  30 1.96  88 2.00  94 2.00  40 2.01  46 2.01
 159  0.250  0.500  0.750-  13 1.96  31 1.96  85 2.00  95 2.00  37 2.01  47 2.01
 160  0.750  0.500  0.750-  14 1.96  32 1.96  86 2.00  96 2.00  38 2.01  48 2.01
 
  LATTYP: Found a simple monoclinic cell.
 ALAT       =    16.0245724362
 B/A-ratio  =     0.9595037360
 C/A-ratio  =     1.5788311284
 COS(beta)  =    -0.9500776273
  
  Lattice vectors:
  
 A1 = (   0.0000000000, -11.3322995400, -11.3298680000)
 A2 = ( -15.3756371200,   0.0000000000,   0.0000000000)
 A3 = (   0.0000000000,  22.5798703800,  11.4124580600)


Analysis of symmetry for initial positions (statically):
=====================================================================
 Subroutine PRICEL returns:
 Original cell was already a primitive cell.
 

 Routine SETGRP: Setting up the symmetry group for a 
 simple monoclinic supercell.


 Subroutine GETGRP returns: Found  1 space group operations
 (whereof  1 operations were pure point group operations)
 out of a pool of  4 trial point group operations.


The static configuration has the point symmetry C_1 .


Analysis of symmetry for dynamics (positions and initial velocities):
=====================================================================
 Subroutine PRICEL returns:
 Original cell was already a primitive cell.
 

 Routine SETGRP: Setting up the symmetry group for a 
 simple monoclinic supercell.


 Subroutine GETGRP returns: Found  1 space group operations
 (whereof  1 operations were pure point group operations)
 out of a pool of  4 trial point group operations.


The dynamic configuration has the point symmetry C_1 .


Analysis of structural, dynamic, and magnetic symmetry:
=====================================================================
 Subroutine PRICEL returns:
 Original cell was already a primitive cell.
 

 Routine SETGRP: Setting up the symmetry group for a 
 simple monoclinic supercell.


 Subroutine GETGRP returns: Found  1 space group operations
 (whereof  1 operations were pure point group operations)
 out of a pool of  4 trial point group operations.


The magnetic configuration has the point symmetry C_1 .


 Subroutine INISYM returns: Found  1 space group operations
 (whereof  1 operations are pure point group operations),
 and found     1 'primitive' translations

 
 
 KPOINTS: # No comment                            

Automatic generation of k-mesh.
Space group operators:
 irot       det(A)        alpha          n_x          n_y          n_z        tau_x        tau_y        tau_z
    1     1.000000     0.000001     1.000000     0.000000     0.000000     0.000000     0.000000     0.000000
 
 Subroutine IBZKPT returns following result:
 ===========================================
 
 Found     10 irreducible k-points:
 
 Following reciprocal coordinates:
            Coordinates               Weight
  0.000000  0.000000  0.000000      1.000000
  0.500000  0.000000  0.000000      1.000000
  0.000000  0.333333 -0.000000      2.000000
  0.500000  0.333333 -0.000000      2.000000
  0.000000 -0.000000  0.333333      2.000000
  0.500000 -0.000000  0.333333      2.000000
  0.000000  0.333333  0.333333      2.000000
  0.500000  0.333333  0.333333      2.000000
  0.000000 -0.333333  0.333333      2.000000
  0.500000 -0.333333  0.333333      2.000000
 
 Following cartesian coordinates:
            Coordinates               Weight
  0.000000  0.000000  0.000000      1.000000
  0.032519  0.000000  0.000000      1.000000
  0.000000  0.029638 -0.000223      2.000000
  0.032519  0.029638 -0.000223      2.000000
  0.000000 -0.000218  0.029638      2.000000
  0.032519 -0.000218  0.029638      2.000000
  0.000000  0.029420  0.029415      2.000000
  0.032519  0.029420  0.029415      2.000000
  0.000000 -0.029855  0.029862      2.000000
  0.032519 -0.029855  0.029862      2.000000
 


--------------------------------------------------------------------------------------------------------




 Dimension of arrays:
   k-points           NKPTS =     10   k-points in BZ     NKDIM =     10   number of bands    NBANDS=    732
   number of dos      NEDOS =    301   number of ions     NIONS =    160
   non local maximal  LDIM  =      6   non local SUM 2l+1 LMDIM =     18
   total plane-waves  NPLWV = ******
   max r-space proj   IRMAX =      1   max aug-charges    IRDMAX= 153046
   dimension x,y,z NGX =   128 NGY =   96 NGZ =   96
   dimension x,y,z NGXF=   256 NGYF=  192 NGZF=  192
   support grid    NGXF=   512 NGYF=  384 NGZF=  384
   ions per type =              64  32  32  32
   NGX,Y,Z   is equivalent  to a cutoff of  13.84, 14.19, 14.19 a.u.
   NGXF,Y,Z  is equivalent  to a cutoff of  27.68, 28.38, 28.38 a.u.

 SYSTEM =  unknown system                          
 POSCAR =  # Compound: Li64Fe32S32O32. Old comment:

 Startparameter for this run:
   NWRITE =      1    write-flag & timer
   PREC   = accura    normal or accurate (medium, high low for compatibility)
   ISTART =      0    job   : 0-new  1-cont  2-samecut
   ICHARG =      1    charge: 1-file 2-atom 10-const
   ISPIN  =      2    spin polarized calculation?
   LNONCOLLINEAR =      F non collinear calculations
   LSORBIT =      F    spin-orbit coupling
   INIWAV =      1    electr: 0-lowe 1-rand  2-diag
   LASPH  =      T    aspherical Exc in radial PAW
   METAGGA=      F    non-selfconsistent MetaGGA calc.

 Electronic Relaxation 1
   ENCUT  =  650.0 eV  47.77 Ry    6.91 a.u.  31.96 23.38 23.38*2*pi/ulx,y,z
   ENINI  =  650.0     initial cutoff
   ENAUG  =  628.9 eV  augmentation charge cutoff
   NELM   =    200;   NELMIN=  8; NELMDL=  0     # of ELM steps 
   EDIFF  = 0.1E-07   stopping-criterion for ELM
   LREAL  =      F    real-space projection
   NLSPLINE    = F    spline interpolate recip. space projectors
   LCOMPAT=      F    compatible to vasp.4.4
   GGA_COMPAT  = T    GGA compatible to vasp.4.4-vasp.4.6
   LMAXPAW     = -100 max onsite density
   LMAXMIX     =    4 max onsite mixed and CHGCAR
   VOSKOWN=      0    Vosko Wilk Nusair interpolation
   ROPT   =    0.00000   0.00000   0.00000   0.00000
 Ionic relaxation
   EDIFFG = 0.1E-06   stopping-criterion for IOM
   NSW    =      0    number of steps for IOM
   NBLOCK =      1;   KBLOCK =      1    inner block; outer block 
   IBRION =     -1    ionic relax: 0-MD 1-quasi-New 2-CG
   NFREE  =      0    steps in history (QN), initial steepest desc. (CG)
   ISIF   =      2    stress and relaxation
   IWAVPR =     10    prediction:  0-non 1-charg 2-wave 3-comb
   ISYM   =      2    0-nonsym 1-usesym 2-fastsym
   LCORR  =      T    Harris-Foulkes like correction to forces

   POTIM  = 0.5000    time-step for ionic-motion
   TEIN   =    0.0    initial temperature
   TEBEG  =    0.0;   TEEND  =   0.0 temperature during run
   SMASS  =  -3.00    Nose mass-parameter (am)
   estimated Nose-frequenzy (Omega)   =  0.10E-29 period in steps =****** mass=  -0.540E-26a.u.
   SCALEE = 1.0000    scale energy and forces
   NPACO  =    256;   APACO  = 16.0  distance and # of slots for P.C.
   PSTRESS=    0.0 pullay stress

  Mass of Ions in am
   POMASS =   7.01 55.85 32.07 16.00
  Ionic Valenz
   ZVAL   =   3.00 14.00  6.00  6.00
  Atomic Wigner-Seitz radii
   RWIGS  =  -1.00 -1.00 -1.00 -1.00
  virtual crystal weights 
   VCA    =   1.00  1.00  1.00  1.00
   NELECT =    1024.0000    total number of electrons
   NUPDOWN=      -1.0000    fix difference up-down

 DOS related values:
   EMIN   =  10.00;   EMAX   =-10.00  energy-range for DOS
   EFERMI =   0.00
   ISMEAR =     0;   SIGMA  =   0.05  broadening in eV -4-tet -1-fermi 0-gaus

 Electronic relaxation 2 (details)
   IALGO  =     38    algorithm
   LDIAG  =      T    sub-space diagonalisation (order eigenvalues)
   LSUBROT=      F    optimize rotation matrix (better conditioning)
   TURBO    =      0    0=normal 1=particle mesh
   IRESTART =      0    0=no restart 2=restart with 2 vectors
   NREBOOT  =      0    no. of reboots
   NMIN     =      0    reboot dimension
   EREF     =   0.00    reference energy to select bands
   IMIX   =      4    mixing-type and parameters
     AMIX     =   0.40;   BMIX     =  1.00
     AMIX_MAG =   1.60;   BMIX_MAG =  1.00
     AMIN     =   0.10
     WC   =   100.;   INIMIX=   1;  MIXPRE=   1;  MAXMIX= -45

 Intra band minimization:
   WEIMIN = 0.0000     energy-eigenvalue tresh-hold
   EBREAK =  0.34E-11  absolut break condition
   DEPER  =   0.30     relativ break condition  

   TIME   =   0.40     timestep for ELM

  volume/ion in A,a.u.               =      12.16        82.03
  Fermi-wavevector in a.u.,A,eV,Ry     =   1.321914  2.498054 23.775576  1.747456
  Thomas-Fermi vector in A             =   2.451633
 
 Write flags
   LWAVE        =      F    write WAVECAR
   LDOWNSAMPLE  =      F    k-point downsampling of WAVECAR
   LCHARG       =      T    write CHGCAR
   LVTOT        =      F    write LOCPOT, total local potential
   LVHAR        =      F    write LOCPOT, Hartree potential only
   LELF         =      F    write electronic localiz. function (ELF)
   LORBIT       =      0    0 simple, 1 ext, 2 COOP (PROOUT), +10 PAW based schemes


 Dipole corrections
   LMONO  =      F    monopole corrections only (constant potential shift)
   LDIPOL =      F    correct potential (dipole corrections)
   IDIPOL =      0    1-x, 2-y, 3-z, 4-all directions 
   EPSILON=  1.0000000 bulk dielectric constant

 LDA+U is selected, type is set to LDAUTYPE =  2
   angular momentum for each species LDAUL =    -1    2   -1   -1
   U (eV)           for each species LDAUU =   0.0  4.0  0.0  0.0
   J (eV)           for each species LDAUJ =   0.0  0.0  0.0  0.0
 Exchange correlation treatment:
   GGA     =    PE    GGA type
   LEXCH   =     8    internal setting for exchange type
   VOSKOWN=      0    Vosko Wilk Nusair interpolation
   LHFCALC =     F    Hartree Fock is set to
   LHFONE  =     F    Hartree Fock one center treatment
   AEXX    =    0.0000 exact exchange contribution

 Linear response parameters
   LEPSILON=     F    determine dielectric tensor
   LRPA    =     F    only Hartree local field effects (RPA)
   LNABLA  =     F    use nabla operator in PAW spheres
   LVEL    =     F    velocity operator in full k-point grid
   LINTERFAST=   F  fast interpolation
   KINTER  =     0    interpolate to denser k-point grid
   CSHIFT  =0.1000    complex shift for real part using Kramers Kronig
   OMEGAMAX=  -1.0    maximum frequency
   DEG_THRESHOLD= 0.2000000E-02 threshold for treating states as degnerate
   RTIME   =   -0.100 relaxation time in fs
  (WPLASMAI=    0.000 imaginary part of plasma frequency in eV, 0.658/RTIME)
   DFIELD  = 0.0000000 0.0000000 0.0000000 field for delta impulse in time
 
 Orbital magnetization related:
   ORBITALMAG=     F  switch on orbital magnetization
   LCHIMAG   =     F  perturbation theory with respect to B field
   DQ        =  0.001000  dq finite difference perturbation B field
   LLRAUG    =     F  two centre corrections for induced B field



--------------------------------------------------------------------------------------------------------


 Static calculation
 charge density and potential will be updated during run
 spin polarized calculation
 Variant of blocked Davidson
 Davidson routine will perform the subspace rotation
 perform sub-space diagonalisation
    after iterative eigenvector-optimisation
 modified Broyden-mixing scheme, WC =      100.0
 initial mixing is a Kerker type mixing with AMIX =  0.4000 and BMIX =      1.0000
 Hartree-type preconditioning will be used
 using additional bands          220
 reciprocal scheme for non local part
 use partial core corrections
 calculate Harris-corrections to forces 
   (improved forces if not selfconsistent)
 use gradient corrections 
 use of overlap-Matrix (Vanderbilt PP)
 Gauss-broadening in eV      SIGMA  =   0.05


--------------------------------------------------------------------------------------------------------


  energy-cutoff  :      650.00
  volume of cell :     1944.98
      direct lattice vectors                 reciprocal lattice vectors
    15.375637120  0.000000000  0.000000000     0.065037955  0.000000000  0.000000000
     0.000000000 11.247570840  0.082590060     0.000000000  0.088913005 -0.000669805
     0.000000000  0.084728700 11.247277940     0.000000000 -0.000652898  0.088915320

  length of vectors
    15.375637120 11.247874062 11.247597077     0.065037955  0.088915528  0.088917717


 
 k-points in units of 2pi/SCALE and weight: # No comment                            
   0.00000000  0.00000000  0.00000000       0.056
   0.03251898  0.00000000  0.00000000       0.056
   0.00000000  0.02963767 -0.00022327       0.111
   0.03251898  0.02963767 -0.00022327       0.111
   0.00000000 -0.00021763  0.02963844       0.111
   0.03251898 -0.00021763  0.02963844       0.111
   0.00000000  0.02942004  0.02941517       0.111
   0.03251898  0.02942004  0.02941517       0.111
   0.00000000 -0.02985530  0.02986171       0.111
   0.03251898 -0.02985530  0.02986171       0.111
 
 k-points in reciprocal lattice and weights: # No comment                            
   0.00000000  0.00000000  0.00000000       0.056
   0.50000000  0.00000000  0.00000000       0.056
   0.00000000  0.33333333 -0.00000000       0.111
   0.50000000  0.33333333 -0.00000000       0.111
   0.00000000 -0.00000000  0.33333333       0.111
   0.50000000 -0.00000000  0.33333333       0.111
   0.00000000  0.33333333  0.33333333       0.111
   0.50000000  0.33333333  0.33333333       0.111
   0.00000000 -0.33333333  0.33333333       0.111
   0.50000000 -0.33333333  0.33333333       0.111
 
 position of ions in fractional coordinates (direct lattice) 
   0.12525680  0.27553588  0.47453981
   0.62525680  0.27553588  0.47453981
   0.12525680  0.77553588  0.47453981
   0.62525680  0.77553588  0.47453981
   0.12525680  0.27553588  0.97453981
   0.62525680  0.27553588  0.97453981
   0.12525680  0.77553588  0.97453981
   0.62525680  0.77553588  0.97453981
   0.12525680  0.47446412  0.27546019
   0.62525680  0.47446412  0.27546019
   0.12525680  0.97446412  0.27546019
   0.62525680  0.97446412  0.27546019
   0.12525680  0.47446412  0.77546019
   0.62525680  0.47446412  0.77546019
   0.12525680  0.97446412  0.77546019
   0.62525680  0.97446412  0.77546019
   0.37474320  0.22446412  0.02546019
   0.87474320  0.22446412  0.02546019
   0.37474320  0.72446412  0.02546019
   0.87474320  0.72446412  0.02546019
   0.37474320  0.22446412  0.52546019
   0.87474320  0.22446412  0.52546019
   0.37474320  0.72446412  0.52546019
   0.87474320  0.72446412  0.52546019
   0.37474320  0.02553588  0.22453981
   0.87474320  0.02553588  0.22453981
   0.37474320  0.52553588  0.22453981
   0.87474320  0.52553588  0.22453981
   0.37474320  0.02553588  0.72453981
   0.87474320  0.02553588  0.72453981
   0.37474320  0.52553588  0.72453981
   0.87474320  0.52553588  0.72453981
   0.27547744  0.37447508  0.37500000
   0.77600236  0.37500000  0.37500000
   0.27600236  0.87500000  0.37500000
   0.77600236  0.87500000  0.37500000
   0.27600236  0.37500000  0.87500000
   0.77600236  0.37500000  0.87500000
   0.27600236  0.87500000  0.87500000
   0.77600236  0.87500000  0.87500000
   0.22399764  0.12500000  0.12500000
   0.72399764  0.12500000  0.12500000
   0.22399764  0.62500000  0.12500000
   0.72399764  0.62500000  0.12500000
   0.22399764  0.12500000  0.62500000
   0.72399764  0.12500000  0.62500000
   0.22399764  0.62500000  0.62500000
   0.72399764  0.62500000  0.62500000
   0.49994073  0.37500000  0.12500000
   0.99994073  0.37500000  0.12500000
   0.49994073  0.87500000  0.12500000
   0.99994073  0.87500000  0.12500000
   0.49994073  0.37500000  0.62500000
   0.99994073  0.37500000  0.62500000
   0.49994073  0.87500000  0.62500000
   0.99994073  0.87500000  0.62500000
   0.00005927  0.12500000  0.37500000
   0.50005927  0.12500000  0.37500000
   0.00005927  0.62500000  0.37500000
   0.50005927  0.62500000  0.37500000
   0.00005927  0.12500000  0.87500000
   0.50005927  0.12500000  0.87500000
   0.00005927  0.62500000  0.87500000
   0.50005927  0.62500000  0.87500000
   0.47912905  0.37500000  0.37500000
   0.97912905  0.37500000  0.37500000
   0.47912905  0.87500000  0.37500000
   0.97912905  0.87500000  0.37500000
   0.47912905  0.37500000  0.87500000
   0.97912905  0.37500000  0.87500000
   0.47912905  0.87500000  0.87500000
   0.97912905  0.87500000  0.87500000
   0.02087095  0.12500000  0.12500000
   0.52087095  0.12500000  0.12500000
   0.02087095  0.62500000  0.12500000
   0.52087095  0.62500000  0.12500000
   0.02087095  0.12500000  0.62500000
   0.52087095  0.12500000  0.62500000
   0.02087095  0.62500000  0.62500000
   0.52087095  0.62500000  0.62500000
   0.25003487  0.37500000  0.12500000
   0.75003487  0.37500000  0.12500000
   0.25003487  0.87500000  0.12500000
   0.75003487  0.87500000  0.12500000
   0.25003487  0.37500000  0.62500000
   0.75003487  0.37500000  0.62500000
   0.25003487  0.87500000  0.62500000
   0.75003487  0.87500000  0.62500000
   0.24996513  0.12500000  0.37500000
   0.74996513  0.12500000  0.37500000
   0.24996513  0.62500000  0.37500000
   0.74996513  0.62500000  0.37500000
   0.24996513  0.12500000  0.87500000
   0.74996513  0.12500000  0.87500000
   0.24996513  0.62500000  0.87500000
   0.74996513  0.62500000  0.87500000
   0.12546906  0.49959881  0.49958956
   0.62546906  0.49959881  0.49958956
   0.12546906  0.99959881  0.49958956
   0.62546906  0.99959881  0.49958956
   0.12546906  0.49959881  0.99958956
   0.62546906  0.49959881  0.99958956
   0.12546906  0.99959881  0.99958956
   0.62546906  0.99959881  0.99958956
   0.12546906  0.25040119  0.25041044
   0.62546906  0.25040119  0.25041044
   0.12546906  0.75040119  0.25041044
   0.62546906  0.75040119  0.25041044
   0.12546906  0.25040119  0.75041044
   0.62546906  0.25040119  0.75041044
   0.12546906  0.75040119  0.75041044
   0.62546906  0.75040119  0.75041044
   0.37453094  0.00040119  0.00041044
   0.87453094  0.00040119  0.00041044
   0.37453094  0.50040119  0.00041044
   0.87453094  0.50040119  0.00041044
   0.37453094  0.00040119  0.50041044
   0.87453094  0.00040119  0.50041044
   0.37453094  0.50040119  0.50041044
   0.87453094  0.50040119  0.50041044
   0.37453094  0.24959881  0.24958956
   0.87453094  0.24959881  0.24958956
   0.37453094  0.74959881  0.24958956
   0.87453094  0.74959881  0.24958956
   0.37453094  0.24959881  0.74958956
   0.87453094  0.24959881  0.74958956
   0.37453094  0.74959881  0.74958956
   0.87453094  0.74959881  0.74958956
   0.00000000  0.25000000  0.00000000
   0.50000000  0.25000000  0.00000000
   0.00000000  0.75000000  0.00000000
   0.50000000  0.75000000  0.00000000
   0.00000000  0.25000000  0.50000000
   0.50000000  0.25000000  0.50000000
   0.00000000  0.75000000  0.50000000
   0.50000000  0.75000000  0.50000000
   0.00000000  0.00000000  0.25000000
   0.50000000  0.00000000  0.25000000
   0.00000000  0.50000000  0.25000000
   0.50000000  0.50000000  0.25000000
   0.00000000  0.00000000  0.75000000
   0.50000000  0.00000000  0.75000000
   0.00000000  0.50000000  0.75000000
   0.50000000  0.50000000  0.75000000
   0.25000000  0.25000000  0.00000000
   0.75000000  0.25000000  0.00000000
   0.25000000  0.75000000  0.00000000
   0.75000000  0.75000000  0.00000000
   0.25000000  0.25000000  0.50000000
   0.75000000  0.25000000  0.50000000
   0.25000000  0.75000000  0.50000000
   0.75000000  0.75000000  0.50000000
   0.25000000  0.00000000  0.25000000
   0.75000000  0.00000000  0.25000000
   0.25000000  0.50000000  0.25000000
   0.75000000  0.50000000  0.25000000
   0.25000000  0.00000000  0.75000000
   0.75000000  0.00000000  0.75000000
   0.25000000  0.50000000  0.75000000
   0.75000000  0.50000000  0.75000000
 
 position of ions in cartesian coordinates  (Angst):
   1.92590310  3.13931647  5.36003766
   9.61372166  3.13931647  5.36003766
   1.92590310  8.76310189  5.40133269
   9.61372166  8.76310189  5.40133269
   1.92590310  3.18168082 10.98367663
   9.61372166  3.18168082 10.98367663
   1.92590310  8.80546624 11.02497166
   9.61372166  8.80546624 11.02497166
   1.92590310  5.35990818  3.13736334
   9.61372166  5.35990818  3.13736334
   1.92590310 10.98369360  3.17865837
   9.61372166 10.98369360  3.17865837
   1.92590310  5.40227253  8.76100231
   9.61372166  5.40227253  8.76100231
   1.92590310 11.02605795  8.80229734
   9.61372166 11.02605795  8.80229734
   5.76191546  2.52683330  0.30489634
  13.44973402  2.52683330  0.30489634
   5.76191546  8.15061872  0.34619137
  13.44973402  8.15061872  0.34619137
   5.76191546  2.56919765  5.92853531
  13.44973402  2.56919765  5.92853531
   5.76191546  8.19298307  5.96983034
  13.44973402  8.19298307  5.96983034
   5.76191546  0.30624159  2.52757066
  13.44973402  0.30624159  2.52757066
   5.76191546  5.93002701  2.56886569
  13.44973402  5.93002701  2.56886569
   5.76191546  0.34860594  8.15120963
  13.44973402  0.34860594  8.15120963
   5.76191546  5.97239136  8.19250466
  13.44973402  5.97239136  8.19250466
   4.23564118  4.24370827  4.24865715
  11.93153069  4.24961233  4.24870050
   4.24371213  9.87339775  4.28999553
  11.93153069  9.87339775  4.28999553
   4.24371213  4.29197668  9.87233947
  11.93153069  4.29197668  9.87233947
   4.24371213  9.91576210  9.91363450
  11.93153069  9.91576210  9.91363450
   3.44410643  1.41653744  1.41623350
  11.13192499  1.41653744  1.41623350
   3.44410643  7.04032286  1.45752853
  11.13192499  7.04032286  1.45752853
   3.44410643  1.45890179  7.03987247
  11.13192499  1.45890179  7.03987247
   3.44410643  7.08268721  7.08116750
  11.13192499  7.08268721  7.08116750
   7.68690717  4.22843015  1.43688101
  15.37472573  4.22843015  1.43688101
   7.68690717  9.85221557  1.47817605
  15.37472573  9.85221557  1.47817605
   7.68690717  4.27079450  7.06051999
  15.37472573  4.27079450  7.06051999
   7.68690717  9.89457992  7.10181502
  15.37472573  9.89457992  7.10181502
   0.00091139  1.43771962  4.22805298
   7.68872995  1.43771962  4.22805298
   0.00091139  7.06150504  4.26934801
   7.68872995  7.06150504  4.26934801
   0.00091139  1.48008397  9.85169195
   7.68872995  1.48008397  9.85169195
   0.00091139  7.10386939  9.89298699
   7.68872995  7.10386939  9.89298699
   7.36691433  4.24961233  4.24870050
  15.05473289  4.24961233  4.24870050
   7.36691433  9.87339775  4.28999553
  15.05473289  9.87339775  4.28999553
   7.36691433  4.29197668  9.87233947
  15.05473289  4.29197668  9.87233947
   7.36691433  9.91576210  9.91363450
  15.05473289  9.91576210  9.91363450
   0.32090423  1.41653744  1.41623350
   8.00872279  1.41653744  1.41623350
   0.32090423  7.04032286  1.45752853
   8.00872279  7.04032286  1.45752853
   0.32090423  1.45890179  7.03987247
   8.00872279  1.45890179  7.03987247
   0.32090423  7.08268721  7.08116750
   8.00872279  7.08268721  7.08116750
   3.84444535  4.22843015  1.43688101
  11.53226391  4.22843015  1.43688101
   3.84444535  9.85221557  1.47817605
  11.53226391  9.85221557  1.47817605
   3.84444535  4.27079450  7.06051999
  11.53226391  4.27079450  7.06051999
   3.84444535  9.89457992  7.10181502
  11.53226391  9.89457992  7.10181502
   3.84337321  1.43771962  4.22805298
  11.53119177  1.43771962  4.22805298
   3.84337321  7.06150504  4.26934801
  11.53119177  7.06150504  4.26934801
   3.84337321  1.48008397  9.85169195
  11.53119177  1.48008397  9.85169195
   3.84337321  7.10386939  9.89298699
  11.53119177  7.10386939  9.89298699
   1.92916681  5.66160258  5.66028448
   9.61698537  5.66160258  5.66028448
   1.92916681 11.28538800  5.70157951
   9.61698537 11.28538800  5.70157951
   1.92916681  5.70396693 11.28392345
   9.61698537  5.70396693 11.28392345
   1.92916681 11.32775235 11.32521848
   9.61698537 11.32775235 11.32521848
   1.92916681  2.83762207  2.83711652
   9.61698537  2.83762207  2.83711652
   1.92916681  8.46140749  2.87841155
   9.61698537  8.46140749  2.87841155
   1.92916681  2.87998642  8.46075549
   9.61698537  2.87998642  8.46075549
   1.92916681  8.50377184  8.50205052
   9.61698537  8.50377184  8.50205052
   5.75865175  0.00454719  0.00464952
  13.44647031  0.00454719  0.00464952
   5.75865175  5.62833261  0.04594455
  13.44647031  5.62833261  0.04594455
   5.75865175  0.04691154  5.62828849
  13.44647031  0.04691154  5.62828849
   5.75865175  5.67069696  5.66958352
  13.44647031  5.67069696  5.66958352
   5.75865175  2.82852770  2.82781748
  13.44647031  2.82852770  2.82781748
   5.75865175  8.45231312  2.86911251
  13.44647031  8.45231312  2.86911251
   5.75865175  2.87089205  8.45145645
  13.44647031  2.87089205  8.45145645
   5.75865175  8.49467747  8.49275148
  13.44647031  8.49467747  8.49275148
   0.00000000  2.81189271  0.02064752
   7.68781856  2.81189271  0.02064752
   0.00000000  8.43567813  0.06194255
   7.68781856  8.43567813  0.06194255
   0.00000000  2.85425706  5.64428649
   7.68781856  2.85425706  5.64428649
   0.00000000  8.47804248  5.68558151
   7.68781856  8.47804248  5.68558151
   0.00000000  0.02118218  2.81181949
   7.68781856  0.02118218  2.81181949
   0.00000000  5.64496759  2.85311452
   7.68781856  5.64496759  2.85311452
   0.00000000  0.06354653  8.43545845
   7.68781856  0.06354653  8.43545845
   0.00000000  5.68733194  8.47675348
   7.68781856  5.68733194  8.47675348
   3.84390928  2.81189271  0.02064752
  11.53172784  2.81189271  0.02064752
   3.84390928  8.43567813  0.06194255
  11.53172784  8.43567813  0.06194255
   3.84390928  2.85425706  5.64428649
  11.53172784  2.85425706  5.64428649
   3.84390928  8.47804248  5.68558151
  11.53172784  8.47804248  5.68558151
   3.84390928  0.02118218  2.81181949
  11.53172784  0.02118218  2.81181949
   3.84390928  5.64496759  2.85311452
  11.53172784  5.64496759  2.85311452
   3.84390928  0.06354653  8.43545845
  11.53172784  0.06354653  8.43545845
   3.84390928  5.68733194  8.47675348
  11.53172784  5.68733194  8.47675348
 


--------------------------------------------------------------------------------------------------------


 k-point  1 :   0.0000 0.0000 0.0000  plane waves:   73163
 k-point  2 :   0.5000 0.0000 0.0000  plane waves:   73208
 k-point  3 :   0.0000 0.3333-0.0000  plane waves:   73197
 k-point  4 :   0.5000 0.3333-0.0000  plane waves:   73182
 k-point  5 :   0.0000-0.0000 0.3333  plane waves:   73195
 k-point  6 :   0.5000-0.0000 0.3333  plane waves:   73178
 k-point  7 :   0.0000 0.3333 0.3333  plane waves:   73141
 k-point  8 :   0.5000 0.3333 0.3333  plane waves:   73198
 k-point  9 :   0.0000-0.3333 0.3333  plane waves:   73095
 k-point 10 :   0.5000-0.3333 0.3333  plane waves:   73224

 maximum and minimum number of plane-waves per node :     12268    12150

 maximum number of plane-waves:     73224
 maximum index in each direction: 
   IXMAX=   31   IYMAX=   23   IZMAX=   23
   IXMIN=  -32   IYMIN=  -23   IZMIN=  -23


 parallel 3D FFT for wavefunctions:
    minimum data exchange during FFTs selected (reduces bandwidth)
 parallel 3D FFT for charge:
    minimum data exchange during FFTs selected (reduces bandwidth)


 total amount of memory used by VASP MPI-rank0   985864. kBytes
=======================================================================

   base      :      30000. kBytes
   nonl-proj :     102069. kBytes
   fftplans  :      64934. kBytes
   grid      :      55554. kBytes
   one-center:        839. kBytes
   wavefun   :     732468. kBytes
 
     INWAV:  cpu time    0.0000: real time    0.0000
 Broyden mixing: mesh for mixing (old mesh)
   NGX = 63   NGY = 47   NGZ = 47
  (NGX  =256   NGY  =192   NGZ  =192)
  gives a total of 139167 points

 initial charge density was supplied:
 number of electron    1024.0000024 magnetization     128.0000040
 keeping initial charge density in first step


--------------------------------------------------------------------------------------------------------


 Maximum index for augmentation-charges         8015 (set IRDMAX)


--------------------------------------------------------------------------------------------------------


 First call to EWALD:  gamma=   0.142
 Maximum number of real-space cells 2x 3x 3
 Maximum number of reciprocal cells 3x 3x 3

    FEWALD:  cpu time    0.0156: real time    0.0161


--------------------------------------- Iteration      1(   1)  ---------------------------------------


    POTLOK:  cpu time    0.6915: real time    0.7095
    SETDIJ:  cpu time    1.6810: real time    1.7026
     EDDAV:  cpu time  364.7407: real time  371.5389
       DOS:  cpu time    0.0047: real time    0.0047
    --------------------------------------------
      LOOP:  cpu time  367.1179: real time  373.9557

 eigenvalue-minimisations  : 30712
 total energy-change (2. order) : 0.1347182E+05  (-0.5518314E+05)
 number of electron    1024.0000024 magnetization     128.0000040
 augmentation part     1024.0000024 magnetization     128.0000040

 Free energy of the ion-electron system (eV)
  ---------------------------------------------------
  alpha Z        PSCENC =      2580.95227926
  Ewald energy   TEWEN  =    -67508.62936292
  -Hartree energ DENC   =    -35943.99124942
  -exchange      EXHF   =         0.00000000
  -V(xc)+E(xc)   XCENC  =      4397.38251483
  PAW double counting   =    108731.45464712  -112348.03830957
  entropy T*S    EENTRO =        -0.03732816
  eigenvalues    EBANDS =      -746.55553636
  atomic energy  EATOM  =    114309.28505226
  Solvation  Ediel_sol  =         0.00000000
  ---------------------------------------------------
  free energy    TOTEN  =     13471.82270705 eV

  energy without entropy =    13471.86003521  energy(sigma->0) =    13471.84137113


--------------------------------------------------------------------------------------------------------




--------------------------------------- Iteration      1(   2)  ---------------------------------------


     EDDAV:  cpu time  351.5996: real time  357.9702
       DOS:  cpu time    0.0046: real time    0.0046
    --------------------------------------------
      LOOP:  cpu time  351.6042: real time  357.9748

 eigenvalue-minimisations  : 29280
 total energy-change (2. order) :-0.1205990E+05  (-0.1121275E+05)
 number of electron    1024.0000024 magnetization     128.0000040
 augmentation part     1024.0000024 magnetization     128.0000040

 Free energy of the ion-electron system (eV)
  ---------------------------------------------------
  alpha Z        PSCENC =      2580.95227926
  Ewald energy   TEWEN  =    -67508.62936292
  -Hartree energ DENC   =    -35943.99124942
  -exchange      EXHF   =         0.00000000
  -V(xc)+E(xc)   XCENC  =      4397.38251483
  PAW double counting   =    108731.45464712  -112348.03830957
  entropy T*S    EENTRO =        -0.06511317
  eigenvalues    EBANDS =    -12806.42829540
  atomic energy  EATOM  =    114309.28505226
  Solvation  Ediel_sol  =         0.00000000
  ---------------------------------------------------
  free energy    TOTEN  =      1411.92216300 eV

  energy without entropy =     1411.98727617  energy(sigma->0) =     1411.95471959


--------------------------------------------------------------------------------------------------------




--------------------------------------- Iteration      1(   3)  ---------------------------------------


     EDDAV:  cpu time  384.8179: real time  392.0351
       DOS:  cpu time    0.0017: real time    0.0017
    --------------------------------------------
      LOOP:  cpu time  384.8196: real time  392.0368

 eigenvalue-minimisations  : 32896
 total energy-change (2. order) :-0.1937290E+04  (-0.1738701E+04)
 number of electron    1024.0000024 magnetization     128.0000040
 augmentation part     1024.0000024 magnetization     128.0000040

 Free energy of the ion-electron system (eV)
  ---------------------------------------------------
  alpha Z        PSCENC =      2580.95227926
  Ewald energy   TEWEN  =    -67508.62936292
  -Hartree energ DENC   =    -35943.99124942
  -exchange      EXHF   =         0.00000000
  -V(xc)+E(xc)   XCENC  =      4397.38251483
  PAW double counting   =    108731.45464712  -112348.03830957
  entropy T*S    EENTRO =        -0.00000000
  eigenvalues    EBANDS =    -14743.78339522
  atomic energy  EATOM  =    114309.28505226
  Solvation  Ediel_sol  =         0.00000000
  ---------------------------------------------------
  free energy    TOTEN  =      -525.36782365 eV

  energy without entropy =     -525.36782365  energy(sigma->0) =     -525.36782365


--------------------------------------------------------------------------------------------------------




--------------------------------------- Iteration      1(   4)  ---------------------------------------


     EDDAV:  cpu time  437.1343: real time  444.3282
       DOS:  cpu time    0.0018: real time    0.0018
    --------------------------------------------
      LOOP:  cpu time  437.1362: real time  444.3301

 eigenvalue-minimisations  : 39320
 total energy-change (2. order) :-0.2634293E+03  (-0.2605555E+03)
 number of electron    1024.0000024 magnetization     128.0000040
 augmentation part     1024.0000024 magnetization     128.0000040

 Free energy of the ion-electron system (eV)
  ---------------------------------------------------
  alpha Z        PSCENC =      2580.95227926
  Ewald energy   TEWEN  =    -67508.62936292
  -Hartree energ DENC   =    -35943.99124942
  -exchange      EXHF   =         0.00000000
  -V(xc)+E(xc)   XCENC  =      4397.38251483
  PAW double counting   =    108731.45464712  -112348.03830957
  entropy T*S    EENTRO =        -0.00000000
  eigenvalues    EBANDS =    -15007.21267884
  atomic energy  EATOM  =    114309.28505226
  Solvation  Ediel_sol  =         0.00000000
  ---------------------------------------------------
  free energy    TOTEN  =      -788.79710727 eV

  energy without entropy =     -788.79710727  energy(sigma->0) =     -788.79710727


--------------------------------------------------------------------------------------------------------




--------------------------------------- Iteration      1(   5)  ---------------------------------------


     EDDAV:  cpu time  557.3562: real time  567.8457
       DOS:  cpu time    0.0021: real time    0.0021
    CHARGE:  cpu time    8.8210: real time    8.8304
    MIXING:  cpu time    0.0196: real time    0.0196
    --------------------------------------------
      LOOP:  cpu time  566.1990: real time  576.6979

 eigenvalue-minimisations  : 51408
 total energy-change (2. order) :-0.3176685E+02  (-0.3151237E+02)
 number of electron    1024.0000024 magnetization     128.0000033
 augmentation part      329.1793727 magnetization      84.1797090

 Broyden mixing:
  rms(total) = 0.31988E+00    rms(broyden)= 0.31954E+00
  rms(prec ) = 0.32333E+00
  weight for this iteration     100.00

 Free energy of the ion-electron system (eV)
  ---------------------------------------------------
  alpha Z        PSCENC =      2580.95227926
  Ewald energy   TEWEN  =    -67508.62936292
  -Hartree energ DENC   =    -35943.99124942
  -exchange      EXHF   =         0.00000000
  -V(xc)+E(xc)   XCENC  =      4397.38251483
  PAW double counting   =    108731.45464712  -112348.03830957
  entropy T*S    EENTRO =        -0.00000000
  eigenvalues    EBANDS =    -15038.97952607
  atomic energy  EATOM  =    114309.28505226
  Solvation  Ediel_sol  =         0.00000000
  ---------------------------------------------------
  free energy    TOTEN  =      -820.56395450 eV

  energy without entropy =     -820.56395450  energy(sigma->0) =     -820.56395450


--------------------------------------------------------------------------------------------------------




--------------------------------------- Iteration      1(   6)  ---------------------------------------


    POTLOK:  cpu time    0.6643: real time    0.6648
    SETDIJ:  cpu time    1.6743: real time    1.6746
     EDDAV:  cpu time  456.7728: real time  465.2023
       DOS:  cpu time    0.0023: real time    0.0023
    CHARGE:  cpu time    8.8118: real time    8.8145
    MIXING:  cpu time    0.0238: real time    0.0306
    --------------------------------------------
      LOOP:  cpu time  467.9493: real time  476.3891

 eigenvalue-minimisations  : 40664
 total energy-change (2. order) :-0.1432062E+01  (-0.1478736E+01)
 number of electron    1024.0000024 magnetization     128.0000028
 augmentation part      327.4330971 magnetization      84.3764168

 Broyden mixing:
  rms(total) = 0.13538E+00    rms(broyden)= 0.13506E+00
  rms(prec ) = 0.13607E+00
  weight for this iteration     100.00

 eigenvalues of (default mixing * dielectric matrix)
  average eigenvalue GAMMA=   0.6613
  0.6613

 Free energy of the ion-electron system (eV)
  ---------------------------------------------------
  alpha Z        PSCENC =      2580.95227926
  Ewald energy   TEWEN  =    -67508.62936292
  -Hartree energ DENC   =    -35935.66371097
  -exchange      EXHF   =         0.00000000
  -V(xc)+E(xc)   XCENC  =      4396.14082777
  PAW double counting   =    108538.83412596  -112149.84815857
  entropy T*S    EENTRO =        -0.00000000
  eigenvalues    EBANDS =    -15053.06706908
  atomic energy  EATOM  =    114309.28505226
  Solvation  Ediel_sol  =         0.00000000
  ---------------------------------------------------
  free energy    TOTEN  =      -821.99601629 eV

  energy without entropy =     -821.99601629  energy(sigma->0) =     -821.99601629


--------------------------------------------------------------------------------------------------------




--------------------------------------- Iteration      1(   7)  ---------------------------------------


    POTLOK:  cpu time    0.6665: real time    0.6686
    SETDIJ:  cpu time    1.6693: real time    1.6697
     EDDAV:  cpu time  513.9459: real time  523.0258
       DOS:  cpu time    0.0018: real time    0.0018
    CHARGE:  cpu time    8.6143: real time    8.6457
    MIXING:  cpu time    0.0272: real time    0.0272
    --------------------------------------------
      LOOP:  cpu time  524.9251: real time  534.0388

 eigenvalue-minimisations  : 47400
 total energy-change (2. order) :-0.7104996E-01  (-0.7035436E-01)
 number of electron    1024.0000024 magnetization     128.0000026
 augmentation part      327.1416384 magnetization      84.3027025

 Broyden mixing:
  rms(total) = 0.98232E-01    rms(broyden)= 0.98113E-01
  rms(prec ) = 0.99580E-01
  weight for this iteration     100.00

 eigenvalues of (default mixing * dielectric matrix)
  average eigenvalue GAMMA=   0.5988
  0.5988  0.5988

 Free energy of the ion-electron system (eV)
  ---------------------------------------------------
  alpha Z        PSCENC =      2580.95227926
  Ewald energy   TEWEN  =    -67508.62936292
  -Hartree energ DENC   =    -35938.31078287
  -exchange      EXHF   =         0.00000000
  -V(xc)+E(xc)   XCENC  =      4396.48478861
  PAW double counting   =    108583.32947147  -112195.79335419
  entropy T*S    EENTRO =        -0.00000000
  eigenvalues    EBANDS =    -15049.38515786
  atomic energy  EATOM  =    114309.28505226
  Solvation  Ediel_sol  =         0.00000000
  ---------------------------------------------------
  free energy    TOTEN  =      -822.06706625 eV

  energy without entropy =     -822.06706625  energy(sigma->0) =     -822.06706625


--------------------------------------------------------------------------------------------------------




--------------------------------------- Iteration      1(   8)  ---------------------------------------


    POTLOK:  cpu time    0.6549: real time    0.6719
    SETDIJ:  cpu time    1.6757: real time    1.6870
     EDDAV:  cpu time  487.7102: real time  497.3768
       DOS:  cpu time    0.0017: real time    0.0017
    CHARGE:  cpu time    8.5070: real time    8.6365
    MIXING:  cpu time    0.0229: real time    0.0229
    --------------------------------------------
      LOOP:  cpu time  498.5724: real time  508.3967

 eigenvalue-minimisations  : 44560
 total energy-change (2. order) :-0.2140462E-04  (-0.2742870E-02)
 number of electron    1024.0000024 magnetization     128.0000026
 augmentation part      327.0916507 magnetization      84.2872803

 Broyden mixing:
  rms(total) = 0.85199E-01    rms(broyden)= 0.85188E-01
  rms(prec ) = 0.86503E-01
  weight for this iteration     100.00

 eigenvalues of (default mixing * dielectric matrix)
  average eigenvalue GAMMA=   0.5368
  0.6162  0.6162  0.3780

 Free energy of the ion-electron system (eV)
  ---------------------------------------------------
  alpha Z        PSCENC =      2580.95227926
  Ewald energy   TEWEN  =    -67508.62936292
  -Hartree energ DENC   =    -35939.16909874
  -exchange      EXHF   =         0.00000000
  -V(xc)+E(xc)   XCENC  =      4396.62873091
  PAW double counting   =    108609.77969510  -112222.97599109
  entropy T*S    EENTRO =        -0.00000000
  eigenvalues    EBANDS =    -15047.93839242
  atomic energy  EATOM  =    114309.28505226
  Solvation  Ediel_sol  =         0.00000000
  ---------------------------------------------------
  free energy    TOTEN  =      -822.06708765 eV

  energy without entropy =     -822.06708765  energy(sigma->0) =     -822.06708765


--------------------------------------------------------------------------------------------------------




--------------------------------------- Iteration      1(   9)  ---------------------------------------


    POTLOK:  cpu time    0.7390: real time    0.7413
    SETDIJ:  cpu time    1.6457: real time    1.6460
     EDDAV:  cpu time  512.2060: real time  522.2258
       DOS:  cpu time    0.0026: real time    0.0027
    CHARGE:  cpu time    8.6805: real time    8.7782
    MIXING:  cpu time    0.0277: real time    0.0293
    --------------------------------------------
      LOOP:  cpu time  523.3015: real time  533.4234

 eigenvalue-minimisations  : 47336
 total energy-change (2. order) : 0.8934637E-03  (-0.1721594E-03)
 number of electron    1024.0000024 magnetization     128.0000025
 augmentation part      327.1007811 magnetization      84.2819279

 Broyden mixing:
  rms(total) = 0.78563E-01    rms(broyden)= 0.78563E-01
  rms(prec ) = 0.79754E-01
  weight for this iteration     100.00

 eigenvalues of (default mixing * dielectric matrix)
  average eigenvalue GAMMA=   0.5299
  0.6458  0.6458  0.4141  0.4141

 Free energy of the ion-electron system (eV)
  ---------------------------------------------------
  alpha Z        PSCENC =      2580.95227926
  Ewald energy   TEWEN  =    -67508.62936292
  -Hartree energ DENC   =    -35939.41417415
  -exchange      EXHF   =         0.00000000
  -V(xc)+E(xc)   XCENC  =      4396.68532018
  PAW double counting   =    108617.39092594  -112230.83715838
  entropy T*S    EENTRO =        -0.00000000
  eigenvalues    EBANDS =    -15047.49907638
  atomic energy  EATOM  =    114309.28505226
  Solvation  Ediel_sol  =         0.00000000
  ---------------------------------------------------
  free energy    TOTEN  =      -822.06619419 eV

  energy without entropy =     -822.06619419  energy(sigma->0) =     -822.06619419


--------------------------------------------------------------------------------------------------------




--------------------------------------- Iteration      1(  10)  ---------------------------------------


    POTLOK:  cpu time    0.6677: real time    0.6730
    SETDIJ:  cpu time    1.6873: real time    1.7084
     EDDAV:  cpu time  525.1670: real time  535.1063
       DOS:  cpu time    0.0019: real time    0.0019
    CHARGE:  cpu time    8.7026: real time    8.7048
    MIXING:  cpu time    0.0307: real time    0.0307
    --------------------------------------------
      LOOP:  cpu time  536.2573: real time  546.2251

 eigenvalue-minimisations  : 48496
 total energy-change (2. order) : 0.4122028E-03  (-0.1636074E-04)
 number of electron    1024.0000024 magnetization     128.0000021
 augmentation part      327.1062578 magnetization      84.2810963

 Broyden mixing:
  rms(total) = 0.75299E-01    rms(broyden)= 0.75299E-01
  rms(prec ) = 0.76419E-01
  weight for this iteration     100.00

 eigenvalues of (default mixing * dielectric matrix)
  average eigenvalue GAMMA=   0.7418
  1.0665  1.0665  0.5694  0.5694  0.4373

 Free energy of the ion-electron system (eV)
  ---------------------------------------------------
  alpha Z        PSCENC =      2580.95227926
  Ewald energy   TEWEN  =    -67508.62936292
  -Hartree energ DENC   =    -35939.61202796
  -exchange      EXHF   =         0.00000000
  -V(xc)+E(xc)   XCENC  =      4396.71698843
  PAW double counting   =    108621.38183952  -112234.96291513
  entropy T*S    EENTRO =        -0.00000000
  eigenvalues    EBANDS =    -15047.19763545
  atomic energy  EATOM  =    114309.28505226
  Solvation  Ediel_sol  =         0.00000000
  ---------------------------------------------------
  free energy    TOTEN  =      -822.06578199 eV

  energy without entropy =     -822.06578199  energy(sigma->0) =     -822.06578199


--------------------------------------------------------------------------------------------------------




--------------------------------------- Iteration      1(  11)  ---------------------------------------


    POTLOK:  cpu time    0.6902: real time    0.6905
    SETDIJ:  cpu time    1.6798: real time    1.6801
     EDDAV:  cpu time  552.0068: real time  561.9680
       DOS:  cpu time    0.0017: real time    0.0017
    CHARGE:  cpu time    8.7763: real time    8.8258
    MIXING:  cpu time    0.0427: real time    0.0431
    --------------------------------------------
      LOOP:  cpu time  563.1974: real time  573.2090

 eigenvalue-minimisations  : 51736
 total energy-change (2. order) : 0.2783801E-02  (-0.1070838E-03)
 number of electron    1024.0000024 magnetization     128.0000020
 augmentation part      327.1307804 magnetization      84.2806491

 Broyden mixing:
  rms(total) = 0.46105E-01    rms(broyden)= 0.46104E-01
  rms(prec ) = 0.46701E-01
  weight for this iteration     100.00

 eigenvalues of (default mixing * dielectric matrix)
  average eigenvalue GAMMA=   0.7210
  1.1557  1.1557  0.6001  0.6001  0.4072  0.4072

 Free energy of the ion-electron system (eV)
  ---------------------------------------------------
  alpha Z        PSCENC =      2580.95227926
  Ewald energy   TEWEN  =    -67508.62936292
  -Hartree energ DENC   =    -35941.34876516
  -exchange      EXHF   =         0.00000000
  -V(xc)+E(xc)   XCENC  =      4397.00081427
  PAW double counting   =    108661.72669153  -112276.61068449
  entropy T*S    EENTRO =        -0.00000000
  eigenvalues    EBANDS =    -15044.43902293
  atomic energy  EATOM  =    114309.28505226
  Solvation  Ediel_sol  =         0.00000000
  ---------------------------------------------------
  free energy    TOTEN  =      -822.06299819 eV

  energy without entropy =     -822.06299819  energy(sigma->0) =     -822.06299819


--------------------------------------------------------------------------------------------------------




--------------------------------------- Iteration      1(  12)  ---------------------------------------


    POTLOK:  cpu time    0.6593: real time    0.6663
    SETDIJ:  cpu time    1.7052: real time    1.7123
     EDDAV:  cpu time  428.6490: real time  436.5313
       DOS:  cpu time    0.0017: real time    0.0017
    CHARGE:  cpu time    8.5950: real time    8.7383
    MIXING:  cpu time    0.0332: real time    0.0332
    --------------------------------------------
      LOOP:  cpu time  439.6434: real time  447.6831

 eigenvalue-minimisations  : 37928
 total energy-change (2. order) : 0.1819718E-03  (-0.4989029E-04)
 number of electron    1024.0000024 magnetization     128.0000017
 augmentation part      327.1408322 magnetization      84.2796890

 Broyden mixing:
  rms(total) = 0.41356E-01    rms(broyden)= 0.41356E-01
  rms(prec ) = 0.41869E-01
  weight for this iteration     100.00

 eigenvalues of (default mixing * dielectric matrix)
  average eigenvalue GAMMA=   0.8090
  1.4170  1.4170  0.7020  0.7020  0.4981  0.4981  0.4285

 Free energy of the ion-electron system (eV)
  ---------------------------------------------------
  alpha Z        PSCENC =      2580.95227926
  Ewald energy   TEWEN  =    -67508.62936292
  -Hartree energ DENC   =    -35941.63555859
  -exchange      EXHF   =         0.00000000
  -V(xc)+E(xc)   XCENC  =      4397.03989335
  PAW double counting   =    108668.01240082  -112283.06621594
  entropy T*S    EENTRO =        -0.00000000
  eigenvalues    EBANDS =    -15044.02130445
  atomic energy  EATOM  =    114309.28505226
  Solvation  Ediel_sol  =         0.00000000
  ---------------------------------------------------
  free energy    TOTEN  =      -822.06281621 eV

  energy without entropy =     -822.06281621  energy(sigma->0) =     -822.06281621


--------------------------------------------------------------------------------------------------------




--------------------------------------- Iteration      1(  13)  ---------------------------------------


    POTLOK:  cpu time    0.6596: real time    0.6642
    SETDIJ:  cpu time    1.6792: real time    1.6884
     EDDAV:  cpu time  537.5236: real time  547.5311
       DOS:  cpu time    0.0018: real time    0.0018
    CHARGE:  cpu time    8.3728: real time    8.7185
    MIXING:  cpu time    0.0359: real time    0.0359
    --------------------------------------------
      LOOP:  cpu time  548.2729: real time  558.6398

 eigenvalue-minimisations  : 50104
 total energy-change (2. order) : 0.5378331E-03  (-0.2023426E-04)
 number of electron    1024.0000024 magnetization     128.0000016
 augmentation part      327.1508899 magnetization      84.2796881

 Broyden mixing:
  rms(total) = 0.29345E-01    rms(broyden)= 0.29345E-01
  rms(prec ) = 0.29672E-01
  weight for this iteration     100.00

 eigenvalues of (default mixing * dielectric matrix)
  average eigenvalue GAMMA=   0.8191
  1.5706  1.5706  0.7684  0.7684  0.5197  0.5197  0.4178  0.4178

 Free energy of the ion-electron system (eV)
  ---------------------------------------------------
  alpha Z        PSCENC =      2580.95227926
  Ewald energy   TEWEN  =    -67508.62936292
  -Hartree energ DENC   =    -35942.36327999
  -exchange      EXHF   =         0.00000000
  -V(xc)+E(xc)   XCENC  =      4397.15094632
  PAW double counting   =    108685.16007041  -112300.68831660
  entropy T*S    EENTRO =        -0.00000000
  eigenvalues    EBANDS =    -15042.92966712
  atomic energy  EATOM  =    114309.28505226
  Solvation  Ediel_sol  =         0.00000000
  ---------------------------------------------------
  free energy    TOTEN  =      -822.06227838 eV

  energy without entropy =     -822.06227838  energy(sigma->0) =     -822.06227838


--------------------------------------------------------------------------------------------------------




--------------------------------------- Iteration      1(  14)  ---------------------------------------


    POTLOK:  cpu time    0.6758: real time    0.6802
    SETDIJ:  cpu time    1.6876: real time    1.7016
     EDDAV:  cpu time  477.8546: real time  487.3601
       DOS:  cpu time    0.0020: real time    0.0020
    CHARGE:  cpu time    8.8802: real time    8.8825
    MIXING:  cpu time    0.0247: real time    0.0248
    --------------------------------------------
      LOOP:  cpu time  489.1248: real time  498.6511

 eigenvalue-minimisations  : 43000
 total energy-change (2. order) : 0.9756754E-04  (-0.1052228E-04)
 number of electron    1024.0000024 magnetization     128.0000013
 augmentation part      327.1555286 magnetization      84.2793164

 Broyden mixing:
  rms(total) = 0.25069E-01    rms(broyden)= 0.25069E-01
  rms(prec ) = 0.25344E-01
  weight for this iteration     100.00

 eigenvalues of (default mixing * dielectric matrix)
  average eigenvalue GAMMA=   0.9644
  2.0739  2.0739  0.9544  0.9544  0.6160  0.6160  0.4841  0.4841  0.4232

 Free energy of the ion-electron system (eV)
  ---------------------------------------------------
  alpha Z        PSCENC =      2580.95227926
  Ewald energy   TEWEN  =    -67508.62936292
  -Hartree energ DENC   =    -35942.62501453
  -exchange      EXHF   =         0.00000000
  -V(xc)+E(xc)   XCENC  =      4397.18490819
  PAW double counting   =    108691.72844404  -112307.39055071
  entropy T*S    EENTRO =        -0.00000000
  eigenvalues    EBANDS =    -15042.56793641
  atomic energy  EATOM  =    114309.28505226
  Solvation  Ediel_sol  =         0.00000000
  ---------------------------------------------------
  free energy    TOTEN  =      -822.06218081 eV

  energy without entropy =     -822.06218081  energy(sigma->0) =     -822.06218081


--------------------------------------------------------------------------------------------------------




--------------------------------------- Iteration      1(  15)  ---------------------------------------


    POTLOK:  cpu time    0.6684: real time    0.6685
    SETDIJ:  cpu time    1.6665: real time    1.6668
     EDDAV:  cpu time  538.1703: real time  548.3300
       DOS:  cpu time    0.0018: real time    0.0017
    CHARGE:  cpu time    8.4629: real time    8.7590
    MIXING:  cpu time    0.0441: real time    0.0507
    --------------------------------------------
      LOOP:  cpu time  549.0140: real time  559.4768

 eigenvalue-minimisations  : 50408
 total energy-change (2. order) : 0.2329672E-03  (-0.1146179E-04)
 number of electron    1024.0000024 magnetization     128.0000010
 augmentation part      327.1630201 magnetization      84.2797891

 Broyden mixing:
  rms(total) = 0.13579E-01    rms(broyden)= 0.13579E-01
  rms(prec ) = 0.13725E-01
  weight for this iteration     100.00

 eigenvalues of (default mixing * dielectric matrix)
  average eigenvalue GAMMA=   1.0388
  2.4980  2.4980  1.0617  1.0617  0.6851  0.6851  0.5146  0.5146  0.4347  0.4347

 Free energy of the ion-electron system (eV)
  ---------------------------------------------------
  alpha Z        PSCENC =      2580.95227926
  Ewald energy   TEWEN  =    -67508.62936292
  -Hartree energ DENC   =    -35943.27924841
  -exchange      EXHF   =         0.00000000
  -V(xc)+E(xc)   XCENC  =      4397.27804116
  PAW double counting   =    108709.18351621  -112325.23443381
  entropy T*S    EENTRO =        -0.00000000
  eigenvalues    EBANDS =    -15041.61779160
  atomic energy  EATOM  =    114309.28505226
  Solvation  Ediel_sol  =         0.00000000
  ---------------------------------------------------
  free energy    TOTEN  =      -822.06194785 eV

  energy without entropy =     -822.06194785  energy(sigma->0) =     -822.06194785


--------------------------------------------------------------------------------------------------------




--------------------------------------- Iteration      1(  16)  ---------------------------------------


    POTLOK:  cpu time    0.6819: real time    0.7008
    SETDIJ:  cpu time    1.6690: real time    1.6844
     EDDAV:  cpu time  408.6857: real time  415.8866
       DOS:  cpu time    0.0033: real time    0.0035
    CHARGE:  cpu time    8.5704: real time    8.7364
    MIXING:  cpu time    0.0361: real time    0.0585
    --------------------------------------------
      LOOP:  cpu time  419.6465: real time  427.0701

 eigenvalue-minimisations  : 36040
 total energy-change (2. order) : 0.6867383E-04  (-0.1144237E-04)
 number of electron    1024.0000024 magnetization     128.0000010
 augmentation part      327.1691049 magnetization      84.2792614

 Broyden mixing:
  rms(total) = 0.66699E-02    rms(broyden)= 0.66694E-02
  rms(prec ) = 0.67362E-02
  weight for this iteration     100.00

 eigenvalues of (default mixing * dielectric matrix)
  average eigenvalue GAMMA=   1.0307
  2.6181  2.6181  1.1203  1.1203  0.7202  0.7202  0.5399  0.5399  0.4680  0.4680
  0.4046

 Free energy of the ion-electron system (eV)
  ---------------------------------------------------
  alpha Z        PSCENC =      2580.95227926
  Ewald energy   TEWEN  =    -67508.62936292
  -Hartree energ DENC   =    -35943.68717583
  -exchange      EXHF   =         0.00000000
  -V(xc)+E(xc)   XCENC  =      4397.33402051
  PAW double counting   =    108719.97280073  -112336.27113578
  entropy T*S    EENTRO =        -0.00000000
  eigenvalues    EBANDS =    -15041.01835741
  atomic energy  EATOM  =    114309.28505226
  Solvation  Ediel_sol  =         0.00000000
  ---------------------------------------------------
  free energy    TOTEN  =      -822.06187917 eV

  energy without entropy =     -822.06187917  energy(sigma->0) =     -822.06187917


--------------------------------------------------------------------------------------------------------




--------------------------------------- Iteration      1(  17)  ---------------------------------------


    POTLOK:  cpu time    0.6683: real time    0.6690
    SETDIJ:  cpu time    1.7005: real time    1.7022
     EDDAV:  cpu time  482.9092: real time  492.4197
       DOS:  cpu time    0.0021: real time    0.0022
    CHARGE:  cpu time    8.8583: real time    8.8605
    MIXING:  cpu time    0.0249: real time    0.0249
    --------------------------------------------
      LOOP:  cpu time  494.1632: real time  503.6784

 eigenvalue-minimisations  : 43920
 total energy-change (2. order) : 0.5199312E-05  (-0.2469572E-05)
 number of electron    1024.0000024 magnetization     128.0000010
 augmentation part      327.1713276 magnetization      84.2794787

 Broyden mixing:
  rms(total) = 0.56246E-02    rms(broyden)= 0.56242E-02
  rms(prec ) = 0.56711E-02
  weight for this iteration     100.00

 eigenvalues of (default mixing * dielectric matrix)
  average eigenvalue GAMMA=   0.9450
  2.6177  2.6177  1.1202  1.1202  0.7202  0.7202  0.5400  0.5400  0.4681  0.4681
  0.4046  0.0026

 Free energy of the ion-electron system (eV)
  ---------------------------------------------------
  alpha Z        PSCENC =      2580.95227926
  Ewald energy   TEWEN  =    -67508.62936292
  -Hartree energ DENC   =    -35943.74698465
  -exchange      EXHF   =         0.00000000
  -V(xc)+E(xc)   XCENC  =      4397.34310826
  PAW double counting   =    108721.79429314  -112338.14020679
  entropy T*S    EENTRO =        -0.00000000
  eigenvalues    EBANDS =    -15040.92005254
  atomic energy  EATOM  =    114309.28505226
  Solvation  Ediel_sol  =         0.00000000
  ---------------------------------------------------
  free energy    TOTEN  =      -822.06187397 eV

  energy without entropy =     -822.06187397  energy(sigma->0) =     -822.06187397


--------------------------------------------------------------------------------------------------------




--------------------------------------- Iteration      1(  18)  ---------------------------------------


    POTLOK:  cpu time    0.6673: real time    0.6682
    SETDIJ:  cpu time    1.6871: real time    1.7127
     EDDAV:  cpu time  467.5423: real time  476.3237
       DOS:  cpu time    0.0019: real time    0.0019
    CHARGE:  cpu time    8.6562: real time    8.7362
    MIXING:  cpu time    0.0330: real time    0.0330
    --------------------------------------------
      LOOP:  cpu time  478.5877: real time  487.4757

 eigenvalue-minimisations  : 42080
 total energy-change (2. order) :-0.1039734E-06  (-0.2355177E-06)
 number of electron    1024.0000024 magnetization     128.0000010
 augmentation part      327.1722756 magnetization      84.2793938

 Broyden mixing:
  rms(total) = 0.54959E-02    rms(broyden)= 0.54956E-02
  rms(prec ) = 0.55398E-02
  weight for this iteration     100.00

 eigenvalues of (default mixing * dielectric matrix)
  average eigenvalue GAMMA=   0.9533
  2.5613  2.5613  1.1021  1.1021  0.5925  0.5925  0.7179  0.7179  0.5485  0.5485
  0.4079  0.4701  0.4701

 Free energy of the ion-electron system (eV)
  ---------------------------------------------------
  alpha Z        PSCENC =      2580.95227926
  Ewald energy   TEWEN  =    -67508.62936292
  -Hartree energ DENC   =    -35943.75131968
  -exchange      EXHF   =         0.00000000
  -V(xc)+E(xc)   XCENC  =      4397.34352260
  PAW double counting   =    108721.81569613  -112338.16165197
  entropy T*S    EENTRO =        -0.00000000
  eigenvalues    EBANDS =    -15040.91608975
  atomic energy  EATOM  =    114309.28505226
  Solvation  Ediel_sol  =         0.00000000
  ---------------------------------------------------
  free energy    TOTEN  =      -822.06187408 eV

  energy without entropy =     -822.06187408  energy(sigma->0) =     -822.06187408


--------------------------------------------------------------------------------------------------------




--------------------------------------- Iteration      1(  19)  ---------------------------------------


    POTLOK:  cpu time    0.6631: real time    0.6651
    SETDIJ:  cpu time    1.6682: real time    1.6828
     EDDAV:  cpu time  428.2486: real time  435.6375
       DOS:  cpu time    0.0022: real time    0.0022
    CHARGE:  cpu time    8.4670: real time    8.6726
    MIXING:  cpu time    0.0452: real time    0.0479
    --------------------------------------------
      LOOP:  cpu time  439.0944: real time  446.7082

 eigenvalue-minimisations  : 37744
 total energy-change (2. order) : 0.6419665E-05  (-0.5835718E-07)
 number of electron    1024.0000024 magnetization     128.0000009
 augmentation part      327.1727106 magnetization      84.2794544

 Broyden mixing:
  rms(total) = 0.48104E-02    rms(broyden)= 0.48100E-02
  rms(prec ) = 0.48434E-02
  weight for this iteration     100.00

 eigenvalues of (default mixing * dielectric matrix)
  average eigenvalue GAMMA=   1.0015
  2.6091  2.6091  1.3385  1.1503  1.1503  0.7377  0.7377  0.6143  0.6143  0.5506
  0.5506  0.4738  0.4738  0.4109

 Free energy of the ion-electron system (eV)
  ---------------------------------------------------
  alpha Z        PSCENC =      2580.95227926
  Ewald energy   TEWEN  =    -67508.62936292
  -Hartree energ DENC   =    -35943.79259526
  -exchange      EXHF   =         0.00000000
  -V(xc)+E(xc)   XCENC  =      4397.35058614
  PAW double counting   =    108722.91472751  -112339.28969585
  entropy T*S    EENTRO =        -0.00000000
[...]
   -.448E-04 -.992E-02 -.775E-02   0.858E-04 0.100E-01 0.791E-02   -.571E-04 -.158E-03 -.194E-03   -.820E-07 -.301E-06 -.120E-06
   0.128E-02 0.229E-03 0.183E-02   -.134E-02 -.408E-03 -.175E-02   0.798E-04 0.260E-03 -.137E-03   0.732E-07 -.533E-07 -.119E-06
   0.274E-02 0.855E-02 -.606E-02   -.300E-02 -.874E-02 0.613E-02   0.345E-03 0.307E-03 -.158E-03   0.311E-06 0.191E-06 0.899E-07
   0.437E-01 0.756E-02 -.179E-01   -.456E-01 -.781E-02 0.192E-01   0.248E-02 0.425E-03 -.183E-02   -.477E-06 0.247E-06 0.255E-06
   0.225E-01 -.387E-01 0.202E-01   -.237E-01 0.411E-01 -.209E-01   0.173E-02 -.369E-02 0.135E-02   0.216E-06 -.175E-06 -.427E-07
   0.120E-02 0.976E-04 -.221E-02   -.200E-02 0.476E-03 0.207E-02   0.114E-02 -.851E-03 0.277E-03   0.909E-06 0.558E-06 0.246E-06
   0.110E-01 0.207E-01 0.874E-02   -.121E-01 -.232E-01 -.857E-02   0.152E-02 0.376E-02 -.494E-03   0.315E-06 -.499E-07 -.990E-07
   0.127E-01 0.136E-01 0.602E-02   -.140E-01 -.158E-01 -.593E-02   0.181E-02 0.325E-02 -.407E-03   -.328E-07 -.261E-06 -.330E-07
   -.504E-02 0.842E-03 -.201E-02   0.452E-02 -.524E-03 0.194E-02   0.705E-03 -.450E-03 0.124E-03   -.216E-06 0.891E-07 -.773E-07
   0.221E-01 -.216E-01 0.113E-01   -.230E-01 0.231E-01 -.118E-01   0.128E-02 -.221E-02 0.807E-03   -.195E-06 -.117E-07 0.313E-07
   0.640E-01 0.175E-01 -.359E-01   -.664E-01 -.180E-01 0.381E-01   0.322E-02 0.994E-03 -.333E-02   0.267E-06 -.790E-07 0.192E-06
   0.561E-02 0.661E-02 -.456E-02   -.599E-02 -.679E-02 0.465E-02   0.530E-03 0.298E-03 -.176E-03   0.112E-06 -.294E-06 -.225E-06
   -.262E-02 0.755E-03 0.172E-02   0.264E-02 -.961E-03 -.163E-02   -.295E-04 0.292E-03 -.145E-03   -.943E-07 0.363E-06 0.160E-06
   0.450E-02 -.744E-02 -.539E-02   -.500E-02 0.754E-02 0.611E-02   0.692E-03 -.628E-04 -.105E-02   0.344E-06 -.126E-07 0.587E-07
   0.602E-02 0.874E-03 0.121E-01   -.773E-02 -.521E-03 -.148E-01   0.228E-02 -.776E-03 0.401E-02   0.222E-07 0.628E-07 -.661E-07
   -.223E-01 -.695E-02 0.174E-01   0.245E-01 0.740E-02 -.180E-01   -.296E-02 -.627E-03 0.879E-03   0.476E-07 0.101E-06 -.633E-06
   0.116E-01 -.161E-02 -.385E-03   -.124E-01 0.172E-02 0.286E-03   0.117E-02 -.167E-03 0.134E-03   -.532E-07 0.402E-07 -.262E-07
   -.134E-01 0.846E-02 -.475E-02   0.145E-01 -.885E-02 0.497E-02   -.143E-02 0.567E-03 -.265E-03   -.453E-06 0.222E-06 -.364E-06
   0.924E-02 0.161E-02 -.656E-03   -.998E-02 -.170E-02 0.607E-03   0.101E-02 0.137E-03 0.910E-04   0.962E-07 -.113E-06 0.199E-06
   -.138E+00 0.168E+00 -.337E+00   0.151E+00 -.191E+00 0.375E+00   -.185E-01 0.161E-01 -.364E-01   -.427E-07 -.505E-06 0.691E-06
   0.173E-01 -.245E-02 0.498E-03   -.184E-01 0.272E-02 -.405E-03   0.145E-02 -.410E-03 -.163E-03   0.389E-06 0.211E-07 0.962E-07
   -.269E-01 0.313E-01 0.107E-01   0.295E-01 -.335E-01 -.108E-01   -.349E-02 0.339E-02 0.419E-03   -.106E-05 0.209E-06 0.618E-07
   0.122E-01 0.235E-02 0.625E-03   -.131E-01 -.258E-02 -.635E-03   0.127E-02 0.330E-03 0.446E-04   -.267E-06 -.808E-07 0.190E-06
   -.201E-01 0.415E-01 0.146E-01   0.224E-01 -.434E-01 -.148E-01   -.306E-02 0.303E-02 0.797E-03   0.441E-06 0.196E-06 0.430E-06
   0.114E-01 0.119E-02 -.253E-04   -.123E-01 -.138E-02 0.593E-04   0.118E-02 0.269E-03 -.344E-04   -.142E-06 -.182E-06 -.278E-08
   -.272E+00 -.211E-01 -.146E+00   0.302E+00 0.182E-01 0.164E+00   -.347E-01 -.628E-03 -.194E-01   0.755E-06 -.882E-07 0.428E-06
   0.184E-01 -.108E-02 -.859E-03   -.195E-01 0.125E-02 0.106E-02   0.149E-02 -.258E-03 -.315E-03   -.213E-06 -.124E-06 -.546E-07
   -.118E-01 0.105E-01 -.681E-02   0.129E-01 -.110E-01 0.715E-02   -.153E-02 0.699E-03 -.398E-03   0.274E-06 -.132E-07 0.340E-06
   0.879E-02 0.932E-03 0.175E-04   -.952E-02 -.105E-02 -.343E-04   0.998E-03 0.189E-03 0.386E-04   -.211E-06 0.103E-06 -.287E-07
   -.248E-01 -.107E-01 0.725E-02   0.274E-01 0.113E-01 -.826E-02   -.359E-02 -.101E-02 0.125E-02   -.176E-06 -.257E-06 -.627E-07
   0.120E-01 -.950E-03 0.772E-03   -.130E-01 0.102E-02 -.912E-03   0.129E-02 -.876E-04 0.194E-03   0.234E-07 0.786E-07 -.141E-06
 -----------------------------------------------------------------------------------------------
   0.270E-01 -.656E-01 0.680E-01   -.478E-12 0.437E-13 0.740E-13   -.270E-01 0.656E-01 -.680E-01   0.169E-05 0.114E-05 0.113E-05
 
 
 POSITION                                       TOTAL-FORCE (eV/Angst)
 -----------------------------------------------------------------------------------
      1.92590      3.13932      5.36004        -0.004645     -0.002115      0.002885
      9.61372      3.13932      5.36004        -0.000261      0.000070     -0.000081
      1.92590      8.76310      5.40133         0.000302      0.000001     -0.000191
      9.61372      8.76310      5.40133        -0.000170     -0.000151     -0.000041
      1.92590      3.18168     10.98368         0.000219      0.000125     -0.000531
      9.61372      3.18168     10.98368        -0.000066     -0.000026     -0.000059
      1.92590      8.80547     11.02497         0.000067     -0.000182      0.000008
      9.61372      8.80547     11.02497        -0.000081     -0.000087     -0.000087
      1.92590      5.35991      3.13736        -0.001250      0.002535     -0.001528
      9.61372      5.35991      3.13736        -0.000347      0.000054      0.000181
      1.92590     10.98369      3.17866         0.000064     -0.000571      0.000069
      9.61372     10.98369      3.17866        -0.000096      0.000043      0.000065
      1.92590      5.40227      8.76100         0.000148      0.000109      0.000287
      9.61372      5.40227      8.76100        -0.000200      0.000113     -0.000007
      1.92590     11.02606      8.80230         0.000053      0.000028      0.000044
      9.61372     11.02606      8.80230        -0.000051      0.000016      0.000056
      5.76192      2.52683      0.30490         0.000040     -0.000016      0.000383
     13.44973      2.52683      0.30490        -0.000243      0.000074     -0.000007
      5.76192      8.15062      0.34619         0.000079      0.000047      0.000107
     13.44973      8.15062      0.34619        -0.000067      0.000056      0.000055
      5.76192      2.56920      5.92854         0.001213      0.001516     -0.000569
     13.44973      2.56920      5.92854        -0.000204      0.000052      0.000107
      5.76192      8.19298      5.96983         0.000088     -0.001148      0.000044
     13.44973      8.19298      5.96983        -0.000160      0.000073      0.000064
      5.76192      0.30624      2.52757         0.000259      0.000266     -0.000205
     13.44973      0.30624      2.52757        -0.000227     -0.000142     -0.000053
      5.76192      5.93003      2.56887        -0.001955     -0.002779      0.003472
     13.44973      5.93003      2.56887        -0.000165     -0.000004     -0.000083
      5.76192      0.34861      8.15121         0.000110     -0.000134      0.000042
     13.44973      0.34861      8.15121        -0.000102     -0.000080     -0.000054
      5.76192      5.97239      8.19250         0.000306     -0.000014     -0.001276
     13.44973      5.97239      8.19250        -0.000144     -0.000055     -0.000038
      4.23564      4.24371      4.24866         0.017551      0.022892     -0.006680
     11.93153      4.24961      4.24870        -0.000238      0.000104      0.000080
      4.24371      9.87340      4.29000         0.000243     -0.000224      0.000044
     11.93153      9.87340      4.29000        -0.000108     -0.000048     -0.000004
      4.24371      4.29198      9.87234         0.000243      0.000156      0.000042
     11.93153      4.29198      9.87234        -0.000108      0.000043     -0.000005
      4.24371      9.91576      9.91363         0.000379     -0.000115     -0.000035
     11.93153      9.91576      9.91363        -0.000113     -0.000049     -0.000036
      3.44411      1.41654      1.41623         0.000815     -0.000341     -0.000525
     11.13192      1.41654      1.41623        -0.000278      0.000005      0.000007
      3.44411      7.04032      1.45753         0.000111     -0.000255      0.000365
     11.13192      7.04032      1.45753        -0.000235     -0.000007      0.000012
      3.44411      1.45890      7.03987        -0.000061     -0.000489      0.000603
     11.13192      1.45890      7.03987        -0.000226      0.000005     -0.000000
      3.44411      7.08269      7.08117         0.001005     -0.000077     -0.000259
     11.13192      7.08269      7.08117        -0.000327     -0.000063     -0.000060
      7.68691      4.22843      1.43688         0.000001      0.000244      0.000217
     15.37473      4.22843      1.43688        -0.000394      0.000542     -0.000343
      7.68691      9.85222      1.47818        -0.000013     -0.000074      0.000077
     15.37473      9.85222      1.47818         0.000074     -0.000190     -0.000019
      7.68691      4.27079      7.06052        -0.000542      0.000638     -0.000534
     15.37473      4.27079      7.06052        -0.000114      0.000017      0.000111
      7.68691      9.89458      7.10182         0.000117     -0.000202      0.000004
     15.37473      9.89458      7.10182        -0.000041     -0.000042      0.000108
      0.00091      1.43772      4.22805        -0.000567     -0.000309      0.000364
      7.68873      1.43772      4.22805        -0.000143      0.000217     -0.000028
      0.00091      7.06151      4.26935        -0.000231      0.000145     -0.000162
      7.68873      7.06151      4.26935        -0.000688     -0.000534      0.000367
      0.00091      1.48008      9.85169        -0.000173     -0.000109     -0.000099
      7.68873      1.48008      9.85169        -0.000060     -0.000021      0.000012
      0.00091      7.10387      9.89299        -0.000085      0.000018      0.000050
      7.68873      7.10387      9.89299        -0.000127     -0.000094     -0.000116
      7.36691      4.24961      4.24870        -0.003149      0.001033      0.000721
     15.05473      4.24961      4.24870        -0.000830      0.000506      0.000285
      7.36691      9.87340      4.29000         0.000149     -0.000432     -0.000056
     15.05473      9.87340      4.29000        -0.000063     -0.000299     -0.000015
      7.36691      4.29198      9.87234         0.000149      0.000529     -0.000265
     15.05473      4.29198      9.87234        -0.000063      0.000359     -0.000142
      7.36691      9.91576      9.91363        -0.000074     -0.000177     -0.000017
     15.05473      9.91576      9.91363        -0.000038     -0.000149      0.000009
      0.32090      1.41654      1.41623        -0.001445     -0.001191     -0.001006
      8.00872      1.41654      1.41623        -0.000310     -0.000071      0.000162
      0.32090      7.04032      1.45753         0.000034      0.000232     -0.000170
      8.00872      7.04032      1.45753        -0.000246     -0.000430      0.000486
      0.32090      1.45890      7.03987        -0.000265     -0.000200      0.000262
      8.00872      1.45890      7.03987        -0.000022      0.000394     -0.000337
      0.32090      7.08269      7.08117        -0.000754      0.000311      0.000495
      8.00872      7.08269      7.08117        -0.001537     -0.000985     -0.000753
      3.84445      4.22843      1.43688         0.002132      0.002551     -0.000596
     11.53226      4.22843      1.43688        -0.000471      0.000131     -0.000049
      3.84445      9.85222      1.47818         0.000417     -0.000475     -0.000144
     11.53226      9.85222      1.47818        -0.000367     -0.000093      0.000039
      3.84445      4.27079      7.06052         0.002451      0.003405      0.002731
     11.53226      4.27079      7.06052        -0.000499      0.000178     -0.000077
      3.84445      9.89458      7.10182         0.000401     -0.000540     -0.000158
     11.53226      9.89458      7.10182        -0.000380     -0.000108      0.000013
      3.84337      1.43772      4.22805         0.001457     -0.008734     -0.000832
     11.53119      1.43772      4.22805        -0.000346     -0.000040      0.000059
      3.84337      7.06151      4.26935         0.003346     -0.005308      0.000011
     11.53119      7.06151      4.26935        -0.000385     -0.000068      0.000105
      3.84337      1.48008      9.85169         0.000536     -0.000043      0.000015
     11.53119      1.48008      9.85169        -0.000244      0.000012     -0.000036
      3.84337      7.10387      9.89299         0.000521     -0.000059     -0.000051
     11.53119      7.10387      9.89299        -0.000264     -0.000015     -0.000052
      1.92917      5.66160      5.66028         0.000191     -0.002123     -0.001099
      9.61699      5.66160      5.66028         0.000932      0.000047      0.000038
      1.92917     11.28539      5.70158         0.000074      0.000756     -0.000292
      9.61699     11.28539      5.70158         0.000228      0.000006     -0.000009
      1.92917      5.70397     11.28392        -0.000499     -0.000313     -0.000123
      9.61699      5.70397     11.28392         0.000318     -0.000030     -0.000052
      1.92917     11.32775     11.32522        -0.000261      0.000496      0.000359
      9.61699     11.32775     11.32522         0.000185      0.000037     -0.000034
      1.92917      2.83762      2.83712         0.002191      0.001801      0.002885
      9.61699      2.83762      2.83712         0.000376     -0.000201     -0.000155
      1.92917      8.46141      2.87841        -0.000530      0.000375      0.000039
      9.61699      8.46141      2.87841         0.000312      0.000133     -0.000049
      1.92917      2.87999      8.46076         0.000041     -0.000039     -0.000448
      9.61699      2.87999      8.46076         0.000221     -0.000126      0.000130
      1.92917      8.50377      8.50205        -0.000296     -0.000074     -0.000156
      9.61699      8.50377      8.50205         0.000332      0.000158      0.000142
      5.75865      0.00455      0.00465        -0.000245     -0.000041     -0.000128
     13.44647      0.00455      0.00465         0.000355      0.000124      0.000113
      5.75865      5.62833      0.04594        -0.000152     -0.000092     -0.000282
     13.44647      5.62833      0.04594         0.000276     -0.000132      0.000038
      5.75865      0.04691      5.62829        -0.000709      0.000565      0.000071
     13.44647      0.04691      5.62829         0.000357      0.000040     -0.000055
      5.75865      5.67070      5.66958        -0.004039     -0.003329     -0.001684
     13.44647      5.67070      5.66958         0.000507     -0.000091     -0.000043
      5.75865      2.82853      2.82782        -0.002304     -0.001106      0.000485
     13.44647      2.82853      2.82782         0.000819     -0.000061     -0.000069
      5.75865      8.45231      2.86911        -0.000127      0.000726     -0.000321
     13.44647      8.45231      2.86911         0.000278      0.000081      0.000024
      5.75865      2.87089      8.45146        -0.000683     -0.000429     -0.000175
     13.44647      2.87089      8.45146         0.000359      0.000003      0.000023
      5.75865      8.49468      8.49275        -0.000250      0.000573      0.000430
     13.44647      8.49468      8.49275         0.000273      0.000021     -0.000045
      0.00000      2.81189      0.02065         0.000669     -0.000415      0.001023
      7.68782      2.81189      0.02065        -0.000016     -0.000049     -0.000026
      0.00000      8.43568      0.06194         0.000017      0.000081     -0.000052
      7.68782      8.43568      0.06194         0.000084      0.000115     -0.000083
      0.00000      2.85426      5.64429         0.000597      0.000178     -0.000549
      7.68782      2.85426      5.64429         0.000515     -0.001248      0.000649
      0.00000      8.47804      5.68558         0.000327     -0.000277      0.000133
      7.68782      8.47804      5.68558         0.000363      0.001211     -0.000327
      0.00000      0.02118      2.81182         0.000541      0.001072     -0.000317
      7.68782      0.02118      2.81182         0.000194     -0.000132      0.000048
      0.00000      5.64497      2.85311         0.000297     -0.000716      0.000345
      7.68782      5.64497      2.85311         0.000820      0.000548     -0.001147
      0.00000      0.06355      8.43546         0.000154      0.000117     -0.000088
      7.68782      0.06355      8.43546        -0.000004      0.000087     -0.000055
      0.00000      5.68733      8.47675         0.000201      0.000035     -0.000328
      7.68782      5.68733      8.47675         0.000573     -0.000423      0.001315
      3.84391      2.81189      0.02065        -0.000795     -0.000180      0.000207
     11.53173      2.81189      0.02065         0.000311     -0.000050      0.000034
      3.84391      8.43568      0.06194        -0.000388      0.000180     -0.000040
     11.53173      8.43568      0.06194         0.000274      0.000048      0.000042
      3.84391      2.85426      5.64429        -0.005399     -0.006250      0.002075
     11.53173      2.85426      5.64429         0.000385     -0.000142     -0.000070
      3.84391      8.47804      5.68558        -0.000928      0.001178      0.000340
     11.53173      8.47804      5.68558         0.000341      0.000104      0.000035
      3.84391      0.02118      2.81182        -0.000818      0.001151      0.000528
     11.53173      0.02118      2.81182         0.000315      0.000085     -0.000001
      3.84391      5.64497      2.85311        -0.004826     -0.003532     -0.000639
     11.53173      5.64497      2.85311         0.000395     -0.000096     -0.000116
      3.84391      0.06355      8.43546        -0.000416      0.000198     -0.000060
     11.53173      0.06355      8.43546         0.000271      0.000068      0.000022
      3.84391      5.68733      8.47675        -0.000952     -0.000368      0.000239
     11.53173      5.68733      8.47675         0.000344     -0.000016      0.000053
 -----------------------------------------------------------------------------------
    total drift:                               -0.000003      0.000045      0.000026


--------------------------------------------------------------------------------------------------------



  FREE ENERGIE OF THE ION-ELECTRON SYSTEM (eV)
  ---------------------------------------------------
  free  energy   TOTEN  =      -822.06186416 eV

  energy  without entropy=     -822.06186416  energy(sigma->0) =     -822.06186416
 


--------------------------------------------------------------------------------------------------------


    POTLOK:  cpu time    2.3544: real time    2.3802


--------------------------------------------------------------------------------------------------------


     LOOP+:  cpu time16989.5497: real time17304.8427
    4ORBIT:  cpu time    0.0000: real time    0.0000

 total amount of memory used by VASP MPI-rank0   985864. kBytes
=======================================================================

   base      :      30000. kBytes
   nonl-proj :     102069. kBytes
   fftplans  :      64934. kBytes
   grid      :      55554. kBytes
   one-center:        839. kBytes
   wavefun   :     732468. kBytes
 
  
  
 General timing and accounting informations for this job:
 ========================================================
  
                  Total CPU time used (sec):    17131.994
                            User time (sec):    17027.319
                          System time (sec):      104.675
                         Elapsed time (sec):    17450.288
  
                   Maximum memory used (kb):     1186660.
                   Average memory used (kb):           0.
  
                          Minor page faults:      1569946
                          Major page faults:           14
                 Voluntary context switches:       103779
