  88  88   0   0
  0.1431748E+02  0.1111223E-08  0.1111745E-08  0.1056954E-08  0.5000000E-15
  1.000000000000000E-004
  CAR 
 unknown system                          
     17.90285458    -54.33924813  301      5.20028485      1.00000000
    -54.339  0.0000E+00  0.0000E+00  0.0000E+00  0.0000E+00
    -54.098  0.0000E+00  0.0000E+00  0.0000E+00  0.0000E+00
    -53.858  0.0000E+00  0.0000E+00  0.0000E+00  0.0000E+00
    -53.617  0.0000E+00  0.0000E+00  0.0000E+00  0.0000E+00
    -53.376  0.0000E+00  0.0000E+00  0.0000E+00  0.0000E+00
    -53.135  0.0000E+00  0.0000E+00  0.0000E+00  0.0000E+00
    -52.894  0.0000E+00  0.0000E+00  0.0000E+00  0.0000E+00
    -52.654  0.0000E+00  0.0000E+00  0.0000E+00  0.0000E+00
    -52.413  0.0000E+00  0.0000E+00  0.0000E+00  0.0000E+00
    -52.172  0.0000E+00  0.0000E+00  0.0000E+00  0.0000E+00
    -51.931  0.0000E+00  0.0000E+00  0.0000E+00  0.0000E+00
    -51.690  0.0000E+00  0.0000E+00  0.0000E+00  0.0000E+00
    -51.450  0.0000E+00  0.0000E+00  0.0000E+00  0.0000E+00
    -51.209  0.4539E-03  0.0000E+00  0.1093E-03  0.0000E+00
    -50.968  0.1311E+03  0.0000E+00  0.3157E+02  0.0000E+00
    -50.727  0.1783E+01  0.0000E+00  0.3200E+02  0.0000E+00
    -50.486  0.0000E+00  0.0000E+00  0.3200E+02  0.0000E+00
    -50.246  0.0000E+00  0.0000E+00  0.3200E+02  0.0000E+00
    -50.005  0.0000E+00  0.0000E+00  0.3200E+02  0.0000E+00
    -49.764  0.2046E+01  0.0000E+00  0.3249E+02  0.0000E+00
    -49.523  0.2376E+03  0.0000E+00  0.8972E+02  0.0000E+00
    -49.282  0.2609E+02  0.0000E+00  0.9600E+02  0.0000E+00
    -49.041  0.0000E+00  0.0000E+00  0.9600E+02  0.0000E+00
    -48.801  0.0000E+00  0.0000E+00  0.9600E+02  0.0000E+00
    -48.560  0.0000E+00  0.0000E+00  0.9600E+02  0.0000E+00
    -48.319  0.0000E+00  0.0000E+00  0.9600E+02  0.0000E+00
    -48.078  0.0000E+00  0.0000E+00  0.9600E+02  0.0000E+00
    -47.837  0.0000E+00  0.0000E+00  0.9600E+02  0.0000E+00
    -47.597  0.0000E+00  0.0000E+00  0.9600E+02  0.0000E+00
    -47.356  0.0000E+00  0.0000E+00  0.9600E+02  0.0000E+00
    -47.115  0.0000E+00  0.0000E+00  0.9600E+02  0.0000E+00
    -46.874  0.0000E+00  0.0000E+00  0.9600E+02  0.0000E+00
    -46.633  0.0000E+00  0.0000E+00  0.9600E+02  0.0000E+00
    -46.393  0.0000E+00  0.4114E+00  0.9600E+02  0.9907E-01
    -46.152  0.0000E+00  0.1324E+03  0.9600E+02  0.3199E+02
    -45.911  0.0000E+00  0.6130E+02  0.9600E+02  0.4675E+02
    -45.670  0.0000E+00  0.2045E+03  0.9600E+02  0.9600E+02
    -45.429  0.0000E+00  0.0000E+00  0.9600E+02  0.9600E+02
    -45.189  0.0000E+00  0.0000E+00  0.9600E+02  0.9600E+02
    -44.948  0.0000E+00  0.0000E+00  0.9600E+02  0.9600E+02
    -44.707  0.0000E+00  0.0000E+00  0.9600E+02  0.9600E+02
    -44.466  0.0000E+00  0.0000E+00  0.9600E+02  0.9600E+02
    -44.225  0.0000E+00  0.0000E+00  0.9600E+02  0.9600E+02
    -43.985  0.0000E+00  0.0000E+00  0.9600E+02  0.9600E+02
    -43.744  0.0000E+00  0.0000E+00  0.9600E+02  0.9600E+02
    -43.503  0.0000E+00  0.0000E+00  0.9600E+02  0.9600E+02
    -43.262  0.0000E+00  0.0000E+00  0.9600E+02  0.9600E+02
    -43.021  0.0000E+00  0.0000E+00  0.9600E+02  0.9600E+02
    -42.781  0.0000E+00  0.0000E+00  0.9600E+02  0.9600E+02
    -42.540  0.0000E+00  0.0000E+00  0.9600E+02  0.9600E+02
    -42.299  0.0000E+00  0.0000E+00  0.9600E+02  0.9600E+02
    -42.058  0.0000E+00  0.0000E+00  0.9600E+02  0.9600E+02
    -41.817  0.0000E+00  0.0000E+00  0.9600E+02  0.9600E+02
    -41.576  0.0000E+00  0.0000E+00  0.9600E+02  0.9600E+02
    -41.336  0.0000E+00  0.0000E+00  0.9600E+02  0.9600E+02
    -41.095  0.0000E+00  0.0000E+00  0.9600E+02  0.9600E+02
    -40.854  0.0000E+00  0.0000E+00  0.9600E+02  0.9600E+02
    -40.613  0.0000E+00  0.0000E+00  0.9600E+02  0.9600E+02
    -40.372  0.0000E+00  0.0000E+00  0.9600E+02  0.9600E+02
    -40.132  0.1665E-11  0.1054E-11  0.9600E+02  0.9600E+02
    -39.891  0.1564E+02  0.1445E+02  0.9977E+02  0.9948E+02
    -39.650  0.5081E+02  0.5200E+02  0.1120E+03  0.1120E+03
    -39.409  0.0000E+00  0.0000E+00  0.1120E+03  0.1120E+03
    -39.168  0.0000E+00  0.0000E+00  0.1120E+03  0.1120E+03
    -38.928  0.0000E+00  0.0000E+00  0.1120E+03  0.1120E+03
    -38.687  0.0000E+00  0.0000E+00  0.1120E+03  0.1120E+03
    -38.446  0.0000E+00  0.0000E+00  0.1120E+03  0.1120E+03
    -38.205  0.0000E+00  0.0000E+00  0.1120E+03  0.1120E+03
    -37.964  0.0000E+00  0.0000E+00  0.1120E+03  0.1120E+03
    -37.724  0.0000E+00  0.0000E+00  0.1120E+03  0.1120E+03
    -37.483  0.0000E+00  0.0000E+00  0.1120E+03  0.1120E+03
    -37.242  0.0000E+00  0.0000E+00  0.1120E+03  0.1120E+03
    -37.001  0.0000E+00  0.0000E+00  0.1120E+03  0.1120E+03
    -36.760  0.0000E+00  0.0000E+00  0.1120E+03  0.1120E+03
    -36.520  0.0000E+00  0.0000E+00  0.1120E+03  0.1120E+03
    -36.279  0.0000E+00  0.0000E+00  0.1120E+03  0.1120E+03
    -36.038  0.0000E+00  0.0000E+00  0.1120E+03  0.1120E+03
    -35.797  0.0000E+00  0.0000E+00  0.1120E+03  0.1120E+03
    -35.556  0.0000E+00  0.0000E+00  0.1120E+03  0.1120E+03
    -35.315  0.0000E+00  0.0000E+00  0.1120E+03  0.1120E+03
    -35.075  0.0000E+00  0.0000E+00  0.1120E+03  0.1120E+03
    -34.834  0.0000E+00  0.0000E+00  0.1120E+03  0.1120E+03
    -34.593  0.0000E+00  0.0000E+00  0.1120E+03  0.1120E+03
    -34.352  0.0000E+00  0.0000E+00  0.1120E+03  0.1120E+03
    -34.111  0.0000E+00  0.0000E+00  0.1120E+03  0.1120E+03
    -33.871  0.0000E+00  0.0000E+00  0.1120E+03  0.1120E+03
    -33.630  0.0000E+00  0.0000E+00  0.1120E+03  0.1120E+03
    -33.389  0.0000E+00  0.0000E+00  0.1120E+03  0.1120E+03
    -33.148  0.0000E+00  0.0000E+00  0.1120E+03  0.1120E+03
    -32.907  0.0000E+00  0.0000E+00  0.1120E+03  0.1120E+03
    -32.667  0.0000E+00  0.0000E+00  0.1120E+03  0.1120E+03
    -32.426  0.0000E+00  0.0000E+00  0.1120E+03  0.1120E+03
    -32.185  0.0000E+00  0.0000E+00  0.1120E+03  0.1120E+03
    -31.944  0.0000E+00  0.0000E+00  0.1120E+03  0.1120E+03
    -31.703  0.0000E+00  0.0000E+00  0.1120E+03  0.1120E+03
    -31.463  0.0000E+00  0.0000E+00  0.1120E+03  0.1120E+03
    -31.222  0.0000E+00  0.0000E+00  0.1120E+03  0.1120E+03
    -30.981  0.0000E+00  0.0000E+00  0.1120E+03  0.1120E+03
    -30.740  0.0000E+00  0.0000E+00  0.1120E+03  0.1120E+03
    -30.499  0.0000E+00  0.0000E+00  0.1120E+03  0.1120E+03
    -30.259  0.0000E+00  0.0000E+00  0.1120E+03  0.1120E+03
    -30.018  0.0000E+00  0.0000E+00  0.1120E+03  0.1120E+03
    -29.777  0.0000E+00  0.0000E+00  0.1120E+03  0.1120E+03
    -29.536  0.0000E+00  0.0000E+00  0.1120E+03  0.1120E+03
    -29.295  0.0000E+00  0.0000E+00  0.1120E+03  0.1120E+03
    -29.055  0.0000E+00  0.0000E+00  0.1120E+03  0.1120E+03
    -28.814  0.0000E+00  0.0000E+00  0.1120E+03  0.1120E+03
    -28.573  0.0000E+00  0.0000E+00  0.1120E+03  0.1120E+03
    -28.332  0.0000E+00  0.0000E+00  0.1120E+03  0.1120E+03
    -28.091  0.0000E+00  0.0000E+00  0.1120E+03  0.1120E+03
    -27.850  0.0000E+00  0.0000E+00  0.1120E+03  0.1120E+03
    -27.610  0.0000E+00  0.0000E+00  0.1120E+03  0.1120E+03
    -27.369  0.0000E+00  0.0000E+00  0.1120E+03  0.1120E+03
    -27.128  0.0000E+00  0.0000E+00  0.1120E+03  0.1120E+03
    -26.887  0.0000E+00  0.0000E+00  0.1120E+03  0.1120E+03
    -26.646  0.0000E+00  0.0000E+00  0.1120E+03  0.1120E+03
    -26.406  0.0000E+00  0.0000E+00  0.1120E+03  0.1120E+03
    -26.165  0.0000E+00  0.0000E+00  0.1120E+03  0.1120E+03
    -25.924  0.0000E+00  0.0000E+00  0.1120E+03  0.1120E+03
    -25.683  0.0000E+00  0.0000E+00  0.1120E+03  0.1120E+03
    -25.442  0.0000E+00  0.0000E+00  0.1120E+03  0.1120E+03
    -25.202  0.0000E+00  0.0000E+00  0.1120E+03  0.1120E+03
    -24.961  0.0000E+00  0.0000E+00  0.1120E+03  0.1120E+03
    -24.720  0.0000E+00  0.0000E+00  0.1120E+03  0.1120E+03
    -24.479  0.0000E+00  0.0000E+00  0.1120E+03  0.1120E+03
    -24.238  0.0000E+00  0.0000E+00  0.1120E+03  0.1120E+03
    -23.998  0.0000E+00  0.0000E+00  0.1120E+03  0.1120E+03
    -23.757  0.0000E+00  0.0000E+00  0.1120E+03  0.1120E+03
    -23.516  0.0000E+00  0.0000E+00  0.1120E+03  0.1120E+03
    -23.275  0.0000E+00  0.0000E+00  0.1120E+03  0.1120E+03
    -23.034  0.0000E+00  0.0000E+00  0.1120E+03  0.1120E+03
    -22.794  0.0000E+00  0.0000E+00  0.1120E+03  0.1120E+03
    -22.553  0.0000E+00  0.0000E+00  0.1120E+03  0.1120E+03
    -22.312  0.0000E+00  0.0000E+00  0.1120E+03  0.1120E+03
    -22.071  0.0000E+00  0.0000E+00  0.1120E+03  0.1120E+03
    -21.830  0.0000E+00  0.0000E+00  0.1120E+03  0.1120E+03
    -21.589  0.0000E+00  0.0000E+00  0.1120E+03  0.1120E+03
    -21.349  0.0000E+00  0.0000E+00  0.1120E+03  0.1120E+03
    -21.108  0.0000E+00  0.0000E+00  0.1120E+03  0.1120E+03
    -20.867  0.0000E+00  0.0000E+00  0.1120E+03  0.1120E+03
    -20.626  0.0000E+00  0.0000E+00  0.1120E+03  0.1120E+03
    -20.385  0.0000E+00  0.0000E+00  0.1120E+03  0.1120E+03
    -20.145  0.0000E+00  0.0000E+00  0.1120E+03  0.1120E+03
    -19.904  0.0000E+00  0.0000E+00  0.1120E+03  0.1120E+03
    -19.663  0.0000E+00  0.0000E+00  0.1120E+03  0.1120E+03
    -19.422  0.0000E+00  0.0000E+00  0.1120E+03  0.1120E+03
    -19.181  0.0000E+00  0.0000E+00  0.1120E+03  0.1120E+03
    -18.941  0.0000E+00  0.0000E+00  0.1120E+03  0.1120E+03
    -18.700  0.0000E+00  0.0000E+00  0.1120E+03  0.1120E+03
    -18.459  0.0000E+00  0.0000E+00  0.1120E+03  0.1120E+03
    -18.218  0.0000E+00  0.0000E+00  0.1120E+03  0.1120E+03
    -17.977  0.0000E+00  0.0000E+00  0.1120E+03  0.1120E+03
    -17.737  0.0000E+00  0.0000E+00  0.1120E+03  0.1120E+03
    -17.496  0.0000E+00  0.0000E+00  0.1120E+03  0.1120E+03
    -17.255  0.0000E+00  0.0000E+00  0.1120E+03  0.1120E+03
    -17.014  0.0000E+00  0.0000E+00  0.1120E+03  0.1120E+03
    -16.773  0.0000E+00  0.0000E+00  0.1120E+03  0.1120E+03
    -16.533  0.0000E+00  0.0000E+00  0.1120E+03  0.1120E+03
    -16.292  0.0000E+00  0.0000E+00  0.1120E+03  0.1120E+03
    -16.051  0.0000E+00  0.0000E+00  0.1120E+03  0.1120E+03
    -15.810  0.0000E+00  0.0000E+00  0.1120E+03  0.1120E+03
    -15.569  0.0000E+00  0.0000E+00  0.1120E+03  0.1120E+03
    -15.329  0.0000E+00  0.0000E+00  0.1120E+03  0.1120E+03
    -15.088  0.0000E+00  0.0000E+00  0.1120E+03  0.1120E+03
    -14.847  0.0000E+00  0.0000E+00  0.1120E+03  0.1120E+03
    -14.606  0.0000E+00  0.0000E+00  0.1120E+03  0.1120E+03
    -14.365  0.0000E+00  0.0000E+00  0.1120E+03  0.1120E+03
    -14.124  0.0000E+00  0.0000E+00  0.1120E+03  0.1120E+03
    -13.884  0.0000E+00  0.0000E+00  0.1120E+03  0.1120E+03
    -13.643  0.0000E+00  0.0000E+00  0.1120E+03  0.1120E+03
    -13.402  0.5515E-06  0.0000E+00  0.1120E+03  0.1120E+03
    -13.161  0.1880E+02  0.0000E+00  0.1165E+03  0.1120E+03
    -12.920  0.4619E+02  0.7124E-02  0.1276E+03  0.1120E+03
    -12.680  0.1457E+01  0.4211E+02  0.1280E+03  0.1221E+03
    -12.439  0.0000E+00  0.2433E+02  0.1280E+03  0.1280E+03
    -12.198  0.0000E+00  0.0000E+00  0.1280E+03  0.1280E+03
    -11.957  0.0000E+00  0.0000E+00  0.1280E+03  0.1280E+03
    -11.716  0.0000E+00  0.0000E+00  0.1280E+03  0.1280E+03
    -11.476  0.0000E+00  0.0000E+00  0.1280E+03  0.1280E+03
    -11.235  0.0000E+00  0.0000E+00  0.1280E+03  0.1280E+03
    -10.994  0.0000E+00  0.0000E+00  0.1280E+03  0.1280E+03
    -10.753  0.0000E+00  0.0000E+00  0.1280E+03  0.1280E+03
    -10.512  0.0000E+00  0.0000E+00  0.1280E+03  0.1280E+03
    -10.272  0.0000E+00  0.0000E+00  0.1280E+03  0.1280E+03
    -10.031  0.0000E+00  0.0000E+00  0.1280E+03  0.1280E+03
     -9.790  0.0000E+00  0.0000E+00  0.1280E+03  0.1280E+03
     -9.549  0.0000E+00  0.0000E+00  0.1280E+03  0.1280E+03
     -9.308  0.0000E+00  0.0000E+00  0.1280E+03  0.1280E+03
     -9.068  0.0000E+00  0.0000E+00  0.1280E+03  0.1280E+03
     -8.827  0.0000E+00  0.0000E+00  0.1280E+03  0.1280E+03
     -8.586  0.0000E+00  0.0000E+00  0.1280E+03  0.1280E+03
     -8.345  0.0000E+00  0.0000E+00  0.1280E+03  0.1280E+03
     -8.104  0.0000E+00  0.0000E+00  0.1280E+03  0.1280E+03
     -7.863  0.5740E-10  0.0000E+00  0.1280E+03  0.1280E+03
     -7.623  0.5502E+00  0.1024E-10  0.1281E+03  0.1280E+03
     -7.382  0.1240E+02  0.4838E+00  0.1311E+03  0.1281E+03
     -7.141  0.3028E+02  0.1362E+02  0.1384E+03  0.1314E+03
     -6.900  0.3394E+02  0.2953E+02  0.1466E+03  0.1385E+03
     -6.659  0.2250E+02  0.2605E+02  0.1520E+03  0.1448E+03
     -6.419  0.2629E-04  0.2992E+02  0.1520E+03  0.1520E+03
     -6.178  0.0000E+00  0.6110E-01  0.1520E+03  0.1520E+03
     -5.937  0.0000E+00  0.0000E+00  0.1520E+03  0.1520E+03
     -5.696  0.0000E+00  0.0000E+00  0.1520E+03  0.1520E+03
     -5.455  0.0000E+00  0.0000E+00  0.1520E+03  0.1520E+03
     -5.215  0.0000E+00  0.0000E+00  0.1520E+03  0.1520E+03
     -4.974  0.0000E+00  0.0000E+00  0.1520E+03  0.1520E+03
     -4.733  0.0000E+00  0.0000E+00  0.1520E+03  0.1520E+03
     -4.492  0.0000E+00  0.0000E+00  0.1520E+03  0.1520E+03
     -4.251  0.0000E+00  0.0000E+00  0.1520E+03  0.1520E+03
     -4.011  0.0000E+00  0.0000E+00  0.1520E+03  0.1520E+03
     -3.770  0.0000E+00  0.0000E+00  0.1520E+03  0.1520E+03
     -3.529  0.0000E+00  0.0000E+00  0.1520E+03  0.1520E+03
     -3.288  0.0000E+00  0.0000E+00  0.1520E+03  0.1520E+03
     -3.047  0.0000E+00  0.0000E+00  0.1520E+03  0.1520E+03
     -2.807  0.0000E+00  0.0000E+00  0.1520E+03  0.1520E+03
     -2.566  0.0000E+00  0.0000E+00  0.1520E+03  0.1520E+03
     -2.325  0.0000E+00  0.0000E+00  0.1520E+03  0.1520E+03
     -2.084  0.1848E-04  0.0000E+00  0.1520E+03  0.1520E+03
     -1.843  0.1570E+02  0.0000E+00  0.1558E+03  0.1520E+03
     -1.603  0.1965E+02  0.0000E+00  0.1605E+03  0.1520E+03
     -1.362  0.1489E+02  0.0000E+00  0.1641E+03  0.1520E+03
     -1.121  0.1706E+02  0.0000E+00  0.1682E+03  0.1520E+03
     -0.880  0.4555E+02  0.0000E+00  0.1792E+03  0.1520E+03
     -0.639  0.5897E+02  0.6617E-06  0.1934E+03  0.1520E+03
     -0.398  0.3868E+02  0.3995E+01  0.2027E+03  0.1530E+03
     -0.158  0.6765E+02  0.2035E+02  0.2190E+03  0.1579E+03
      0.083  0.7385E+02  0.1224E+02  0.2368E+03  0.1608E+03
      0.324  0.7753E+02  0.1844E+02  0.2554E+03  0.1652E+03
      0.565  0.6983E+02  0.2950E+02  0.2723E+03  0.1724E+03
      0.806  0.5602E+02  0.3911E+02  0.2857E+03  0.1818E+03
      1.046  0.3644E+02  0.3733E+02  0.2945E+03  0.1908E+03
      1.287  0.3050E+02  0.3141E+02  0.3019E+03  0.1983E+03
      1.528  0.4504E+02  0.2065E+02  0.3127E+03  0.2033E+03
      1.769  0.4196E+02  0.2903E+02  0.3228E+03  0.2103E+03
      2.010  0.6882E+02  0.3669E+02  0.3394E+03  0.2191E+03
      2.250  0.5846E+02  0.2787E+02  0.3535E+03  0.2258E+03
      2.491  0.2671E+02  0.2698E+02  0.3599E+03  0.2323E+03
      2.732  0.4260E+02  0.3047E+02  0.3702E+03  0.2397E+03
      2.973  0.3057E+02  0.4422E+02  0.3775E+03  0.2503E+03
      3.214  0.8632E+01  0.4560E+02  0.3796E+03  0.2613E+03
      3.454  0.2759E+02  0.3255E+02  0.3862E+03  0.2691E+03
      3.695  0.2742E+02  0.1257E+02  0.3928E+03  0.2722E+03
      3.936  0.3078E+02  0.1738E+02  0.4002E+03  0.2764E+03
      4.177  0.3592E+02  0.5270E+02  0.4089E+03  0.2890E+03
      4.418  0.3637E+02  0.4463E+02  0.4177E+03  0.2998E+03
      4.658  0.3037E+02  0.1746E+02  0.4250E+03  0.3040E+03
      4.899  0.2585E+02  0.6522E-02  0.4312E+03  0.3040E+03
      5.140  0.3336E+01  0.0000E+00  0.4320E+03  0.3040E+03
      5.381  0.0000E+00  0.0000E+00  0.4320E+03  0.3040E+03
      5.622  0.0000E+00  0.0000E+00  0.4320E+03  0.3040E+03
      5.863  0.0000E+00  0.0000E+00  0.4320E+03  0.3040E+03
      6.103  0.0000E+00  0.2246E-09  0.4320E+03  0.3040E+03
      6.344  0.0000E+00  0.3808E+00  0.4320E+03  0.3041E+03
      6.585  0.0000E+00  0.4189E+01  0.4320E+03  0.3051E+03
      6.826  0.0000E+00  0.7796E+01  0.4320E+03  0.3070E+03
      7.067  0.3586E-15  0.1900E+02  0.4320E+03  0.3116E+03
      7.307  0.2353E-01  0.4395E+02  0.4320E+03  0.3221E+03
      7.548  0.1303E+00  0.5315E+02  0.4320E+03  0.3349E+03
      7.789  0.2285E+00  0.6344E+02  0.4321E+03  0.3502E+03
      8.030  0.7419E+00  0.6570E+02  0.4323E+03  0.3660E+03
      8.271  0.2072E+01  0.6999E+02  0.4328E+03  0.3829E+03
      8.511  0.2640E+01  0.5946E+02  0.4334E+03  0.3972E+03
      8.752  0.8854E+01  0.5860E+02  0.4355E+03  0.4113E+03
      8.993  0.1239E+02  0.4825E+02  0.4385E+03  0.4229E+03
      9.234  0.1309E+02  0.3022E+02  0.4417E+03  0.4302E+03
      9.475  0.1803E+02  0.9035E+01  0.4460E+03  0.4324E+03
      9.715  0.1631E+02  0.2961E+01  0.4499E+03  0.4331E+03
      9.956  0.1567E+02  0.8299E+01  0.4537E+03  0.4351E+03
     10.197  0.2249E+02  0.1857E+02  0.4591E+03  0.4396E+03
     10.438  0.1483E+02  0.1798E+02  0.4627E+03  0.4439E+03
     10.679  0.1538E+02  0.1711E+02  0.4664E+03  0.4480E+03
     10.919  0.1312E+02  0.2759E+02  0.4696E+03  0.4547E+03
     11.160  0.2059E+02  0.1900E+02  0.4745E+03  0.4592E+03
     11.401  0.2461E+02  0.2390E+02  0.4805E+03  0.4650E+03
     11.642  0.2738E+02  0.1502E+02  0.4870E+03  0.4686E+03
     11.883  0.2445E+02  0.1375E+02  0.4929E+03  0.4719E+03
     12.123  0.3367E+02  0.1592E+02  0.5010E+03  0.4758E+03
     12.364  0.1995E+02  0.3647E+02  0.5058E+03  0.4845E+03
     12.605  0.2304E+02  0.3274E+02  0.5114E+03  0.4924E+03
     12.846  0.2139E+02  0.3012E+02  0.5165E+03  0.4997E+03
     13.087  0.2042E+02  0.2031E+02  0.5215E+03  0.5046E+03
     13.328  0.2368E+02  0.2203E+02  0.5272E+03  0.5099E+03
     13.568  0.2453E+02  0.2720E+02  0.5331E+03  0.5164E+03
     13.809  0.1358E+02  0.2375E+02  0.5363E+03  0.5221E+03
     14.050  0.6883E+01  0.2635E+02  0.5380E+03  0.5285E+03
     14.291  0.2947E-02  0.1935E+02  0.5380E+03  0.5331E+03
     14.532  0.0000E+00  0.1691E+02  0.5380E+03  0.5372E+03
     14.772  0.0000E+00  0.3250E+01  0.5380E+03  0.5380E+03
     15.013  0.0000E+00  0.2249E-05  0.5380E+03  0.5380E+03
     15.254  0.0000E+00  0.0000E+00  0.5380E+03  0.5380E+03
     15.495  0.0000E+00  0.0000E+00  0.5380E+03  0.5380E+03
     15.736  0.0000E+00  0.0000E+00  0.5380E+03  0.5380E+03
     15.976  0.0000E+00  0.0000E+00  0.5380E+03  0.5380E+03
     16.217  0.0000E+00  0.0000E+00  0.5380E+03  0.5380E+03
     16.458  0.0000E+00  0.0000E+00  0.5380E+03  0.5380E+03
     16.699  0.0000E+00  0.0000E+00  0.5380E+03  0.5380E+03
     16.940  0.0000E+00  0.0000E+00  0.5380E+03  0.5380E+03
     17.180  0.0000E+00  0.0000E+00  0.5380E+03  0.5380E+03
     17.421  0.0000E+00  0.0000E+00  0.5380E+03  0.5380E+03
     17.662  0.0000E+00  0.0000E+00  0.5380E+03  0.5380E+03
     17.903  0.0000E+00  0.0000E+00  0.5380E+03  0.5380E+03
