 160 160   0   0
  0.1215613E+02  0.1537564E-08  0.1124787E-08  0.1124760E-08  0.5000000E-15
  1.000000000000000E-004
  CAR 
 unknown system                          
     17.05016632    -54.78878644  301      4.89741014      1.00000000
    -54.789  0.0000E+00  0.0000E+00  0.0000E+00  0.0000E+00
    -54.549  0.0000E+00  0.0000E+00  0.0000E+00  0.0000E+00
    -54.310  0.0000E+00  0.0000E+00  0.0000E+00  0.0000E+00
    -54.070  0.0000E+00  0.0000E+00  0.0000E+00  0.0000E+00
    -53.831  0.0000E+00  0.0000E+00  0.0000E+00  0.0000E+00
    -53.591  0.0000E+00  0.0000E+00  0.0000E+00  0.0000E+00
    -53.352  0.0000E+00  0.0000E+00  0.0000E+00  0.0000E+00
    -53.113  0.0000E+00  0.0000E+00  0.0000E+00  0.0000E+00
    -52.873  0.0000E+00  0.0000E+00  0.0000E+00  0.0000E+00
    -52.634  0.0000E+00  0.0000E+00  0.0000E+00  0.0000E+00
    -52.394  0.0000E+00  0.0000E+00  0.0000E+00  0.0000E+00
    -52.155  0.0000E+00  0.0000E+00  0.0000E+00  0.0000E+00
    -51.915  0.0000E+00  0.0000E+00  0.0000E+00  0.0000E+00
    -51.676  0.4452E-03  0.0000E+00  0.1066E-03  0.0000E+00
    -51.436  0.8277E+02  0.0000E+00  0.1982E+02  0.0000E+00
    -51.197  0.5087E+02  0.0000E+00  0.3200E+02  0.0000E+00
    -50.957  0.0000E+00  0.0000E+00  0.3200E+02  0.0000E+00
    -50.718  0.0000E+00  0.0000E+00  0.3200E+02  0.0000E+00
    -50.478  0.6948E-13  0.0000E+00  0.3200E+02  0.0000E+00
    -50.239  0.8145E+01  0.0000E+00  0.3395E+02  0.0000E+00
    -50.000  0.1695E+03  0.0000E+00  0.7455E+02  0.0000E+00
    -49.760  0.8958E+02  0.0000E+00  0.9600E+02  0.0000E+00
    -49.521  0.0000E+00  0.0000E+00  0.9600E+02  0.0000E+00
    -49.281  0.0000E+00  0.0000E+00  0.9600E+02  0.0000E+00
    -49.042  0.0000E+00  0.0000E+00  0.9600E+02  0.0000E+00
    -48.802  0.0000E+00  0.0000E+00  0.9600E+02  0.0000E+00
    -48.563  0.0000E+00  0.0000E+00  0.9600E+02  0.0000E+00
    -48.323  0.0000E+00  0.0000E+00  0.9600E+02  0.0000E+00
    -48.084  0.0000E+00  0.0000E+00  0.9600E+02  0.0000E+00
    -47.844  0.0000E+00  0.0000E+00  0.9600E+02  0.0000E+00
    -47.605  0.0000E+00  0.0000E+00  0.9600E+02  0.0000E+00
    -47.365  0.0000E+00  0.0000E+00  0.9600E+02  0.0000E+00
    -47.126  0.0000E+00  0.0000E+00  0.9600E+02  0.0000E+00
    -46.887  0.0000E+00  0.2131E+00  0.9600E+02  0.5102E-01
    -46.647  0.0000E+00  0.1067E+03  0.9600E+02  0.2561E+02
    -46.408  0.0000E+00  0.1053E+03  0.9600E+02  0.5082E+02
    -46.168  0.0000E+00  0.1884E+03  0.9600E+02  0.9593E+02
    -45.929  0.0000E+00  0.3021E+00  0.9600E+02  0.9600E+02
    -45.689  0.0000E+00  0.0000E+00  0.9600E+02  0.9600E+02
    -45.450  0.0000E+00  0.0000E+00  0.9600E+02  0.9600E+02
    -45.210  0.0000E+00  0.0000E+00  0.9600E+02  0.9600E+02
    -44.971  0.0000E+00  0.0000E+00  0.9600E+02  0.9600E+02
    -44.731  0.0000E+00  0.0000E+00  0.9600E+02  0.9600E+02
    -44.492  0.0000E+00  0.0000E+00  0.9600E+02  0.9600E+02
    -44.252  0.0000E+00  0.0000E+00  0.9600E+02  0.9600E+02
    -44.013  0.0000E+00  0.0000E+00  0.9600E+02  0.9600E+02
    -43.773  0.0000E+00  0.0000E+00  0.9600E+02  0.9600E+02
    -43.534  0.0000E+00  0.0000E+00  0.9600E+02  0.9600E+02
    -43.295  0.0000E+00  0.0000E+00  0.9600E+02  0.9600E+02
    -43.055  0.0000E+00  0.0000E+00  0.9600E+02  0.9600E+02
    -42.816  0.0000E+00  0.0000E+00  0.9600E+02  0.9600E+02
    -42.576  0.0000E+00  0.0000E+00  0.9600E+02  0.9600E+02
    -42.337  0.0000E+00  0.0000E+00  0.9600E+02  0.9600E+02
    -42.097  0.0000E+00  0.0000E+00  0.9600E+02  0.9600E+02
    -41.858  0.0000E+00  0.0000E+00  0.9600E+02  0.9600E+02
    -41.618  0.0000E+00  0.0000E+00  0.9600E+02  0.9600E+02
    -41.379  0.0000E+00  0.0000E+00  0.9600E+02  0.9600E+02
    -41.139  0.0000E+00  0.0000E+00  0.9600E+02  0.9600E+02
    -40.900  0.0000E+00  0.0000E+00  0.9600E+02  0.9600E+02
    -40.660  0.3065E-14  0.9273E-15  0.9600E+02  0.9600E+02
    -40.421  0.3929E+01  0.3462E+01  0.9694E+02  0.9683E+02
    -40.182  0.1811E+03  0.1837E+03  0.1403E+03  0.1408E+03
    -39.942  0.8221E+02  0.8014E+02  0.1600E+03  0.1600E+03
    -39.703  0.0000E+00  0.0000E+00  0.1600E+03  0.1600E+03
    -39.463  0.0000E+00  0.0000E+00  0.1600E+03  0.1600E+03
    -39.224  0.0000E+00  0.0000E+00  0.1600E+03  0.1600E+03
    -38.984  0.0000E+00  0.0000E+00  0.1600E+03  0.1600E+03
    -38.745  0.0000E+00  0.0000E+00  0.1600E+03  0.1600E+03
    -38.505  0.0000E+00  0.0000E+00  0.1600E+03  0.1600E+03
    -38.266  0.0000E+00  0.0000E+00  0.1600E+03  0.1600E+03
    -38.026  0.0000E+00  0.0000E+00  0.1600E+03  0.1600E+03
    -37.787  0.0000E+00  0.0000E+00  0.1600E+03  0.1600E+03
    -37.547  0.0000E+00  0.0000E+00  0.1600E+03  0.1600E+03
    -37.308  0.0000E+00  0.0000E+00  0.1600E+03  0.1600E+03
    -37.069  0.0000E+00  0.0000E+00  0.1600E+03  0.1600E+03
    -36.829  0.0000E+00  0.0000E+00  0.1600E+03  0.1600E+03
    -36.590  0.0000E+00  0.0000E+00  0.1600E+03  0.1600E+03
    -36.350  0.0000E+00  0.0000E+00  0.1600E+03  0.1600E+03
    -36.111  0.0000E+00  0.0000E+00  0.1600E+03  0.1600E+03
    -35.871  0.0000E+00  0.0000E+00  0.1600E+03  0.1600E+03
    -35.632  0.0000E+00  0.0000E+00  0.1600E+03  0.1600E+03
    -35.392  0.0000E+00  0.0000E+00  0.1600E+03  0.1600E+03
    -35.153  0.0000E+00  0.0000E+00  0.1600E+03  0.1600E+03
    -34.913  0.0000E+00  0.0000E+00  0.1600E+03  0.1600E+03
    -34.674  0.0000E+00  0.0000E+00  0.1600E+03  0.1600E+03
    -34.434  0.0000E+00  0.0000E+00  0.1600E+03  0.1600E+03
    -34.195  0.0000E+00  0.0000E+00  0.1600E+03  0.1600E+03
    -33.955  0.0000E+00  0.0000E+00  0.1600E+03  0.1600E+03
    -33.716  0.0000E+00  0.0000E+00  0.1600E+03  0.1600E+03
    -33.477  0.0000E+00  0.0000E+00  0.1600E+03  0.1600E+03
    -33.237  0.0000E+00  0.0000E+00  0.1600E+03  0.1600E+03
    -32.998  0.0000E+00  0.0000E+00  0.1600E+03  0.1600E+03
    -32.758  0.0000E+00  0.0000E+00  0.1600E+03  0.1600E+03
    -32.519  0.0000E+00  0.0000E+00  0.1600E+03  0.1600E+03
    -32.279  0.0000E+00  0.0000E+00  0.1600E+03  0.1600E+03
    -32.040  0.0000E+00  0.0000E+00  0.1600E+03  0.1600E+03
    -31.800  0.0000E+00  0.0000E+00  0.1600E+03  0.1600E+03
    -31.561  0.0000E+00  0.0000E+00  0.1600E+03  0.1600E+03
    -31.321  0.0000E+00  0.0000E+00  0.1600E+03  0.1600E+03
    -31.082  0.0000E+00  0.0000E+00  0.1600E+03  0.1600E+03
    -30.842  0.0000E+00  0.0000E+00  0.1600E+03  0.1600E+03
    -30.603  0.0000E+00  0.0000E+00  0.1600E+03  0.1600E+03
    -30.364  0.0000E+00  0.0000E+00  0.1600E+03  0.1600E+03
    -30.124  0.0000E+00  0.0000E+00  0.1600E+03  0.1600E+03
    -29.885  0.0000E+00  0.0000E+00  0.1600E+03  0.1600E+03
    -29.645  0.0000E+00  0.0000E+00  0.1600E+03  0.1600E+03
    -29.406  0.0000E+00  0.0000E+00  0.1600E+03  0.1600E+03
    -29.166  0.0000E+00  0.0000E+00  0.1600E+03  0.1600E+03
    -28.927  0.0000E+00  0.0000E+00  0.1600E+03  0.1600E+03
    -28.687  0.0000E+00  0.0000E+00  0.1600E+03  0.1600E+03
    -28.448  0.0000E+00  0.0000E+00  0.1600E+03  0.1600E+03
    -28.208  0.0000E+00  0.0000E+00  0.1600E+03  0.1600E+03
    -27.969  0.0000E+00  0.0000E+00  0.1600E+03  0.1600E+03
    -27.729  0.0000E+00  0.0000E+00  0.1600E+03  0.1600E+03
    -27.490  0.0000E+00  0.0000E+00  0.1600E+03  0.1600E+03
    -27.251  0.0000E+00  0.0000E+00  0.1600E+03  0.1600E+03
    -27.011  0.0000E+00  0.0000E+00  0.1600E+03  0.1600E+03
    -26.772  0.0000E+00  0.0000E+00  0.1600E+03  0.1600E+03
    -26.532  0.0000E+00  0.0000E+00  0.1600E+03  0.1600E+03
    -26.293  0.0000E+00  0.0000E+00  0.1600E+03  0.1600E+03
    -26.053  0.0000E+00  0.0000E+00  0.1600E+03  0.1600E+03
    -25.814  0.0000E+00  0.0000E+00  0.1600E+03  0.1600E+03
    -25.574  0.0000E+00  0.0000E+00  0.1600E+03  0.1600E+03
    -25.335  0.0000E+00  0.0000E+00  0.1600E+03  0.1600E+03
    -25.095  0.0000E+00  0.0000E+00  0.1600E+03  0.1600E+03
    -24.856  0.0000E+00  0.0000E+00  0.1600E+03  0.1600E+03
    -24.616  0.0000E+00  0.0000E+00  0.1600E+03  0.1600E+03
    -24.377  0.0000E+00  0.0000E+00  0.1600E+03  0.1600E+03
    -24.137  0.0000E+00  0.0000E+00  0.1600E+03  0.1600E+03
    -23.898  0.0000E+00  0.0000E+00  0.1600E+03  0.1600E+03
    -23.659  0.0000E+00  0.0000E+00  0.1600E+03  0.1600E+03
    -23.419  0.0000E+00  0.0000E+00  0.1600E+03  0.1600E+03
    -23.180  0.0000E+00  0.0000E+00  0.1600E+03  0.1600E+03
    -22.940  0.0000E+00  0.0000E+00  0.1600E+03  0.1600E+03
    -22.701  0.0000E+00  0.0000E+00  0.1600E+03  0.1600E+03
    -22.461  0.0000E+00  0.0000E+00  0.1600E+03  0.1600E+03
    -22.222  0.0000E+00  0.0000E+00  0.1600E+03  0.1600E+03
    -21.982  0.0000E+00  0.0000E+00  0.1600E+03  0.1600E+03
    -21.743  0.0000E+00  0.0000E+00  0.1600E+03  0.1600E+03
    -21.503  0.0000E+00  0.0000E+00  0.1600E+03  0.1600E+03
    -21.264  0.0000E+00  0.0000E+00  0.1600E+03  0.1600E+03
    -21.024  0.0000E+00  0.0000E+00  0.1600E+03  0.1600E+03
    -20.785  0.0000E+00  0.0000E+00  0.1600E+03  0.1600E+03
    -20.546  0.0000E+00  0.0000E+00  0.1600E+03  0.1600E+03
    -20.306  0.0000E+00  0.0000E+00  0.1600E+03  0.1600E+03
    -20.067  0.0000E+00  0.0000E+00  0.1600E+03  0.1600E+03
    -19.827  0.0000E+00  0.0000E+00  0.1600E+03  0.1600E+03
    -19.588  0.0000E+00  0.0000E+00  0.1600E+03  0.1600E+03
    -19.348  0.0000E+00  0.0000E+00  0.1600E+03  0.1600E+03
    -19.109  0.0000E+00  0.0000E+00  0.1600E+03  0.1600E+03
    -18.869  0.0000E+00  0.0000E+00  0.1600E+03  0.1600E+03
    -18.630  0.0000E+00  0.0000E+00  0.1600E+03  0.1600E+03
    -18.390  0.0000E+00  0.0000E+00  0.1600E+03  0.1600E+03
    -18.151  0.0000E+00  0.0000E+00  0.1600E+03  0.1600E+03
    -17.911  0.0000E+00  0.0000E+00  0.1600E+03  0.1600E+03
    -17.672  0.0000E+00  0.0000E+00  0.1600E+03  0.1600E+03
    -17.433  0.0000E+00  0.0000E+00  0.1600E+03  0.1600E+03
    -17.193  0.0000E+00  0.0000E+00  0.1600E+03  0.1600E+03
    -16.954  0.0000E+00  0.0000E+00  0.1600E+03  0.1600E+03
    -16.714  0.0000E+00  0.0000E+00  0.1600E+03  0.1600E+03
    -16.475  0.0000E+00  0.0000E+00  0.1600E+03  0.1600E+03
    -16.235  0.0000E+00  0.0000E+00  0.1600E+03  0.1600E+03
    -15.996  0.0000E+00  0.0000E+00  0.1600E+03  0.1600E+03
    -15.756  0.0000E+00  0.0000E+00  0.1600E+03  0.1600E+03
    -15.517  0.0000E+00  0.0000E+00  0.1600E+03  0.1600E+03
    -15.277  0.0000E+00  0.0000E+00  0.1600E+03  0.1600E+03
    -15.038  0.0000E+00  0.0000E+00  0.1600E+03  0.1600E+03
    -14.798  0.0000E+00  0.0000E+00  0.1600E+03  0.1600E+03
    -14.559  0.0000E+00  0.0000E+00  0.1600E+03  0.1600E+03
    -14.320  0.0000E+00  0.0000E+00  0.1600E+03  0.1600E+03
    -14.080  0.0000E+00  0.0000E+00  0.1600E+03  0.1600E+03
    -13.841  0.0000E+00  0.0000E+00  0.1600E+03  0.1600E+03
    -13.601  0.2043E-01  0.0000E+00  0.1600E+03  0.1600E+03
    -13.362  0.5335E+02  0.2394E-05  0.1728E+03  0.1600E+03
    -13.122  0.7203E+02  0.2944E+02  0.1900E+03  0.1670E+03
    -12.883  0.8231E+01  0.9962E+02  0.1920E+03  0.1909E+03
    -12.643  0.0000E+00  0.4575E+01  0.1920E+03  0.1920E+03
    -12.404  0.0000E+00  0.0000E+00  0.1920E+03  0.1920E+03
    -12.164  0.0000E+00  0.0000E+00  0.1920E+03  0.1920E+03
    -11.925  0.0000E+00  0.0000E+00  0.1920E+03  0.1920E+03
    -11.685  0.0000E+00  0.0000E+00  0.1920E+03  0.1920E+03
    -11.446  0.0000E+00  0.0000E+00  0.1920E+03  0.1920E+03
    -11.206  0.0000E+00  0.0000E+00  0.1920E+03  0.1920E+03
    -10.967  0.0000E+00  0.0000E+00  0.1920E+03  0.1920E+03
    -10.728  0.0000E+00  0.0000E+00  0.1920E+03  0.1920E+03
    -10.488  0.0000E+00  0.0000E+00  0.1920E+03  0.1920E+03
    -10.249  0.0000E+00  0.0000E+00  0.1920E+03  0.1920E+03
    -10.009  0.0000E+00  0.0000E+00  0.1920E+03  0.1920E+03
     -9.770  0.0000E+00  0.0000E+00  0.1920E+03  0.1920E+03
     -9.530  0.0000E+00  0.0000E+00  0.1920E+03  0.1920E+03
     -9.291  0.0000E+00  0.0000E+00  0.1920E+03  0.1920E+03
     -9.051  0.0000E+00  0.0000E+00  0.1920E+03  0.1920E+03
     -8.812  0.0000E+00  0.0000E+00  0.1920E+03  0.1920E+03
     -8.572  0.0000E+00  0.0000E+00  0.1920E+03  0.1920E+03
     -8.333  0.0000E+00  0.0000E+00  0.1920E+03  0.1920E+03
     -8.093  0.0000E+00  0.0000E+00  0.1920E+03  0.1920E+03
     -7.854  0.5212E-10  0.0000E+00  0.1920E+03  0.1920E+03
     -7.615  0.1603E+01  0.4872E-07  0.1924E+03  0.1920E+03
     -7.375  0.4695E+02  0.7832E+01  0.2036E+03  0.1939E+03
     -7.136  0.6532E+02  0.6086E+02  0.2193E+03  0.2084E+03
     -6.896  0.1976E+02  0.5421E+02  0.2240E+03  0.2214E+03
     -6.657  0.9224E-02  0.1073E+02  0.2240E+03  0.2240E+03
     -6.417  0.0000E+00  0.3426E-02  0.2240E+03  0.2240E+03
     -6.178  0.0000E+00  0.0000E+00  0.2240E+03  0.2240E+03
     -5.938  0.0000E+00  0.0000E+00  0.2240E+03  0.2240E+03
     -5.699  0.0000E+00  0.0000E+00  0.2240E+03  0.2240E+03
     -5.459  0.0000E+00  0.0000E+00  0.2240E+03  0.2240E+03
     -5.220  0.0000E+00  0.0000E+00  0.2240E+03  0.2240E+03
     -4.980  0.0000E+00  0.0000E+00  0.2240E+03  0.2240E+03
     -4.741  0.0000E+00  0.0000E+00  0.2240E+03  0.2240E+03
     -4.502  0.0000E+00  0.0000E+00  0.2240E+03  0.2240E+03
     -4.262  0.0000E+00  0.0000E+00  0.2240E+03  0.2240E+03
     -4.023  0.0000E+00  0.0000E+00  0.2240E+03  0.2240E+03
     -3.783  0.0000E+00  0.0000E+00  0.2240E+03  0.2240E+03
     -3.544  0.0000E+00  0.0000E+00  0.2240E+03  0.2240E+03
     -3.304  0.0000E+00  0.0000E+00  0.2240E+03  0.2240E+03
     -3.065  0.0000E+00  0.0000E+00  0.2240E+03  0.2240E+03
     -2.825  0.5023E-15  0.0000E+00  0.2240E+03  0.2240E+03
     -2.586  0.4226E+00  0.0000E+00  0.2241E+03  0.2240E+03
     -2.346  0.3098E+02  0.0000E+00  0.2315E+03  0.2240E+03
     -2.107  0.1163E+02  0.0000E+00  0.2343E+03  0.2240E+03
     -1.867  0.1264E+02  0.0000E+00  0.2373E+03  0.2240E+03
     -1.628  0.1143E+02  0.0000E+00  0.2401E+03  0.2240E+03
     -1.388  0.1575E+02  0.0000E+00  0.2438E+03  0.2240E+03
     -1.149  0.6295E+02  0.2542E-05  0.2589E+03  0.2240E+03
     -0.910  0.7665E+02  0.3470E+01  0.2773E+03  0.2248E+03
     -0.670  0.6739E+02  0.3295E+02  0.2934E+03  0.2327E+03
     -0.431  0.7797E+02  0.1880E+02  0.3121E+03  0.2372E+03
     -0.191  0.1062E+03  0.1908E+02  0.3375E+03  0.2418E+03
      0.048  0.7837E+02  0.1229E+02  0.3563E+03  0.2447E+03
      0.288  0.5335E+02  0.3177E+02  0.3690E+03  0.2523E+03
      0.527  0.4762E+02  0.8152E+02  0.3804E+03  0.2719E+03
      0.767  0.4608E+02  0.6841E+02  0.3915E+03  0.2882E+03
      1.006  0.4683E+02  0.6982E+02  0.4027E+03  0.3050E+03
      1.246  0.7678E+02  0.6319E+02  0.4211E+03  0.3201E+03
      1.485  0.8781E+02  0.2172E+02  0.4421E+03  0.3253E+03
      1.725  0.5803E+02  0.5075E+02  0.4560E+03  0.3374E+03
      1.964  0.3994E+02  0.5160E+02  0.4656E+03  0.3498E+03
      2.203  0.4726E+02  0.3050E+02  0.4769E+03  0.3571E+03
      2.443  0.4156E+02  0.3914E+02  0.4868E+03  0.3665E+03
      2.682  0.5342E+02  0.6482E+02  0.4996E+03  0.3820E+03
      2.922  0.5394E+02  0.7214E+02  0.5125E+03  0.3993E+03
      3.161  0.5650E+02  0.5978E+02  0.5261E+03  0.4136E+03
      3.401  0.5298E+02  0.1609E+02  0.5388E+03  0.4174E+03
      3.640  0.5339E+02  0.3627E+02  0.5515E+03  0.4261E+03
      3.880  0.3983E+02  0.5947E+02  0.5611E+03  0.4404E+03
      4.119  0.3542E+02  0.3181E+02  0.5696E+03  0.4480E+03
      4.359  0.1923E+02  0.4086E-01  0.5742E+03  0.4480E+03
      4.598  0.7333E+01  0.0000E+00  0.5759E+03  0.4480E+03
      4.838  0.3130E+00  0.0000E+00  0.5760E+03  0.4480E+03
      5.077  0.0000E+00  0.0000E+00  0.5760E+03  0.4480E+03
      5.316  0.0000E+00  0.0000E+00  0.5760E+03  0.4480E+03
      5.556  0.0000E+00  0.0000E+00  0.5760E+03  0.4480E+03
      5.795  0.0000E+00  0.0000E+00  0.5760E+03  0.4480E+03
      6.035  0.0000E+00  0.0000E+00  0.5760E+03  0.4480E+03
      6.274  0.0000E+00  0.2061E-15  0.5760E+03  0.4480E+03
      6.514  0.0000E+00  0.7170E-01  0.5760E+03  0.4480E+03
      6.753  0.0000E+00  0.2460E+02  0.5760E+03  0.4539E+03
      6.993  0.8047E-06  0.7775E+02  0.5760E+03  0.4725E+03
      7.232  0.2294E+00  0.6310E+02  0.5761E+03  0.4876E+03
      7.472  0.1963E+00  0.6394E+02  0.5761E+03  0.5029E+03
      7.711  0.1382E+01  0.6304E+02  0.5764E+03  0.5180E+03
      7.951  0.3055E+01  0.9517E+02  0.5772E+03  0.5408E+03
      8.190  0.6578E+01  0.7255E+02  0.5787E+03  0.5582E+03
      8.429  0.9442E+01  0.4910E+02  0.5810E+03  0.5700E+03
      8.669  0.1883E+02  0.2488E+02  0.5855E+03  0.5759E+03
      8.908  0.2338E+02  0.7239E+01  0.5911E+03  0.5777E+03
      9.148  0.3136E+02  0.8614E+01  0.5986E+03  0.5797E+03
      9.387  0.2860E+02  0.1784E+02  0.6055E+03  0.5840E+03
      9.627  0.2973E+02  0.2692E+02  0.6126E+03  0.5904E+03
      9.866  0.2617E+02  0.3195E+02  0.6189E+03  0.5981E+03
     10.106  0.1751E+02  0.3777E+02  0.6230E+03  0.6071E+03
     10.345  0.2602E+02  0.3346E+02  0.6293E+03  0.6151E+03
     10.585  0.3643E+02  0.2857E+02  0.6380E+03  0.6220E+03
     10.824  0.4020E+02  0.3315E+02  0.6476E+03  0.6299E+03
     11.064  0.3303E+02  0.2816E+02  0.6555E+03  0.6367E+03
     11.303  0.4917E+02  0.2602E+02  0.6673E+03  0.6429E+03
     11.543  0.4114E+02  0.2924E+02  0.6772E+03  0.6499E+03
     11.782  0.4151E+02  0.5106E+02  0.6871E+03  0.6621E+03
     12.021  0.3407E+02  0.5027E+02  0.6953E+03  0.6742E+03
     12.261  0.3275E+02  0.5591E+02  0.7031E+03  0.6875E+03
     12.500  0.3251E+02  0.3159E+02  0.7109E+03  0.6951E+03
     12.740  0.3676E+02  0.3266E+02  0.7197E+03  0.7029E+03
     12.979  0.3436E+02  0.3221E+02  0.7279E+03  0.7106E+03
     13.219  0.1556E+02  0.3806E+02  0.7316E+03  0.7198E+03
     13.458  0.1108E+01  0.3319E+02  0.7319E+03  0.7277E+03
     13.698  0.3647E+00  0.1714E+02  0.7320E+03  0.7318E+03
     13.937  0.0000E+00  0.7886E+00  0.7320E+03  0.7320E+03
     14.177  0.0000E+00  0.3142E-05  0.7320E+03  0.7320E+03
     14.416  0.0000E+00  0.0000E+00  0.7320E+03  0.7320E+03
     14.656  0.0000E+00  0.0000E+00  0.7320E+03  0.7320E+03
     14.895  0.0000E+00  0.0000E+00  0.7320E+03  0.7320E+03
     15.134  0.0000E+00  0.0000E+00  0.7320E+03  0.7320E+03
     15.374  0.0000E+00  0.0000E+00  0.7320E+03  0.7320E+03
     15.613  0.0000E+00  0.0000E+00  0.7320E+03  0.7320E+03
     15.853  0.0000E+00  0.0000E+00  0.7320E+03  0.7320E+03
     16.092  0.0000E+00  0.0000E+00  0.7320E+03  0.7320E+03
     16.332  0.0000E+00  0.0000E+00  0.7320E+03  0.7320E+03
     16.571  0.0000E+00  0.0000E+00  0.7320E+03  0.7320E+03
     16.811  0.0000E+00  0.0000E+00  0.7320E+03  0.7320E+03
     17.050  0.0000E+00  0.0000E+00  0.7320E+03  0.7320E+03
