 126 126   0   0
  0.1357194E+02  0.1157659E-08  0.1157660E-08  0.1387803E-08  0.5000000E-15
  1.000000000000000E-004
  CAR 
 unknown system                          
     17.62425713    -54.41923432  301      5.40688171      1.00000000
    -54.419  0.0000E+00  0.0000E+00  0.0000E+00  0.0000E+00
    -54.179  0.0000E+00  0.0000E+00  0.0000E+00  0.0000E+00
    -53.939  0.0000E+00  0.0000E+00  0.0000E+00  0.0000E+00
    -53.699  0.0000E+00  0.0000E+00  0.0000E+00  0.0000E+00
    -53.459  0.0000E+00  0.0000E+00  0.0000E+00  0.0000E+00
    -53.219  0.0000E+00  0.0000E+00  0.0000E+00  0.0000E+00
    -52.978  0.0000E+00  0.0000E+00  0.0000E+00  0.0000E+00
    -52.738  0.0000E+00  0.0000E+00  0.0000E+00  0.0000E+00
    -52.498  0.0000E+00  0.0000E+00  0.0000E+00  0.0000E+00
    -52.258  0.0000E+00  0.0000E+00  0.0000E+00  0.0000E+00
    -52.018  0.0000E+00  0.0000E+00  0.0000E+00  0.0000E+00
    -51.778  0.0000E+00  0.0000E+00  0.0000E+00  0.0000E+00
    -51.537  0.0000E+00  0.0000E+00  0.0000E+00  0.0000E+00
    -51.297  0.6147E-03  0.0000E+00  0.1476E-03  0.0000E+00
    -51.057  0.1484E+03  0.0000E+00  0.3564E+02  0.0000E+00
    -50.817  0.1511E+01  0.0000E+00  0.3600E+02  0.0000E+00
    -50.577  0.0000E+00  0.0000E+00  0.3600E+02  0.0000E+00
    -50.337  0.0000E+00  0.0000E+00  0.3600E+02  0.0000E+00
    -50.097  0.0000E+00  0.0000E+00  0.3600E+02  0.0000E+00
    -49.856  0.1440E-05  0.0000E+00  0.3600E+02  0.0000E+00
    -49.616  0.2553E+03  0.0000E+00  0.9730E+02  0.0000E+00
    -49.376  0.4456E+02  0.0000E+00  0.1080E+03  0.0000E+00
    -49.136  0.0000E+00  0.0000E+00  0.1080E+03  0.0000E+00
    -48.896  0.0000E+00  0.0000E+00  0.1080E+03  0.0000E+00
    -48.656  0.0000E+00  0.0000E+00  0.1080E+03  0.0000E+00
    -48.416  0.0000E+00  0.0000E+00  0.1080E+03  0.0000E+00
    -48.175  0.0000E+00  0.0000E+00  0.1080E+03  0.0000E+00
    -47.935  0.0000E+00  0.0000E+00  0.1080E+03  0.0000E+00
    -47.695  0.0000E+00  0.0000E+00  0.1080E+03  0.0000E+00
    -47.455  0.0000E+00  0.0000E+00  0.1080E+03  0.0000E+00
    -47.215  0.0000E+00  0.0000E+00  0.1080E+03  0.0000E+00
    -46.975  0.0000E+00  0.0000E+00  0.1080E+03  0.0000E+00
    -46.735  0.0000E+00  0.0000E+00  0.1080E+03  0.0000E+00
    -46.494  0.0000E+00  0.3042E+00  0.1080E+03  0.7304E-01
    -46.254  0.0000E+00  0.1496E+03  0.1080E+03  0.3600E+02
    -46.014  0.0000E+00  0.4234E+01  0.1080E+03  0.3702E+02
    -45.774  0.0000E+00  0.2956E+03  0.1080E+03  0.1080E+03
    -45.534  0.0000E+00  0.7199E-04  0.1080E+03  0.1080E+03
    -45.294  0.0000E+00  0.0000E+00  0.1080E+03  0.1080E+03
    -45.054  0.0000E+00  0.0000E+00  0.1080E+03  0.1080E+03
    -44.813  0.0000E+00  0.0000E+00  0.1080E+03  0.1080E+03
    -44.573  0.0000E+00  0.0000E+00  0.1080E+03  0.1080E+03
    -44.333  0.0000E+00  0.0000E+00  0.1080E+03  0.1080E+03
    -44.093  0.0000E+00  0.0000E+00  0.1080E+03  0.1080E+03
    -43.853  0.0000E+00  0.0000E+00  0.1080E+03  0.1080E+03
    -43.613  0.0000E+00  0.0000E+00  0.1080E+03  0.1080E+03
    -43.373  0.0000E+00  0.0000E+00  0.1080E+03  0.1080E+03
    -43.132  0.0000E+00  0.0000E+00  0.1080E+03  0.1080E+03
    -42.892  0.0000E+00  0.0000E+00  0.1080E+03  0.1080E+03
    -42.652  0.0000E+00  0.0000E+00  0.1080E+03  0.1080E+03
    -42.412  0.0000E+00  0.0000E+00  0.1080E+03  0.1080E+03
    -42.172  0.0000E+00  0.0000E+00  0.1080E+03  0.1080E+03
    -41.932  0.0000E+00  0.0000E+00  0.1080E+03  0.1080E+03
    -41.692  0.0000E+00  0.0000E+00  0.1080E+03  0.1080E+03
    -41.451  0.0000E+00  0.0000E+00  0.1080E+03  0.1080E+03
    -41.211  0.0000E+00  0.0000E+00  0.1080E+03  0.1080E+03
    -40.971  0.0000E+00  0.0000E+00  0.1080E+03  0.1080E+03
    -40.731  0.0000E+00  0.0000E+00  0.1080E+03  0.1080E+03
    -40.491  0.0000E+00  0.0000E+00  0.1080E+03  0.1080E+03
    -40.251  0.0000E+00  0.0000E+00  0.1080E+03  0.1080E+03
    -40.011  0.0000E+00  0.0000E+00  0.1080E+03  0.1080E+03
    -39.770  0.1637E-02  0.1511E-02  0.1080E+03  0.1080E+03
    -39.530  0.1476E+03  0.1475E+03  0.1434E+03  0.1434E+03
    -39.290  0.2345E+01  0.2429E+01  0.1440E+03  0.1440E+03
    -39.050  0.0000E+00  0.0000E+00  0.1440E+03  0.1440E+03
    -38.810  0.0000E+00  0.0000E+00  0.1440E+03  0.1440E+03
    -38.570  0.0000E+00  0.0000E+00  0.1440E+03  0.1440E+03
    -38.330  0.0000E+00  0.0000E+00  0.1440E+03  0.1440E+03
    -38.089  0.0000E+00  0.0000E+00  0.1440E+03  0.1440E+03
    -37.849  0.0000E+00  0.0000E+00  0.1440E+03  0.1440E+03
    -37.609  0.0000E+00  0.0000E+00  0.1440E+03  0.1440E+03
    -37.369  0.0000E+00  0.0000E+00  0.1440E+03  0.1440E+03
    -37.129  0.0000E+00  0.0000E+00  0.1440E+03  0.1440E+03
    -36.889  0.0000E+00  0.0000E+00  0.1440E+03  0.1440E+03
    -36.649  0.0000E+00  0.0000E+00  0.1440E+03  0.1440E+03
    -36.408  0.0000E+00  0.0000E+00  0.1440E+03  0.1440E+03
    -36.168  0.0000E+00  0.0000E+00  0.1440E+03  0.1440E+03
    -35.928  0.0000E+00  0.0000E+00  0.1440E+03  0.1440E+03
    -35.688  0.0000E+00  0.0000E+00  0.1440E+03  0.1440E+03
    -35.448  0.0000E+00  0.0000E+00  0.1440E+03  0.1440E+03
    -35.208  0.0000E+00  0.0000E+00  0.1440E+03  0.1440E+03
    -34.967  0.0000E+00  0.0000E+00  0.1440E+03  0.1440E+03
    -34.727  0.0000E+00  0.0000E+00  0.1440E+03  0.1440E+03
    -34.487  0.0000E+00  0.0000E+00  0.1440E+03  0.1440E+03
    -34.247  0.0000E+00  0.0000E+00  0.1440E+03  0.1440E+03
    -34.007  0.0000E+00  0.0000E+00  0.1440E+03  0.1440E+03
    -33.767  0.0000E+00  0.0000E+00  0.1440E+03  0.1440E+03
    -33.527  0.0000E+00  0.0000E+00  0.1440E+03  0.1440E+03
    -33.286  0.0000E+00  0.0000E+00  0.1440E+03  0.1440E+03
    -33.046  0.0000E+00  0.0000E+00  0.1440E+03  0.1440E+03
    -32.806  0.0000E+00  0.0000E+00  0.1440E+03  0.1440E+03
    -32.566  0.0000E+00  0.0000E+00  0.1440E+03  0.1440E+03
    -32.326  0.0000E+00  0.0000E+00  0.1440E+03  0.1440E+03
    -32.086  0.0000E+00  0.0000E+00  0.1440E+03  0.1440E+03
    -31.846  0.0000E+00  0.0000E+00  0.1440E+03  0.1440E+03
    -31.605  0.0000E+00  0.0000E+00  0.1440E+03  0.1440E+03
    -31.365  0.0000E+00  0.0000E+00  0.1440E+03  0.1440E+03
    -31.125  0.0000E+00  0.0000E+00  0.1440E+03  0.1440E+03
    -30.885  0.0000E+00  0.0000E+00  0.1440E+03  0.1440E+03
    -30.645  0.0000E+00  0.0000E+00  0.1440E+03  0.1440E+03
    -30.405  0.0000E+00  0.0000E+00  0.1440E+03  0.1440E+03
    -30.165  0.0000E+00  0.0000E+00  0.1440E+03  0.1440E+03
    -29.924  0.0000E+00  0.0000E+00  0.1440E+03  0.1440E+03
    -29.684  0.0000E+00  0.0000E+00  0.1440E+03  0.1440E+03
    -29.444  0.0000E+00  0.0000E+00  0.1440E+03  0.1440E+03
    -29.204  0.0000E+00  0.0000E+00  0.1440E+03  0.1440E+03
    -28.964  0.0000E+00  0.0000E+00  0.1440E+03  0.1440E+03
    -28.724  0.0000E+00  0.0000E+00  0.1440E+03  0.1440E+03
    -28.484  0.0000E+00  0.0000E+00  0.1440E+03  0.1440E+03
    -28.243  0.0000E+00  0.0000E+00  0.1440E+03  0.1440E+03
    -28.003  0.0000E+00  0.0000E+00  0.1440E+03  0.1440E+03
    -27.763  0.0000E+00  0.0000E+00  0.1440E+03  0.1440E+03
    -27.523  0.0000E+00  0.0000E+00  0.1440E+03  0.1440E+03
    -27.283  0.0000E+00  0.0000E+00  0.1440E+03  0.1440E+03
    -27.043  0.0000E+00  0.0000E+00  0.1440E+03  0.1440E+03
    -26.803  0.0000E+00  0.0000E+00  0.1440E+03  0.1440E+03
    -26.562  0.0000E+00  0.0000E+00  0.1440E+03  0.1440E+03
    -26.322  0.0000E+00  0.0000E+00  0.1440E+03  0.1440E+03
    -26.082  0.0000E+00  0.0000E+00  0.1440E+03  0.1440E+03
    -25.842  0.0000E+00  0.0000E+00  0.1440E+03  0.1440E+03
    -25.602  0.0000E+00  0.0000E+00  0.1440E+03  0.1440E+03
    -25.362  0.0000E+00  0.0000E+00  0.1440E+03  0.1440E+03
    -25.122  0.0000E+00  0.0000E+00  0.1440E+03  0.1440E+03
    -24.881  0.0000E+00  0.0000E+00  0.1440E+03  0.1440E+03
    -24.641  0.0000E+00  0.0000E+00  0.1440E+03  0.1440E+03
    -24.401  0.0000E+00  0.0000E+00  0.1440E+03  0.1440E+03
    -24.161  0.0000E+00  0.0000E+00  0.1440E+03  0.1440E+03
    -23.921  0.0000E+00  0.0000E+00  0.1440E+03  0.1440E+03
    -23.681  0.0000E+00  0.0000E+00  0.1440E+03  0.1440E+03
    -23.441  0.0000E+00  0.0000E+00  0.1440E+03  0.1440E+03
    -23.200  0.0000E+00  0.0000E+00  0.1440E+03  0.1440E+03
    -22.960  0.0000E+00  0.0000E+00  0.1440E+03  0.1440E+03
    -22.720  0.0000E+00  0.0000E+00  0.1440E+03  0.1440E+03
    -22.480  0.0000E+00  0.0000E+00  0.1440E+03  0.1440E+03
    -22.240  0.0000E+00  0.0000E+00  0.1440E+03  0.1440E+03
    -22.000  0.0000E+00  0.0000E+00  0.1440E+03  0.1440E+03
    -21.760  0.0000E+00  0.0000E+00  0.1440E+03  0.1440E+03
    -21.519  0.0000E+00  0.0000E+00  0.1440E+03  0.1440E+03
    -21.279  0.0000E+00  0.0000E+00  0.1440E+03  0.1440E+03
    -21.039  0.0000E+00  0.0000E+00  0.1440E+03  0.1440E+03
    -20.799  0.0000E+00  0.0000E+00  0.1440E+03  0.1440E+03
    -20.559  0.0000E+00  0.0000E+00  0.1440E+03  0.1440E+03
    -20.319  0.0000E+00  0.0000E+00  0.1440E+03  0.1440E+03
    -20.079  0.0000E+00  0.0000E+00  0.1440E+03  0.1440E+03
    -19.838  0.0000E+00  0.0000E+00  0.1440E+03  0.1440E+03
    -19.598  0.0000E+00  0.0000E+00  0.1440E+03  0.1440E+03
    -19.358  0.0000E+00  0.0000E+00  0.1440E+03  0.1440E+03
    -19.118  0.0000E+00  0.0000E+00  0.1440E+03  0.1440E+03
    -18.878  0.0000E+00  0.0000E+00  0.1440E+03  0.1440E+03
    -18.638  0.0000E+00  0.0000E+00  0.1440E+03  0.1440E+03
    -18.397  0.0000E+00  0.0000E+00  0.1440E+03  0.1440E+03
    -18.157  0.0000E+00  0.0000E+00  0.1440E+03  0.1440E+03
    -17.917  0.0000E+00  0.0000E+00  0.1440E+03  0.1440E+03
    -17.677  0.0000E+00  0.0000E+00  0.1440E+03  0.1440E+03
    -17.437  0.0000E+00  0.0000E+00  0.1440E+03  0.1440E+03
    -17.197  0.0000E+00  0.0000E+00  0.1440E+03  0.1440E+03
    -16.957  0.0000E+00  0.0000E+00  0.1440E+03  0.1440E+03
    -16.716  0.0000E+00  0.0000E+00  0.1440E+03  0.1440E+03
    -16.476  0.0000E+00  0.0000E+00  0.1440E+03  0.1440E+03
    -16.236  0.0000E+00  0.0000E+00  0.1440E+03  0.1440E+03
    -15.996  0.0000E+00  0.0000E+00  0.1440E+03  0.1440E+03
    -15.756  0.0000E+00  0.0000E+00  0.1440E+03  0.1440E+03
    -15.516  0.0000E+00  0.0000E+00  0.1440E+03  0.1440E+03
    -15.276  0.0000E+00  0.0000E+00  0.1440E+03  0.1440E+03
    -15.035  0.0000E+00  0.0000E+00  0.1440E+03  0.1440E+03
    -14.795  0.0000E+00  0.0000E+00  0.1440E+03  0.1440E+03
    -14.555  0.0000E+00  0.0000E+00  0.1440E+03  0.1440E+03
    -14.315  0.0000E+00  0.0000E+00  0.1440E+03  0.1440E+03
    -14.075  0.0000E+00  0.0000E+00  0.1440E+03  0.1440E+03
    -13.835  0.0000E+00  0.0000E+00  0.1440E+03  0.1440E+03
    -13.595  0.0000E+00  0.0000E+00  0.1440E+03  0.1440E+03
    -13.354  0.0000E+00  0.0000E+00  0.1440E+03  0.1440E+03
    -13.114  0.0000E+00  0.0000E+00  0.1440E+03  0.1440E+03
    -12.874  0.2901E-01  0.0000E+00  0.1440E+03  0.1440E+03
    -12.634  0.7309E+02  0.5431E-03  0.1616E+03  0.1440E+03
    -12.394  0.1835E+01  0.6431E+02  0.1620E+03  0.1594E+03
    -12.154  0.0000E+00  0.1065E+02  0.1620E+03  0.1620E+03
    -11.914  0.0000E+00  0.0000E+00  0.1620E+03  0.1620E+03
    -11.673  0.0000E+00  0.0000E+00  0.1620E+03  0.1620E+03
    -11.433  0.0000E+00  0.0000E+00  0.1620E+03  0.1620E+03
    -11.193  0.0000E+00  0.0000E+00  0.1620E+03  0.1620E+03
    -10.953  0.0000E+00  0.0000E+00  0.1620E+03  0.1620E+03
    -10.713  0.0000E+00  0.0000E+00  0.1620E+03  0.1620E+03
    -10.473  0.0000E+00  0.0000E+00  0.1620E+03  0.1620E+03
    -10.233  0.0000E+00  0.0000E+00  0.1620E+03  0.1620E+03
     -9.992  0.0000E+00  0.0000E+00  0.1620E+03  0.1620E+03
     -9.752  0.0000E+00  0.0000E+00  0.1620E+03  0.1620E+03
     -9.512  0.0000E+00  0.0000E+00  0.1620E+03  0.1620E+03
     -9.272  0.0000E+00  0.0000E+00  0.1620E+03  0.1620E+03
     -9.032  0.0000E+00  0.0000E+00  0.1620E+03  0.1620E+03
     -8.792  0.0000E+00  0.0000E+00  0.1620E+03  0.1620E+03
     -8.552  0.0000E+00  0.0000E+00  0.1620E+03  0.1620E+03
     -8.311  0.0000E+00  0.0000E+00  0.1620E+03  0.1620E+03
     -8.071  0.0000E+00  0.0000E+00  0.1620E+03  0.1620E+03
     -7.831  0.7737E-02  0.1451E-14  0.1620E+03  0.1620E+03
     -7.591  0.7905E+01  0.8693E-01  0.1639E+03  0.1620E+03
     -7.351  0.1440E+02  0.9716E+01  0.1674E+03  0.1644E+03
     -7.111  0.2461E+02  0.1720E+02  0.1733E+03  0.1685E+03
     -6.871  0.7396E+02  0.2412E+02  0.1910E+03  0.1743E+03
     -6.630  0.2903E+02  0.7014E+02  0.1980E+03  0.1911E+03
     -6.390  0.1421E-03  0.2864E+02  0.1980E+03  0.1980E+03
     -6.150  0.0000E+00  0.1156E-01  0.1980E+03  0.1980E+03
     -5.910  0.0000E+00  0.0000E+00  0.1980E+03  0.1980E+03
     -5.670  0.0000E+00  0.0000E+00  0.1980E+03  0.1980E+03
     -5.430  0.0000E+00  0.0000E+00  0.1980E+03  0.1980E+03
     -5.190  0.0000E+00  0.0000E+00  0.1980E+03  0.1980E+03
     -4.949  0.0000E+00  0.0000E+00  0.1980E+03  0.1980E+03
     -4.709  0.0000E+00  0.0000E+00  0.1980E+03  0.1980E+03
     -4.469  0.0000E+00  0.0000E+00  0.1980E+03  0.1980E+03
     -4.229  0.0000E+00  0.0000E+00  0.1980E+03  0.1980E+03
     -3.989  0.0000E+00  0.0000E+00  0.1980E+03  0.1980E+03
     -3.749  0.0000E+00  0.0000E+00  0.1980E+03  0.1980E+03
     -3.509  0.0000E+00  0.0000E+00  0.1980E+03  0.1980E+03
     -3.268  0.0000E+00  0.0000E+00  0.1980E+03  0.1980E+03
     -3.028  0.0000E+00  0.0000E+00  0.1980E+03  0.1980E+03
     -2.788  0.0000E+00  0.0000E+00  0.1980E+03  0.1980E+03
     -2.548  0.0000E+00  0.0000E+00  0.1980E+03  0.1980E+03
     -2.308  0.0000E+00  0.0000E+00  0.1980E+03  0.1980E+03
     -2.068  0.0000E+00  0.0000E+00  0.1980E+03  0.1980E+03
     -1.827  0.4366E-15  0.0000E+00  0.1980E+03  0.1980E+03
     -1.587  0.1457E+00  0.0000E+00  0.1980E+03  0.1980E+03
     -1.347  0.4648E+02  0.0000E+00  0.2092E+03  0.1980E+03
     -1.107  0.2833E+02  0.0000E+00  0.2160E+03  0.1980E+03
     -0.867  0.3117E+01  0.0000E+00  0.2167E+03  0.1980E+03
     -0.627  0.4034E+02  0.5565E-10  0.2264E+03  0.1980E+03
     -0.387  0.1095E+03  0.1321E+01  0.2527E+03  0.1983E+03
     -0.146  0.1158E+03  0.1262E+02  0.2805E+03  0.2013E+03
      0.094  0.1051E+03  0.2002E+02  0.3058E+03  0.2062E+03
      0.334  0.8738E+02  0.2749E+02  0.3268E+03  0.2128E+03
      0.574  0.7692E+02  0.3083E+02  0.3452E+03  0.2202E+03
      0.814  0.3481E+02  0.3759E+02  0.3536E+03  0.2292E+03
      1.054  0.3025E+02  0.3592E+02  0.3609E+03  0.2378E+03
      1.294  0.5000E+02  0.4693E+02  0.3729E+03  0.2491E+03
      1.535  0.3208E+02  0.3087E+02  0.3806E+03  0.2565E+03
      1.775  0.5665E+02  0.6162E+02  0.3942E+03  0.2713E+03
      2.015  0.1238E+03  0.4714E+02  0.4239E+03  0.2826E+03
      2.255  0.7832E+02  0.1852E+02  0.4427E+03  0.2871E+03
      2.495  0.5325E+02  0.3029E+02  0.4555E+03  0.2943E+03
      2.735  0.3977E+02  0.5975E+02  0.4651E+03  0.3087E+03
      2.975  0.2531E+02  0.4973E+02  0.4711E+03  0.3206E+03
      3.216  0.1591E+02  0.5644E+02  0.4750E+03  0.3342E+03
      3.456  0.2754E+02  0.7522E+02  0.4816E+03  0.3522E+03
      3.696  0.4040E+02  0.2648E+02  0.4913E+03  0.3586E+03
      3.936  0.4254E+02  0.1953E+02  0.5015E+03  0.3633E+03
      4.176  0.4504E+02  0.9372E+02  0.5123E+03  0.3858E+03
      4.416  0.4519E+02  0.4079E+02  0.5231E+03  0.3956E+03
      4.656  0.2499E+02  0.1679E+01  0.5291E+03  0.3960E+03
      4.897  0.2765E+02  0.0000E+00  0.5358E+03  0.3960E+03
      5.137  0.1750E+02  0.0000E+00  0.5400E+03  0.3960E+03
      5.377  0.3699E-01  0.0000E+00  0.5400E+03  0.3960E+03
      5.617  0.0000E+00  0.0000E+00  0.5400E+03  0.3960E+03
      5.857  0.0000E+00  0.0000E+00  0.5400E+03  0.3960E+03
      6.097  0.0000E+00  0.3791E-13  0.5400E+03  0.3960E+03
      6.337  0.0000E+00  0.1756E+00  0.5400E+03  0.3960E+03
      6.578  0.0000E+00  0.4446E+01  0.5400E+03  0.3971E+03
      6.818  0.0000E+00  0.1381E+02  0.5400E+03  0.4004E+03
      7.058  0.0000E+00  0.2994E+02  0.5400E+03  0.4076E+03
      7.298  0.6826E-05  0.5678E+02  0.5400E+03  0.4213E+03
      7.538  0.5328E+00  0.7989E+02  0.5401E+03  0.4404E+03
      7.778  0.2314E+01  0.6734E+02  0.5407E+03  0.4566E+03
      8.018  0.1671E+01  0.8334E+02  0.5411E+03  0.4766E+03
      8.259  0.7096E+01  0.9902E+02  0.5428E+03  0.5004E+03
      8.499  0.7688E+01  0.3872E+02  0.5446E+03  0.5097E+03
      8.739  0.4749E+01  0.4435E+02  0.5458E+03  0.5204E+03
      8.979  0.1132E+02  0.4031E+02  0.5485E+03  0.5300E+03
      9.219  0.2026E+02  0.3935E+02  0.5534E+03  0.5395E+03
      9.459  0.2080E+02  0.1498E+02  0.5584E+03  0.5431E+03
      9.699  0.3074E+02  0.1565E+02  0.5657E+03  0.5468E+03
      9.940  0.2758E+02  0.1311E+02  0.5724E+03  0.5500E+03
     10.180  0.1731E+02  0.2568E+02  0.5765E+03  0.5562E+03
     10.420  0.1459E+02  0.2222E+02  0.5800E+03  0.5615E+03
     10.660  0.1892E+02  0.2767E+02  0.5846E+03  0.5681E+03
     10.900  0.2372E+02  0.2488E+02  0.5903E+03  0.5741E+03
     11.140  0.2881E+02  0.2498E+02  0.5972E+03  0.5801E+03
     11.380  0.2915E+02  0.2037E+02  0.6042E+03  0.5850E+03
     11.621  0.3030E+02  0.2437E+02  0.6115E+03  0.5909E+03
     11.861  0.3006E+02  0.2681E+02  0.6187E+03  0.5973E+03
     12.101  0.4167E+02  0.2658E+02  0.6287E+03  0.6037E+03
     12.341  0.5016E+02  0.3627E+02  0.6407E+03  0.6124E+03
     12.581  0.2539E+02  0.3816E+02  0.6468E+03  0.6215E+03
     12.821  0.2736E+02  0.4655E+02  0.6534E+03  0.6327E+03
     13.062  0.3288E+02  0.3542E+02  0.6613E+03  0.6412E+03
     13.302  0.3673E+02  0.3000E+02  0.6701E+03  0.6484E+03
     13.542  0.2435E+02  0.4822E+02  0.6760E+03  0.6600E+03
     13.782  0.1254E+02  0.3848E+02  0.6790E+03  0.6693E+03
     14.022  0.4313E+01  0.2087E+02  0.6800E+03  0.6743E+03
     14.262  0.3367E-02  0.1812E+02  0.6800E+03  0.6786E+03
     14.502  0.0000E+00  0.5744E+01  0.6800E+03  0.6800E+03
     14.743  0.0000E+00  0.7590E-05  0.6800E+03  0.6800E+03
     14.983  0.0000E+00  0.0000E+00  0.6800E+03  0.6800E+03
     15.223  0.0000E+00  0.0000E+00  0.6800E+03  0.6800E+03
     15.463  0.0000E+00  0.0000E+00  0.6800E+03  0.6800E+03
     15.703  0.0000E+00  0.0000E+00  0.6800E+03  0.6800E+03
     15.943  0.0000E+00  0.0000E+00  0.6800E+03  0.6800E+03
     16.183  0.0000E+00  0.0000E+00  0.6800E+03  0.6800E+03
     16.424  0.0000E+00  0.0000E+00  0.6800E+03  0.6800E+03
     16.664  0.0000E+00  0.0000E+00  0.6800E+03  0.6800E+03
     16.904  0.0000E+00  0.0000E+00  0.6800E+03  0.6800E+03
     17.144  0.0000E+00  0.0000E+00  0.6800E+03  0.6800E+03
     17.384  0.0000E+00  0.0000E+00  0.6800E+03  0.6800E+03
     17.624  0.0000E+00  0.0000E+00  0.6800E+03  0.6800E+03
