<?xml version="1.0" encoding="ISO-8859-1"?>
<modeling>
 <generator>
  <i name="program" type="string">vasp </i>
  <i name="version" type="string">5.4.4.18Apr17-6-g9f103f2a35  </i>
  <i name="subversion" type="string">(build Oct 25 2017 14:42:18) complex            parallel </i>
  <i name="platform" type="string">LinuxIFC </i>
  <i name="date" type="string">2021 04 13 </i>
  <i name="time" type="string">03:41:59 </i>
 </generator>
 <incar>
  <i type="string" name="PREC">accurate</i>
  <i type="string" name="ALGO"> normal</i>
  <i type="logical" name="ADDGRID"> T  </i>
  <i type="int" name="ISPIN">     2</i>
  <i type="int" name="NELM">   200</i>
  <i type="int" name="NELMIN">     8</i>
  <i name="EDIFF">      0.00000001</i>
  <i type="int" name="ISIF">     3</i>
  <i type="int" name="ISYM">     0</i>
  <i name="ENCUT">    650.00000000</i>
  <v name="MAGMOM">      0.60000000      0.60000000      0.60000000      0.60000000      0.60000000      0.60000000      0.60000000      0.60000000      0.60000000      0.60000000      0.60000000      0.60000000      0.60000000      0.60000000      0.60000000      0.60000000      0.60000000      0.60000000      0.60000000      0.60000000
      0.60000000      0.60000000      0.60000000      0.60000000      0.60000000      0.60000000      0.60000000      0.60000000      0.60000000      0.60000000      0.60000000      0.60000000      0.60000000      0.60000000      0.60000000      0.60000000      0.60000000      0.60000000      0.60000000      0.60000000
      0.60000000      0.60000000      0.60000000      0.60000000      0.60000000      0.60000000      0.60000000      0.60000000      0.60000000      0.60000000      0.60000000      0.60000000      0.60000000      0.60000000      0.60000000      0.60000000      0.60000000      0.60000000      0.60000000      0.60000000
      0.60000000      0.60000000      0.60000000      0.60000000      0.60000000      0.60000000      0.60000000      0.60000000      0.60000000      0.60000000      0.60000000      0.60000000      5.00000000      5.00000000      5.00000000      5.00000000      5.00000000      5.00000000      5.00000000      5.00000000
      5.00000000      5.00000000      5.00000000      5.00000000      5.00000000      5.00000000      5.00000000      5.00000000      5.00000000      5.00000000      5.00000000      5.00000000      5.00000000      5.00000000      5.00000000      5.00000000      5.00000000      5.00000000      5.00000000      5.00000000
      5.00000000      5.00000000      5.00000000      5.00000000      5.00000000      5.00000000      5.00000000      5.00000000</v>
  <i type="logical" name="LREAL"> F  </i>
  <i type="int" name="ISMEAR">     0</i>
  <i name="SIGMA">      0.05000000</i>
  <i type="int" name="NWRITE">     1</i>
  <i type="int" name="LMAXMIX">     4</i>
  <i type="logical" name="LWAVE"> F  </i>
  <i type="logical" name="LASPH"> T  </i>
  <v type="int" name="KPOINT_BSE">    -1     0     0     0</v>
  <i type="int" name="NELM">   200</i>
  <i type="string" name="GGA"> pe</i>
  <i type="logical" name="LDAU"> T  </i>
  <v type="int" name="LDAUTYPE">     2</v>
  <v type="int" name="LDAUL">    -1    -1    -1     2</v>
  <v name="LDAUU">      0.00000000      0.00000000      0.00000000      4.00000000</v>
  <v name="LDAUJ">      0.00000000      0.00000000      0.00000000      0.00000000</v>
  <i type="logical" name="LASPH"> T  </i>
 </incar>
 <structure name="primitive_cell" >
  <crystal>
   <varray name="basis" >
    <v>      11.51036847       0.00000000       0.00000000 </v>
    <v>       0.00000000      11.32670916       0.12548940 </v>
    <v>       0.00000000      -0.29683152      11.32351444 </v>
   </varray>
   <i name="volume">   1476.72737236 </i>
   <varray name="rec_basis" >
    <v>       0.08687819       0.00000000       0.00000000 </v>
    <v>       0.00000000       0.08826126       0.00231366 </v>
    <v>       0.00000000      -0.00097813       0.08828616 </v>
   </varray>
  </crystal>
  <varray name="positions" >
   <v>       0.10513295       0.25000000       0.00000000 </v>
   <v>       0.10614906       0.12527662      -0.12527662 </v>
   <v>       0.10614906       0.37472338       0.12527662 </v>
   <v>      -0.06053449       0.11809471       0.11809471 </v>
   <v>      -0.06053449       0.38190529      -0.11809471 </v>
   <v>       0.27279884       0.11809471       0.11809471 </v>
   <v>       0.27279884       0.38190529      -0.11809471 </v>
   <v>      -0.06046182       0.33907427       0.16092573 </v>
   <v>      -0.06046182       0.16092573      -0.16092573 </v>
   <v>       0.27287151       0.16092573      -0.16092573 </v>
   <v>       0.10731129       0.00000000       0.00000000 </v>
   <v>       0.10731129      -0.50000000       0.00000000 </v>
   <v>       0.27287151       0.33995708       0.16092573 </v>
   <v>       0.43846628       0.25000000       0.00000000 </v>
   <v>      -0.22820039       0.25000000       0.00000000 </v>
   <v>       0.10513295      -0.50000000       0.25000000 </v>
   <v>       0.10513295       0.00000000      -0.25000000 </v>
   <v>       0.10513295       0.00000000       0.25000000 </v>
   <v>       0.10513295      -0.50000000      -0.25000000 </v>
   <v>      -0.22718428       0.12527662      -0.12527662 </v>
   <v>      -0.22718428       0.37472338       0.12527662 </v>
   <v>       0.43948239       0.12527662      -0.12527662 </v>
   <v>       0.43948239       0.37472338       0.12527662 </v>
   <v>      -0.06046182       0.33907427      -0.33907427 </v>
   <v>      -0.06046182       0.16092573       0.33907427 </v>
   <v>       0.27287151       0.33907427      -0.33907427 </v>
   <v>       0.27287151       0.16092573       0.33907427 </v>
   <v>       0.10614906       0.12527662       0.37472338 </v>
   <v>       0.10614906       0.37472338      -0.37472338 </v>
   <v>       0.10614906      -0.37472338      -0.12527662 </v>
   <v>       0.10614906      -0.12527662       0.12527662 </v>
   <v>      -0.22602204       0.00000000       0.00000000 </v>
   <v>      -0.22602204      -0.50000000       0.00000000 </v>
   <v>      -0.06053449      -0.38190529       0.11809471 </v>
   <v>      -0.06053449      -0.11809471      -0.11809471 </v>
   <v>       0.27279884      -0.38190529       0.11809471 </v>
   <v>       0.27279884      -0.11809471      -0.11809471 </v>
   <v>       0.44064462       0.00000000       0.00000000 </v>
   <v>       0.44064462      -0.50000000       0.00000000 </v>
   <v>      -0.06053449       0.11809471      -0.38190529 </v>
   <v>      -0.06053449       0.38190529       0.38190529 </v>
   <v>       0.27279884       0.11809471      -0.38190529 </v>
   <v>       0.27279884       0.38190529       0.38190529 </v>
   <v>      -0.06046182      -0.16092573       0.16092573 </v>
   <v>      -0.06046182      -0.33907427      -0.16092573 </v>
   <v>       0.27287151      -0.16092573       0.16092573 </v>
   <v>       0.27287151      -0.33907427      -0.16092573 </v>
   <v>       0.43846628      -0.50000000       0.25000000 </v>
   <v>       0.43846628       0.00000000      -0.25000000 </v>
   <v>      -0.22820039      -0.50000000       0.25000000 </v>
   <v>      -0.22820039       0.00000000      -0.25000000 </v>
   <v>       0.43846628       0.00000000       0.25000000 </v>
   <v>       0.43846628      -0.50000000      -0.25000000 </v>
   <v>      -0.22820039       0.00000000       0.25000000 </v>
   <v>      -0.22820039      -0.50000000      -0.25000000 </v>
   <v>       0.10513295      -0.25000000       0.00000000 </v>
   <v>       0.10513295       0.25000000      -0.50000000 </v>
   <v>      -0.22718428       0.12527662       0.37472338 </v>
   <v>      -0.22718428       0.37472338      -0.37472338 </v>
   <v>      -0.22718428      -0.37472338      -0.12527662 </v>
   <v>      -0.22718428      -0.12527662       0.12527662 </v>
   <v>       0.43948239       0.12527662       0.37472338 </v>
   <v>       0.43948239       0.37472338      -0.37472338 </v>
   <v>       0.43948239      -0.37472338      -0.12527662 </v>
   <v>       0.43948239      -0.12527662       0.12527662 </v>
   <v>       0.10614906      -0.37472338       0.37472338 </v>
   <v>       0.10614906      -0.12527662      -0.37472338 </v>
   <v>      -0.39386782       0.11809471       0.11809471 </v>
   <v>      -0.39386782       0.38190529      -0.11809471 </v>
   <v>      -0.39379516       0.33907427       0.16092573 </v>
   <v>      -0.39379516       0.16092573      -0.16092573 </v>
   <v>      -0.06046182      -0.16092573      -0.33907427 </v>
   <v>      -0.06046182      -0.33907427       0.33907427 </v>
   <v>       0.27287151      -0.16092573      -0.33907427 </v>
   <v>       0.27287151      -0.33907427       0.33907427 </v>
   <v>       0.10731129       0.00000000      -0.50000000 </v>
   <v>       0.10731129      -0.50000000      -0.50000000 </v>
   <v>      -0.06053449      -0.38190529      -0.38190529 </v>
   <v>      -0.06053449      -0.11809471       0.38190529 </v>
   <v>       0.27279884      -0.38190529      -0.38190529 </v>
   <v>       0.27279884      -0.11809471       0.38190529 </v>
   <v>       0.43846628      -0.25000000       0.00000000 </v>
   <v>      -0.22820039      -0.25000000       0.00000000 </v>
   <v>       0.43846628       0.25000000      -0.50000000 </v>
   <v>      -0.22820039       0.25000000      -0.50000000 </v>
   <v>      -0.39379516       0.33907427      -0.33907427 </v>
   <v>      -0.39379516       0.16092573       0.33907427 </v>
   <v>      -0.22718428      -0.37472338       0.37472338 </v>
   <v>      -0.22718428      -0.12527662      -0.37472338 </v>
   <v>       0.43948239      -0.37472338       0.37472338 </v>
   <v>       0.43948239      -0.12527662      -0.37472338 </v>
   <v>      -0.39386782      -0.38190529       0.11809471 </v>
   <v>      -0.39386782      -0.11809471      -0.11809471 </v>
   <v>      -0.39386782       0.11809471      -0.38190529 </v>
   <v>      -0.39386782       0.38190529       0.38190529 </v>
   <v>      -0.22602204       0.00000000      -0.50000000 </v>
   <v>      -0.22602204      -0.50000000      -0.50000000 </v>
   <v>       0.44064462       0.00000000      -0.50000000 </v>
   <v>       0.44064462      -0.50000000      -0.50000000 </v>
   <v>      -0.39379516      -0.16092573       0.16092573 </v>
   <v>      -0.39379516      -0.33907427      -0.16092573 </v>
   <v>       0.10513295      -0.25000000      -0.50000000 </v>
   <v>      -0.39379516      -0.16092573      -0.33907427 </v>
   <v>      -0.39379516      -0.33907427       0.33907427 </v>
   <v>      -0.39386782      -0.38190529      -0.38190529 </v>
   <v>      -0.39386782      -0.11809471       0.38190529 </v>
   <v>       0.43846628      -0.25000000      -0.50000000 </v>
   <v>      -0.22820039      -0.25000000      -0.50000000 </v>
  </varray>
 </structure>
 <varray name="primitive_index" >
  <v type="int" >        1 </v>
  <v type="int" >       31 </v>
  <v type="int" >       37 </v>
  <v type="int" >       51 </v>
  <v type="int" >       69 </v>
  <v type="int" >       49 </v>
  <v type="int" >       67 </v>
  <v type="int" >       75 </v>
  <v type="int" >       93 </v>
  <v type="int" >       91 </v>
  <v type="int" >       97 </v>
  <v type="int" >      100 </v>
  <v type="int" >       73 </v>
  <v type="int" >        2 </v>
  <v type="int" >        3 </v>
  <v type="int" >       16 </v>
  <v type="int" >       19 </v>
  <v type="int" >       13 </v>
  <v type="int" >       22 </v>
  <v type="int" >       33 </v>
  <v type="int" >       39 </v>
  <v type="int" >       32 </v>
  <v type="int" >       38 </v>
  <v type="int" >       81 </v>
  <v type="int" >       87 </v>
  <v type="int" >       79 </v>
  <v type="int" >       85 </v>
  <v type="int" >       25 </v>
  <v type="int" >       43 </v>
  <v type="int" >       34 </v>
  <v type="int" >       40 </v>
  <v type="int" >       99 </v>
  <v type="int" >      102 </v>
  <v type="int" >       54 </v>
  <v type="int" >       72 </v>
  <v type="int" >       52 </v>
  <v type="int" >       70 </v>
  <v type="int" >       98 </v>
  <v type="int" >      101 </v>
  <v type="int" >       57 </v>
  <v type="int" >       63 </v>
  <v type="int" >       55 </v>
  <v type="int" >       61 </v>
  <v type="int" >       78 </v>
  <v type="int" >       96 </v>
  <v type="int" >       76 </v>
  <v type="int" >       94 </v>
  <v type="int" >       17 </v>
  <v type="int" >       20 </v>
  <v type="int" >       18 </v>
  <v type="int" >       21 </v>
  <v type="int" >       14 </v>
  <v type="int" >       23 </v>
  <v type="int" >       15 </v>
  <v type="int" >       24 </v>
  <v type="int" >        4 </v>
  <v type="int" >        7 </v>
  <v type="int" >       27 </v>
  <v type="int" >       45 </v>
  <v type="int" >       36 </v>
  <v type="int" >       42 </v>
  <v type="int" >       26 </v>
  <v type="int" >       44 </v>
  <v type="int" >       35 </v>
  <v type="int" >       41 </v>
  <v type="int" >       28 </v>
  <v type="int" >       46 </v>
  <v type="int" >       50 </v>
  <v type="int" >       68 </v>
  <v type="int" >       74 </v>
  <v type="int" >       92 </v>
  <v type="int" >       84 </v>
  <v type="int" >       90 </v>
  <v type="int" >       82 </v>
  <v type="int" >       88 </v>
  <v type="int" >      103 </v>
  <v type="int" >      106 </v>
  <v type="int" >       60 </v>
  <v type="int" >       66 </v>
  <v type="int" >       58 </v>
  <v type="int" >       64 </v>
  <v type="int" >        5 </v>
  <v type="int" >        6 </v>
  <v type="int" >        8 </v>
  <v type="int" >        9 </v>
  <v type="int" >       80 </v>
  <v type="int" >       86 </v>
  <v type="int" >       30 </v>
  <v type="int" >       48 </v>
  <v type="int" >       29 </v>
  <v type="int" >       47 </v>
  <v type="int" >       53 </v>
  <v type="int" >       71 </v>
  <v type="int" >       56 </v>
  <v type="int" >       62 </v>
  <v type="int" >      105 </v>
  <v type="int" >      108 </v>
  <v type="int" >      104 </v>
  <v type="int" >      107 </v>
  <v type="int" >       77 </v>
  <v type="int" >       95 </v>
  <v type="int" >       10 </v>
  <v type="int" >       83 </v>
  <v type="int" >       89 </v>
  <v type="int" >       59 </v>
  <v type="int" >       65 </v>
  <v type="int" >       11 </v>
  <v type="int" >       12 </v>
 </varray>
 <kpoints>
  <generation param="Gamma">
   <v type="int" name="divisions">       3        3        3 </v>
   <v name="usershift">      0.00000000       0.00000000       0.00000000 </v>
   <v name="genvec1">      0.33333333       0.00000000       0.00000000 </v>
   <v name="genvec2">      0.00000000       0.33333333      -0.00000000 </v>
   <v name="genvec3">      0.00000000      -0.00000000       0.33333333 </v>
   <v name="shift">      0.00000000       0.00000000       0.00000000 </v>
  </generation>
  <varray name="kpointlist" >
   <v>       0.00000000       0.00000000       0.00000000 </v>
   <v>       0.33333333       0.00000000       0.00000000 </v>
   <v>       0.00000000       0.33333333       0.00000000 </v>
   <v>       0.33333333       0.33333333       0.00000000 </v>
   <v>      -0.33333333       0.33333333       0.00000000 </v>
   <v>       0.00000000       0.00000000       0.33333333 </v>
   <v>       0.33333333       0.00000000       0.33333333 </v>
   <v>      -0.33333333       0.00000000       0.33333333 </v>
   <v>       0.00000000       0.33333333       0.33333333 </v>
   <v>       0.33333333       0.33333333       0.33333333 </v>
   <v>      -0.33333333       0.33333333       0.33333333 </v>
   <v>       0.00000000      -0.33333333       0.33333333 </v>
   <v>       0.33333333      -0.33333333       0.33333333 </v>
   <v>      -0.33333333      -0.33333333       0.33333333 </v>
  </varray>
  <varray name="weights" >
   <v>       0.03703704 </v>
   <v>       0.07407407 </v>
   <v>       0.07407407 </v>
   <v>       0.07407407 </v>
   <v>       0.07407407 </v>
   <v>       0.07407407 </v>
   <v>       0.07407407 </v>
   <v>       0.07407407 </v>
   <v>       0.07407407 </v>
   <v>       0.07407407 </v>
   <v>       0.07407407 </v>
   <v>       0.07407407 </v>
   <v>       0.07407407 </v>
   <v>       0.07407407 </v>
  </varray>
 </kpoints>
 <parameters>
  <separator name="general" >
   <i type="string" name="SYSTEM">unknown system</i>
   <i type="logical" name="LCOMPAT"> F  </i>
  </separator>
  <separator name="electronic" >
   <i type="string" name="PREC">accura</i>
   <i name="ENMAX">    650.00000000</i>
   <i name="ENAUG">    628.94500000</i>
   <i name="EDIFF">      0.00000001</i>
   <i type="int" name="IALGO">    38</i>
   <i type="int" name="IWAVPR">    10</i>
   <i type="int" name="NBANDS">   630</i>
   <i name="NELECT">    864.00000000</i>
   <i type="int" name="TURBO">     0</i>
   <i type="int" name="IRESTART">     0</i>
   <i type="int" name="NREBOOT">     0</i>
   <i type="int" name="NMIN">     0</i>
   <i name="EREF">      0.00000000</i>
   <separator name="electronic smearing" >
    <i type="int" name="ISMEAR">     0</i>
    <i name="SIGMA">      0.05000000</i>
    <i name="KSPACING">      0.50000000</i>
    <i type="logical" name="KGAMMA"> T  </i>
   </separator>
   <separator name="electronic projectors" >
    <i type="logical" name="LREAL"> F  </i>
    <v name="ROPT">      0.00000000      0.00000000      0.00000000      0.00000000</v>
    <i type="int" name="LMAXPAW">  -100</i>
    <i type="int" name="LMAXMIX">     4</i>
    <i type="logical" name="NLSPLINE"> F  </i>
   </separator>
   <separator name="electronic startup" >
    <i type="int" name="ISTART">     0</i>
    <i type="int" name="ICHARG">     2</i>
    <i type="int" name="INIWAV">     1</i>
   </separator>
   <separator name="electronic spin" >
    <i type="int" name="ISPIN">     2</i>
    <i type="logical" name="LNONCOLLINEAR"> F  </i>
    <v name="MAGMOM">      0.60000000      0.60000000      0.60000000      0.60000000      0.60000000      0.60000000      0.60000000      0.60000000      0.60000000      0.60000000      0.60000000      0.60000000      0.60000000      0.60000000      0.60000000      0.60000000      0.60000000      0.60000000      0.60000000      0.60000000
      0.60000000      0.60000000      0.60000000      0.60000000      0.60000000      0.60000000      0.60000000      0.60000000      0.60000000      0.60000000      0.60000000      0.60000000      0.60000000      0.60000000      0.60000000      0.60000000      0.60000000      0.60000000      0.60000000      0.60000000
      0.60000000      0.60000000      0.60000000      0.60000000      0.60000000      0.60000000      0.60000000      0.60000000      0.60000000      0.60000000      0.60000000      0.60000000      0.60000000      0.60000000      0.60000000      0.60000000      0.60000000      0.60000000      0.60000000      0.60000000
      0.60000000      0.60000000      0.60000000      0.60000000      0.60000000      0.60000000      0.60000000      0.60000000      0.60000000      0.60000000      0.60000000      0.60000000      5.00000000      5.00000000      5.00000000      5.00000000      5.00000000      5.00000000      5.00000000      5.00000000
      5.00000000      5.00000000      5.00000000      5.00000000      5.00000000      5.00000000      5.00000000      5.00000000      5.00000000      5.00000000      5.00000000      5.00000000      5.00000000      5.00000000      5.00000000      5.00000000      5.00000000      5.00000000      5.00000000      5.00000000
      5.00000000      5.00000000      5.00000000      5.00000000      5.00000000      5.00000000      5.00000000      5.00000000</v>
    <i name="NUPDOWN">     -1.00000000</i>
    <i type="logical" name="LSORBIT"> F  </i>
    <v name="SAXIS">      0.00000000      0.00000000      1.00000000</v>
    <i type="logical" name="LSPIRAL"> F  </i>
    <v name="QSPIRAL">      0.00000000      0.00000000      0.00000000</v>
    <i type="logical" name="LZEROZ"> F  </i>
   </separator>
   <separator name="electronic exchange-correlation" >
    <i type="logical" name="LASPH"> T  </i>
    <i type="logical" name="LMETAGGA"> F  </i>
   </separator>
   <separator name="electronic convergence" >
    <i type="int" name="NELM">   200</i>
    <i type="int" name="NELMDL">    -5</i>
    <i type="int" name="NELMIN">     8</i>
    <i name="ENINI">    650.00000000</i>
    <separator name="electronic convergence detail" >
     <i type="logical" name="LDIAG"> T  </i>
     <i type="logical" name="LSUBROT"> F  </i>
     <i name="WEIMIN">      0.00000000</i>
     <i name="EBREAK">      0.00000000</i>
     <i name="DEPER">      0.30000000</i>
     <i type="int" name="NRMM">     4</i>
     <i name="TIME">      0.40000000</i>
    </separator>
   </separator>
   <separator name="electronic mixer" >
    <i name="AMIX">      0.40000000</i>
    <i name="BMIX">      1.00000000</i>
    <i name="AMIN">      0.10000000</i>
    <i name="AMIX_MAG">      1.60000000</i>
    <i name="BMIX_MAG">      1.00000000</i>
    <separator name="electronic mixer details" >
     <i type="int" name="IMIX">     4</i>
     <i type="logical" name="MIXFIRST"> F  </i>
     <i type="int" name="MAXMIX">   -45</i>
     <i name="WC">    100.00000000</i>
     <i type="int" name="INIMIX">     1</i>
     <i type="int" name="MIXPRE">     1</i>
     <i type="int" name="MREMOVE">     5</i>
    </separator>
   </separator>
   <separator name="electronic dipolcorrection" >
    <i type="logical" name="LDIPOL"> F  </i>
    <i type="logical" name="LMONO"> F  </i>
    <i type="int" name="IDIPOL">     0</i>
    <i name="EPSILON">      1.00000000</i>
    <v name="DIPOL">   -100.00000000   -100.00000000   -100.00000000</v>
    <i name="EFIELD">      0.00000000</i>
   </separator>
  </separator>
  <separator name="grids" >
   <i type="int" name="NGX">    96</i>
   <i type="int" name="NGY">    96</i>
   <i type="int" name="NGZ">    96</i>
   <i type="int" name="NGXF">   192</i>
   <i type="int" name="NGYF">   192</i>
   <i type="int" name="NGZF">   192</i>
   <i type="logical" name="ADDGRID"> T  </i>
  </separator>
  <separator name="ionic" >
   <i type="int" name="NSW">     0</i>
   <i type="int" name="IBRION">    -1</i>
   <i type="int" name="MDALGO">     0</i>
   <i type="int" name="ISIF">     3</i>
   <i name="PSTRESS">      0.00000000</i>
   <i name="EDIFFG">      0.00000010</i>
   <i type="int" name="NFREE">     0</i>
   <i name="POTIM">      0.50000000</i>
   <i name="SMASS">     -3.00000000</i>
   <i name="SCALEE">      1.00000000</i>
  </separator>
  <separator name="ionic md" >
   <i name="TEBEG">      0.00010000</i>
   <i name="TEEND">      0.00010000</i>
   <i type="int" name="NBLOCK">     1</i>
   <i type="int" name="KBLOCK">     1</i>
   <i type="int" name="NPACO">   256</i>
   <i name="APACO">     16.00000000</i>
  </separator>
  <separator name="symmetry" >
   <i type="int" name="ISYM">     0</i>
   <i name="SYMPREC">      0.00001000</i>
  </separator>
  <separator name="dos" >
   <i type="int" name="LORBIT">     0</i>
   <v name="RWIGS">     -1.00000000     -1.00000000     -1.00000000     -1.00000000</v>
   <i type="int" name="NEDOS">   301</i>
   <i name="EMIN">     10.00000000</i>
   <i name="EMAX">    -10.00000000</i>
   <i name="EFERMI">      0.00000000</i>
  </separator>
  <separator name="writing" >
   <i type="int" name="NWRITE">     1</i>
   <i type="logical" name="LWAVE"> F  </i>
   <i type="logical" name="LDOWNSAMPLE"> F  </i>
   <i type="logical" name="LCHARG"> T  </i>
   <i type="logical" name="LPARD"> F  </i>
   <i type="logical" name="LVTOT"> F  </i>
   <i type="logical" name="LVHAR"> F  </i>
   <i type="logical" name="LELF"> F  </i>
   <i type="logical" name="LOPTICS"> F  </i>
   <v name="STM">      0.00000000      0.00000000      0.00000000      0.00000000      0.00000000      0.00000000      0.00000000</v>
  </separator>
  <separator name="performance" >
   <i type="int" name="NPAR">     1</i>
   <i type="int" name="NSIM">     4</i>
   <i type="int" name="NBLK">    -1</i>
   <i type="logical" name="LPLANE"> T  </i>
   <i type="logical" name="LSCALAPACK"> T  </i>
   <i type="logical" name="LSCAAWARE"> F  </i>
   <i type="logical" name="LSCALU"> F  </i>
   <i type="logical" name="LASYNC"> F  </i>
   <i type="logical" name="LORBITALREAL"> F  </i>
  </separator>
  <separator name="miscellaneous" >
   <i type="int" name="IDIOT">     3</i>
   <i type="int" name="ISPECIAL">     0</i>
   <i type="logical" name="LMUSIC"> F  </i>
   <v name="POMASS">      7.01000000     16.00000000     32.06600000     55.84700000</v>
   <v name="DARWINR">      0.00000000      0.00000000      0.00000000      0.00000000</v>
   <v name="DARWINV">      1.00000000      1.00000000      1.00000000      1.00000000</v>
   <i type="logical" name="LCORR"> T  </i>
  </separator>
  <i type="logical" name="GGA_COMPAT"> T  </i>
  <i type="logical" name="LBERRY"> F  </i>
  <i type="int" name="ICORELEVEL">     0</i>
  <i type="logical" name="LDAU"> T  </i>
  <v type="int" name="LDAUTYPE">     2</v>
  <v type="int" name="LDAUL">    -1</v>
  <v name="LDAUU">      0.00000000</v>
  <v name="LDAUJ">      0.00000000</v>
  <i type="int" name="LDAUPRINT">     0</i>
  <i type="int" name="I_CONSTRAINED_M">     0</i>
  <separator name="electronic exchange-correlation" >
   <i type="string" name="GGA">PE</i>
   <i type="int" name="VOSKOWN">     0</i>
   <i type="logical" name="LHFCALC"> F  </i>
   <i type="string" name="PRECFOCK"></i>
   <i type="logical" name="LSYMGRAD"> F  </i>
   <i type="logical" name="LHFONE"> F  </i>
   <i type="logical" name="LRHFCALC"> F  </i>
   <i type="logical" name="LTHOMAS"> F  </i>
   <i type="logical" name="LMODELHF"> F  </i>
   <i name="ENCUT4O">     -1.00000000</i>
   <i type="int" name="EXXOEP">     0</i>
   <i type="int" name="FOURORBIT">     0</i>
   <i name="AEXX">      0.00000000</i>
   <i name="HFALPHA">      0.00000000</i>
   <i name="MCALPHA">      0.00000000</i>
   <i name="ALDAX">      1.00000000</i>
   <i name="AGGAX">      1.00000000</i>
   <i name="ALDAC">      1.00000000</i>
   <i name="AGGAC">      1.00000000</i>
   <i type="int" name="NKREDX">     1</i>
   <i type="int" name="NKREDY">     1</i>
   <i type="int" name="NKREDZ">     1</i>
   <i type="logical" name="SHIFTRED"> F  </i>
   <i type="logical" name="ODDONLY"> F  </i>
   <i type="logical" name="EVENONLY"> F  </i>
   <i type="int" name="LMAXFOCK">     0</i>
   <i type="int" name="NMAXFOCKAE">     0</i>
   <i type="logical" name="LFOCKAEDFT"> F  </i>
   <i name="HFSCREEN">      0.00000000</i>
   <i name="HFSCREENC">      0.00000000</i>
   <i type="int" name="NBANDSGWLOW">     0</i>
  </separator>
  <separator name="vdW DFT" >
   <i type="logical" name="LUSE_VDW"> F  </i>
   <i name="Zab_VDW">     -0.84910000</i>
   <i name="PARAM1">      0.12340000</i>
   <i name="PARAM2">      1.00000000</i>
   <i name="PARAM3">      0.00000000</i>
  </separator>
  <separator name="model GW" >
   <i type="int" name="MODEL_GW">     0</i>
   <i name="MODEL_EPS0">      8.20404096</i>
   <i name="MODEL_ALPHA">      1.00000000</i>
  </separator>
  <separator name="linear response parameters" >
   <i type="logical" name="LEPSILON"> F  </i>
   <i type="logical" name="LRPA"> F  </i>
   <i type="logical" name="LNABLA"> F  </i>
   <i type="logical" name="LVEL"> F  </i>
   <i type="int" name="KINTER">     0</i>
   <i name="CSHIFT">      0.10000000</i>
   <i name="OMEGAMAX">     -1.00000000</i>
   <i name="DEG_THRESHOLD">      0.00200000</i>
   <i name="RTIME">     -0.10000000</i>
   <i name="WPLASMAI">      0.00000000</i>
   <v name="DFIELD">      0.00000000      0.00000000      0.00000000</v>
   <v name="WPLASMA">      0.00000000      0.00000000      0.00000000      0.00000000      0.00000000      0.00000000      0.00000000      0.00000000      0.00000000</v>
  </separator>
  <separator name="orbital magnetization" >
   <i type="logical" name="NUCIND"> F  </i>
   <v name="MAGPOS">      0.00000000      0.00000000      0.00000000</v>
   <i type="logical" name="LNICSALL"> T  </i>
   <i type="logical" name="ORBITALMAG"> F  </i>
   <i type="logical" name="LMAGBLOCH"> F  </i>
   <i type="logical" name="LCHIMAG"> F  </i>
   <i type="logical" name="LGAUGE"> T  </i>
   <i type="int" name="MAGATOM">     0</i>
   <v name="MAGDIPOL">      0.00000000      0.00000000      0.00000000</v>
   <v name="AVECCONST">      0.00000000      0.00000000      0.00000000</v>
  </separator>
  <separator name="response functions" >
   <i type="logical" name="LADDER"> F  </i>
   <i type="logical" name="LRPAFORCE"> F  </i>
   <i type="logical" name="LFXC"> F  </i>
   <i type="logical" name="LHARTREE"> T  </i>
   <i type="int" name="IBSE">     0</i>
   <v type="int" name="KPOINT">    -1     0     0     0</v>
   <i type="logical" name="LTCTE"> F  </i>
   <i type="logical" name="LTETE"> F  </i>
   <i type="logical" name="LTRIPLET"> F  </i>
   <i type="logical" name="LFXCEPS"> F  </i>
   <i type="logical" name="LFXHEG"> F  </i>
   <i type="int" name="NATURALO">     2</i>
   <i type="logical" name="L2ORDER"> F  </i>
   <i type="logical" name="LMP2LT"> F  </i>
   <i type="logical" name="LUSEW"> F  </i>
   <i name="ENCUTGW">     -2.00000000</i>
   <i name="ENCUTGWSOFT">     -2.00000000</i>
   <i name="ENCUTLF">     -1.00000000</i>
   <i type="int" name="LMAXMP2">    -1</i>
   <i name="SCISSOR">      0.00000000</i>
   <i type="int" name="NOMEGA">     0</i>
   <i type="int" name="NOMEGAR">     0</i>
   <i type="int" name="NBANDSGW">    -1</i>
   <i type="int" name="NBANDSO">    -1</i>
   <i type="int" name="NBANDSV">    -1</i>
   <i type="int" name="NELM">   200</i>
   <i type="int" name="NELMHF">     1</i>
   <i type="int" name="DIM">     3</i>
   <i type="int" name="ANTIRES">     0</i>
   <i name="OMEGAMAX">    -30.00000000</i>
   <i name="OMEGAMIN">    -30.00000000</i>
   <i name="OMEGATL">   -200.00000000</i>
   <i type="int" name="OMEGAGRID">   140</i>
   <i name="CSHIFT">     -0.10000000</i>
   <i type="logical" name="SELFENERGY"> F  </i>
   <i type="logical" name="LSPECTRAL"> F  </i>
   <i type="logical" name="LSPECTRALGW"> F  </i>
   <i type="logical" name="LSINGLES"> F  </i>
   <i type="logical" name="LFERMIGW"> F  </i>
   <i type="logical" name="ODDONLYGW"> F  </i>
   <i type="logical" name="EVENONLYGW"> F  </i>
   <i type="int" name="NKREDLFX">     1</i>
   <i type="int" name="NKREDLFY">     1</i>
   <i type="int" name="NKREDLFZ">     1</i>
   <i type="int" name="MAXMEM">  2800</i>
   <i type="int" name="TELESCOPE">     0</i>
   <i type="int" name="TAUPAR">     1</i>
   <i type="int" name="OMEGAPAR">    -1</i>
   <i name="LAMBDA">      1.00000000</i>
  </separator>
  <separator name="External order field" >
   <i name="OFIELD_KAPPA">      0.00000000</i>
   <v name="OFIELD_K">      0.00000000      0.00000000      0.00000000</v>
   <i name="OFIELD_Q6_NEAR">      0.00000000</i>
   <i name="OFIELD_Q6_FAR">      0.00000000</i>
   <i name="OFIELD_A">      0.00000000</i>
  </separator>
 </parameters>
 <atominfo>
  <atoms>     108 </atoms>
  <types>       4 </types>
  <array name="atoms" >
   <dimension dim="1">ion</dimension>
   <field type="string">element</field>
   <field type="int">atomtype</field>
   <set>
    <rc><c>Li</c><c>   1</c></rc>
    <rc><c>Li</c><c>   1</c></rc>
    <rc><c>Li</c><c>   1</c></rc>
    <rc><c>Li</c><c>   1</c></rc>
    <rc><c>Li</c><c>   1</c></rc>
    <rc><c>Li</c><c>   1</c></rc>
    <rc><c>Li</c><c>   1</c></rc>
    <rc><c>Li</c><c>   1</c></rc>
    <rc><c>Li</c><c>   1</c></rc>
    <rc><c>Li</c><c>   1</c></rc>
    <rc><c>Li</c><c>   1</c></rc>
    <rc><c>Li</c><c>   1</c></rc>
    <rc><c>Li</c><c>   1</c></rc>
    <rc><c>Li</c><c>   1</c></rc>
    <rc><c>Li</c><c>   1</c></rc>
    <rc><c>Li</c><c>   1</c></rc>
    <rc><c>Li</c><c>   1</c></rc>
    <rc><c>Li</c><c>   1</c></rc>
    <rc><c>Li</c><c>   1</c></rc>
    <rc><c>Li</c><c>   1</c></rc>
    <rc><c>Li</c><c>   1</c></rc>
    <rc><c>Li</c><c>   1</c></rc>
    <rc><c>Li</c><c>   1</c></rc>
    <rc><c>Li</c><c>   1</c></rc>
    <rc><c>O </c><c>   2</c></rc>
    <rc><c>O </c><c>   2</c></rc>
    <rc><c>O </c><c>   2</c></rc>
    <rc><c>O </c><c>   2</c></rc>
    <rc><c>O </c><c>   2</c></rc>
    <rc><c>O </c><c>   2</c></rc>
    <rc><c>O </c><c>   2</c></rc>
    <rc><c>O </c><c>   2</c></rc>
    <rc><c>O </c><c>   2</c></rc>
    <rc><c>O </c><c>   2</c></rc>
    <rc><c>O </c><c>   2</c></rc>
    <rc><c>O </c><c>   2</c></rc>
    <rc><c>O </c><c>   2</c></rc>
    <rc><c>O </c><c>   2</c></rc>
    <rc><c>O </c><c>   2</c></rc>
    <rc><c>O </c><c>   2</c></rc>
    <rc><c>O </c><c>   2</c></rc>
    <rc><c>O </c><c>   2</c></rc>
    <rc><c>O </c><c>   2</c></rc>
    <rc><c>O </c><c>   2</c></rc>
    <rc><c>O </c><c>   2</c></rc>
    <rc><c>O </c><c>   2</c></rc>
    <rc><c>O </c><c>   2</c></rc>
    <rc><c>O </c><c>   2</c></rc>
    <rc><c>S </c><c>   3</c></rc>
    <rc><c>S </c><c>   3</c></rc>
    <rc><c>S </c><c>   3</c></rc>
    <rc><c>S </c><c>   3</c></rc>
    <rc><c>S </c><c>   3</c></rc>
    <rc><c>S </c><c>   3</c></rc>
    <rc><c>S </c><c>   3</c></rc>
    <rc><c>S </c><c>   3</c></rc>
    <rc><c>S </c><c>   3</c></rc>
    <rc><c>S </c><c>   3</c></rc>
    <rc><c>S </c><c>   3</c></rc>
    <rc><c>S </c><c>   3</c></rc>
    <rc><c>S </c><c>   3</c></rc>
    <rc><c>S </c><c>   3</c></rc>
    <rc><c>S </c><c>   3</c></rc>
    <rc><c>S </c><c>   3</c></rc>
    <rc><c>S </c><c>   3</c></rc>
    <rc><c>S </c><c>   3</c></rc>
    <rc><c>S </c><c>   3</c></rc>
    <rc><c>S </c><c>   3</c></rc>
    <rc><c>S </c><c>   3</c></rc>
    <rc><c>S </c><c>   3</c></rc>
    <rc><c>S </c><c>   3</c></rc>
    <rc><c>S </c><c>   3</c></rc>
    <rc><c>Fe</c><c>   4</c></rc>
    <rc><c>Fe</c><c>   4</c></rc>
    <rc><c>Fe</c><c>   4</c></rc>
    <rc><c>Fe</c><c>   4</c></rc>
    <rc><c>Fe</c><c>   4</c></rc>
    <rc><c>Fe</c><c>   4</c></rc>
    <rc><c>Fe</c><c>   4</c></rc>
    <rc><c>Fe</c><c>   4</c></rc>
    <rc><c>Fe</c><c>   4</c></rc>
    <rc><c>Fe</c><c>   4</c></rc>
    <rc><c>Fe</c><c>   4</c></rc>
    <rc><c>Fe</c><c>   4</c></rc>
    <rc><c>Fe</c><c>   4</c></rc>
    <rc><c>Fe</c><c>   4</c></rc>
    <rc><c>Fe</c><c>   4</c></rc>
    <rc><c>Fe</c><c>   4</c></rc>
    <rc><c>Fe</c><c>   4</c></rc>
    <rc><c>Fe</c><c>   4</c></rc>
    <rc><c>Fe</c><c>   4</c></rc>
    <rc><c>Fe</c><c>   4</c></rc>
    <rc><c>Fe</c><c>   4</c></rc>
    <rc><c>Fe</c><c>   4</c></rc>
    <rc><c>Fe</c><c>   4</c></rc>
    <rc><c>Fe</c><c>   4</c></rc>
    <rc><c>Fe</c><c>   4</c></rc>
    <rc><c>Fe</c><c>   4</c></rc>
    <rc><c>Fe</c><c>   4</c></rc>
    <rc><c>Fe</c><c>   4</c></rc>
    <rc><c>Fe</c><c>   4</c></rc>
    <rc><c>Fe</c><c>   4</c></rc>
    <rc><c>Fe</c><c>   4</c></rc>
    <rc><c>Fe</c><c>   4</c></rc>
    <rc><c>Fe</c><c>   4</c></rc>
    <rc><c>Fe</c><c>   4</c></rc>
    <rc><c>Fe</c><c>   4</c></rc>
    <rc><c>Fe</c><c>   4</c></rc>
   </set>
  </array>
  <array name="atomtypes" >
   <dimension dim="1">type</dimension>
   <field type="int">atomspertype</field>
   <field type="string">element</field>
   <field>mass</field>
   <field>valence</field>
   <field type="string">pseudopotential</field>
   <set>
    <rc><c>  24</c><c>Li</c><c>      7.01000000</c><c>      3.00000000</c><c>  PAW_PBE Li_sv 10Sep2004               </c></rc>
    <rc><c>  24</c><c>O </c><c>     16.00000000</c><c>      6.00000000</c><c>  PAW_PBE O 08Apr2002                   </c></rc>
    <rc><c>  24</c><c>S </c><c>     32.06600000</c><c>      6.00000000</c><c>  PAW_PBE S 06Sep2000                   </c></rc>
    <rc><c>  36</c><c>Fe</c><c>     55.84700000</c><c>     14.00000000</c><c>  PAW_PBE Fe_pv 02Aug2007               </c></rc>
   </set>
  </array>
 </atominfo>
 <structure name="initialpos" >
  <crystal>
   <varray name="basis" >
    <v>      11.51036847       0.00000000       0.00000000 </v>
    <v>       0.00000000      11.32670916       0.12548940 </v>
    <v>       0.00000000      -0.29683152      11.32351444 </v>
   </varray>
   <i name="volume">   1476.72737236 </i>
   <varray name="rec_basis" >
    <v>       0.08687819       0.00000000       0.00000000 </v>
    <v>       0.00000000       0.08826126       0.00231366 </v>
    <v>       0.00000000      -0.00097813       0.08828616 </v>
   </varray>
  </crystal>
  <varray name="positions" >
   <v>       0.10513295       0.25000000       0.00000000 </v>
   <v>       0.43846628       0.25000000       0.00000000 </v>
   <v>       0.77179961       0.25000000       0.00000000 </v>
   <v>       0.10513295       0.75000000       0.00000000 </v>
   <v>       0.43846628       0.75000000       0.00000000 </v>
   <v>       0.77179961       0.75000000       0.00000000 </v>
   <v>       0.10513295       0.25000000       0.50000000 </v>
   <v>       0.43846628       0.25000000       0.50000000 </v>
   <v>       0.77179961       0.25000000       0.50000000 </v>
   <v>       0.10513295       0.75000000       0.50000000 </v>
   <v>       0.43846628       0.75000000       0.50000000 </v>
   <v>       0.77179961       0.75000000       0.50000000 </v>
   <v>       0.10513295       0.00000000       0.25000000 </v>
   <v>       0.43846628       0.00000000       0.25000000 </v>
   <v>       0.77179961       0.00000000       0.25000000 </v>
   <v>       0.10513295       0.50000000       0.25000000 </v>
   <v>       0.43846628       0.50000000       0.25000000 </v>
   <v>       0.77179961       0.50000000       0.25000000 </v>
   <v>       0.10513295       0.00000000       0.75000000 </v>
   <v>       0.43846628       0.00000000       0.75000000 </v>
   <v>       0.77179961       0.00000000       0.75000000 </v>
   <v>       0.10513295       0.50000000       0.75000000 </v>
   <v>       0.43846628       0.50000000       0.75000000 </v>
   <v>       0.77179961       0.50000000       0.75000000 </v>
   <v>       0.10614906       0.12527662       0.37472338 </v>
   <v>       0.43948239       0.12527662       0.37472338 </v>
   <v>       0.77281572       0.12527662       0.37472338 </v>
   <v>       0.10614906       0.62527662       0.37472338 </v>
   <v>       0.43948239       0.62527662       0.37472338 </v>
   <v>       0.77281572       0.62527662       0.37472338 </v>
   <v>       0.10614906       0.12527662       0.87472338 </v>
   <v>       0.43948239       0.12527662       0.87472338 </v>
   <v>       0.77281572       0.12527662       0.87472338 </v>
   <v>       0.10614906       0.62527662       0.87472338 </v>
   <v>       0.43948239       0.62527662       0.87472338 </v>
   <v>       0.77281572       0.62527662       0.87472338 </v>
   <v>       0.10614906       0.37472338       0.12527662 </v>
   <v>       0.43948239       0.37472338       0.12527662 </v>
   <v>       0.77281572       0.37472338       0.12527662 </v>
   <v>       0.10614906       0.87472338       0.12527662 </v>
   <v>       0.43948239       0.87472338       0.12527662 </v>
   <v>       0.77281572       0.87472338       0.12527662 </v>
   <v>       0.10614906       0.37472338       0.62527662 </v>
   <v>       0.43948239       0.37472338       0.62527662 </v>
   <v>       0.77281572       0.37472338       0.62527662 </v>
   <v>       0.10614906       0.87472338       0.62527662 </v>
   <v>       0.43948239       0.87472338       0.62527662 </v>
   <v>       0.77281572       0.87472338       0.62527662 </v>
   <v>       0.27279884       0.11809471       0.11809471 </v>
   <v>       0.60613218       0.11809471       0.11809471 </v>
   <v>       0.93946551       0.11809471       0.11809471 </v>
   <v>       0.27279884       0.61809471       0.11809471 </v>
   <v>       0.60613218       0.61809471       0.11809471 </v>
   <v>       0.93946551       0.61809471       0.11809471 </v>
   <v>       0.27279884       0.11809471       0.61809471 </v>
   <v>       0.60613218       0.11809471       0.61809471 </v>
   <v>       0.93946551       0.11809471       0.61809471 </v>
   <v>       0.27279884       0.61809471       0.61809471 </v>
   <v>       0.60613218       0.61809471       0.61809471 </v>
   <v>       0.93946551       0.61809471       0.61809471 </v>
   <v>       0.27279884       0.38190529       0.38190529 </v>
   <v>       0.60613218       0.38190529       0.38190529 </v>
   <v>       0.93946551       0.38190529       0.38190529 </v>
   <v>       0.27279884       0.88190529       0.38190529 </v>
   <v>       0.60613218       0.88190529       0.38190529 </v>
   <v>       0.93946551       0.88190529       0.38190529 </v>
   <v>       0.27279884       0.38190529       0.88190529 </v>
   <v>       0.60613218       0.38190529       0.88190529 </v>
   <v>       0.93946551       0.38190529       0.88190529 </v>
   <v>       0.27279884       0.88190529       0.88190529 </v>
   <v>       0.60613218       0.88190529       0.88190529 </v>
   <v>       0.93946551       0.88190529       0.88190529 </v>
   <v>       0.27287151       0.33995708       0.16092573 </v>
   <v>       0.60620484       0.33907427       0.16092573 </v>
   <v>       0.93953818       0.33907427       0.16092573 </v>
   <v>       0.27287151       0.83907427       0.16092573 </v>
   <v>       0.60620484       0.83907427       0.16092573 </v>
   <v>       0.93953818       0.83907427       0.16092573 </v>
   <v>       0.27287151       0.33907427       0.66092573 </v>
   <v>       0.60620484       0.33907427       0.66092573 </v>
   <v>       0.93953818       0.33907427       0.66092573 </v>
   <v>       0.27287151       0.83907427       0.66092573 </v>
   <v>       0.60620484       0.83907427       0.66092573 </v>
   <v>       0.93953818       0.83907427       0.66092573 </v>
   <v>       0.27287151       0.16092573       0.33907427 </v>
   <v>       0.60620484       0.16092573       0.33907427 </v>
   <v>       0.93953818       0.16092573       0.33907427 </v>
   <v>       0.27287151       0.66092573       0.33907427 </v>
   <v>       0.60620484       0.66092573       0.33907427 </v>
   <v>       0.93953818       0.66092573       0.33907427 </v>
   <v>       0.27287151       0.16092573       0.83907427 </v>
   <v>       0.60620484       0.16092573       0.83907427 </v>
   <v>       0.93953818       0.16092573       0.83907427 </v>
   <v>       0.27287151       0.66092573       0.83907427 </v>
   <v>       0.60620484       0.66092573       0.83907427 </v>
   <v>       0.93953818       0.66092573       0.83907427 </v>
   <v>       0.10731129       0.00000000       0.00000000 </v>
   <v>       0.44064462       0.00000000       0.00000000 </v>
   <v>       0.77397796       0.00000000       0.00000000 </v>
   <v>       0.10731129       0.50000000       0.00000000 </v>
   <v>       0.44064462       0.50000000       0.00000000 </v>
   <v>       0.77397796       0.50000000       0.00000000 </v>
   <v>       0.10731129       0.00000000       0.50000000 </v>
   <v>       0.44064462       0.00000000       0.50000000 </v>
   <v>       0.77397796       0.00000000       0.50000000 </v>
   <v>       0.10731129       0.50000000       0.50000000 </v>
   <v>       0.44064462       0.50000000       0.50000000 </v>
   <v>       0.77397796       0.50000000       0.50000000 </v>
  </varray>
 </structure>
 <calculation>
  <scstep>
   <time name="dav">  415.55  416.62</time>
   <time name="total">  419.19  420.27</time>
   <energy>
    <i name="alphaZ">   2671.99667194 </i>
    <i name="ewald"> -65587.66613949 </i>
    <i name="hartreedc"> -36916.65303997 </i>
    <i name="XCdc">   3880.55507756 </i>
    <i name="pawpsdc">  87409.98379221 </i>
    <i name="pawaedc"> -90654.48884115 </i>
    <i name="eentropy">     -0.02757790 </i>
    <i name="bandstr">   1719.50745540 </i>
    <i name="atom"> 110354.31518496 </i>
    <i name="e_fr_energy">  12877.52258357 </i>
    <i name="e_wo_entrp">  12877.55016147 </i>
    <i name="e_0_energy">  12877.53637252 </i>
   </energy>
  </scstep>
  <scstep>
   <time name="dav">  406.65  407.68</time>
   <time name="total">  406.67  407.70</time>
   <energy>
    <i name="e_fr_energy">   1533.19830196 </i>
    <i name="e_wo_entrp">   1533.27081265 </i>
    <i name="e_0_energy">   1533.23455731 </i>
   </energy>
  </scstep>
  <scstep>
   <time name="dav">  423.76  424.88</time>
   <time name="total">  423.78  424.89</time>
   <energy>
    <i name="e_fr_energy">   -433.37177069 </i>
    <i name="e_wo_entrp">   -433.30209758 </i>
    <i name="e_0_energy">   -433.33693413 </i>
   </energy>
  </scstep>
  <scstep>
   <time name="dav">  480.23  481.48</time>
   <time name="total">  480.24  481.50</time>
   <energy>
    <i name="e_fr_energy">   -646.86383131 </i>
    <i name="e_wo_entrp">   -646.79594893 </i>
    <i name="e_0_energy">   -646.82989012 </i>
   </energy>
  </scstep>
  <scstep>
   <time name="dav">  630.66  632.29</time>
   <time name="total">  640.15  641.80</time>
   <energy>
    <i name="e_fr_energy">   -664.74682183 </i>
    <i name="e_wo_entrp">   -664.66024359 </i>
    <i name="e_0_energy">   -664.70353271 </i>
   </energy>
  </scstep>
  <scstep>
   <time name="dav">  478.03  479.24</time>
   <time name="total">  491.14  492.39</time>
   <energy>
    <i name="e_fr_energy">   -558.90593996 </i>
    <i name="e_wo_entrp">   -558.82013999 </i>
    <i name="e_0_energy">   -558.86303997 </i>
   </energy>
  </scstep>
  <scstep>
   <time name="dav">  452.93  454.10</time>
   <time name="total">  465.65  466.86</time>
   <energy>
    <i name="e_fr_energy">   -581.86636310 </i>
    <i name="e_wo_entrp">   -581.82857599 </i>
    <i name="e_0_energy">   -581.84746954 </i>
   </energy>
  </scstep>
  <scstep>
   <time name="dav">  469.14  470.38</time>
   <time name="total">  481.80  483.07</time>
   <energy>
    <i name="e_fr_energy">   -590.24736586 </i>
    <i name="e_wo_entrp">   -590.24736586 </i>
    <i name="e_0_energy">   -590.24736586 </i>
   </energy>
  </scstep>
  <scstep>
   <time name="dav">  466.59  467.80</time>
   <time name="total">  479.15  480.38</time>
   <energy>
    <i name="e_fr_energy">   -597.84857614 </i>
    <i name="e_wo_entrp">   -597.84857614 </i>
    <i name="e_0_energy">   -597.84857614 </i>
   </energy>
  </scstep>
  <scstep>
   <time name="dav">  490.57  491.79</time>
   <time name="total">  503.06  504.31</time>
   <energy>
    <i name="e_fr_energy">   -601.05716217 </i>
    <i name="e_wo_entrp">   -601.05716217 </i>
    <i name="e_0_energy">   -601.05716217 </i>
   </energy>
  </scstep>
  <scstep>
   <time name="dav">  494.66  495.94</time>
   <time name="total">  507.83  509.14</time>
   <energy>
    <i name="e_fr_energy">   -601.86289388 </i>
    <i name="e_wo_entrp">   -601.86289388 </i>
    <i name="e_0_energy">   -601.86289388 </i>
   </energy>
  </scstep>
  <scstep>
   <time name="dav">  488.18  489.41</time>
   <time name="total">  500.97  502.23</time>
   <energy>
    <i name="e_fr_energy">   -601.92290196 </i>
    <i name="e_wo_entrp">   -601.92290196 </i>
    <i name="e_0_energy">   -601.92290196 </i>
   </energy>
  </scstep>
  <scstep>
   <time name="dav">  491.66  492.86</time>
   <time name="total">  504.62  505.85</time>
   <energy>
    <i name="e_fr_energy">   -601.95305867 </i>
    <i name="e_wo_entrp">   -601.95305867 </i>
    <i name="e_0_energy">   -601.95305867 </i>
   </energy>
  </scstep>
  <scstep>
   <time name="dav">  484.55  485.79</time>
   <time name="total">  497.57  498.84</time>
   <energy>
    <i name="e_fr_energy">   -601.95750809 </i>
    <i name="e_wo_entrp">   -601.95750809 </i>
    <i name="e_0_energy">   -601.95750809 </i>
   </energy>
  </scstep>
  <scstep>
   <time name="dav">  539.69  541.08</time>
   <time name="total">  552.68  554.10</time>
   <energy>
    <i name="e_fr_energy">   -601.95810633 </i>
    <i name="e_wo_entrp">   -601.95810633 </i>
    <i name="e_0_energy">   -601.95810633 </i>
   </energy>
  </scstep>
  <scstep>
   <time name="dav">  458.18  459.30</time>
   <time name="total">  470.93  472.08</time>
   <energy>
    <i name="e_fr_energy">   -601.95882282 </i>
    <i name="e_wo_entrp">   -601.95882282 </i>
    <i name="e_0_energy">   -601.95882282 </i>
   </energy>
  </scstep>
  <scstep>
   <time name="dav">  468.88  470.03</time>
   <time name="total">  482.26  483.44</time>
   <energy>
    <i name="e_fr_energy">   -601.95896584 </i>
    <i name="e_wo_entrp">   -601.95896584 </i>
    <i name="e_0_energy">   -601.95896584 </i>
   </energy>
  </scstep>
  <scstep>
   <time name="dav">  496.39  497.65</time>
   <time name="total">  509.39  510.67</time>
   <energy>
    <i name="e_fr_energy">   -601.95899220 </i>
    <i name="e_wo_entrp">   -601.95899220 </i>
    <i name="e_0_energy">   -601.95899220 </i>
   </energy>
  </scstep>
  <scstep>
   <time name="dav">  477.26  478.41</time>
   <time name="total">  490.27  491.46</time>
   <energy>
    <i name="e_fr_energy">   -601.95901175 </i>
    <i name="e_wo_entrp">   -601.95901175 </i>
    <i name="e_0_energy">   -601.95901175 </i>
   </energy>
  </scstep>
  <scstep>
   <time name="dav">  463.26  464.37</time>
   <time name="total">  475.84  476.99</time>
   <energy>
    <i name="e_fr_energy">   -601.95902309 </i>
    <i name="e_wo_entrp">   -601.95902309 </i>
    <i name="e_0_energy">   -601.95902309 </i>
   </energy>
  </scstep>
  <scstep>
   <time name="dav">  476.73  477.89</time>
   <time name="total">  489.27  490.46</time>
   <energy>
    <i name="e_fr_energy">   -601.95902861 </i>
    <i name="e_wo_entrp">   -601.95902861 </i>
    <i name="e_0_energy">   -601.95902861 </i>
   </energy>
  </scstep>
  <scstep>
   <time name="dav">  477.24  478.46</time>
   <time name="total">  489.93  491.19</time>
   <energy>
    <i name="e_fr_energy">   -601.95903103 </i>
    <i name="e_wo_entrp">   -601.95903103 </i>
    <i name="e_0_energy">   -601.95903103 </i>
   </energy>
  </scstep>
  <scstep>
   <time name="dav">  501.76  502.97</time>
   <time name="total">  514.60  515.85</time>
   <energy>
    <i name="e_fr_energy">   -601.95903322 </i>
    <i name="e_wo_entrp">   -601.95903322 </i>
    <i name="e_0_energy">   -601.95903322 </i>
   </energy>
  </scstep>
  <scstep>
   <time name="dav">  470.10  471.27</time>
   <time name="total">  483.19  484.39</time>
   <energy>
    <i name="e_fr_energy">   -601.95903486 </i>
    <i name="e_wo_entrp">   -601.95903486 </i>
    <i name="e_0_energy">   -601.95903486 </i>
   </energy>
  </scstep>
  <scstep>
   <time name="dav">  453.18  454.31</time>
   <time name="total">  466.06  467.23</time>
   <energy>
    <i name="e_fr_energy">   -601.95903651 </i>
    <i name="e_wo_entrp">   -601.95903651 </i>
    <i name="e_0_energy">   -601.95903651 </i>
   </energy>
  </scstep>
  <scstep>
   <time name="dav">  482.90  484.11</time>
   <time name="total">  496.27  497.51</time>
   <energy>
    <i name="e_fr_energy">   -601.95903897 </i>
    <i name="e_wo_entrp">   -601.95903897 </i>
    <i name="e_0_energy">   -601.95903897 </i>
   </energy>
  </scstep>
  <scstep>
   <time name="dav">  493.45  494.70</time>
   <time name="total">  506.44  507.72</time>
   <energy>
    <i name="e_fr_energy">   -601.95904151 </i>
    <i name="e_wo_entrp">   -601.95904151 </i>
    <i name="e_0_energy">   -601.95904151 </i>
   </energy>
  </scstep>
  <scstep>
   <time name="dav">  477.13  478.30</time>
   <time name="total">  490.57  491.77</time>
   <energy>
    <i name="e_fr_energy">   -601.95904284 </i>
    <i name="e_wo_entrp">   -601.95904284 </i>
    <i name="e_0_energy">   -601.95904284 </i>
   </energy>
  </scstep>
  <scstep>
   <time name="dav">  454.91  456.03</time>
   <time name="total">  467.87  469.02</time>
   <energy>
    <i name="e_fr_energy">   -601.95904339 </i>
    <i name="e_wo_entrp">   -601.95904339 </i>
    <i name="e_0_energy">   -601.95904339 </i>
   </energy>
  </scstep>
  <scstep>
   <time name="dav">  440.93  442.04</time>
   <time name="total">  454.37  455.51</time>
   <energy>
    <i name="e_fr_energy">   -601.95904366 </i>
    <i name="e_wo_entrp">   -601.95904366 </i>
    <i name="e_0_energy">   -601.95904366 </i>
   </energy>
  </scstep>
  <scstep>
   <time name="dav">  425.48  426.51</time>
   <time name="total">  438.63  439.70</time>
   <energy>
    <i name="e_fr_energy">   -601.95904379 </i>
    <i name="e_wo_entrp">   -601.95904379 </i>
    <i name="e_0_energy">   -601.95904379 </i>
   </energy>
  </scstep>
  <scstep>
   <time name="dav">  369.02  369.91</time>
   <time name="total">  382.01  382.93</time>
   <energy>
    <i name="e_fr_energy">   -601.95904385 </i>
    <i name="e_wo_entrp">   -601.95904385 </i>
    <i name="e_0_energy">   -601.95904385 </i>
   </energy>
  </scstep>
  <scstep>
   <time name="dav">  305.12  305.86</time>
   <time name="total">  318.18  318.95</time>
   <energy>
    <i name="e_fr_energy">   -601.95904386 </i>
    <i name="e_wo_entrp">   -601.95904386 </i>
    <i name="e_0_energy">   -601.95904386 </i>
   </energy>
  </scstep>
  <scstep>
   <time name="dav">  297.96  298.69</time>
   <time name="total">  310.96  311.73</time>
   <energy>
    <i name="e_fr_energy">   -601.95904388 </i>
    <i name="e_wo_entrp">   -601.95904388 </i>
    <i name="e_0_energy">   -601.95904388 </i>
   </energy>
  </scstep>
  <scstep>
   <time name="dav">  307.41  308.24</time>
   <time name="total">  310.89  311.73</time>
   <energy>
    <i name="alphaZ">   2671.99667194 </i>
    <i name="ewald"> -65587.66613949 </i>
    <i name="hartreedc"> -35899.10862375 </i>
    <i name="XCdc">   3842.05161998 </i>
    <i name="pawpsdc"> 106010.03754677 </i>
    <i name="pawaedc">-109344.51191468 </i>
    <i name="eentropy">     -0.00000000 </i>
    <i name="bandstr"> -12649.07338961 </i>
    <i name="atom"> 110354.31518496 </i>
    <i name="e_fr_energy">   -601.95904388 </i>
    <i name="e_wo_entrp">   -601.95904388 </i>
    <i name="e_0_energy">   -601.95904388 </i>
   </energy>
  </scstep>
  <structure>
   <crystal>
    <varray name="basis" >
     <v>      11.51036847       0.00000000       0.00000000 </v>
     <v>       0.00000000      11.32670916       0.12548940 </v>
     <v>       0.00000000      -0.29683152      11.32351444 </v>
    </varray>
    <i name="volume">   1476.72737236 </i>
    <varray name="rec_basis" >
     <v>       0.08687819       0.00000000       0.00000000 </v>
     <v>       0.00000000       0.08826126       0.00231366 </v>
     <v>       0.00000000      -0.00097813       0.08828616 </v>
    </varray>
   </crystal>
   <varray name="positions" >
    <v>       0.10513295       0.25000000       0.00000000 </v>
    <v>       0.43846628       0.25000000       0.00000000 </v>
    <v>       0.77179961       0.25000000       0.00000000 </v>
    <v>       0.10513295       0.75000000       0.00000000 </v>
    <v>       0.43846628       0.75000000       0.00000000 </v>
    <v>       0.77179961       0.75000000       0.00000000 </v>
    <v>       0.10513295       0.25000000       0.50000000 </v>
    <v>       0.43846628       0.25000000       0.50000000 </v>
    <v>       0.77179961       0.25000000       0.50000000 </v>
    <v>       0.10513295       0.75000000       0.50000000 </v>
    <v>       0.43846628       0.75000000       0.50000000 </v>
    <v>       0.77179961       0.75000000       0.50000000 </v>
    <v>       0.10513295       0.00000000       0.25000000 </v>
    <v>       0.43846628       0.00000000       0.25000000 </v>
    <v>       0.77179961       0.00000000       0.25000000 </v>
    <v>       0.10513295       0.50000000       0.25000000 </v>
    <v>       0.43846628       0.50000000       0.25000000 </v>
    <v>       0.77179961       0.50000000       0.25000000 </v>
    <v>       0.10513295       0.00000000       0.75000000 </v>
    <v>       0.43846628       0.00000000       0.75000000 </v>
    <v>       0.77179961       0.00000000       0.75000000 </v>
    <v>       0.10513295       0.50000000       0.75000000 </v>
    <v>       0.43846628       0.50000000       0.75000000 </v>
    <v>       0.77179961       0.50000000       0.75000000 </v>
    <v>       0.10614906       0.12527662       0.37472338 </v>
    <v>       0.43948239       0.12527662       0.37472338 </v>
    <v>       0.77281572       0.12527662       0.37472338 </v>
    <v>       0.10614906       0.62527662       0.37472338 </v>
    <v>       0.43948239       0.62527662       0.37472338 </v>
    <v>       0.77281572       0.62527662       0.37472338 </v>
    <v>       0.10614906       0.12527662       0.87472338 </v>
    <v>       0.43948239       0.12527662       0.87472338 </v>
    <v>       0.77281572       0.12527662       0.87472338 </v>
    <v>       0.10614906       0.62527662       0.87472338 </v>
    <v>       0.43948239       0.62527662       0.87472338 </v>
    <v>       0.77281572       0.62527662       0.87472338 </v>
    <v>       0.10614906       0.37472338       0.12527662 </v>
    <v>       0.43948239       0.37472338       0.12527662 </v>
    <v>       0.77281572       0.37472338       0.12527662 </v>
    <v>       0.10614906       0.87472338       0.12527662 </v>
    <v>       0.43948239       0.87472338       0.12527662 </v>
    <v>       0.77281572       0.87472338       0.12527662 </v>
    <v>       0.10614906       0.37472338       0.62527662 </v>
    <v>       0.43948239       0.37472338       0.62527662 </v>
    <v>       0.77281572       0.37472338       0.62527662 </v>
    <v>       0.10614906       0.87472338       0.62527662 </v>
    <v>       0.43948239       0.87472338       0.62527662 </v>
    <v>       0.77281572       0.87472338       0.62527662 </v>
    <v>       0.27279884       0.11809471       0.11809471 </v>
    <v>       0.60613218       0.11809471       0.11809471 </v>
    <v>       0.93946551       0.11809471       0.11809471 </v>
    <v>       0.27279884       0.61809471       0.11809471 </v>
    <v>       0.60613218       0.61809471       0.11809471 </v>
    <v>       0.93946551       0.61809471       0.11809471 </v>
    <v>       0.27279884       0.11809471       0.61809471 </v>
    <v>       0.60613218       0.11809471       0.61809471 </v>
    <v>       0.93946551       0.11809471       0.61809471 </v>
    <v>       0.27279884       0.61809471       0.61809471 </v>
    <v>       0.60613218       0.61809471       0.61809471 </v>
    <v>       0.93946551       0.61809471       0.61809471 </v>
    <v>       0.27279884       0.38190529       0.38190529 </v>
    <v>       0.60613218       0.38190529       0.38190529 </v>
    <v>       0.93946551       0.38190529       0.38190529 </v>
    <v>       0.27279884       0.88190529       0.38190529 </v>
    <v>       0.60613218       0.88190529       0.38190529 </v>
    <v>       0.93946551       0.88190529       0.38190529 </v>
    <v>       0.27279884       0.38190529       0.88190529 </v>
    <v>       0.60613218       0.38190529       0.88190529 </v>
    <v>       0.93946551       0.38190529       0.88190529 </v>
    <v>       0.27279884       0.88190529       0.88190529 </v>
    <v>       0.60613218       0.88190529       0.88190529 </v>
    <v>       0.93946551       0.88190529       0.88190529 </v>
    <v>       0.27287151       0.33995708       0.16092573 </v>
    <v>       0.60620484       0.33907427       0.16092573 </v>
    <v>       0.93953818       0.33907427       0.16092573 </v>
    <v>       0.27287151       0.83907427       0.16092573 </v>
    <v>       0.60620484       0.83907427       0.16092573 </v>
    <v>       0.93953818       0.83907427       0.16092573 </v>
    <v>       0.27287151       0.33907427       0.66092573 </v>
    <v>       0.60620484       0.33907427       0.66092573 </v>
    <v>       0.93953818       0.33907427       0.66092573 </v>
    <v>       0.27287151       0.83907427       0.66092573 </v>
    <v>       0.60620484       0.83907427       0.66092573 </v>
    <v>       0.93953818       0.83907427       0.66092573 </v>
    <v>       0.27287151       0.16092573       0.33907427 </v>
    <v>       0.60620484       0.16092573       0.33907427 </v>
    <v>       0.93953818       0.16092573       0.33907427 </v>
    <v>       0.27287151       0.66092573       0.33907427 </v>
    <v>       0.60620484       0.66092573       0.33907427 </v>
    <v>       0.93953818       0.66092573       0.33907427 </v>
    <v>       0.27287151       0.16092573       0.83907427 </v>
    <v>       0.60620484       0.16092573       0.83907427 </v>
    <v>       0.93953818       0.16092573       0.83907427 </v>
    <v>       0.27287151       0.66092573       0.83907427 </v>
    <v>       0.60620484       0.66092573       0.83907427 </v>
    <v>       0.93953818       0.66092573       0.83907427 </v>
    <v>       0.10731129       0.00000000       0.00000000 </v>
    <v>       0.44064462       0.00000000       0.00000000 </v>
    <v>       0.77397796       0.00000000       0.00000000 </v>
    <v>       0.10731129       0.50000000       0.00000000 </v>
    <v>       0.44064462       0.50000000       0.00000000 </v>
    <v>       0.77397796       0.50000000       0.00000000 </v>
    <v>       0.10731129       0.00000000       0.50000000 </v>
    <v>       0.44064462       0.00000000       0.50000000 </v>
    <v>       0.77397796       0.00000000       0.50000000 </v>
    <v>       0.10731129       0.50000000       0.50000000 </v>
    <v>       0.44064462       0.50000000       0.50000000 </v>
    <v>       0.77397796       0.50000000       0.50000000 </v>
   </varray>
  </structure>
  <varray name="forces" >
   <v>       0.02273687      -0.00162513       0.00339296 </v>
   <v>       0.01359436      -0.00161551       0.00355659 </v>
   <v>       0.01822472      -0.00048085       0.00012854 </v>
   <v>       0.01733173       0.00099569      -0.00054418 </v>
   <v>       0.01912174       0.00100273      -0.00055949 </v>
   <v>       0.01822337       0.00032028      -0.00016800 </v>
   <v>       0.01803565      -0.00069779      -0.00027783 </v>
   <v>       0.01841633      -0.00070596      -0.00028543 </v>
   <v>       0.01822527      -0.00027609       0.00000371 </v>
   <v>       0.01834311       0.00031253       0.00006165 </v>
   <v>       0.01810409       0.00031434       0.00006222 </v>
   <v>       0.01822308       0.00017480      -0.00000937 </v>
   <v>       0.01965228       0.00118225      -0.00105839 </v>
   <v>       0.01680575       0.00118975      -0.00108516 </v>
   <v>       0.01822711       0.00020826      -0.00009870 </v>
   <v>       0.01260446       0.00323922       0.00354258 </v>
   <v>       0.02403305       0.00341532       0.00371330 </v>
   <v>       0.01823105      -0.00001793       0.00015196 </v>
   <v>       0.01821417       0.00011397       0.00019976 </v>
   <v>       0.01824403       0.00011559       0.00019974 </v>
   <v>       0.01822767       0.00000334       0.00003168 </v>
   <v>       0.01826072       0.00009318      -0.00013599 </v>
   <v>       0.01819153       0.00009455      -0.00013577 </v>
   <v>       0.01822736       0.00010184      -0.00005765 </v>
   <v>      -0.00059717      -0.00251437       0.00426886 </v>
   <v>       0.00330340      -0.00252929       0.00425887 </v>
   <v>       0.00135484      -0.00219628       0.00286139 </v>
   <v>       0.00221398      -0.00255370       0.00165472 </v>
   <v>       0.00050452      -0.00254373       0.00165166 </v>
   <v>       0.00135305      -0.00240471       0.00249073 </v>
   <v>       0.00025685      -0.00183002       0.00101658 </v>
   <v>       0.00245353      -0.00182988       0.00101344 </v>
   <v>       0.00135161      -0.00205812       0.00244833 </v>
   <v>       0.00196278      -0.00271476       0.00369122 </v>
   <v>       0.00075339      -0.00272721       0.00369403 </v>
   <v>       0.00135764      -0.00254944       0.00281735 </v>
   <v>      -0.00797075       0.01054119      -0.00376236 </v>
   <v>       0.01077183       0.01052213      -0.00380220 </v>
   <v>       0.00135367       0.00258565      -0.00256806 </v>
   <v>       0.00063210      -0.00117861      -0.00242735 </v>
   <v>       0.00208712      -0.00118483      -0.00243786 </v>
   <v>       0.00136108       0.00185901      -0.00256350 </v>
   <v>       0.00189070       0.00222270      -0.00284823 </v>
   <v>       0.00081535       0.00222677      -0.00284833 </v>
   <v>       0.00135938       0.00236484      -0.00258055 </v>
   <v>       0.00119115       0.00215265      -0.00258846 </v>
   <v>       0.00153129       0.00215416      -0.00258630 </v>
   <v>       0.00135612       0.00216596      -0.00266910 </v>
   <v>       0.01635208       0.01760794       0.00902594 </v>
   <v>       0.01717935       0.00465238       0.00511877 </v>
   <v>       0.01546251       0.00465747       0.00512275 </v>
   <v>       0.01631283      -0.00342026       0.00605203 </v>
   <v>       0.01587544       0.00335295       0.00497455 </v>
   <v>       0.01677026       0.00335100       0.00497092 </v>
   <v>       0.01632172       0.00436511       0.00517598 </v>
   <v>       0.01647216       0.00409338       0.00509407 </v>
   <v>       0.01617367       0.00409018       0.00509113 </v>
   <v>       0.01632208       0.00371051       0.00519238 </v>
   <v>       0.01630561       0.00362796       0.00500583 </v>
   <v>       0.01634025       0.00362927       0.00500760 </v>
   <v>       0.01630493      -0.00077197      -0.00147526 </v>
   <v>       0.01611703      -0.00345595      -0.00541667 </v>
   <v>       0.01653751      -0.00345347      -0.00541639 </v>
   <v>       0.01632946      -0.00560858      -0.00450673 </v>
   <v>       0.01645469      -0.00431531      -0.00498817 </v>
   <v>       0.01619878      -0.00431880      -0.00499183 </v>
   <v>       0.01631555      -0.00169304      -0.00422239 </v>
   <v>       0.01606049      -0.00346611      -0.00447908 </v>
   <v>       0.01658529      -0.00346661      -0.00447833 </v>
   <v>       0.01632635      -0.00560559      -0.00543915 </v>
   <v>       0.01647611      -0.00438012      -0.00520286 </v>
   <v>       0.01617170      -0.00437966      -0.00520146 </v>
   <v>      -0.02159983      -0.05252103      -0.00291710 </v>
   <v>      -0.01963553      -0.00682107       0.00639698 </v>
   <v>      -0.02341469      -0.00681997       0.00639700 </v>
   <v>      -0.02151378       0.00086753       0.00644431 </v>
   <v>      -0.02195597      -0.00518646       0.00578438 </v>
   <v>      -0.02110308      -0.00518760       0.00578159 </v>
   <v>      -0.02151889      -0.00626639       0.00625384 </v>
   <v>      -0.02141256      -0.00607719       0.00575945 </v>
   <v>      -0.02164536      -0.00607628       0.00575985 </v>
   <v>      -0.02152573      -0.00572744       0.00593730 </v>
   <v>      -0.02159013      -0.00557546       0.00594304 </v>
   <v>      -0.02146240      -0.00557444       0.00594063 </v>
   <v>      -0.02153614       0.01055643      -0.01670197 </v>
   <v>      -0.02247448       0.00530953      -0.00603429 </v>
   <v>      -0.02056318       0.00530976      -0.00603524 </v>
   <v>      -0.02152203       0.00761464      -0.00344232 </v>
   <v>      -0.02115057       0.00608197      -0.00567992 </v>
   <v>      -0.02188394       0.00608102      -0.00568443 </v>
   <v>      -0.02152768       0.00532475      -0.00350816 </v>
   <v>      -0.02209510       0.00525173      -0.00570492 </v>
   <v>      -0.02094185       0.00525210      -0.00570331 </v>
   <v>      -0.02151926       0.00625004      -0.00730657 </v>
   <v>      -0.02119936       0.00614721      -0.00598977 </v>
   <v>      -0.02184074       0.00614813      -0.00599170 </v>
   <v>      -0.02584122       0.00227300       0.00249140 </v>
   <v>      -0.03170593       0.00224917       0.00246233 </v>
   <v>      -0.02876651       0.00030442       0.00019163 </v>
   <v>      -0.03271428       0.00225251      -0.00447537 </v>
   <v>      -0.02488356       0.00219435      -0.00435974 </v>
   <v>      -0.02876484       0.00003228      -0.00024853 </v>
   <v>      -0.02860819       0.00058365      -0.00067824 </v>
   <v>      -0.02892774       0.00058193      -0.00067269 </v>
   <v>      -0.02876719       0.00009941      -0.00006101 </v>
   <v>      -0.02868607       0.00036728       0.00040242 </v>
   <v>      -0.02884969       0.00035076       0.00037192 </v>
   <v>      -0.02876531       0.00010857       0.00004997 </v>
  </varray>
  <varray name="stress" >
   <v>      -2.49730224       0.00021920       0.00030669 </v>
   <v>       0.00021935      -1.76912940       0.55046812 </v>
   <v>       0.00030679       0.61979961      -1.66339718 </v>
  </varray>
  <energy>
   <i name="e_fr_energy">   -601.95904388 </i>
   <i name="e_wo_entrp">   -601.95904388 </i>
   <i name="e_0_energy">     -0.00000000 </i>
  </energy>
  <time name="totalsc">17157.9817201.10</time>
  <eigenvalues>
   <array>
    <dimension dim="1">band</dimension>
    <dimension dim="2">kpoint</dimension>
    <dimension dim="3">spin</dimension>
    <field>eigene</field>
    <field>occ</field>
    <set>
     <set comment="spin 1">
      <set comment="kpoint 1">
       <r>  -51.3610    1.0000 </r>
       <r>  -51.3607    1.0000 </r>
       <r>  -51.3602    1.0000 </r>
       <r>  -51.3602    1.0000 </r>
       <r>  -51.3601    1.0000 </r>
       <r>  -51.3601    1.0000 </r>
       <r>  -51.3600    1.0000 </r>
       <r>  -51.3598    1.0000 </r>
       <r>  -51.3591    1.0000 </r>
       <r>  -51.3587    1.0000 </r>
       <r>  -51.3585    1.0000 </r>
       <r>  -51.3584    1.0000 </r>
       <r>  -51.3581    1.0000 </r>
       <r>  -51.3581    1.0000 </r>
       <r>  -51.3581    1.0000 </r>
       <r>  -51.3580    1.0000 </r>
       <r>  -51.3580    1.0000 </r>
       <r>  -51.3579    1.0000 </r>
       <r>  -51.3572    1.0000 </r>
       <r>  -51.3567    1.0000 </r>
       <r>  -51.3564    1.0000 </r>
       <r>  -51.3564    1.0000 </r>
       <r>  -51.3557    1.0000 </r>
       <r>  -51.3537    1.0000 </r>
       <r>  -51.0725    1.0000 </r>
       <r>  -51.0724    1.0000 </r>
       <r>  -51.0710    1.0000 </r>
       <r>  -51.0709    1.0000 </r>
       <r>  -51.0707    1.0000 </r>
       <r>  -51.0707    1.0000 </r>
       <r>  -51.0703    1.0000 </r>
       <r>  -51.0701    1.0000 </r>
       <r>  -51.0700    1.0000 </r>
       <r>  -51.0699    1.0000 </r>
       <r>  -51.0684    1.0000 </r>
       <r>  -51.0683    1.0000 </r>
       <r>  -50.1468    1.0000 </r>
       <r>  -50.1467    1.0000 </r>
       <r>  -50.1467    1.0000 </r>
       <r>  -50.1463    1.0000 </r>
       <r>  -50.1462    1.0000 </r>
       <r>  -50.1462    1.0000 </r>
       <r>  -50.1462    1.0000 </r>
       <r>  -50.1461    1.0000 </r>
       <r>  -50.1461    1.0000 </r>
       <r>  -50.1460    1.0000 </r>
       <r>  -50.1460    1.0000 </r>
       <r>  -50.1439    1.0000 </r>
       <r>  -50.1438    1.0000 </r>
       <r>  -50.1438    1.0000 </r>
       <r>  -50.1437    1.0000 </r>
       <r>  -50.1437    1.0000 </r>
       <r>  -50.1437    1.0000 </r>
       <r>  -50.1436    1.0000 </r>
       <r>  -50.1436    1.0000 </r>
       <r>  -50.1435    1.0000 </r>
       <r>  -50.1435    1.0000 </r>
       <r>  -50.1434    1.0000 </r>
       <r>  -50.1419    1.0000 </r>
       <r>  -50.1364    1.0000 </r>
       <r>  -49.8394    1.0000 </r>
       <r>  -49.8379    1.0000 </r>
       <r>  -49.8379    1.0000 </r>
       <r>  -49.8378    1.0000 </r>
       <r>  -49.8378    1.0000 </r>
       <r>  -49.8377    1.0000 </r>
       <r>  -49.8377    1.0000 </r>
       <r>  -49.8377    1.0000 </r>
       <r>  -49.8377    1.0000 </r>
       <r>  -49.8376    1.0000 </r>
       <r>  -49.8376    1.0000 </r>
       <r>  -49.8350    1.0000 </r>
       <r>  -49.8143    1.0000 </r>
       <r>  -49.8127    1.0000 </r>
       <r>  -49.8127    1.0000 </r>
       <r>  -49.8126    1.0000 </r>
       <r>  -49.8126    1.0000 </r>
       <r>  -49.8126    1.0000 </r>
       <r>  -49.8126    1.0000 </r>
       <r>  -49.8126    1.0000 </r>
       <r>  -49.8125    1.0000 </r>
       <r>  -49.8125    1.0000 </r>
       <r>  -49.8125    1.0000 </r>
       <r>  -49.8102    1.0000 </r>
       <r>  -49.7060    1.0000 </r>
       <r>  -49.7059    1.0000 </r>
       <r>  -49.7042    1.0000 </r>
       <r>  -49.7040    1.0000 </r>
       <r>  -49.7038    1.0000 </r>
       <r>  -49.7038    1.0000 </r>
       <r>  -49.7036    1.0000 </r>
       <r>  -49.7034    1.0000 </r>
       <r>  -49.7033    1.0000 </r>
       <r>  -49.7033    1.0000 </r>
       <r>  -49.7016    1.0000 </r>
       <r>  -49.7015    1.0000 </r>
       <r>  -49.5845    1.0000 </r>
       <r>  -49.5841    1.0000 </r>
       <r>  -49.5829    1.0000 </r>
       <r>  -49.5829    1.0000 </r>
       <r>  -49.5828    1.0000 </r>
       <r>  -49.5824    1.0000 </r>
       <r>  -49.5822    1.0000 </r>
       <r>  -49.5821    1.0000 </r>
       <r>  -49.5820    1.0000 </r>
       <r>  -49.5814    1.0000 </r>
       <r>  -49.5803    1.0000 </r>
       <r>  -49.5796    1.0000 </r>
       <r>  -40.1310    1.0000 </r>
       <r>  -40.1308    1.0000 </r>
       <r>  -40.1288    1.0000 </r>
       <r>  -40.1285    1.0000 </r>
       <r>  -40.1283    1.0000 </r>
       <r>  -40.1281    1.0000 </r>
       <r>  -40.1280    1.0000 </r>
       <r>  -40.1279    1.0000 </r>
       <r>  -40.1279    1.0000 </r>
       <r>  -40.1278    1.0000 </r>
       <r>  -40.1277    1.0000 </r>
       <r>  -40.1276    1.0000 </r>
       <r>  -40.1276    1.0000 </r>
       <r>  -40.1275    1.0000 </r>
       <r>  -40.1274    1.0000 </r>
       <r>  -40.1274    1.0000 </r>
       <r>  -40.1271    1.0000 </r>
       <r>  -40.1269    1.0000 </r>
       <r>  -40.1269    1.0000 </r>
       <r>  -40.1268    1.0000 </r>
       <r>  -40.1261    1.0000 </r>
       <r>  -40.1259    1.0000 </r>
       <r>  -40.1254    1.0000 </r>
       <r>  -40.1252    1.0000 </r>
       <r>  -13.5845    1.0000 </r>
       <r>  -13.5524    1.0000 </r>
       <r>  -13.5494    1.0000 </r>
       <r>  -13.5488    1.0000 </r>
       <r>  -13.4243    1.0000 </r>
       <r>  -13.4205    1.0000 </r>
       <r>  -13.4197    1.0000 </r>
       <r>  -13.4193    1.0000 </r>
       <r>  -13.4190    1.0000 </r>
       <r>  -13.3854    1.0000 </r>
       <r>  -13.3849    1.0000 </r>
       <r>  -13.3843    1.0000 </r>
       <r>  -13.3841    1.0000 </r>
       <r>  -13.3767    1.0000 </r>
       <r>  -13.3747    1.0000 </r>
       <r>  -13.3746    1.0000 </r>
       <r>  -13.2593    1.0000 </r>
       <r>  -13.2590    1.0000 </r>
       <r>  -13.2473    1.0000 </r>
       <r>  -13.2469    1.0000 </r>
       <r>  -13.2464    1.0000 </r>
       <r>  -13.2463    1.0000 </r>
       <r>  -13.2077    1.0000 </r>
       <r>  -13.2076    1.0000 </r>
       <r>   -7.5293    1.0000 </r>
       <r>   -7.3729    1.0000 </r>
       <r>   -7.3713    1.0000 </r>
       <r>   -7.3704    1.0000 </r>
       <r>   -7.3595    1.0000 </r>
       <r>   -7.3576    1.0000 </r>
       <r>   -7.2293    1.0000 </r>
       <r>   -7.2275    1.0000 </r>
       <r>   -7.1887    1.0000 </r>
       <r>   -7.1196    1.0000 </r>
       <r>   -7.1186    1.0000 </r>
       <r>   -7.1182    1.0000 </r>
       <r>   -7.1164    1.0000 </r>
       <r>   -7.0888    1.0000 </r>
       <r>   -7.0879    1.0000 </r>
       <r>   -7.0876    1.0000 </r>
       <r>   -7.0854    1.0000 </r>
       <r>   -7.0710    1.0000 </r>
       <r>   -7.0701    1.0000 </r>
       <r>   -7.0488    1.0000 </r>
       <r>   -7.0400    1.0000 </r>
       <r>   -7.0390    1.0000 </r>
       <r>   -6.8940    1.0000 </r>
       <r>   -6.8933    1.0000 </r>
       <r>   -2.0686    1.0000 </r>
       <r>   -2.0683    1.0000 </r>
       <r>   -2.0304    1.0000 </r>
       <r>   -2.0285    1.0000 </r>
       <r>   -2.0281    1.0000 </r>
       <r>   -2.0281    1.0000 </r>
       <r>   -2.0177    1.0000 </r>
       <r>   -2.0171    1.0000 </r>
       <r>   -2.0112    1.0000 </r>
       <r>   -2.0110    1.0000 </r>
       <r>   -1.9492    1.0000 </r>
       <r>   -1.9484    1.0000 </r>
       <r>   -1.9356    1.0000 </r>
       <r>   -1.9350    1.0000 </r>
       <r>   -1.9343    1.0000 </r>
       <r>   -1.9342    1.0000 </r>
       <r>   -1.7720    1.0000 </r>
       <r>   -1.7663    1.0000 </r>
       <r>   -1.6803    1.0000 </r>
       <r>   -1.6800    1.0000 </r>
       <r>   -1.4538    1.0000 </r>
       <r>   -1.4538    1.0000 </r>
       <r>   -1.4107    1.0000 </r>
       <r>   -1.3704    1.0000 </r>
       <r>   -1.2346    1.0000 </r>
       <r>   -1.2346    1.0000 </r>
       <r>   -1.2344    1.0000 </r>
       <r>   -1.2344    1.0000 </r>
       <r>   -1.2153    1.0000 </r>
       <r>   -1.2056    1.0000 </r>
       <r>   -1.1367    1.0000 </r>
       <r>   -1.1366    1.0000 </r>
       <r>   -1.1343    1.0000 </r>
       <r>   -1.1342    1.0000 </r>
       <r>   -1.1188    1.0000 </r>
       <r>   -1.1187    1.0000 </r>
       <r>   -1.0805    1.0000 </r>
       <r>   -1.0667    1.0000 </r>
       <r>   -1.0665    1.0000 </r>
       <r>   -1.0569    1.0000 </r>
       <r>   -1.0543    1.0000 </r>
       <r>   -1.0539    1.0000 </r>
       <r>   -0.9811    1.0000 </r>
       <r>   -0.9804    1.0000 </r>
       <r>   -0.9652    1.0000 </r>
       <r>   -0.9644    1.0000 </r>
       <r>   -0.9362    1.0000 </r>
       <r>   -0.9359    1.0000 </r>
       <r>   -0.9356    1.0000 </r>
       <r>   -0.9241    1.0000 </r>
       <r>   -0.9240    1.0000 </r>
       <r>   -0.9134    1.0000 </r>
       <r>   -0.9127    1.0000 </r>
       <r>   -0.9122    1.0000 </r>
       <r>   -0.9121    1.0000 </r>
       <r>   -0.8715    1.0000 </r>
       <r>   -0.8713    1.0000 </r>
       <r>   -0.8712    1.0000 </r>
       <r>   -0.8711    1.0000 </r>
       <r>   -0.8663    1.0000 </r>
       <r>   -0.8660    1.0000 </r>
       <r>   -0.8417    1.0000 </r>
       <r>   -0.8408    1.0000 </r>
       <r>   -0.7488    1.0000 </r>
       <r>   -0.7403    1.0000 </r>
       <r>   -0.6424    1.0000 </r>
       <r>   -0.6423    1.0000 </r>
       <r>   -0.6420    1.0000 </r>
       <r>   -0.6410    1.0000 </r>
       <r>   -0.6096    1.0000 </r>
       <r>   -0.6087    1.0000 </r>
       <r>   -0.5938    1.0000 </r>
       <r>   -0.5936    1.0000 </r>
       <r>   -0.5933    1.0000 </r>
       <r>   -0.5915    1.0000 </r>
       <r>   -0.5735    1.0000 </r>
       <r>   -0.5724    1.0000 </r>
       <r>   -0.5257    1.0000 </r>
       <r>   -0.4644    1.0000 </r>
       <r>   -0.4644    1.0000 </r>
       <r>   -0.4642    1.0000 </r>
       <r>   -0.4641    1.0000 </r>
       <r>   -0.4349    1.0000 </r>
       <r>   -0.4254    1.0000 </r>
       <r>   -0.3144    1.0000 </r>
       <r>   -0.3140    1.0000 </r>
       <r>   -0.2863    1.0000 </r>
       <r>   -0.2855    1.0000 </r>
       <r>   -0.2396    1.0000 </r>
       <r>   -0.2396    1.0000 </r>
       <r>   -0.2367    1.0000 </r>
       <r>   -0.2355    1.0000 </r>
       <r>   -0.2354    1.0000 </r>
       <r>   -0.2093    1.0000 </r>
       <r>   -0.2043    1.0000 </r>
       <r>   -0.2039    1.0000 </r>
       <r>   -0.1421    1.0000 </r>
       <r>   -0.1353    1.0000 </r>
       <r>   -0.1352    1.0000 </r>
       <r>   -0.1347    1.0000 </r>
       <r>   -0.1347    1.0000 </r>
       <r>   -0.1283    1.0000 </r>
       <r>   -0.1271    1.0000 </r>
       <r>   -0.0439    1.0000 </r>
       <r>   -0.0434    1.0000 </r>
       <r>    0.0020    1.0000 </r>
       <r>    0.0027    1.0000 </r>
       <r>    0.0249    1.0000 </r>
       <r>    0.0253    1.0000 </r>
       <r>    0.1132    1.0000 </r>
       <r>    0.1142    1.0000 </r>
       <r>    0.1251    1.0000 </r>
       <r>    0.1252    1.0000 </r>
       <r>    0.1252    1.0000 </r>
       <r>    0.1257    1.0000 </r>
       <r>    0.1519    1.0000 </r>
       <r>    0.1526    1.0000 </r>
       <r>    0.1600    1.0000 </r>
       <r>    0.2006    1.0000 </r>
       <r>    0.2008    1.0000 </r>
       <r>    0.2013    1.0000 </r>
       <r>    0.2015    1.0000 </r>
       <r>    0.2016    1.0000 </r>
       <r>    0.2024    1.0000 </r>
       <r>    0.2382    1.0000 </r>
       <r>    0.2536    1.0000 </r>
       <r>    0.2553    1.0000 </r>
       <r>    0.2635    1.0000 </r>
       <r>    0.2636    1.0000 </r>
       <r>    0.3144    1.0000 </r>
       <r>    0.3146    1.0000 </r>
       <r>    0.3159    1.0000 </r>
       <r>    0.3456    1.0000 </r>
[...]
       <r>   -43.3005     0.0000   108.0000 </r>
       <r>   -43.0589     0.0000   108.0000 </r>
       <r>   -42.8173     0.0000   108.0000 </r>
       <r>   -42.5757     0.0000   108.0000 </r>
       <r>   -42.3341     0.0000   108.0000 </r>
       <r>   -42.0925     0.0000   108.0000 </r>
       <r>   -41.8509     0.0000   108.0000 </r>
       <r>   -41.6093     0.0000   108.0000 </r>
       <r>   -41.3677     0.0000   108.0000 </r>
       <r>   -41.1261     0.0000   108.0000 </r>
       <r>   -40.8845     0.0000   108.0000 </r>
       <r>   -40.6429     0.0000   108.0000 </r>
       <r>   -40.4013     0.0000   108.0000 </r>
       <r>   -40.1597    20.4507   112.9409 </r>
       <r>   -39.9181    78.8860   132.0000 </r>
       <r>   -39.6764     0.0000   132.0000 </r>
       <r>   -39.4348     0.0000   132.0000 </r>
       <r>   -39.1932     0.0000   132.0000 </r>
       <r>   -38.9516     0.0000   132.0000 </r>
       <r>   -38.7100     0.0000   132.0000 </r>
       <r>   -38.4684     0.0000   132.0000 </r>
       <r>   -38.2268     0.0000   132.0000 </r>
       <r>   -37.9852     0.0000   132.0000 </r>
       <r>   -37.7436     0.0000   132.0000 </r>
       <r>   -37.5020     0.0000   132.0000 </r>
       <r>   -37.2604     0.0000   132.0000 </r>
       <r>   -37.0188     0.0000   132.0000 </r>
       <r>   -36.7772     0.0000   132.0000 </r>
       <r>   -36.5356     0.0000   132.0000 </r>
       <r>   -36.2940     0.0000   132.0000 </r>
       <r>   -36.0524     0.0000   132.0000 </r>
       <r>   -35.8108     0.0000   132.0000 </r>
       <r>   -35.5692     0.0000   132.0000 </r>
       <r>   -35.3276     0.0000   132.0000 </r>
       <r>   -35.0860     0.0000   132.0000 </r>
       <r>   -34.8444     0.0000   132.0000 </r>
       <r>   -34.6028     0.0000   132.0000 </r>
       <r>   -34.3612     0.0000   132.0000 </r>
       <r>   -34.1196     0.0000   132.0000 </r>
       <r>   -33.8780     0.0000   132.0000 </r>
       <r>   -33.6364     0.0000   132.0000 </r>
       <r>   -33.3948     0.0000   132.0000 </r>
       <r>   -33.1532     0.0000   132.0000 </r>
       <r>   -32.9116     0.0000   132.0000 </r>
       <r>   -32.6700     0.0000   132.0000 </r>
       <r>   -32.4284     0.0000   132.0000 </r>
       <r>   -32.1868     0.0000   132.0000 </r>
       <r>   -31.9452     0.0000   132.0000 </r>
       <r>   -31.7036     0.0000   132.0000 </r>
       <r>   -31.4620     0.0000   132.0000 </r>
       <r>   -31.2204     0.0000   132.0000 </r>
       <r>   -30.9788     0.0000   132.0000 </r>
       <r>   -30.7372     0.0000   132.0000 </r>
       <r>   -30.4956     0.0000   132.0000 </r>
       <r>   -30.2540     0.0000   132.0000 </r>
       <r>   -30.0124     0.0000   132.0000 </r>
       <r>   -29.7708     0.0000   132.0000 </r>
       <r>   -29.5291     0.0000   132.0000 </r>
       <r>   -29.2875     0.0000   132.0000 </r>
       <r>   -29.0459     0.0000   132.0000 </r>
       <r>   -28.8043     0.0000   132.0000 </r>
       <r>   -28.5627     0.0000   132.0000 </r>
       <r>   -28.3211     0.0000   132.0000 </r>
       <r>   -28.0795     0.0000   132.0000 </r>
       <r>   -27.8379     0.0000   132.0000 </r>
       <r>   -27.5963     0.0000   132.0000 </r>
       <r>   -27.3547     0.0000   132.0000 </r>
       <r>   -27.1131     0.0000   132.0000 </r>
       <r>   -26.8715     0.0000   132.0000 </r>
       <r>   -26.6299     0.0000   132.0000 </r>
       <r>   -26.3883     0.0000   132.0000 </r>
       <r>   -26.1467     0.0000   132.0000 </r>
       <r>   -25.9051     0.0000   132.0000 </r>
       <r>   -25.6635     0.0000   132.0000 </r>
       <r>   -25.4219     0.0000   132.0000 </r>
       <r>   -25.1803     0.0000   132.0000 </r>
       <r>   -24.9387     0.0000   132.0000 </r>
       <r>   -24.6971     0.0000   132.0000 </r>
       <r>   -24.4555     0.0000   132.0000 </r>
       <r>   -24.2139     0.0000   132.0000 </r>
       <r>   -23.9723     0.0000   132.0000 </r>
       <r>   -23.7307     0.0000   132.0000 </r>
       <r>   -23.4891     0.0000   132.0000 </r>
       <r>   -23.2475     0.0000   132.0000 </r>
       <r>   -23.0059     0.0000   132.0000 </r>
       <r>   -22.7643     0.0000   132.0000 </r>
       <r>   -22.5227     0.0000   132.0000 </r>
       <r>   -22.2811     0.0000   132.0000 </r>
       <r>   -22.0395     0.0000   132.0000 </r>
       <r>   -21.7979     0.0000   132.0000 </r>
       <r>   -21.5563     0.0000   132.0000 </r>
       <r>   -21.3147     0.0000   132.0000 </r>
       <r>   -21.0731     0.0000   132.0000 </r>
       <r>   -20.8315     0.0000   132.0000 </r>
       <r>   -20.5899     0.0000   132.0000 </r>
       <r>   -20.3483     0.0000   132.0000 </r>
       <r>   -20.1067     0.0000   132.0000 </r>
       <r>   -19.8651     0.0000   132.0000 </r>
       <r>   -19.6235     0.0000   132.0000 </r>
       <r>   -19.3818     0.0000   132.0000 </r>
       <r>   -19.1402     0.0000   132.0000 </r>
       <r>   -18.8986     0.0000   132.0000 </r>
       <r>   -18.6570     0.0000   132.0000 </r>
       <r>   -18.4154     0.0000   132.0000 </r>
       <r>   -18.1738     0.0000   132.0000 </r>
       <r>   -17.9322     0.0000   132.0000 </r>
       <r>   -17.6906     0.0000   132.0000 </r>
       <r>   -17.4490     0.0000   132.0000 </r>
       <r>   -17.2074     0.0000   132.0000 </r>
       <r>   -16.9658     0.0000   132.0000 </r>
       <r>   -16.7242     0.0000   132.0000 </r>
       <r>   -16.4826     0.0000   132.0000 </r>
       <r>   -16.2410     0.0000   132.0000 </r>
       <r>   -15.9994     0.0000   132.0000 </r>
       <r>   -15.7578     0.0000   132.0000 </r>
       <r>   -15.5162     0.0000   132.0000 </r>
       <r>   -15.2746     0.0000   132.0000 </r>
       <r>   -15.0330     0.0000   132.0000 </r>
       <r>   -14.7914     0.0000   132.0000 </r>
       <r>   -14.5498     0.0000   132.0000 </r>
       <r>   -14.3082     0.0000   132.0000 </r>
       <r>   -14.0666     0.0000   132.0000 </r>
       <r>   -13.8250     0.0000   132.0000 </r>
       <r>   -13.5834     0.0000   132.0000 </r>
       <r>   -13.3418     0.0000   132.0000 </r>
       <r>   -13.1002    19.3402   136.6726 </r>
       <r>   -12.8586    76.1088   155.0607 </r>
       <r>   -12.6170     3.8878   156.0000 </r>
       <r>   -12.3754     0.0000   156.0000 </r>
       <r>   -12.1338     0.0000   156.0000 </r>
       <r>   -11.8922     0.0000   156.0000 </r>
       <r>   -11.6506     0.0000   156.0000 </r>
       <r>   -11.4090     0.0000   156.0000 </r>
       <r>   -11.1674     0.0000   156.0000 </r>
       <r>   -10.9258     0.0000   156.0000 </r>
       <r>   -10.6842     0.0000   156.0000 </r>
       <r>   -10.4426     0.0000   156.0000 </r>
       <r>   -10.2010     0.0000   156.0000 </r>
       <r>    -9.9594     0.0000   156.0000 </r>
       <r>    -9.7178     0.0000   156.0000 </r>
       <r>    -9.4762     0.0000   156.0000 </r>
       <r>    -9.2345     0.0000   156.0000 </r>
       <r>    -8.9929     0.0000   156.0000 </r>
       <r>    -8.7513     0.0000   156.0000 </r>
       <r>    -8.5097     0.0000   156.0000 </r>
       <r>    -8.2681     0.0000   156.0000 </r>
       <r>    -8.0265     0.0000   156.0000 </r>
       <r>    -7.7849     0.0000   156.0000 </r>
       <r>    -7.5433     0.0000   156.0000 </r>
       <r>    -7.3017     0.0698   156.0169 </r>
       <r>    -7.0601    24.6025   161.9609 </r>
       <r>    -6.8185    46.5775   173.2141 </r>
       <r>    -6.5769    26.6102   179.6432 </r>
       <r>    -6.3353     1.4768   180.0000 </r>
       <r>    -6.0937     0.0000   180.0000 </r>
       <r>    -5.8521     0.0000   180.0000 </r>
       <r>    -5.6105     0.0000   180.0000 </r>
       <r>    -5.3689     0.0000   180.0000 </r>
       <r>    -5.1273     0.0000   180.0000 </r>
       <r>    -4.8857     0.0000   180.0000 </r>
       <r>    -4.6441     0.0000   180.0000 </r>
       <r>    -4.4025     0.0000   180.0000 </r>
       <r>    -4.1609     0.0000   180.0000 </r>
       <r>    -3.9193     0.0000   180.0000 </r>
       <r>    -3.6777     0.0000   180.0000 </r>
       <r>    -3.4361     0.0000   180.0000 </r>
       <r>    -3.1945     0.0000   180.0000 </r>
       <r>    -2.9529     0.0000   180.0000 </r>
       <r>    -2.7113     0.0000   180.0000 </r>
       <r>    -2.4697     0.0000   180.0000 </r>
       <r>    -2.2281     0.0000   180.0000 </r>
       <r>    -1.9865     0.0000   180.0000 </r>
       <r>    -1.7449     0.0000   180.0000 </r>
       <r>    -1.5033     0.0000   180.0000 </r>
       <r>    -1.2617     0.0000   180.0000 </r>
       <r>    -1.0201     0.0002   180.0000 </r>
       <r>    -0.7785     1.9312   180.4666 </r>
       <r>    -0.5369    10.0567   182.8964 </r>
       <r>    -0.2953    20.4417   187.8351 </r>
       <r>    -0.0537    34.1450   196.0846 </r>
       <r>     0.1879    25.1451   202.1597 </r>
       <r>     0.4295    37.0904   211.1209 </r>
       <r>     0.6711    36.1870   219.8637 </r>
       <r>     0.9128    57.1804   233.6787 </r>
       <r>     1.1544    55.8492   247.1720 </r>
       <r>     1.3960    19.7726   251.9491 </r>
       <r>     1.6376    25.2681   258.0539 </r>
       <r>     1.8792    47.3254   269.4878 </r>
       <r>     2.1208    35.6778   278.1077 </r>
       <r>     2.3624    30.2111   285.4068 </r>
       <r>     2.6040    33.3693   293.4689 </r>
       <r>     2.8456    44.6568   304.2580 </r>
       <r>     3.0872    38.1357   313.4717 </r>
       <r>     3.3288    59.6680   327.8876 </r>
       <r>     3.5704    27.7782   334.5989 </r>
       <r>     3.8120     9.3373   336.8549 </r>
       <r>     4.0536    10.9101   339.4908 </r>
       <r>     4.2952    40.7508   349.3362 </r>
       <r>     4.5368    22.8184   354.8492 </r>
       <r>     4.7784    19.7765   359.6273 </r>
       <r>     5.0200     1.5427   360.0000 </r>
       <r>     5.2616     0.0000   360.0000 </r>
       <r>     5.5032     0.0000   360.0000 </r>
       <r>     5.7448     0.0000   360.0000 </r>
       <r>     5.9864     0.0000   360.0000 </r>
       <r>     6.2280     0.3183   360.0769 </r>
       <r>     6.4696     3.7031   360.9716 </r>
       <r>     6.7112     9.7869   363.3361 </r>
       <r>     6.9528    32.8048   371.2618 </r>
       <r>     7.1944    77.7842   390.0547 </r>
       <r>     7.4360    65.0758   405.7772 </r>
       <r>     7.6776    51.4737   418.2133 </r>
       <r>     7.9192    85.6659   438.9104 </r>
       <r>     8.1608    78.1918   457.8017 </r>
       <r>     8.4024    52.8576   470.5723 </r>
       <r>     8.6440    72.9698   488.2019 </r>
       <r>     8.8856    44.9738   499.0677 </r>
       <r>     9.1272    22.0722   504.4004 </r>
       <r>     9.3688     4.8201   505.5650 </r>
       <r>     9.6104     6.6563   507.1732 </r>
       <r>     9.8520    11.5739   509.9694 </r>
       <r>    10.0936    14.4379   513.4577 </r>
       <r>    10.3352    18.1647   517.8463 </r>
       <r>    10.5768    31.9774   525.5721 </r>
       <r>    10.8184    28.2180   532.3896 </r>
       <r>    11.0601    21.8855   537.6772 </r>
       <r>    11.3017    24.8968   543.6924 </r>
       <r>    11.5433    22.0704   549.0246 </r>
       <r>    11.7849    21.4993   554.2189 </r>
       <r>    12.0265    18.5776   558.7073 </r>
       <r>    12.2681    30.7334   566.1326 </r>
       <r>    12.5097    42.6651   576.4406 </r>
       <r>    12.7513    35.2549   584.9582 </r>
       <r>    12.9929    28.5764   591.8623 </r>
       <r>    13.2345    27.4280   598.4890 </r>
       <r>    13.4761    36.5871   607.3285 </r>
       <r>    13.7177    29.4300   614.4389 </r>
       <r>    13.9593    23.0872   620.0168 </r>
       <r>    14.2009    23.6131   625.7218 </r>
       <r>    14.4425    16.3809   629.6795 </r>
       <r>    14.6841     1.3267   630.0000 </r>
       <r>    14.9257     0.0000   630.0000 </r>
       <r>    15.1673     0.0000   630.0000 </r>
       <r>    15.4089     0.0000   630.0000 </r>
       <r>    15.6505     0.0000   630.0000 </r>
       <r>    15.8921     0.0000   630.0000 </r>
       <r>    16.1337     0.0000   630.0000 </r>
       <r>    16.3753     0.0000   630.0000 </r>
       <r>    16.6169     0.0000   630.0000 </r>
       <r>    16.8585     0.0000   630.0000 </r>
       <r>    17.1001     0.0000   630.0000 </r>
       <r>    17.3417     0.0000   630.0000 </r>
       <r>    17.5833     0.0000   630.0000 </r>
       <r>    17.8249     0.0000   630.0000 </r>
      </set>
     </set>
    </array>
   </total>
  </dos>
 </calculation>
 <structure name="finalpos" >
  <crystal>
   <varray name="basis" >
    <v>      11.51036847       0.00000000       0.00000000 </v>
    <v>       0.00000000      11.32670916       0.12548940 </v>
    <v>       0.00000000      -0.29683152      11.32351444 </v>
   </varray>
   <i name="volume">   1476.72737236 </i>
   <varray name="rec_basis" >
    <v>       0.08687819       0.00000000       0.00000000 </v>
    <v>       0.00000000       0.08826126       0.00231366 </v>
    <v>       0.00000000      -0.00097813       0.08828616 </v>
   </varray>
  </crystal>
  <varray name="positions" >
   <v>       0.10513295       0.25000000       0.00000000 </v>
   <v>       0.43846628       0.25000000       0.00000000 </v>
   <v>       0.77179961       0.25000000       0.00000000 </v>
   <v>       0.10513295       0.75000000       0.00000000 </v>
   <v>       0.43846628       0.75000000       0.00000000 </v>
   <v>       0.77179961       0.75000000       0.00000000 </v>
   <v>       0.10513295       0.25000000       0.50000000 </v>
   <v>       0.43846628       0.25000000       0.50000000 </v>
   <v>       0.77179961       0.25000000       0.50000000 </v>
   <v>       0.10513295       0.75000000       0.50000000 </v>
   <v>       0.43846628       0.75000000       0.50000000 </v>
   <v>       0.77179961       0.75000000       0.50000000 </v>
   <v>       0.10513295       0.00000000       0.25000000 </v>
   <v>       0.43846628       0.00000000       0.25000000 </v>
   <v>       0.77179961       0.00000000       0.25000000 </v>
   <v>       0.10513295       0.50000000       0.25000000 </v>
   <v>       0.43846628       0.50000000       0.25000000 </v>
   <v>       0.77179961       0.50000000       0.25000000 </v>
   <v>       0.10513295       0.00000000       0.75000000 </v>
   <v>       0.43846628       0.00000000       0.75000000 </v>
   <v>       0.77179961       0.00000000       0.75000000 </v>
   <v>       0.10513295       0.50000000       0.75000000 </v>
   <v>       0.43846628       0.50000000       0.75000000 </v>
   <v>       0.77179961       0.50000000       0.75000000 </v>
   <v>       0.10614906       0.12527662       0.37472338 </v>
   <v>       0.43948239       0.12527662       0.37472338 </v>
   <v>       0.77281572       0.12527662       0.37472338 </v>
   <v>       0.10614906       0.62527662       0.37472338 </v>
   <v>       0.43948239       0.62527662       0.37472338 </v>
   <v>       0.77281572       0.62527662       0.37472338 </v>
   <v>       0.10614906       0.12527662       0.87472338 </v>
   <v>       0.43948239       0.12527662       0.87472338 </v>
   <v>       0.77281572       0.12527662       0.87472338 </v>
   <v>       0.10614906       0.62527662       0.87472338 </v>
   <v>       0.43948239       0.62527662       0.87472338 </v>
   <v>       0.77281572       0.62527662       0.87472338 </v>
   <v>       0.10614906       0.37472338       0.12527662 </v>
   <v>       0.43948239       0.37472338       0.12527662 </v>
   <v>       0.77281572       0.37472338       0.12527662 </v>
   <v>       0.10614906       0.87472338       0.12527662 </v>
   <v>       0.43948239       0.87472338       0.12527662 </v>
   <v>       0.77281572       0.87472338       0.12527662 </v>
   <v>       0.10614906       0.37472338       0.62527662 </v>
   <v>       0.43948239       0.37472338       0.62527662 </v>
   <v>       0.77281572       0.37472338       0.62527662 </v>
   <v>       0.10614906       0.87472338       0.62527662 </v>
   <v>       0.43948239       0.87472338       0.62527662 </v>
   <v>       0.77281572       0.87472338       0.62527662 </v>
   <v>       0.27279884       0.11809471       0.11809471 </v>
   <v>       0.60613218       0.11809471       0.11809471 </v>
   <v>       0.93946551       0.11809471       0.11809471 </v>
   <v>       0.27279884       0.61809471       0.11809471 </v>
   <v>       0.60613218       0.61809471       0.11809471 </v>
   <v>       0.93946551       0.61809471       0.11809471 </v>
   <v>       0.27279884       0.11809471       0.61809471 </v>
   <v>       0.60613218       0.11809471       0.61809471 </v>
   <v>       0.93946551       0.11809471       0.61809471 </v>
   <v>       0.27279884       0.61809471       0.61809471 </v>
   <v>       0.60613218       0.61809471       0.61809471 </v>
   <v>       0.93946551       0.61809471       0.61809471 </v>
   <v>       0.27279884       0.38190529       0.38190529 </v>
   <v>       0.60613218       0.38190529       0.38190529 </v>
   <v>       0.93946551       0.38190529       0.38190529 </v>
   <v>       0.27279884       0.88190529       0.38190529 </v>
   <v>       0.60613218       0.88190529       0.38190529 </v>
   <v>       0.93946551       0.88190529       0.38190529 </v>
   <v>       0.27279884       0.38190529       0.88190529 </v>
   <v>       0.60613218       0.38190529       0.88190529 </v>
   <v>       0.93946551       0.38190529       0.88190529 </v>
   <v>       0.27279884       0.88190529       0.88190529 </v>
   <v>       0.60613218       0.88190529       0.88190529 </v>
   <v>       0.93946551       0.88190529       0.88190529 </v>
   <v>       0.27287151       0.33995708       0.16092573 </v>
   <v>       0.60620484       0.33907427       0.16092573 </v>
   <v>       0.93953818       0.33907427       0.16092573 </v>
   <v>       0.27287151       0.83907427       0.16092573 </v>
   <v>       0.60620484       0.83907427       0.16092573 </v>
   <v>       0.93953818       0.83907427       0.16092573 </v>
   <v>       0.27287151       0.33907427       0.66092573 </v>
   <v>       0.60620484       0.33907427       0.66092573 </v>
   <v>       0.93953818       0.33907427       0.66092573 </v>
   <v>       0.27287151       0.83907427       0.66092573 </v>
   <v>       0.60620484       0.83907427       0.66092573 </v>
   <v>       0.93953818       0.83907427       0.66092573 </v>
   <v>       0.27287151       0.16092573       0.33907427 </v>
   <v>       0.60620484       0.16092573       0.33907427 </v>
   <v>       0.93953818       0.16092573       0.33907427 </v>
   <v>       0.27287151       0.66092573       0.33907427 </v>
   <v>       0.60620484       0.66092573       0.33907427 </v>
   <v>       0.93953818       0.66092573       0.33907427 </v>
   <v>       0.27287151       0.16092573       0.83907427 </v>
   <v>       0.60620484       0.16092573       0.83907427 </v>
   <v>       0.93953818       0.16092573       0.83907427 </v>
   <v>       0.27287151       0.66092573       0.83907427 </v>
   <v>       0.60620484       0.66092573       0.83907427 </v>
   <v>       0.93953818       0.66092573       0.83907427 </v>
   <v>       0.10731129       0.00000000       0.00000000 </v>
   <v>       0.44064462       0.00000000       0.00000000 </v>
   <v>       0.77397796       0.00000000       0.00000000 </v>
   <v>       0.10731129       0.50000000       0.00000000 </v>
   <v>       0.44064462       0.50000000       0.00000000 </v>
   <v>       0.77397796       0.50000000       0.00000000 </v>
   <v>       0.10731129       0.00000000       0.50000000 </v>
   <v>       0.44064462       0.00000000       0.50000000 </v>
   <v>       0.77397796       0.00000000       0.50000000 </v>
   <v>       0.10731129       0.50000000       0.50000000 </v>
   <v>       0.44064462       0.50000000       0.50000000 </v>
   <v>       0.77397796       0.50000000       0.50000000 </v>
  </varray>
 </structure>
</modeling>
