 160 160   0   0
  0.1218736E+02  0.1542482E-08  0.1121024E-08  0.1127703E-08  0.5000000E-15
  1.000000000000000E-004
  CAR 
 unknown system                          
     16.85615626    -54.74399897  301      4.95263046      1.00000000
    -54.744  0.0000E+00  0.0000E+00  0.0000E+00  0.0000E+00
    -54.505  0.0000E+00  0.0000E+00  0.0000E+00  0.0000E+00
    -54.267  0.0000E+00  0.0000E+00  0.0000E+00  0.0000E+00
    -54.028  0.0000E+00  0.0000E+00  0.0000E+00  0.0000E+00
    -53.789  0.0000E+00  0.0000E+00  0.0000E+00  0.0000E+00
    -53.551  0.0000E+00  0.0000E+00  0.0000E+00  0.0000E+00
    -53.312  0.0000E+00  0.0000E+00  0.0000E+00  0.0000E+00
    -53.073  0.0000E+00  0.0000E+00  0.0000E+00  0.0000E+00
    -52.835  0.0000E+00  0.0000E+00  0.0000E+00  0.0000E+00
    -52.596  0.0000E+00  0.0000E+00  0.0000E+00  0.0000E+00
    -52.357  0.0000E+00  0.0000E+00  0.0000E+00  0.0000E+00
    -52.119  0.0000E+00  0.0000E+00  0.0000E+00  0.0000E+00
    -51.880  0.0000E+00  0.0000E+00  0.0000E+00  0.0000E+00
    -51.641  0.7580E-03  0.0000E+00  0.1809E-03  0.0000E+00
    -51.403  0.1328E+03  0.0000E+00  0.3171E+02  0.0000E+00
    -51.164  0.1235E+01  0.0000E+00  0.3200E+02  0.0000E+00
    -50.925  0.0000E+00  0.0000E+00  0.3200E+02  0.0000E+00
    -50.687  0.0000E+00  0.0000E+00  0.3200E+02  0.0000E+00
    -50.448  0.0000E+00  0.0000E+00  0.3200E+02  0.0000E+00
    -50.209  0.8097E-01  0.0000E+00  0.3202E+02  0.0000E+00
    -49.971  0.2660E+03  0.0000E+00  0.9550E+02  0.0000E+00
    -49.732  0.2094E+01  0.0000E+00  0.9600E+02  0.0000E+00
    -49.493  0.0000E+00  0.0000E+00  0.9600E+02  0.0000E+00
    -49.255  0.0000E+00  0.0000E+00  0.9600E+02  0.0000E+00
    -49.016  0.0000E+00  0.0000E+00  0.9600E+02  0.0000E+00
    -48.777  0.0000E+00  0.0000E+00  0.9600E+02  0.0000E+00
    -48.539  0.0000E+00  0.0000E+00  0.9600E+02  0.0000E+00
    -48.300  0.0000E+00  0.0000E+00  0.9600E+02  0.0000E+00
    -48.061  0.0000E+00  0.0000E+00  0.9600E+02  0.0000E+00
    -47.823  0.0000E+00  0.0000E+00  0.9600E+02  0.0000E+00
    -47.584  0.0000E+00  0.0000E+00  0.9600E+02  0.0000E+00
    -47.345  0.0000E+00  0.0000E+00  0.9600E+02  0.0000E+00
    -47.107  0.0000E+00  0.0000E+00  0.9600E+02  0.0000E+00
    -46.868  0.0000E+00  0.2465E-01  0.9600E+02  0.5884E-02
    -46.629  0.0000E+00  0.1340E+03  0.9600E+02  0.3198E+02
    -46.391  0.0000E+00  0.5655E+02  0.9600E+02  0.4547E+02
    -46.152  0.0000E+00  0.2117E+03  0.9600E+02  0.9600E+02
    -45.913  0.0000E+00  0.0000E+00  0.9600E+02  0.9600E+02
    -45.675  0.0000E+00  0.0000E+00  0.9600E+02  0.9600E+02
    -45.436  0.0000E+00  0.0000E+00  0.9600E+02  0.9600E+02
    -45.197  0.0000E+00  0.0000E+00  0.9600E+02  0.9600E+02
    -44.959  0.0000E+00  0.0000E+00  0.9600E+02  0.9600E+02
    -44.720  0.0000E+00  0.0000E+00  0.9600E+02  0.9600E+02
    -44.481  0.0000E+00  0.0000E+00  0.9600E+02  0.9600E+02
    -44.243  0.0000E+00  0.0000E+00  0.9600E+02  0.9600E+02
    -44.004  0.0000E+00  0.0000E+00  0.9600E+02  0.9600E+02
    -43.765  0.0000E+00  0.0000E+00  0.9600E+02  0.9600E+02
    -43.527  0.0000E+00  0.0000E+00  0.9600E+02  0.9600E+02
    -43.288  0.0000E+00  0.0000E+00  0.9600E+02  0.9600E+02
    -43.049  0.0000E+00  0.0000E+00  0.9600E+02  0.9600E+02
    -42.811  0.0000E+00  0.0000E+00  0.9600E+02  0.9600E+02
    -42.572  0.0000E+00  0.0000E+00  0.9600E+02  0.9600E+02
    -42.333  0.0000E+00  0.0000E+00  0.9600E+02  0.9600E+02
    -42.095  0.0000E+00  0.0000E+00  0.9600E+02  0.9600E+02
    -41.856  0.0000E+00  0.0000E+00  0.9600E+02  0.9600E+02
    -41.617  0.0000E+00  0.0000E+00  0.9600E+02  0.9600E+02
    -41.379  0.0000E+00  0.0000E+00  0.9600E+02  0.9600E+02
    -41.140  0.0000E+00  0.0000E+00  0.9600E+02  0.9600E+02
    -40.901  0.0000E+00  0.0000E+00  0.9600E+02  0.9600E+02
    -40.663  0.0000E+00  0.0000E+00  0.9600E+02  0.9600E+02
    -40.424  0.7311E+00  0.6476E+00  0.9617E+02  0.9615E+02
    -40.185  0.2447E+03  0.2465E+03  0.1546E+03  0.1550E+03
    -39.947  0.2270E+02  0.2105E+02  0.1600E+03  0.1600E+03
    -39.708  0.0000E+00  0.0000E+00  0.1600E+03  0.1600E+03
    -39.469  0.0000E+00  0.0000E+00  0.1600E+03  0.1600E+03
    -39.231  0.0000E+00  0.0000E+00  0.1600E+03  0.1600E+03
    -38.992  0.0000E+00  0.0000E+00  0.1600E+03  0.1600E+03
    -38.753  0.0000E+00  0.0000E+00  0.1600E+03  0.1600E+03
    -38.515  0.0000E+00  0.0000E+00  0.1600E+03  0.1600E+03
    -38.276  0.0000E+00  0.0000E+00  0.1600E+03  0.1600E+03
    -38.037  0.0000E+00  0.0000E+00  0.1600E+03  0.1600E+03
    -37.799  0.0000E+00  0.0000E+00  0.1600E+03  0.1600E+03
    -37.560  0.0000E+00  0.0000E+00  0.1600E+03  0.1600E+03
    -37.321  0.0000E+00  0.0000E+00  0.1600E+03  0.1600E+03
    -37.083  0.0000E+00  0.0000E+00  0.1600E+03  0.1600E+03
    -36.844  0.0000E+00  0.0000E+00  0.1600E+03  0.1600E+03
    -36.605  0.0000E+00  0.0000E+00  0.1600E+03  0.1600E+03
    -36.367  0.0000E+00  0.0000E+00  0.1600E+03  0.1600E+03
    -36.128  0.0000E+00  0.0000E+00  0.1600E+03  0.1600E+03
    -35.889  0.0000E+00  0.0000E+00  0.1600E+03  0.1600E+03
    -35.651  0.0000E+00  0.0000E+00  0.1600E+03  0.1600E+03
    -35.412  0.0000E+00  0.0000E+00  0.1600E+03  0.1600E+03
    -35.173  0.0000E+00  0.0000E+00  0.1600E+03  0.1600E+03
    -34.935  0.0000E+00  0.0000E+00  0.1600E+03  0.1600E+03
    -34.696  0.0000E+00  0.0000E+00  0.1600E+03  0.1600E+03
    -34.457  0.0000E+00  0.0000E+00  0.1600E+03  0.1600E+03
    -34.219  0.0000E+00  0.0000E+00  0.1600E+03  0.1600E+03
    -33.980  0.0000E+00  0.0000E+00  0.1600E+03  0.1600E+03
    -33.741  0.0000E+00  0.0000E+00  0.1600E+03  0.1600E+03
    -33.503  0.0000E+00  0.0000E+00  0.1600E+03  0.1600E+03
    -33.264  0.0000E+00  0.0000E+00  0.1600E+03  0.1600E+03
    -33.025  0.0000E+00  0.0000E+00  0.1600E+03  0.1600E+03
    -32.787  0.0000E+00  0.0000E+00  0.1600E+03  0.1600E+03
    -32.548  0.0000E+00  0.0000E+00  0.1600E+03  0.1600E+03
    -32.309  0.0000E+00  0.0000E+00  0.1600E+03  0.1600E+03
    -32.071  0.0000E+00  0.0000E+00  0.1600E+03  0.1600E+03
    -31.832  0.0000E+00  0.0000E+00  0.1600E+03  0.1600E+03
    -31.593  0.0000E+00  0.0000E+00  0.1600E+03  0.1600E+03
    -31.355  0.0000E+00  0.0000E+00  0.1600E+03  0.1600E+03
    -31.116  0.0000E+00  0.0000E+00  0.1600E+03  0.1600E+03
    -30.877  0.0000E+00  0.0000E+00  0.1600E+03  0.1600E+03
    -30.639  0.0000E+00  0.0000E+00  0.1600E+03  0.1600E+03
    -30.400  0.0000E+00  0.0000E+00  0.1600E+03  0.1600E+03
    -30.161  0.0000E+00  0.0000E+00  0.1600E+03  0.1600E+03
    -29.923  0.0000E+00  0.0000E+00  0.1600E+03  0.1600E+03
    -29.684  0.0000E+00  0.0000E+00  0.1600E+03  0.1600E+03
    -29.445  0.0000E+00  0.0000E+00  0.1600E+03  0.1600E+03
    -29.207  0.0000E+00  0.0000E+00  0.1600E+03  0.1600E+03
    -28.968  0.0000E+00  0.0000E+00  0.1600E+03  0.1600E+03
    -28.729  0.0000E+00  0.0000E+00  0.1600E+03  0.1600E+03
    -28.491  0.0000E+00  0.0000E+00  0.1600E+03  0.1600E+03
    -28.252  0.0000E+00  0.0000E+00  0.1600E+03  0.1600E+03
    -28.013  0.0000E+00  0.0000E+00  0.1600E+03  0.1600E+03
    -27.775  0.0000E+00  0.0000E+00  0.1600E+03  0.1600E+03
    -27.536  0.0000E+00  0.0000E+00  0.1600E+03  0.1600E+03
    -27.297  0.0000E+00  0.0000E+00  0.1600E+03  0.1600E+03
    -27.059  0.0000E+00  0.0000E+00  0.1600E+03  0.1600E+03
    -26.820  0.0000E+00  0.0000E+00  0.1600E+03  0.1600E+03
    -26.581  0.0000E+00  0.0000E+00  0.1600E+03  0.1600E+03
    -26.343  0.0000E+00  0.0000E+00  0.1600E+03  0.1600E+03
    -26.104  0.0000E+00  0.0000E+00  0.1600E+03  0.1600E+03
    -25.865  0.0000E+00  0.0000E+00  0.1600E+03  0.1600E+03
    -25.627  0.0000E+00  0.0000E+00  0.1600E+03  0.1600E+03
    -25.388  0.0000E+00  0.0000E+00  0.1600E+03  0.1600E+03
    -25.149  0.0000E+00  0.0000E+00  0.1600E+03  0.1600E+03
    -24.911  0.0000E+00  0.0000E+00  0.1600E+03  0.1600E+03
    -24.672  0.0000E+00  0.0000E+00  0.1600E+03  0.1600E+03
    -24.433  0.0000E+00  0.0000E+00  0.1600E+03  0.1600E+03
    -24.195  0.0000E+00  0.0000E+00  0.1600E+03  0.1600E+03
    -23.956  0.0000E+00  0.0000E+00  0.1600E+03  0.1600E+03
    -23.717  0.0000E+00  0.0000E+00  0.1600E+03  0.1600E+03
    -23.479  0.0000E+00  0.0000E+00  0.1600E+03  0.1600E+03
    -23.240  0.0000E+00  0.0000E+00  0.1600E+03  0.1600E+03
    -23.001  0.0000E+00  0.0000E+00  0.1600E+03  0.1600E+03
    -22.763  0.0000E+00  0.0000E+00  0.1600E+03  0.1600E+03
    -22.524  0.0000E+00  0.0000E+00  0.1600E+03  0.1600E+03
    -22.285  0.0000E+00  0.0000E+00  0.1600E+03  0.1600E+03
    -22.047  0.0000E+00  0.0000E+00  0.1600E+03  0.1600E+03
    -21.808  0.0000E+00  0.0000E+00  0.1600E+03  0.1600E+03
    -21.569  0.0000E+00  0.0000E+00  0.1600E+03  0.1600E+03
    -21.331  0.0000E+00  0.0000E+00  0.1600E+03  0.1600E+03
    -21.092  0.0000E+00  0.0000E+00  0.1600E+03  0.1600E+03
    -20.853  0.0000E+00  0.0000E+00  0.1600E+03  0.1600E+03
    -20.615  0.0000E+00  0.0000E+00  0.1600E+03  0.1600E+03
    -20.376  0.0000E+00  0.0000E+00  0.1600E+03  0.1600E+03
    -20.137  0.0000E+00  0.0000E+00  0.1600E+03  0.1600E+03
    -19.899  0.0000E+00  0.0000E+00  0.1600E+03  0.1600E+03
    -19.660  0.0000E+00  0.0000E+00  0.1600E+03  0.1600E+03
    -19.421  0.0000E+00  0.0000E+00  0.1600E+03  0.1600E+03
    -19.183  0.0000E+00  0.0000E+00  0.1600E+03  0.1600E+03
    -18.944  0.0000E+00  0.0000E+00  0.1600E+03  0.1600E+03
    -18.705  0.0000E+00  0.0000E+00  0.1600E+03  0.1600E+03
    -18.467  0.0000E+00  0.0000E+00  0.1600E+03  0.1600E+03
    -18.228  0.0000E+00  0.0000E+00  0.1600E+03  0.1600E+03
    -17.989  0.0000E+00  0.0000E+00  0.1600E+03  0.1600E+03
    -17.751  0.0000E+00  0.0000E+00  0.1600E+03  0.1600E+03
    -17.512  0.0000E+00  0.0000E+00  0.1600E+03  0.1600E+03
    -17.273  0.0000E+00  0.0000E+00  0.1600E+03  0.1600E+03
    -17.035  0.0000E+00  0.0000E+00  0.1600E+03  0.1600E+03
    -16.796  0.0000E+00  0.0000E+00  0.1600E+03  0.1600E+03
    -16.557  0.0000E+00  0.0000E+00  0.1600E+03  0.1600E+03
    -16.319  0.0000E+00  0.0000E+00  0.1600E+03  0.1600E+03
    -16.080  0.0000E+00  0.0000E+00  0.1600E+03  0.1600E+03
    -15.841  0.0000E+00  0.0000E+00  0.1600E+03  0.1600E+03
    -15.603  0.0000E+00  0.0000E+00  0.1600E+03  0.1600E+03
    -15.364  0.0000E+00  0.0000E+00  0.1600E+03  0.1600E+03
    -15.125  0.0000E+00  0.0000E+00  0.1600E+03  0.1600E+03
    -14.887  0.0000E+00  0.0000E+00  0.1600E+03  0.1600E+03
    -14.648  0.0000E+00  0.0000E+00  0.1600E+03  0.1600E+03
    -14.409  0.0000E+00  0.0000E+00  0.1600E+03  0.1600E+03
    -14.171  0.0000E+00  0.0000E+00  0.1600E+03  0.1600E+03
    -13.932  0.0000E+00  0.0000E+00  0.1600E+03  0.1600E+03
    -13.693  0.1849E-05  0.0000E+00  0.1600E+03  0.1600E+03
    -13.455  0.3360E+02  0.7517E-12  0.1680E+03  0.1600E+03
    -13.216  0.7589E+02  0.5036E+01  0.1861E+03  0.1612E+03
    -12.977  0.2458E+02  0.1081E+03  0.1920E+03  0.1870E+03
    -12.739  0.0000E+00  0.2095E+02  0.1920E+03  0.1920E+03
    -12.500  0.0000E+00  0.0000E+00  0.1920E+03  0.1920E+03
    -12.261  0.0000E+00  0.0000E+00  0.1920E+03  0.1920E+03
    -12.023  0.0000E+00  0.0000E+00  0.1920E+03  0.1920E+03
    -11.784  0.0000E+00  0.0000E+00  0.1920E+03  0.1920E+03
    -11.545  0.0000E+00  0.0000E+00  0.1920E+03  0.1920E+03
    -11.307  0.0000E+00  0.0000E+00  0.1920E+03  0.1920E+03
    -11.068  0.0000E+00  0.0000E+00  0.1920E+03  0.1920E+03
    -10.829  0.0000E+00  0.0000E+00  0.1920E+03  0.1920E+03
    -10.591  0.0000E+00  0.0000E+00  0.1920E+03  0.1920E+03
    -10.352  0.0000E+00  0.0000E+00  0.1920E+03  0.1920E+03
    -10.113  0.0000E+00  0.0000E+00  0.1920E+03  0.1920E+03
     -9.875  0.0000E+00  0.0000E+00  0.1920E+03  0.1920E+03
     -9.636  0.0000E+00  0.0000E+00  0.1920E+03  0.1920E+03
     -9.397  0.0000E+00  0.0000E+00  0.1920E+03  0.1920E+03
     -9.159  0.0000E+00  0.0000E+00  0.1920E+03  0.1920E+03
     -8.920  0.0000E+00  0.0000E+00  0.1920E+03  0.1920E+03
     -8.681  0.0000E+00  0.0000E+00  0.1920E+03  0.1920E+03
     -8.443  0.0000E+00  0.0000E+00  0.1920E+03  0.1920E+03
     -8.204  0.0000E+00  0.0000E+00  0.1920E+03  0.1920E+03
     -7.965  0.0000E+00  0.0000E+00  0.1920E+03  0.1920E+03
     -7.727  0.3832E-02  0.6461E-16  0.1920E+03  0.1920E+03
     -7.488  0.2217E+02  0.1034E+00  0.1973E+03  0.1920E+03
     -7.249  0.6234E+02  0.4086E+02  0.2122E+03  0.2018E+03
     -7.011  0.4767E+02  0.6370E+02  0.2235E+03  0.2170E+03
     -6.772  0.1896E+01  0.2846E+02  0.2240E+03  0.2238E+03
     -6.533  0.0000E+00  0.9523E+00  0.2240E+03  0.2240E+03
     -6.295  0.0000E+00  0.0000E+00  0.2240E+03  0.2240E+03
     -6.056  0.0000E+00  0.0000E+00  0.2240E+03  0.2240E+03
     -5.817  0.0000E+00  0.0000E+00  0.2240E+03  0.2240E+03
     -5.579  0.0000E+00  0.0000E+00  0.2240E+03  0.2240E+03
     -5.340  0.0000E+00  0.0000E+00  0.2240E+03  0.2240E+03
     -5.101  0.0000E+00  0.0000E+00  0.2240E+03  0.2240E+03
     -4.863  0.0000E+00  0.0000E+00  0.2240E+03  0.2240E+03
     -4.624  0.0000E+00  0.0000E+00  0.2240E+03  0.2240E+03
     -4.385  0.0000E+00  0.0000E+00  0.2240E+03  0.2240E+03
     -4.147  0.0000E+00  0.0000E+00  0.2240E+03  0.2240E+03
     -3.908  0.0000E+00  0.0000E+00  0.2240E+03  0.2240E+03
     -3.669  0.0000E+00  0.0000E+00  0.2240E+03  0.2240E+03
     -3.431  0.0000E+00  0.0000E+00  0.2240E+03  0.2240E+03
     -3.192  0.0000E+00  0.0000E+00  0.2240E+03  0.2240E+03
     -2.953  0.0000E+00  0.0000E+00  0.2240E+03  0.2240E+03
     -2.715  0.2287E-04  0.0000E+00  0.2240E+03  0.2240E+03
     -2.476  0.1487E+02  0.0000E+00  0.2275E+03  0.2240E+03
     -2.237  0.1869E+02  0.0000E+00  0.2320E+03  0.2240E+03
     -1.999  0.2230E+02  0.0000E+00  0.2373E+03  0.2240E+03
     -1.760  0.1161E+00  0.0000E+00  0.2374E+03  0.2240E+03
     -1.521  0.2223E+02  0.0000E+00  0.2427E+03  0.2240E+03
     -1.283  0.2886E+02  0.7882E-15  0.2496E+03  0.2240E+03
     -1.044  0.7810E+02  0.7795E-01  0.2682E+03  0.2240E+03
     -0.805  0.7175E+02  0.2094E+02  0.2853E+03  0.2290E+03
     -0.567  0.7030E+02  0.2811E+02  0.3021E+03  0.2357E+03
     -0.328  0.9452E+02  0.1575E+02  0.3247E+03  0.2395E+03
     -0.089  0.1035E+03  0.1437E+02  0.3494E+03  0.2429E+03
      0.149  0.5489E+02  0.2618E+02  0.3625E+03  0.2492E+03
      0.388  0.4752E+02  0.5120E+02  0.3738E+03  0.2614E+03
      0.627  0.5241E+02  0.7870E+02  0.3863E+03  0.2802E+03
      0.865  0.4336E+02  0.7162E+02  0.3967E+03  0.2973E+03
      1.104  0.6254E+02  0.7674E+02  0.4116E+03  0.3156E+03
      1.343  0.8317E+02  0.2967E+02  0.4314E+03  0.3227E+03
      1.581  0.8101E+02  0.3737E+02  0.4508E+03  0.3316E+03
      1.820  0.4233E+02  0.4964E+02  0.4609E+03  0.3434E+03
      2.059  0.3958E+02  0.4372E+02  0.4703E+03  0.3539E+03
      2.297  0.4860E+02  0.2828E+02  0.4819E+03  0.3606E+03
      2.536  0.4284E+02  0.5081E+02  0.4921E+03  0.3727E+03
      2.775  0.5581E+02  0.6802E+02  0.5055E+03  0.3890E+03
      3.013  0.5568E+02  0.8225E+02  0.5188E+03  0.4086E+03
      3.252  0.5437E+02  0.2922E+02  0.5317E+03  0.4156E+03
      3.491  0.4631E+02  0.2195E+02  0.5428E+03  0.4208E+03
      3.729  0.5596E+02  0.4742E+02  0.5561E+03  0.4321E+03
      3.968  0.3777E+02  0.5561E+02  0.5651E+03  0.4454E+03
      4.207  0.2717E+02  0.1088E+02  0.5716E+03  0.4480E+03
      4.445  0.1619E+02  0.5682E-03  0.5755E+03  0.4480E+03
      4.684  0.2115E+01  0.0000E+00  0.5760E+03  0.4480E+03
      4.923  0.1432E-03  0.0000E+00  0.5760E+03  0.4480E+03
      5.161  0.0000E+00  0.0000E+00  0.5760E+03  0.4480E+03
      5.400  0.0000E+00  0.0000E+00  0.5760E+03  0.4480E+03
      5.639  0.0000E+00  0.0000E+00  0.5760E+03  0.4480E+03
      5.877  0.0000E+00  0.0000E+00  0.5760E+03  0.4480E+03
      6.116  0.0000E+00  0.0000E+00  0.5760E+03  0.4480E+03
      6.355  0.0000E+00  0.5045E-11  0.5760E+03  0.4480E+03
      6.593  0.0000E+00  0.1321E+01  0.5760E+03  0.4483E+03
      6.832  0.3876E-15  0.5330E+02  0.5760E+03  0.4610E+03
      7.071  0.3026E-01  0.7696E+02  0.5760E+03  0.4794E+03
      7.309  0.2025E+00  0.5800E+02  0.5761E+03  0.4932E+03
      7.548  0.9628E+00  0.6869E+02  0.5763E+03  0.5096E+03
      7.787  0.1453E+01  0.6344E+02  0.5766E+03  0.5248E+03
      8.025  0.3072E+01  0.9773E+02  0.5774E+03  0.5481E+03
      8.264  0.8359E+01  0.7026E+02  0.5794E+03  0.5649E+03
      8.503  0.1100E+02  0.3545E+02  0.5820E+03  0.5733E+03
      8.741  0.2229E+02  0.1320E+02  0.5873E+03  0.5765E+03
      8.980  0.2762E+02  0.8413E+01  0.5939E+03  0.5785E+03
      9.219  0.2844E+02  0.1152E+02  0.6007E+03  0.5812E+03
      9.457  0.3224E+02  0.2053E+02  0.6084E+03  0.5861E+03
      9.696  0.2939E+02  0.2557E+02  0.6154E+03  0.5922E+03
      9.935  0.2078E+02  0.4167E+02  0.6204E+03  0.6022E+03
     10.173  0.2176E+02  0.3277E+02  0.6255E+03  0.6100E+03
     10.412  0.2578E+02  0.3382E+02  0.6317E+03  0.6181E+03
     10.651  0.4021E+02  0.3280E+02  0.6413E+03  0.6259E+03
     10.889  0.3986E+02  0.2348E+02  0.6508E+03  0.6315E+03
     11.128  0.4460E+02  0.3402E+02  0.6615E+03  0.6396E+03
     11.367  0.4035E+02  0.2316E+02  0.6711E+03  0.6452E+03
     11.605  0.3870E+02  0.3574E+02  0.6803E+03  0.6537E+03
     11.844  0.4762E+02  0.5239E+02  0.6917E+03  0.6662E+03
     12.083  0.3018E+02  0.5803E+02  0.6989E+03  0.6800E+03
     12.321  0.2904E+02  0.4588E+02  0.7058E+03  0.6910E+03
     12.560  0.3355E+02  0.3108E+02  0.7138E+03  0.6984E+03
     12.799  0.4118E+02  0.3254E+02  0.7237E+03  0.7062E+03
     13.037  0.1973E+02  0.3529E+02  0.7284E+03  0.7146E+03
     13.276  0.1505E+02  0.3663E+02  0.7320E+03  0.7233E+03
     13.515  0.1710E+00  0.2894E+02  0.7320E+03  0.7303E+03
     13.753  0.0000E+00  0.7320E+01  0.7320E+03  0.7320E+03
     13.992  0.0000E+00  0.4052E-05  0.7320E+03  0.7320E+03
     14.231  0.0000E+00  0.0000E+00  0.7320E+03  0.7320E+03
     14.469  0.0000E+00  0.0000E+00  0.7320E+03  0.7320E+03
     14.708  0.0000E+00  0.0000E+00  0.7320E+03  0.7320E+03
     14.947  0.0000E+00  0.0000E+00  0.7320E+03  0.7320E+03
     15.185  0.0000E+00  0.0000E+00  0.7320E+03  0.7320E+03
     15.424  0.0000E+00  0.0000E+00  0.7320E+03  0.7320E+03
     15.663  0.0000E+00  0.0000E+00  0.7320E+03  0.7320E+03
     15.901  0.0000E+00  0.0000E+00  0.7320E+03  0.7320E+03
     16.140  0.0000E+00  0.0000E+00  0.7320E+03  0.7320E+03
     16.379  0.0000E+00  0.0000E+00  0.7320E+03  0.7320E+03
     16.617  0.0000E+00  0.0000E+00  0.7320E+03  0.7320E+03
     16.856  0.0000E+00  0.0000E+00  0.7320E+03  0.7320E+03
