# epsilon and Z* of atoms 1 3 4 6
  38.43295468    0.99325995   23.76379275    0.99326484   38.43365213   23.77224702   23.73075003   23.73902620 1180.82830297 
   0.92117087   -0.01030673   -0.09217142   -0.00087430    1.22842348   -0.12659933   -0.06547230    0.02223045    0.15304366 
  -2.10752690    0.05851936    0.14191941    0.05851953   -2.10748594    0.14196911   -0.02024780   -0.02025486   -4.24904035 
  -2.66316817   -0.07231422    0.14320224   -0.03642944   -2.62024423    0.14248716    0.10308435   -0.06399569   -0.26257607 
   2.63146500    0.03759315   -0.08799431    0.02369732    2.60985930   -0.12085676    1.92723478   -1.90214343    2.23405275 