126  
21   

1    
  0.0099999964431231   0.0000017848783378  -0.0000082432842298
  -0.0778064700   -0.0000533200    0.0000600500
   0.0016507900   -0.0000602700    0.0000095300
   0.0016344400   -0.0000584200   -0.0000075400
  -0.0000574100   -0.0000546200    0.0000084200
   0.0000779600    0.0001180100    0.0000090000
   0.0000892000   -0.0002166200   -0.0000032200
  -0.0000623600   -0.0000583900   -0.0000162200
   0.0000971300   -0.0002214900   -0.0000315600
   0.0000899900    0.0001218800   -0.0000187200
   0.0000042100    0.0001261800   -0.0001610600
   0.0000623100   -0.0001297700    0.0000183500
   0.0000614000   -0.0001256600    0.0000359200
   0.0000404700   -0.0001403900   -0.0000447900
  -0.0000160900    0.0000423000    0.0000385000
   0.0001032200   -0.0000484600    0.0000116100
   0.0000440500   -0.0001356500   -0.0000247100
   0.0001041200   -0.0000474200   -0.0000091300
  -0.0000249300    0.0000301700    0.0001031200
  -0.0001135000    0.0000065900   -0.0000553800
   0.0001297100   -0.0000640300    0.0000759000
   0.0001456900   -0.0000170000   -0.0000585200
   0.0000549100   -0.0000698600   -0.0000063800
   0.0000386500    0.0000598800    0.0000310700
   0.0000458400   -0.0000682200    0.0000455900
   0.0001414200   -0.0000280100   -0.0001113300
   0.0001391700   -0.0000707800    0.0000992700
  -0.0001118200    0.0000212300    0.0000321700
   0.0025792400    0.0045869200    0.0000325700
   0.0004289600   -0.0000311700   -0.0000068300
   0.0025576400   -0.0045884500    0.0000205300
   0.0000332600   -0.0000217700    0.0000104300
   0.0000782300   -0.0000278400   -0.0000076100
   0.0000286800   -0.0000294300   -0.0000159500
   0.0025851900   -0.0046331800    0.0000022400
   0.0004289800   -0.0000251000   -0.0000072500
   0.0025548800    0.0045379000    0.0000057500
   0.0228691000   -0.0000429900    0.0000236700
  -0.0006960700   -0.0000531500   -0.0000102700
   0.0210432400   -0.0000055300    0.0000115700
   0.0001576300   -0.0003994800    0.0001654300
  -0.0002903100   -0.0000462700   -0.0000408600
   0.0001253100    0.0002657800    0.0000454600
   0.0001544500    0.0003306100   -0.0000354500
  -0.0002978600   -0.0000121800   -0.0001800800
   0.0001324500   -0.0003783600   -0.0000413700
   0.0000687500   -0.0000734200   -0.0003802400
  -0.0000806200    0.0000447200   -0.0001342700
   0.0000275400   -0.0000790100   -0.0000031300
   0.0001036800   -0.0000411200   -0.0002506800
  -0.0000540100   -0.0000686800    0.0001862400
  -0.0000196900    0.0000216900    0.0000982900
  -0.0000436500   -0.0000223300   -0.0000029900
  -0.0000237900   -0.0000801600    0.0002851600
   0.0000817600   -0.0000477500    0.0002107900
   0.0025533900   -0.0000582500    0.0000943700
  -0.0008955600   -0.0008457000   -0.0006888000
  -0.0008211200    0.0007289700    0.0006928500
  -0.0001137800   -0.0000021300    0.0001027800
  -0.0001057900   -0.0000348800   -0.0000909900
   0.0000603200   -0.0000200100    0.0000139900
   0.0025302700   -0.0000168500    0.0001852900
  -0.0009104100    0.0008049600   -0.0006645000
  -0.0007820200   -0.0007847900    0.0007363600
   0.0000687400    0.0000755700   -0.0001221300
  -0.0001145900    0.0000352500   -0.0000581200
   0.0000397000   -0.0000382200    0.0001686600
   0.0000544800    0.0000177200   -0.0000534500
  -0.0001432800   -0.0000081100    0.0001047300
   0.0001087400    0.0000863800    0.0002674400
  -0.0000832100   -0.0001697600    0.0005826800
  -0.0001873900   -0.0000990100    0.0000666300
   0.0000126900   -0.0001284800   -0.0004922500
   0.0001738200   -0.0000122500    0.0004609000
  -0.0000346700   -0.0000086100   -0.0006376900
  -0.0001590900    0.0000389100   -0.0000265800
   0.0002686000   -0.0000037500   -0.0001968800
   0.0000772900    0.0000712500    0.0000880400
  -0.0000996900   -0.0000000100    0.0000418500
   0.0003037300    0.0001896000   -0.0001707600
   0.0000252500    0.0000850900    0.0000664900
  -0.0000939800    0.0001292900   -0.0000282500
   0.0025698200   -0.0000109800   -0.0000035000
  -0.0007349100   -0.0007795300    0.0007676500
  -0.0007636300    0.0008220500   -0.0007125700
  -0.0000780900    0.0001519300   -0.0000660900
   0.0000857100    0.0001612200    0.0000255900
   0.0000640000    0.0001239300   -0.0001414300
   0.0026075400    0.0000103800   -0.0001639300
  -0.0007606000    0.0008055900    0.0006252100
  -0.0007566200   -0.0007802100   -0.0007865900
   0.0038825700   -0.0000491800   -0.0098162200
   0.0038420700   -0.0000194100    0.0098240800
   0.0005656200   -0.0000198500   -0.0001440300
  -0.0004701100    0.0000538600   -0.0003611600
  -0.0005855500   -0.0000924400    0.0000816700
   0.0005442800   -0.0000372700   -0.0002074100
  -0.0004674600    0.0000044500   -0.0003063800
  -0.0006249300    0.0001077400    0.0001933700
   0.0005458600    0.0000616200   -0.0001373800
  -0.0001484000   -0.0000770400   -0.0001618600
  -0.0000154600    0.0000151700   -0.0004997500
   0.0000166800   -0.0000598500    0.0002809500
  -0.0001592800    0.0000722800   -0.0001577900
  -0.0000812700    0.0001026500   -0.0001881700
  -0.0000615000    0.0000646000   -0.0000019300
  -0.0001098900   -0.0000542500   -0.0000494300
  -0.0000391600   -0.0000794000   -0.0004444100
   0.0000336400    0.0000085400    0.0002640200
   0.0000058400    0.0000371000    0.0001088500
   0.0000407900    0.0000882300    0.0005008500
   0.0001087300    0.0000252800   -0.0002512000
  -0.0000249800    0.0001043100    0.0000374700
  -0.0000370200    0.0000785200    0.0002731400
   0.0000582100    0.0000870000    0.0000096600
  -0.0000211700    0.0001000100    0.0000617200
   0.0000229300    0.0000738500    0.0005521400
   0.0001261200    0.0001681700   -0.0002641900
  -0.0004861800    0.0000553600   -0.0000797800
   0.0006674700    0.0001148800    0.0002010900
  -0.0004710900    0.0001886000    0.0003694000
  -0.0004924000    0.0002168100   -0.0001936200
   0.0006509500    0.0001070700    0.0000984200
  -0.0004339400    0.0000551700    0.0002474200
   0.0038999800   -0.0000180700   -0.0097851000
   0.0007061100    0.0000337300    0.0001406600
   0.0039511900    0.0000071200    0.0098068100

1    
 -0.0099999964431231  -0.0000017848783378   0.0000082432842298
   0.0777000600   -0.0000374400   -0.0001469600
  -0.0015398800   -0.0000500900    0.0000222600
  -0.0015524200   -0.0000520300    0.0000067100
   0.0001671800   -0.0000487300   -0.0000099800
  -0.0000113700   -0.0002189000   -0.0000022600
  -0.0000097800    0.0001200300   -0.0000103000
   0.0001621000   -0.0000577700   -0.0000153200
   0.0000020200    0.0001104300   -0.0000241700
   0.0000027900   -0.0002157500   -0.0000213500
   0.0001019500   -0.0002095400    0.0000783600
   0.0000390700    0.0000405900   -0.0000978200
   0.0000347400    0.0000434100   -0.0000771700
   0.0000526500    0.0000272000    0.0000641600
   0.0000902900   -0.0001301400   -0.0000664700
  -0.0000096900   -0.0000529100    0.0000280900
   0.0000496800    0.0000375800    0.0000582300
  -0.0000088700   -0.0000472200    0.0000029800
   0.0000892700   -0.0001361900   -0.0000292400
   0.0002111500   -0.0000648600   -0.0000267100
  -0.0000398800    0.0000125900   -0.0000982200
  -0.0000380500   -0.0000173900    0.0001020300
   0.0000625000    0.0000010400    0.0000134400
   0.0000668000   -0.0000916200   -0.0000030000
   0.0000568000    0.0000052000    0.0000514900
  -0.0000403800   -0.0000263500    0.0000432500
  -0.0000294700    0.0000054600   -0.0000815600
   0.0002140300   -0.0000564000    0.0000357600
  -0.0024527900   -0.0045835700    0.0000313200
  -0.0003223500   -0.0000248900    0.0000150000
  -0.0024855800    0.0045776400    0.0000075800
   0.0000667400   -0.0000229000   -0.0000004100
   0.0000180100   -0.0000352100   -0.0000015100
   0.0000637200   -0.0000269300   -0.0000266200
  -0.0024565800    0.0045346400   -0.0000004600
  -0.0003139700   -0.0000256600    0.0000139600
  -0.0024645700   -0.0046363300    0.0000106800
  -0.0211588200   -0.0000467700    0.0000773900
   0.0007518600   -0.0000539200    0.0001272800
  -0.0228225400   -0.0000049300    0.0000353400
  -0.0001149400    0.0003061800   -0.0000034900
   0.0002876300   -0.0000359900    0.0000228700
  -0.0001315300   -0.0004259300   -0.0000442000
  -0.0000962400   -0.0003746800   -0.0000096400
   0.0002761200   -0.0000189900   -0.0001198800
  -0.0001376600    0.0003070100   -0.0001327100
   0.0000046100    0.0000452000   -0.0003304300
   0.0001295900   -0.0001583800   -0.0002272100
  -0.0000316800    0.0000333700    0.0000600900
  -0.0001000100   -0.0000478900    0.0001537100
   0.0000112700    0.0000317100   -0.0001413600
   0.0000976000   -0.0000976200    0.0001225000
   0.0000702000   -0.0001312600    0.0000042400
   0.0000408500    0.0000282500   -0.0001077300
  -0.0001153700   -0.0000395500    0.0003963900
  -0.0025868400   -0.0000627300    0.0000526300
   0.0007268800    0.0007150700    0.0007558700
   0.0007325500   -0.0008636500   -0.0007223800
   0.0000761200   -0.0000109200    0.0000475600
  -0.0001346500    0.0000059000    0.0000835500
  -0.0000641700   -0.0000202800   -0.0001080400
  -0.0025713000   -0.0000084300    0.0001377400
   0.0007216300   -0.0007961300    0.0008272300
   0.0007254400    0.0008049500   -0.0006843200
  -0.0002566800   -0.0000199100    0.0001243700
   0.0000374000    0.0000602400    0.0000243000
  -0.0000735600    0.0000572300   -0.0001012500
  -0.0002009500    0.0000240100    0.0002718000
   0.0000353600   -0.0000207200    0.0000665000
  -0.0001055300   -0.0000634900   -0.0000409200
  -0.0001654600   -0.0000882700   -0.0004760900
   0.0001167100   -0.0001147200   -0.0000238200
   0.0000183700   -0.0000777000    0.0005581500
   0.0000601900    0.0000142600   -0.0005490000
  -0.0000114800   -0.0000248600    0.0004576200
   0.0001626600    0.0000041800   -0.0000804100
  -0.0000435100    0.0000746700    0.0001583300
  -0.0001127200   -0.0000091200   -0.0001852600
   0.0001089600    0.0000338500    0.0000052500
  -0.0000344200    0.0000845500    0.0000621900
  -0.0000971800    0.0001844200   -0.0002440300
   0.0000725900    0.0001346800    0.0000561300
  -0.0025466400    0.0000564100   -0.0000718400
   0.0007630300    0.0008509700   -0.0006674000
   0.0008865400   -0.0007287800    0.0007808600
   0.0001090300    0.0000887100   -0.0001208600
  -0.0000426200    0.0001445200   -0.0001272200
   0.0000330800    0.0001273700    0.0000330200
  -0.0025302400    0.0000065500   -0.0001132300
   0.0008040700   -0.0008040600   -0.0007808000
   0.0008488400    0.0007739300    0.0006964100
  -0.0040191500   -0.0000301000    0.0097167400
  -0.0040034300   -0.0000491800   -0.0097551700
  -0.0007796800   -0.0000217900   -0.0001411800
   0.0004229400   -0.0000814200    0.0000534400
   0.0003586100    0.0000658800   -0.0003584100
  -0.0007248700   -0.0000271500   -0.0002171600
   0.0004216600    0.0001344000    0.0001417900
   0.0003478600   -0.0000366300   -0.0002598100
  -0.0007521400    0.0000647900   -0.0001596400
  -0.0000757100   -0.0000280000   -0.0001041600
  -0.0002003100   -0.0000356800    0.0002842400
  -0.0001269500    0.0000666800   -0.0005890900
  -0.0000382900    0.0000200200   -0.0001046700
  -0.0000993500    0.0000899000   -0.0000139700
  -0.0000824100    0.0000409400   -0.0002465900
  -0.0000360300   -0.0000509800   -0.0001507200
  -0.0001983800   -0.0000178100    0.0003203300
  -0.0001415500   -0.0001049700   -0.0005325900
   0.0000653000    0.0000319100    0.0000909400
  -0.0000993600   -0.0000201200   -0.0002338900
  -0.0000809400    0.0001113900    0.0005551700
   0.0000854700    0.0001099900    0.0001052600
  -0.0000569100    0.0000983500    0.0000663100
   0.0000384100    0.0000962100    0.0002620600
   0.0000500000    0.0000934300    0.0001278600
  -0.0001390600    0.0001717800   -0.0002722000
  -0.0000452900    0.0000805000    0.0005307300
   0.0004040000    0.0001942300    0.0003826800
  -0.0006301200    0.0001424300    0.0001926200
   0.0005030900    0.0000454000   -0.0000745700
   0.0004413300    0.0000185900    0.0002512100
  -0.0006369100    0.0000677000    0.0001279000
   0.0004862600    0.0001566600   -0.0001262900
  -0.0039787000    0.0000505300    0.0098126500
  -0.0006592600    0.0000306800    0.0001836500
  -0.0039184800    0.0000259300   -0.0096970300

1    
 -0.0000017151143905   0.0099999964553201  -0.0000082432983410
   0.0000544600   -0.0148443200   -0.0000138700
   0.0000303300   -0.0001389300   -0.0000190600
   0.0000493700   -0.0001434400   -0.0000197100
   0.0000478100    0.0011168000   -0.0000160500
   0.0002177200    0.0000159700   -0.0000182100
  -0.0001347800    0.0000159800    0.0000052800
   0.0000462900    0.0011009000    0.0000049500
  -0.0001310900    0.0000190100    0.0000055300
   0.0002217200    0.0000076000    0.0000180900
   0.0002210900   -0.0002196600   -0.0000689200
  -0.0000421400   -0.0001536100   -0.0000002900
  -0.0000426000   -0.0001531300   -0.0000059700
  -0.0000329700    0.0000523100    0.0000059600
   0.0001184100   -0.0001092500   -0.0000058400
   0.0000493600    0.0001188500   -0.0000205900
  -0.0000317100    0.0000563200    0.0000348000
   0.0000285700    0.0001258600   -0.0000087800
   0.0001273900   -0.0001081600    0.0000459900
   0.0001362000   -0.0001955600   -0.0000978900
  -0.0000319300   -0.0000301600   -0.0000755400
   0.0000609400    0.0000740700   -0.0001099000
  -0.0000321300    0.0000564600    0.0002014700
   0.0002125700   -0.0000396800    0.0001603100
  -0.0000204900    0.0000545700    0.0002016500
   0.0000466100    0.0000620900   -0.0001092900
  -0.0000288500   -0.0000260200   -0.0000565400
   0.0001463800   -0.0001829200   -0.0000503500
   0.0047215900    0.0024929300   -0.0000245200
   0.0000521700   -0.0000374000   -0.0000170900
  -0.0046201600    0.0024970700    0.0000174100
   0.0000459500    0.0003586300   -0.0000095300
   0.0000565200   -0.0000012500    0.0000162300
   0.0000592000    0.0003467700    0.0000141700
  -0.0045566300    0.0024815500   -0.0000037400
   0.0000556300   -0.0000384000    0.0000013200
   0.0046567000    0.0024754400    0.0000123000
  -0.0000847000    0.0046879700   -0.0001175300
   0.0000069200    0.0002127000   -0.0000826800
   0.0000987100    0.0047200400    0.0000169400
  -0.0005981200   -0.0008489200   -0.0001447400
  -0.0000127700   -0.0001622900   -0.0000432700
   0.0006242000   -0.0008640100    0.0001131400
   0.0006153000   -0.0008331300   -0.0000035200
  -0.0000170800   -0.0001619500    0.0000834200
  -0.0005816800   -0.0008532300    0.0000909700
  -0.0000020900    0.0001754200    0.0007329400
   0.0000254200    0.0001200000    0.0002904000
   0.0000172100    0.0001690500    0.0008777200
  -0.0000222400   -0.0001597000   -0.0007925500
  -0.0000280600   -0.0001590900   -0.0001253800
   0.0000610400   -0.0001577000   -0.0001819400
   0.0000047600   -0.0001464500   -0.0000373400
  -0.0000072800   -0.0001365500   -0.0000822800
   0.0000075400   -0.0001286400   -0.0005269700
  -0.0001043900    0.0009250200   -0.0024256600
  -0.0003164200    0.0001944900    0.0000789600
   0.0002689200    0.0002218300    0.0001319500
  -0.0001108700   -0.0010352700    0.0001123500
  -0.0000339000   -0.0003890000    0.0000918100
   0.0000064300   -0.0004129800    0.0001234100
  -0.0000891600    0.0008364700    0.0027993900
   0.0002210300    0.0001678900    0.0000787700
  -0.0002812000    0.0001717700    0.0001309800
  -0.0005768800   -0.0006743100    0.0006171900
  -0.0000748800   -0.0001664600    0.0001581000
   0.0005039000   -0.0006953800    0.0005740900
   0.0004615700   -0.0005535800   -0.0004324500
  -0.0000862000   -0.0000866900   -0.0000467200
  -0.0005078100   -0.0005627000   -0.0003611900
  -0.0000924500    0.0008511600    0.0002317800
  -0.0000730700    0.0001871800    0.0002097000
   0.0000144400    0.0008728900    0.0001151400
   0.0000565200    0.0009224900   -0.0000356100
  -0.0000532000    0.0009169900   -0.0000882600
   0.0000898300    0.0002428800   -0.0000052700
   0.0005667300   -0.0005814900   -0.0006980300
  -0.0005295100   -0.0005582000   -0.0005436100
   0.0000577500   -0.0000534300   -0.0002195600
  -0.0004551200   -0.0004697100    0.0003277200
   0.0004837800   -0.0005108400    0.0003698200
   0.0000549800   -0.0000072700   -0.0000689100
   0.0000815800    0.0010091000    0.0023796500
  -0.0002780700    0.0002854400   -0.0001746100
   0.0002786600    0.0002792700   -0.0001488800
   0.0000662100   -0.0009921700   -0.0000896600
  -0.0000161600   -0.0003813800   -0.0000824000
   0.0000345600   -0.0003657100   -0.0000586200
   0.0000612200    0.0009394900   -0.0028180100
   0.0002683200    0.0003281100   -0.0001519800
  -0.0002320700    0.0003056100   -0.0001004600
  -0.0000338600   -0.0029489700   -0.0000475000
  -0.0001515800   -0.0029554600   -0.0000495100
  -0.0000815000   -0.0003313700   -0.0000573700
  -0.0009464700    0.0009878400    0.0002147300
   0.0007301300    0.0009701200    0.0001777500
  -0.0000253700    0.0001885600    0.0000718600
   0.0007846500    0.0009641000   -0.0001898800
  -0.0009877900    0.0009660200   -0.0001971800
  -0.0000553100    0.0001267100   -0.0001247500
  -0.0000513400   -0.0006151300   -0.0022688200
  -0.0000729500   -0.0002083200   -0.0002830700
  -0.0001651100   -0.0001788500   -0.0001732800
  -0.0000856800    0.0003723100    0.0000093500
  -0.0001159500    0.0003120300    0.0001965000
  -0.0000523000    0.0002969500   -0.0000288200
  -0.0000445300   -0.0004753400    0.0022043100
  -0.0001786100   -0.0000152300    0.0000341700
  -0.0000348200   -0.0000779200    0.0000500600
  -0.0000286700   -0.0004585800    0.0022807500
   0.0000436300   -0.0000379000    0.0001944400
   0.0000052700    0.0000234200    0.0001470800
  -0.0000530900    0.0005052200    0.0000898600
   0.0000268300    0.0004221500    0.0001023400
   0.0000558300    0.0004154300    0.0001914800
  -0.0000397500   -0.0004942600   -0.0022475400
  -0.0000830400   -0.0001086300   -0.0001023400
   0.0001072200   -0.0001071900   -0.0003245400
   0.0008443100    0.0009806400   -0.0001727800
  -0.0000332600    0.0001544700   -0.0000405200
  -0.0008312100    0.0010241300   -0.0001882700
  -0.0008950300    0.0010978200    0.0002359000
   0.0000103200    0.0002661900    0.0001585200
   0.0009023700    0.0010824700    0.0002060100
  -0.0000277900   -0.0028241700   -0.0000521700
  -0.0000262300   -0.0001962100   -0.0000561800
   0.0000610000   -0.0028653700   -0.0000025700

1    
  0.0000017151143905  -0.0099999964553201   0.0000082432983410
   0.0000360000    0.0147707500   -0.0000287400
   0.0000412900    0.0000460900    0.0000185600
   0.0000505200    0.0000415600   -0.0000040900
   0.0000489300   -0.0012008700   -0.0000118800
  -0.0001241400   -0.0001057300    0.0000192200
   0.0002077300   -0.0001192600   -0.0000079900
   0.0000447400   -0.0012178600   -0.0000219600
   0.0002172000   -0.0001260600   -0.0000281100
  -0.0001272400   -0.0001229100   -0.0000259900
  -0.0001145700    0.0001356300    0.0001081300
   0.0001319300    0.0000505400    0.0000754100
   0.0001159000    0.0000581700    0.0000813500
   0.0001389800   -0.0001464600   -0.0000473400
  -0.0000506900    0.0000191200   -0.0000643000
   0.0000452200   -0.0002313100   -0.0000021000
   0.0001411600   -0.0001704100   -0.0000741000
   0.0000307000   -0.0002391500   -0.0000315600
  -0.0000496500   -0.0000019900   -0.0000530900
  -0.0000250800    0.0001475800    0.0000867000
   0.0001367900   -0.0000044800    0.0000909700
   0.0000558400   -0.0000898300    0.0001664800
   0.0001360600   -0.0001241300   -0.0002204700
  -0.0001215800   -0.0000242600   -0.0001756800
   0.0001430400   -0.0001291700   -0.0002170500
   0.0000602700   -0.0001311300    0.0001318200
   0.0001329700   -0.0000194800    0.0000982600
  -0.0000256900    0.0001323500    0.0001156000
  -0.0045483700   -0.0025394300    0.0000314600
   0.0000605800   -0.0000091200    0.0000224500
   0.0046406700   -0.0025367200   -0.0000089200
   0.0000610600   -0.0003957000   -0.0000050000
   0.0000491500   -0.0000442700   -0.0000084400
   0.0000525300   -0.0004064800   -0.0000351900
   0.0047131200   -0.0025622000   -0.0000027100
   0.0000633200   -0.0000184700    0.0000048200
  -0.0046196900   -0.0025563500    0.0000042700
  -0.0000722700   -0.0047646700    0.0000336400
   0.0000122400   -0.0002986800    0.0000899700
   0.0000835100   -0.0047264900   -0.0000808100
   0.0006321700    0.0007670700    0.0000997600
   0.0000199500    0.0001315000    0.0001304000
  -0.0006346800    0.0007611700   -0.0001097500
  -0.0005633800    0.0007716000   -0.0000790800
   0.0000035600    0.0000520000   -0.0001360000
   0.0005727400    0.0007271300   -0.0001199400
   0.0000433700   -0.0002047200   -0.0004910600
   0.0000145600   -0.0001939400    0.0000536300
  -0.0000147300   -0.0001771300   -0.0002147500
   0.0000091200    0.0001085900    0.0005212300
  -0.0000098500    0.0001074800    0.0000203700
   0.0000125900    0.0000577400    0.0000402100
   0.0000283300   -0.0000248000   -0.0001219100
  -0.0000230700    0.0000468600   -0.0000740700
  -0.0000000900    0.0000155600    0.0004878300
  -0.0000131100   -0.0008468400    0.0028742000
   0.0002201400   -0.0001825100    0.0001785200
  -0.0003583400   -0.0001475900    0.0001472600
  -0.0000525500    0.0008811800    0.0001547900
  -0.0000002900    0.0002520900    0.0000542900
  -0.0000860700    0.0002549600   -0.0000069900
  -0.0000290800   -0.0009201000   -0.0026558100
  -0.0003092800   -0.0002051100   -0.0000522700
   0.0001850400   -0.0002358600   -0.0000976700
   0.0003899100    0.0005177300   -0.0004303500
  -0.0000343400    0.0000884500    0.0000217200
  -0.0005082900    0.0005132300   -0.0003016000
  -0.0004867500    0.0004474900    0.0005501700
  -0.0000794900   -0.0000475000    0.0002070300
   0.0004318300    0.0003978500    0.0005134700
  -0.0000629600   -0.0007454500    0.0000192600
  -0.0000776600   -0.0001363800   -0.0000849500
  -0.0000102800   -0.0006925400    0.0000956200
   0.0000814300   -0.0005513100   -0.0000769600
   0.0000260700   -0.0005847400   -0.0000695000
  -0.0000100800    0.0000908100   -0.0000874700
  -0.0003927500    0.0005750700    0.0004645200
   0.0004713200    0.0005752300    0.0003945900
   0.0000204700    0.0000572000   -0.0000128400
   0.0006104900    0.0004434900   -0.0004600300
  -0.0005133100    0.0004647600   -0.0004351200
  -0.0000110700    0.0000050000   -0.0000687300
  -0.0000461900   -0.0007984300   -0.0028844700
   0.0002678500   -0.0001430500   -0.0000788200
  -0.0001420600   -0.0000815200   -0.0001102700
  -0.0000500800    0.0010181000   -0.0001458900
   0.0000984900    0.0004910600   -0.0001496000
   0.0000382300    0.0004278600   -0.0001098600
   0.0000190600   -0.0008731700    0.0026410900
  -0.0002238100   -0.0002245100   -0.0000425400
   0.0003061000   -0.0002354200    0.0000311700
  -0.0000564800    0.0030534100   -0.0001289700
  -0.0000946600    0.0030702700   -0.0001361000
  -0.0001107400    0.0004308800   -0.0001290300
   0.0007822900   -0.0010059400   -0.0002142300
  -0.0009426700   -0.0010302800   -0.0001977600
  -0.0000798200   -0.0001868000   -0.0001908000
  -0.0009549200   -0.0010233300   -0.0000835600
   0.0007774300   -0.0010461600   -0.0000480100
  -0.0000777300   -0.0002247500   -0.0001544700
  -0.0001646700    0.0006390900    0.0021429600
  -0.0001578500    0.0002339100    0.0001159800
   0.0000438200    0.0002623400   -0.0000036300
  -0.0001165700   -0.0004942900   -0.0001752900
  -0.0000548800   -0.0002616000   -0.0003072400
  -0.0000900400   -0.0003616000   -0.0001376100
  -0.0000828600    0.0005153900   -0.0024145000
  -0.0000094900    0.0000344800   -0.0002573400
  -0.0001687200    0.0000640100   -0.0002665400
   0.0000291600    0.0006824100   -0.0021043600
  -0.0000510400    0.0002432500    0.0000286400
   0.0000347500    0.0002466200    0.0000373300
   0.0000367600   -0.0004521900    0.0001515900
  -0.0000340800   -0.0003674200    0.0001475500
   0.0000209500   -0.0003340700   -0.0000139600
  -0.0000046000    0.0007028400    0.0024813500
   0.0000716400    0.0003277800    0.0003309200
  -0.0000767300    0.0003450000    0.0004343800
  -0.0009031700   -0.0008631200    0.0001942100
   0.0000469000    0.0000123500    0.0001218700
   0.0008428100   -0.0008739800    0.0001804900
   0.0009102700   -0.0009507400   -0.0000218400
   0.0000093600   -0.0001826900    0.0000392000
  -0.0009078300   -0.0009927700    0.0000332500
  -0.0000619100    0.0030890300    0.0001712200
   0.0000212100    0.0004376800    0.0001921000
   0.0000424600    0.0031266500    0.0001657900

1    
 -0.0027724976631131  -0.0027734713606807   0.0091989734927065
   0.0216590200    0.0040621600   -0.0186847700
  -0.0004126800   -0.0000268500   -0.0005349500
  -0.0003958200   -0.0000289700   -0.0005379400
   0.0000771900   -0.0003643700   -0.0012968200
  -0.0000183400   -0.0001083300   -0.0003113100
   0.0000718900   -0.0000147600   -0.0003088000
   0.0000812300   -0.0003832300   -0.0012466200
   0.0000803200   -0.0000273500   -0.0002748700
  -0.0000166900   -0.0001244900   -0.0002700300
  -0.0000630000   -0.0001189600    0.0004591500
   0.0001059700   -0.0000419100    0.0003419400
   0.0001018100   -0.0000347600    0.0002909700
   0.0000598600   -0.0000176200    0.0004575800
   0.0000695900   -0.0000183600    0.0003151200
   0.0000061400   -0.0001061500    0.0003430900
   0.0000480600   -0.0000211500    0.0003726900
   0.0000059800   -0.0000953900    0.0002961600
   0.0000721600   -0.0000146500    0.0002713500
  -0.0000022300    0.0000174900    0.0004193700
   0.0002508300    0.0000045300    0.0003958100
  -0.0000893100   -0.0000929000    0.0004262600
  -0.0000049300   -0.0000168800    0.0003062300
   0.0001650000   -0.0000701800    0.0003122800
   0.0000046200   -0.0000079900    0.0002693700
  -0.0000900900   -0.0000937900    0.0004322300
   0.0002510300    0.0000012800    0.0003913000
  -0.0000019800    0.0000269600    0.0003424100
  -0.0019422100   -0.0020149100   -0.0015671800
  -0.0000495200   -0.0000210900   -0.0003967400
   0.0006476100    0.0005261800   -0.0015632500
   0.0000541700   -0.0001199200   -0.0003730900
   0.0000449900   -0.0000284600   -0.0002922600
   0.0000596900   -0.0001349500   -0.0003820600
   0.0006186800    0.0005573000   -0.0015656800
  -0.0000497000   -0.0000272100   -0.0003697900
  -0.0019264500   -0.0019972500   -0.0015435000
  -0.0060780500   -0.0013560400    0.0059370400
   0.0001691600   -0.0001242100    0.0005284000
  -0.0060636800   -0.0013187400    0.0060589400
   0.0001455000    0.0002944200    0.0013576800
   0.0000558000    0.0000321200    0.0001950100
  -0.0001704300    0.0001226300    0.0014333900
  -0.0001853500    0.0000803500    0.0016536700
   0.0000549600   -0.0000225100    0.0003542800
   0.0001579500    0.0002241300    0.0015845200
   0.0001662200    0.0000511700   -0.0011794400
  -0.0002495900    0.0000113100   -0.0005237400
   0.0001369400    0.0000675800   -0.0014905500
   0.0001118400   -0.0000796000   -0.0006609400
  -0.0002886200   -0.0000592800   -0.0004201800
   0.0001834600   -0.0001092500   -0.0006918400
   0.0001721800   -0.0000989500   -0.0008982900
  -0.0002913100   -0.0000354100   -0.0006191200
   0.0001169700   -0.0000655100   -0.0012384400
  -0.0007505900   -0.0014814000    0.0006556200
  -0.0001431900    0.0000371600    0.0004061800
   0.0004673000   -0.0003702200    0.0000699100
  -0.0000458600    0.0002897500    0.0002687100
  -0.0002362000    0.0001182400    0.0002059100
   0.0001455500    0.0001065200    0.0002136700
  -0.0007552900    0.0008515500   -0.0007631200
  -0.0002948000   -0.0002438000    0.0004158000
   0.0006207700    0.0001755700    0.0000665900
   0.0006022200    0.0005527100   -0.0005893000
  -0.0000253900    0.0000584800   -0.0000042000
  -0.0007715000    0.0005946000   -0.0005572100
   0.0002998800   -0.0003904700   -0.0003570600
   0.0000316800   -0.0001627200   -0.0000047200
  -0.0005041200   -0.0003887600   -0.0003546200
   0.0006735400   -0.0001603800   -0.0009008900
   0.0000242300    0.0000218500   -0.0001536600
  -0.0008132500   -0.0002047800   -0.0006527400
   0.0006065300   -0.0001765900   -0.0009416900
  -0.0005730900   -0.0002040700   -0.0006037900
   0.0000939100    0.0000143200   -0.0002474400
   0.0002875400   -0.0000991400   -0.0004136700
  -0.0003270500   -0.0001226600   -0.0004319400
   0.0000931500    0.0000541800   -0.0001634500
   0.0005884100    0.0005228300   -0.0007949300
  -0.0006142600    0.0005607500   -0.0007334600
   0.0000698000    0.0000980000   -0.0002603400
  -0.0006085500    0.0011931300   -0.0009294800
   0.0007321900    0.0003930000   -0.0001797900
  -0.0003092300    0.0000070800    0.0001722000
   0.0000380100    0.0002444300    0.0000625600
   0.0002570300    0.0000730900   -0.0000633900
  -0.0002068500    0.0001007500   -0.0000594100
  -0.0006358000   -0.0014797500    0.0006536200
   0.0006211100   -0.0003028300   -0.0000513200
  -0.0001551900    0.0000436500    0.0002485900
  -0.0078026800    0.0007989600    0.0058138800
   0.0054036500    0.0008095800    0.0003022000
  -0.0002815500    0.0000599700   -0.0001857900
  -0.0008193900    0.0005044800   -0.0005190200
   0.0008698800    0.0004840500   -0.0006845000
  -0.0002153700    0.0001053700   -0.0002006700
  -0.0013027100   -0.0009956400   -0.0004356400
   0.0013545100   -0.0010243800   -0.0006696500
  -0.0002144800   -0.0001540000   -0.0001707000
  -0.0000916000    0.0004831400    0.0024302900
  -0.0002802400    0.0001337200    0.0005628900
   0.0000518600    0.0001605400    0.0001505800
  -0.0001108700   -0.0001942700    0.0004147200
  -0.0003145200   -0.0001528900    0.0003060500
   0.0001828700   -0.0001535600    0.0001883500
  -0.0001087100   -0.0001149900    0.0011168200
  -0.0002392000    0.0000597200    0.0003045700
   0.0000509800   -0.0000197600    0.0000602000
  -0.0000174000    0.0000586700    0.0014257300
   0.0002358400    0.0000840000    0.0002781200
  -0.0002384200    0.0001456000    0.0005315000
  -0.0000361100    0.0000125900    0.0006027400
   0.0002697700   -0.0000043700    0.0002940700