 126  126
1 1
     7.775322776871973     0.000530080324914    -0.008675181756598
     0.000404140350349     1.480754492593665     0.000930502717575
    -0.007784009763894     0.000457097074280     2.032548394265445
1 2
    -0.159532706905863     0.000507518325514     0.000684198779054
     0.000521581436258     0.009251259707064     0.001929160981442
     0.001143881336049     0.000205479146204     0.058281221559479
1 3
    -0.159342759043170     0.000318211324046     0.000759543159297
     0.000030473977736     0.009250420154797     0.000828321379163
     0.000367659677028     0.000439507248183     0.057247491546124
1 4
     0.011229653607918     0.000314832456372    -0.000808677735870
     0.000058086016229    -0.115883838591276     0.000319741228206
     0.000194074729034    -0.000426420975362     0.135115590559296
1 5
    -0.004463851155547    -0.016844726903533    -0.000541144553397
    -0.017094172331158    -0.006088198803437     0.001893601520647
    -0.000486055786093    -0.000373129784318     0.026923278751996
1 6
    -0.004951825225896     0.016833396895693    -0.000332233884421
     0.017124889895863    -0.006759430844324    -0.000641905510956
     0.000282799794576    -0.000382818181666     0.026265819330005
1 7
     0.011222936911739     0.000052020059220     0.000155130013926
    -0.000075655748647    -0.115937705602821    -0.001235564217681
    -0.000097756852087     0.000396165874710     0.133332082824407
1 8
    -0.004758554414994     0.016597245062512     0.000390023497474
     0.017413745445462    -0.007250710957470    -0.001661706896622
     0.000067229596900    -0.000066726579403     0.024537264176991
1 9
    -0.004356721602275    -0.016879852411201    -0.000110445762985
    -0.017448587825560    -0.006527908960452    -0.002183355107291
     0.000200874686921     0.000592531339897     0.025068374933659
1 10
     0.004897391303082    -0.016781229358738     0.011930403131211
    -0.016774770506139     0.017769576402893     0.008815521609689
     0.008971507573949     0.009642107582320    -0.047344781331319
1 11
    -0.001167012819588     0.008520952844242    -0.005838902021232
     0.008699843333540     0.010213737910896     0.003754269988498
    -0.004196856749045     0.005789975530613    -0.036065543854289
1 12
    -0.001337883149928     0.008456193374066    -0.005682231048943
     0.007921304522072     0.010571031255594     0.004338072189205
    -0.004208052855700     0.005552600934134    -0.032699023816693
1 13
     0.000609479794806     0.008377243915989     0.005409674106776
     0.008599622090435    -0.009941100166675    -0.002702383362430
     0.002443814726191    -0.004892988055810    -0.046474389167552
1 14
     0.005316613223116    -0.008626830390582    -0.005276161690874
    -0.008457989460930     0.006413340047973    -0.002952092743606
    -0.004729081330276    -0.004467417172273    -0.034193564193441
1 15
    -0.005643780905583    -0.000219584975937     0.000797617813577
    -0.000206283760524    -0.017508253775933     0.000898414960164
     0.002043218033084    -0.000254641374668    -0.031810275194921
1 16
     0.000282208521293     0.008659910389426     0.004112947088892
     0.008645803062079    -0.011338635250922    -0.005479328952331
     0.002731425377894    -0.004387206773906    -0.042498070686098
1 17
    -0.005648085322343     0.000012976433539     0.000580292096745
     0.000106967108072    -0.018250785358414    -0.001164316855540
     0.001741755954207    -0.000341022112121    -0.030832281579714
1 18
     0.005707695716145    -0.008323039135308    -0.006641758374335
    -0.008854911018228     0.005302984719668    -0.004979785788021
    -0.004715120563186    -0.004961198153544    -0.029896874151802
1 19
     0.016240726370796    -0.003576252401492     0.001396684690782
    -0.008054434397455     0.017155703666694     0.009194568058901
     0.008228486889595    -0.000835886595394    -0.042670720171629
1 20
    -0.008499213420006     0.003829610228443    -0.008739145028243
     0.008416337056657     0.001283495229511     0.008292342184186
    -0.022088505822731    -0.001409687433132    -0.038409251411339
1 21
    -0.009176505275677    -0.000013446287228     0.007993057178091
    -0.000246119886084    -0.008190413373157     0.013788391128652
     0.012681910020155     0.005570387100052    -0.038800803158138
1 22
     0.000385352409027     0.003543258642291     0.000964004431806
     0.008416923678903    -0.009032250262783    -0.021127609136208
     0.008921917808226    -0.004069694423020    -0.037323633892057
1 23
     0.001396511641441    -0.007572965629903    -0.001727640707620
    -0.016721239826499     0.000771876261325    -0.016826945819451
    -0.016951245118284     0.002638310373682    -0.032928014455386
1 24
     0.000553190483847     0.003669073242520     0.000271268128628
     0.008183248687996    -0.009189942331041    -0.020962434459331
     0.008068261665941    -0.004328803088991    -0.033328351431112
1 25
    -0.009079460665629     0.000088761351732     0.007692369748164
     0.000692109129107    -0.009656950520599     0.012022336384763
     0.012939135161617     0.004898135099050    -0.041836659003631
1 26
    -0.008451335843489     0.003810911332893    -0.009073591252723
     0.008071661185612     0.000326622004351     0.007707734166293
    -0.021705116109222    -0.001251594046827    -0.037257345164654
1 27
     0.016300980930279    -0.003885132948868     0.000148586958962
    -0.008593765980088     0.015762021002999     0.008268091024512
     0.008420490370029    -0.000992611642005    -0.035710694198649
1 28
    -0.251518100362334    -0.458478587091509     0.000078879839231
    -0.463540549789381    -0.251695572152064     0.002940919543708
     0.000913168753710     0.001396756685699     0.172145865139629
1 29
    -0.037565582078093     0.000313591003726     0.001122357167396
     0.000414062408364     0.001413897541053     0.002008408507117
     0.000006294366016    -0.000190147883276     0.037867485581408
1 30
    -0.252243990810919     0.458349830445473    -0.000506562694645
     0.462998139831901    -0.251610718984602    -0.001175859448270
    -0.000317295640399     0.000312938248661     0.170717889866086
1 31
     0.001674213223777    -0.000050261424090    -0.000511722273236
     0.000756135004518    -0.037717015425321     0.000256736109740
     0.000421663464232    -0.000598589807621     0.036785985056833
1 32
    -0.003011292533017    -0.000368628617767     0.000325599381566
    -0.000369373993360    -0.002151576504447    -0.001213061802100
    -0.000433553777045    -0.000621738697394     0.024726490573974
1 33
     0.001751656131545     0.000131688222900    -0.000503055361319
    -0.000333603725584    -0.037662524890604    -0.002438077442147
    -0.000490139236841    -0.000041399061000     0.036404968716448
1 34
    -0.252171053819508     0.458436452430354     0.000005499193487
     0.463444669166115    -0.252108671228738     0.000192034719208
     0.000309475810020     0.000353062612847     0.170482375075707
1 35
    -0.037147513730286    -0.000027905311920     0.001090701465051
     0.000378195896629     0.000996768176707     0.000205424935311
     0.000081261293006     0.000330704353226     0.036681669721671
1 36
    -0.250889287697008    -0.458666125102662     0.000386573864543
    -0.463862187021914    -0.251667637266399    -0.000261406481948
     0.000615997551948     0.000750220189314     0.169868058972430
1 37
    -2.201398497071771    -0.000105032393225     0.002165223401077
     0.000242264238645    -0.472632577068767     0.007039352036096
    -0.002026886565045    -0.000474957199645    -0.630235372077891
1 38
     0.072399850198526    -0.000034191190398     0.006814745178570
     0.000281792251438    -0.025569269909939     0.008572444572309
     0.004093930508011    -0.000309320687408    -0.074275211896970
1 39
    -2.193290580522033     0.000114839970844     0.000660178151598
    -0.001137178196585    -0.472326112261820    -0.005416678492425
    -0.001217194526585     0.000649577726876    -0.642084974477779
1 40
    -0.013639890826084     0.035267302870869    -0.008594201755728
     0.061511775534979     0.080804290295656     0.012077487012786
    -0.000493578729534    -0.001561380763024    -0.177166054586121
1 41
     0.028898616151661     0.000509964560198     0.003132382073120
     0.001642856131444     0.014688178708834     0.008631461778813
     0.002303817941726    -0.001715287197162    -0.063783352179801
1 42
    -0.012832932683063    -0.034603774057549    -0.004632140429634
    -0.062948386951418     0.081249334118997    -0.011296453789661
    -0.002624730281550    -0.004560963404156    -0.183367523660835
1 43
    -0.012523893677672    -0.035277505469594     0.001135470241867
    -0.058936077477701     0.080231805425481    -0.003933539165658
     0.000110883138333     0.001610376755637    -0.188920151906933
1 44
     0.028700295961580    -0.000340757454027     0.002949484412623
     0.001038393893572     0.010699097677458    -0.011032984037384
     0.001784596859865     0.002004451014366    -0.075802178054107
1 45
    -0.013517950745403     0.034256972036005    -0.004717205341039
     0.057716557737945     0.079026468593729    -0.010698426309445
    -0.002601188811710     0.003111762667681    -0.184529852282314
1 46
    -0.003219478044164     0.005928096424884     0.002583834333361
     0.002260375153680    -0.019012289159657    -0.061117153619864
    -0.014646406983082    -0.007641548924597     0.099990178270367
1 47
     0.010536046265689    -0.010161133432707    -0.004588908964721
    -0.000515742622426    -0.015707681782393    -0.011783301639825
     0.030874180307452    -0.010837244431887     0.067921340515020
1 48
    -0.002973255516826     0.005615291121612     0.003281383341481
    -0.001610052373550    -0.017314844427292    -0.054512303947380
    -0.015214608263677    -0.008250794904621     0.134233381020424
1 49
    -0.010198431988028    -0.000337831504061     0.020297057193638
     0.001552600138896     0.013417510297804     0.065781795872354
    -0.016560438722341     0.003716332427109     0.108319963236505
1 50
     0.003289622523105     0.005022130685866    -0.016317729084772
     0.000936853154040     0.013334375011311     0.007348292336415
     0.031284339103477     0.006076368503635     0.077139521399070
1 51
     0.005853003237778    -0.005962941889491     0.001283271579890
    -0.002433430207742     0.010775464635283     0.011182491249666
    -0.014476246865592     0.005438998182760     0.090700575160905
1 52
     0.005680323563676    -0.005444606584750     0.000439155404086
     0.001167504562436     0.006084549719499    -0.004151511766196
    -0.014520998004018     0.003616725864387     0.093305351844423
1 53
     0.003258593057586     0.005422896519156    -0.019570321433614
    -0.000762485534851     0.009175465647383     0.000481415217864
     0.032093766774894     0.004891617434953     0.090099348751838
1 54
    -0.009870632188714     0.000411308306333     0.009394941634474
    -0.000397392699115     0.007212668638820     0.050865646774417
    -0.017225667850031     0.003148664494461     0.150446337234833
1 55
    -0.257013582340838    -0.000108009551394    -0.002119124347532
     0.004518736445566    -0.088492854132054     0.265007907602311
    -0.001436787519883     0.121548143181142     0.018411464596765
1 56
     0.081147032510035     0.078042751133978     0.072213014273169
     0.026871727143903    -0.018835760029518     0.004970762894969
     0.036150547005266     0.001044997482705    -0.023806277768382
1 57
     0.077660796233836    -0.079627864783103    -0.070783926723230
    -0.031378023440670    -0.018484799414437     0.000731088912107
    -0.034369777621854    -0.000164706509363    -0.027017212025161
1 58
     0.009494229867518    -0.000456038136440    -0.002782473787992
     0.002917376609480     0.095823021020619     0.002100425584446
    -0.000306665673814     0.000685733014887    -0.025594043950431
1 59
    -0.001431001109321     0.002033246646950     0.008704107393050
     0.001692556688402     0.032054827407868    -0.001897742285281
     0.014923057488854    -0.000039643840239    -0.028185885814003
1 60
    -0.006235822704294    -0.000019170831258    -0.006125750960208
    -0.004638219531868     0.033397298737820    -0.006546470247034
    -0.014737271829179     0.000352028461779    -0.030833883605662
1 61
    -0.255080313193052     0.000336159751356    -0.002311380176958
     0.002959057546903    -0.087929008311307    -0.272743053748639
    -0.001448825880792    -0.121959432222401     0.021155801309643
1 62
     0.081636121839356    -0.080052179232606     0.074569143961240
    -0.026472139957042    -0.018664718666420    -0.006557765938611
     0.035626391929304    -0.001191496261478    -0.022506858924211
1 63
     0.075340972802171     0.079490132395064    -0.071051974154186
     0.023297034290463    -0.020368405144969    -0.011464685513183
    -0.033840587955029    -0.000644635190128    -0.024256337884764
1 64
    -0.016325865750220    -0.004815774562745     0.012387642156599
     0.048290476284736     0.059570054782148    -0.052321594850416
    -0.056094973214193    -0.037776593562787     0.064657460372015
1 65
     0.007601730722818     0.001247841115417     0.004137780627172
     0.002030895017126     0.012746334275416    -0.006802727756722
     0.003142569097965     0.000746956130313     0.018881978152155
1 66
    -0.005610011448843     0.004729508540001    -0.013440242397600
    -0.050566514991240     0.060399119885071    -0.043739365139889
     0.053334372103518    -0.039077427464990     0.057568606239709
1 67
    -0.012804733062392     0.000341435339798     0.016310299382471
    -0.047459912577490     0.050089451952715     0.049190388403149
    -0.050586057365563     0.043520974319815     0.068629766232072
1 68
     0.008931537719449    -0.000624970919759    -0.001894792843287
     0.000336626605882     0.001965273596994     0.012706155282561
    -0.000491762292581     0.007133176291316     0.023019617266898
1 69
    -0.010679379754882    -0.007468041348067    -0.015375708450723
     0.047022702128919     0.048060275722309     0.043780489797695
     0.051577772521972     0.041293593401249     0.060790458772983
1 70
    -0.004172299046953     0.004084271745806    -0.052867039975746
     0.001414239664013    -0.079834306966480    -0.010565477908951
    -0.072234726698479    -0.005433707374001     0.084423898539865
1 71
     0.015205992649002    -0.000788752928979    -0.004499546468865
    -0.000225945164833    -0.016184282373404    -0.014712947854781
     0.001148707151869    -0.007450120316415     0.024661347116985
1 72
     0.000343003607919     0.002551271375380     0.052591123476073
    -0.001177148108273    -0.078272790448771    -0.000896035378256
     0.071322761246786    -0.002062615868940     0.086063802565130
1 73
    -0.005729703328090     0.001337066577774    -0.050427904910395
     0.001196529908247    -0.073691383714992    -0.002009395186936
    -0.058214326639741    -0.001925098307349     0.080980312865084
1 74
     0.001205596496791    -0.000800110814805     0.054827676667729
     0.004010520172359    -0.075087676613026     0.001009741431118
     0.056787920600452    -0.001228596429756     0.075622034885484
1 75
     0.016089512682070    -0.001737141460181    -0.002667157625994
    -0.004991626217310    -0.007605799023958    -0.004086844985702
     0.001353847140076    -0.002424258144082     0.028646192360520
1 76
    -0.015631234730253     0.003936759708514     0.017807579831014
    -0.048010996561827     0.057854780434334     0.058188034281068
    -0.041607869185256     0.031643556091990     0.069704442630303
1 77
    -0.009475501475519    -0.004002813704039    -0.013621528690391
     0.050073832115400     0.056696640993330     0.046959538347332
     0.041172260567354     0.031307158198663     0.062909223373000
1 78
     0.010433385154892     0.001690326979158    -0.001805971726879
    -0.001861662054220     0.005530105302216     0.010361572302413
     0.000666190589038    -0.002045987385230     0.031393227936672
1 79
    -0.016952570342336    -0.005284776226057     0.011713090764611
     0.053242049997646     0.045634980677778    -0.039326937692338
    -0.043139667824907    -0.029271170092541     0.071048403596112
1 80
    -0.006078279716856     0.004933048448213    -0.015468899164176
    -0.049821230134094     0.048756112380820    -0.040199736083093
     0.041645975940927    -0.030025573350979     0.060571942828707
1 81
     0.008330409143606     0.000273033851590     0.004247553453127
    -0.003299755192517     0.000617190968996     0.000038287342615
     0.001597924308769     0.004420465742651     0.034644900447169
1 82
    -0.255827548565206     0.003276161010470    -0.003359798584412
    -0.006437986315389    -0.090485461071297    -0.263196444273670
    -0.006801503588719    -0.132824133808242     0.012404336847002
1 83
     0.074859226286268     0.081521214313797    -0.071763325636800
     0.027275916904777    -0.021418163348222     0.004767244225179
    -0.039950000505876    -0.009265195353928    -0.012069481163891
1 84
     0.082550986179134    -0.077548326056997     0.074662532214521
    -0.020983137351115    -0.018062829314138     0.001934657120048
     0.046961357820120    -0.012158344912686    -0.010492212840321
1 85
     0.009356009599324    -0.003175564640907    -0.002757216436445
    -0.005813928844006     0.100516368427418    -0.002831194720180
    -0.001251253784003     0.004097198844738    -0.023316907453830
1 86
    -0.006433767200665    -0.000836216380294    -0.007652166712627
     0.005715153706511     0.043628443118902    -0.003373579784742
    -0.019706741142987     0.007971414375667    -0.014880153894670
1 87
    -0.001528780177583     0.000168720387427     0.008711573924364
     0.000200494049254     0.039682346153528    -0.002571895022776
     0.020933588425547     0.004613626454619    -0.013815156543474
1 88
    -0.256891585760730    -0.000068867232062     0.002494821378380
    -0.002154939632402    -0.090526568816754     0.272964065917878
    -0.003492561922803     0.129165631437916     0.010361471944148
1 89
     0.078205204017861    -0.080476013214513    -0.070319486398357
    -0.024625814905115    -0.027643230923361     0.005441951237402
    -0.039691955551285     0.001918445808923    -0.021823904152651
1 90
     0.080304141943870     0.077718102066276     0.074135555076661
     0.026958207789053    -0.027031930475540     0.006580920727542
     0.043581043410306     0.007581386272915    -0.016130316252054
1 91
    -0.394492153145138     0.000900309305718     0.976364200173534
    -0.000604779889614     0.300119137395959    -0.004190939483141
     0.720440067887990    -0.000149697376019    -0.345608777960185
1 92
    -0.392869731715703    -0.001543886592302    -0.979243211715318
     0.002184416018984     0.301284731614762    -0.004778669932716
    -0.720831732266495    -0.001953570954368    -0.341146000995521
1 93
    -0.067263935176170    -0.000103150425736     0.000149875042040
    -0.001472711167176     0.038113148163738    -0.003576238877245
     0.001001891643113     0.000791364448324     0.008172317504603
1 94
     0.044739821829989    -0.006819071190204     0.020770819661660
     0.086548458009154    -0.099763080297120    -0.021407453788081
     0.124651486601233    -0.088405614565754     0.044874473147884
1 95
     0.047121643355458     0.007863553160451    -0.021960689784592
    -0.083733266727866    -0.100089001214925    -0.018739299794033
    -0.122910689113016    -0.085298897344333     0.048491946188081
1 96
    -0.063457976397738     0.000494541122935    -0.000484367189165
    -0.002734326610245    -0.018782733406139    -0.013132298700572
    -0.001142591379485    -0.017968011235235     0.000957176228521
1 97
     0.044574290664406     0.006588491450989     0.022446620139082
    -0.086868115707221    -0.099297139294337     0.005358920475770
     0.124671071890902     0.088879352220026     0.047394528823219
1 98
     0.048521790799525    -0.007129718730539    -0.022613758849205
     0.088167363462719    -0.100539419602861     0.007501212289732
    -0.123724542938412     0.085935096043020     0.056516393302420
1 99
    -0.064901299574320     0.000176184213032    -0.001109697870452
    -0.001133610545064    -0.017558425796404    -0.001483153046930
    -0.001793976012301     0.017650956311885     0.003685181044942
1 100
     0.003635803938603     0.002424149081201     0.002673611906736
    -0.005665587018766     0.062694776437864     0.220417489187388
     0.000353508420032    -0.020212242764919    -0.208711963906014
1 101
    -0.009222388615172    -0.002544587496881     0.039160794585186
    -0.004227223053184     0.022112931713125     0.019924060385033
     0.023485975605234     0.002256743095826    -0.042656713596541
1 102
    -0.007202361626599     0.006323920383896    -0.043530445843925
     0.010426270273438     0.022061948371190     0.008448114504066
    -0.023046763744306     0.001644883145535    -0.032659889278513
1 103
     0.006051866890840    -0.002603773921222     0.002615220487555
    -0.001541372956446    -0.043328968622029    -0.009273990556878
     0.002534938608094     0.001811548792952    -0.051479162853759
1 104
    -0.000881514184318    -0.000628188548337     0.008685065692987
     0.003076385166697    -0.028677424795901    -0.025214957359475
     0.027944234249837     0.005086690638400    -0.035711445197658
1 105
    -0.001070718566388    -0.001174680334738    -0.012253715577541
    -0.001912743949314    -0.032925269814890    -0.005463289975916
    -0.031006558015745     0.002964016437744    -0.026307900145420
1 106
     0.003695410465499     0.000167572475937    -0.005195336632628
    -0.001913799308480     0.049549462719005    -0.231113559019823
     0.002508176518388     0.015668988523610    -0.208758716089583
1 107
    -0.007942476320523     0.003071912349183     0.038214924814879
     0.008474679944547     0.002478881441279    -0.014593644484194
     0.024309645555176    -0.008669230710353    -0.029955979925158
1 108
    -0.008779878266794    -0.005681042458440    -0.039853743460931
    -0.006718082507727     0.007091253407233    -0.015862901660796
    -0.026171898593018    -0.005185718682808    -0.031614365917657
1 109
     0.002974250059963    -0.000262384071049    -0.001029435379905
     0.002893776652667     0.057056775197913    -0.219428855031521
     0.002141750710203     0.008855648163893    -0.209989598714851
1 110
    -0.007034006640531    -0.005426958943687    -0.036755759316596
    -0.004762062256224     0.014049624856429    -0.008316537659568
    -0.033183507975171    -0.008430288323263    -0.024541970471927
1 111
    -0.009458268679096     0.004295662474405     0.040296341854575
     0.001497880411857     0.011152892297238    -0.005503745536915
     0.030936745370531    -0.009520959976946    -0.028089326184510
1 112
     0.005525450575793     0.000291267817893     0.003350582951203
     0.004497200584563    -0.047871743824985     0.003048701593866
     0.004550742087337    -0.001548908815890    -0.046551936515460
1 113
    -0.001022246768734     0.000998455005457    -0.010352067775408
    -0.003073971536730    -0.039478434517483     0.002248562529355
    -0.034324998223819    -0.000111326913835    -0.012328523397503
1 114
    -0.000964629538956     0.000465960891218     0.012596637708643
    -0.001719102046111    -0.037476161682015    -0.010295047537509
     0.030405314983053    -0.001490077742062    -0.030575571406400
1 115
     0.003561103538942    -0.000346514100100     0.003089020498309
     0.001761027993587     0.059848129957642     0.236269303847112
     0.003538146073711    -0.008287732882956    -0.213275921690037
1 116
    -0.008128711954339     0.004900119637334    -0.041239786537163
     0.007704774661847     0.021828862257826     0.021637024619102
    -0.033765491690857     0.009115396910132    -0.022939792560274
1 117
    -0.008542931594932    -0.004378826651522     0.039701724366018
    -0.009173034248972     0.022617468862217     0.037915300339835
     0.031460966222624     0.010568420004581    -0.045518672565097
1 118
     0.044622076151710     0.007026248152522     0.023168367357881
    -0.087268893726268    -0.092120524197782     0.018402123918673
     0.118258501917447     0.080433063708306     0.059010063291562
1 119
    -0.064879870301083     0.001389405405497    -0.000401814686006
     0.003997240012199    -0.007095125680173     0.008142572817174
     0.000444282387161     0.012905678602030     0.028069888715025
1 120
     0.048596482087826    -0.007081486357767    -0.022148496085717
     0.083611752806462    -0.094845160616293     0.018487519513599
    -0.118413382320821     0.074712277353358     0.064672754273459
1 121
     0.046770274307650    -0.009955378929834     0.022286179524049
     0.090372941985046    -0.102492412936518    -0.012840802474273
     0.121175177152200    -0.076024356124012     0.051411147462764
1 122
    -0.064395965380045    -0.001970682498068     0.001493733550779
    -0.000061998212843    -0.022450534907645    -0.005947074344634
    -0.003582966493376    -0.007507862510279     0.022650606893190
1 123
     0.045928687159515     0.005032761923814    -0.018636014101159
    -0.090599655099288    -0.103821444459312    -0.008593240514970
    -0.118278237430348    -0.073114949477014     0.058179164057317
1 124
    -0.393348105593138     0.003373287899593     0.979594285499100
    -0.001187640781271     0.295656741182596     0.011045923674322
     0.710666186172042    -0.004782279561316    -0.353732031326294
1 125
    -0.068266499688480    -0.000161522628262     0.002168564402335
     0.002362738669283     0.031691117432836     0.012435659623030
     0.002967643857051    -0.004083435456276     0.025818890090480
1 126
    -0.394071366250001     0.000885411605654    -0.975479385358425
    -0.001582597872809     0.299599644236164     0.007965079738696
    -0.713318310690450    -0.001957736420002    -0.346484137421149
2 1
    -0.159342759043170     0.000318211324046     0.000759543159297
     0.000030473977736     0.009250420154797     0.000828321379163
     0.000367659677028     0.000439507248183     0.057247491546124
2 2
     7.775322776871971     0.000530080324914    -0.008675181756598
     0.000404140350349     1.480754492593666     0.000930502717575
    -0.007784009763893     0.000457097074280     2.032548394265445
2 3
    -0.159532706905863     0.000507518325514     0.000684198779054
     0.000521581436258     0.009251259707064     0.001929160981442
     0.001143881336049     0.000205479146204     0.058281221559479
2 4
    -0.004951825225896     0.016833396895693    -0.000332233884421
     0.017124889895863    -0.006759430844324    -0.000641905510956
     0.000282799794576    -0.000382818181666     0.026265819330005
2 5
     0.011229653607918     0.000314832456372    -0.000808677735870
     0.000058086016229    -0.115883838591276     0.000319741228206
     0.000194074729034    -0.000426420975362     0.135115590559296
2 6
    -0.004463851155547    -0.016844726903533    -0.000541144553397
    -0.017094172331158    -0.006088198803437     0.001893601520647
    -0.000486055786093    -0.000373129784318     0.026923278751996
2 7
    -0.004356721602275    -0.016879852411201    -0.000110445762985
    -0.017448587825560    -0.006527908960452    -0.002183355107291
     0.000200874686921     0.000592531339897     0.025068374933659
2 8
     0.011222936911739     0.000052020059220     0.000155130013926
    -0.000075655748647    -0.115937705602821    -0.001235564217681
    -0.000097756852087     0.000396165874710     0.133332082824407
2 9
    -0.004758554414994     0.016597245062512     0.000390023497474
     0.017413745445462    -0.007250710957470    -0.001661706896622
     0.000067229596900    -0.000066726579403     0.024537264176991
2 10
    -0.001337883149928     0.008456193374066    -0.005682231048943
     0.007921304522072     0.010571031255594     0.004338072189205
    -0.004208052855700     0.005552600934134    -0.032699023816693
2 11
     0.004897391303082    -0.016781229358738     0.011930403131211
    -0.016774770506139     0.017769576402893     0.008815521609689
     0.008971507573949     0.009642107582320    -0.047344781331319
2 12
    -0.001167012819588     0.008520952844242    -0.005838902021232
     0.008699843333540     0.010213737910896     0.003754269988498
    -0.004196856749045     0.005789975530613    -0.036065543854289
2 13
    -0.005643780905583    -0.000219584975937     0.000797617813577
    -0.000206283760524    -0.017508253775933     0.000898414960164
     0.002043218033084    -0.000254641374668    -0.031810275194921
2 14
     0.000609479794806     0.008377243915989     0.005409674106776
     0.008599622090435    -0.009941100166675    -0.002702383362430
     0.002443814726191    -0.004892988055810    -0.046474389167552
2 15
     0.005316613223116    -0.008626830390582    -0.005276161690874
    -0.008457989460930     0.006413340047973    -0.002952092743606
    -0.004729081330276    -0.004467417172273    -0.034193564193441
2 16
     0.005707695716145    -0.008323039135308    -0.006641758374335
    -0.008854911018228     0.005302984719668    -0.004979785788021
    -0.004715120563186    -0.004961198153544    -0.029896874151802
2 17
     0.000282208521293     0.008659910389426     0.004112947088892
     0.008645803062079    -0.011338635250922    -0.005479328952331
     0.002731425377894    -0.004387206773906    -0.042498070686098
2 18
    -0.005648085322343     0.000012976433539     0.000580292096745
     0.000106967108072    -0.018250785358414    -0.001164316855540
     0.001741755954207    -0.000341022112121    -0.030832281579714
2 19
    -0.009176505275677    -0.000013446287228     0.007993057178091
    -0.000246119886084    -0.008190413373157     0.013788391128652
     0.012681910020155     0.005570387100052    -0.038800803158138
2 20
     0.016240726370796    -0.003576252401492     0.001396684690782