phonopy:
  version: 2.9.3
  frequency_unit_conversion_factor: 15.633302
  symmetry_tolerance: 1.00000e-05
  nac_unit_conversion_factor: 14.399652

physical_unit:
  atomic_mass: "AMU"

space_group:
  type: "C2"
  number: 5
  Hall_symbol: "C 2y"

primitive_matrix:
- [  1.000000000000000,  0.000000000000000,  0.000000000000000 ]
- [  0.000000000000000,  1.000000000000000,  0.000000000000000 ]
- [  0.000000000000000,  0.000000000000000,  1.000000000000000 ]

supercell_matrix:
- [   3,   0,   0 ]
- [   0,   3,   0 ]
- [   0,   0,   2 ]

primitive_cell:
  lattice:
  - [     3.858861080000000,     0.000688760000000,    -0.003180970000000 ] # a
  - [    -0.000661840000000,     3.858866610000000,    -0.003180980000000 ] # b
  - [    -1.923839710000000,    -1.924515360000000,     6.383179590000000 ] # c
  points:
  - symbol: Li # 1
    coordinates: [  0.448200709999991,  0.051834049999999,  0.000014210000000 ]
    mass: 6.941000
  - symbol: Li # 2
    coordinates: [  0.948165950000001,  0.551799290000005,  0.999985790000008 ]
    mass: 6.941000
  - symbol: O  # 3
    coordinates: [  0.948188629999989,  0.051812380000000,  0.000000000000000 ]
    mass: 15.999400
  - symbol: S  # 4
    coordinates: [  0.598021719999995,  0.701660329999990,  0.299675430000003 ]
    mass: 32.065000
  - symbol: S  # 5
    coordinates: [  0.298339669999997,  0.401978279999999,  0.700324569999995 ]
    mass: 32.065000
  - symbol: Fe # 6
    coordinates: [  0.108096239999999,  0.211728910000000,  0.319800749999999 ]
    mass: 55.845000
  - symbol: Fe # 7
    coordinates: [  0.788271089999992,  0.891903759999997,  0.680199250000005 ]
    mass: 55.845000
  reciprocal_lattice: # without 2pi
  - [     0.259208226619313,     0.000108883646034,     0.078156132182106 ] # a*
  - [     0.000018160856071,     0.259207877890288,     0.078156109188985 ] # b*
  - [     0.000129181914800,     0.000129227357525,     0.156739632846833 ] # c*

unit_cell:
  lattice:
  - [     3.858861080000000,     0.000688760000000,    -0.003180970000000 ] # a
  - [    -0.000661840000000,     3.858866610000000,    -0.003180980000000 ] # b
  - [    -1.923839710000000,    -1.924515360000000,     6.383179590000000 ] # c
  points:
  - symbol: Li # 1
    coordinates: [  0.448200709999991,  0.051834049999999,  0.000014210000000 ]
    mass: 6.941000
    reduced_to: 1
  - symbol: Li # 2
    coordinates: [  0.948165950000001,  0.551799290000005,  0.999985790000008 ]
    mass: 6.941000
    reduced_to: 2
  - symbol: O  # 3
    coordinates: [  0.948188629999989,  0.051812380000000, -0.000000000000000 ]
    mass: 15.999400
    reduced_to: 3
  - symbol: S  # 4
    coordinates: [  0.598021719999995,  0.701660329999990,  0.299675430000003 ]
    mass: 32.065000
    reduced_to: 4
  - symbol: S  # 5
    coordinates: [  0.298339669999997,  0.401978279999999,  0.700324569999995 ]
    mass: 32.065000
    reduced_to: 5
  - symbol: Fe # 6
    coordinates: [  0.108096239999999,  0.211728910000000,  0.319800749999999 ]
    mass: 55.845000
    reduced_to: 6
  - symbol: Fe # 7
    coordinates: [  0.788271089999992,  0.891903759999997,  0.680199250000005 ]
    mass: 55.845000
    reduced_to: 7

supercell:
  lattice:
  - [    11.576583240000000,     0.002066280000000,    -0.009542910000000 ] # a
  - [    -0.001985520000000,    11.576599830000001,    -0.009542940000000 ] # b
  - [    -3.847679420000000,    -3.849030720000000,    12.766359180000000 ] # c
  points:
  - symbol: Li # 1
    coordinates: [  0.149400236666664,  0.017278016666666,  0.000007105000000 ]
    mass: 6.941000
    reduced_to: 1
  - symbol: Li # 2
    coordinates: [  0.482733569999997,  0.017278016666666,  0.000007105000000 ]
    mass: 6.941000
    reduced_to: 1
  - symbol: Li # 3
    coordinates: [  0.816066903333330,  0.017278016666666,  0.000007105000000 ]
    mass: 6.941000
    reduced_to: 1
  - symbol: Li # 4
    coordinates: [  0.149400236666664,  0.350611350000000,  0.000007105000000 ]
    mass: 6.941000
    reduced_to: 1
  - symbol: Li # 5
    coordinates: [  0.482733569999997,  0.350611350000000,  0.000007105000000 ]
    mass: 6.941000
    reduced_to: 1
  - symbol: Li # 6
    coordinates: [  0.816066903333330,  0.350611350000000,  0.000007105000000 ]
    mass: 6.941000
    reduced_to: 1
  - symbol: Li # 7
    coordinates: [  0.149400236666664,  0.683944683333333,  0.000007105000000 ]
    mass: 6.941000
    reduced_to: 1
  - symbol: Li # 8
    coordinates: [  0.482733569999997,  0.683944683333333,  0.000007105000000 ]
    mass: 6.941000
    reduced_to: 1
  - symbol: Li # 9
    coordinates: [  0.816066903333330,  0.683944683333333,  0.000007105000000 ]
    mass: 6.941000
    reduced_to: 1
  - symbol: Li # 10
    coordinates: [  0.149400236666664,  0.017278016666666,  0.500007105000000 ]
    mass: 6.941000
    reduced_to: 1
  - symbol: Li # 11
    coordinates: [  0.482733569999997,  0.017278016666666,  0.500007105000000 ]
    mass: 6.941000
    reduced_to: 1
  - symbol: Li # 12
    coordinates: [  0.816066903333330,  0.017278016666666,  0.500007105000000 ]
    mass: 6.941000
    reduced_to: 1
  - symbol: Li # 13
    coordinates: [  0.149400236666664,  0.350611350000000,  0.500007105000000 ]
    mass: 6.941000
    reduced_to: 1
  - symbol: Li # 14
    coordinates: [  0.482733569999997,  0.350611350000000,  0.500007105000000 ]
    mass: 6.941000
    reduced_to: 1
  - symbol: Li # 15
    coordinates: [  0.816066903333330,  0.350611350000000,  0.500007105000000 ]
    mass: 6.941000
    reduced_to: 1
  - symbol: Li # 16
    coordinates: [  0.149400236666664,  0.683944683333333,  0.500007105000000 ]
    mass: 6.941000
    reduced_to: 1
  - symbol: Li # 17
    coordinates: [  0.482733569999997,  0.683944683333333,  0.500007105000000 ]
    mass: 6.941000
    reduced_to: 1
  - symbol: Li # 18
    coordinates: [  0.816066903333330,  0.683944683333333,  0.500007105000000 ]
    mass: 6.941000
    reduced_to: 1
  - symbol: Li # 19
    coordinates: [  0.316055316666667,  0.183933096666668,  0.499992895000004 ]
    mass: 6.941000
    reduced_to: 19
  - symbol: Li # 20
    coordinates: [  0.649388650000000,  0.183933096666668,  0.499992895000004 ]
    mass: 6.941000
    reduced_to: 19
  - symbol: Li # 21
    coordinates: [  0.982721983333334,  0.183933096666668,  0.499992895000004 ]
    mass: 6.941000
    reduced_to: 19
  - symbol: Li # 22
    coordinates: [  0.316055316666667,  0.517266430000002,  0.499992895000004 ]
    mass: 6.941000
    reduced_to: 19
  - symbol: Li # 23
    coordinates: [  0.649388650000000,  0.517266430000002,  0.499992895000004 ]
    mass: 6.941000
    reduced_to: 19
  - symbol: Li # 24
    coordinates: [  0.982721983333334,  0.517266430000002,  0.499992895000004 ]
    mass: 6.941000
    reduced_to: 19
  - symbol: Li # 25
    coordinates: [  0.316055316666667,  0.850599763333335,  0.499992895000004 ]
    mass: 6.941000
    reduced_to: 19
  - symbol: Li # 26
    coordinates: [  0.649388650000000,  0.850599763333335,  0.499992895000004 ]
    mass: 6.941000
    reduced_to: 19
  - symbol: Li # 27
    coordinates: [  0.982721983333334,  0.850599763333335,  0.499992895000004 ]
    mass: 6.941000
    reduced_to: 19
  - symbol: Li # 28
    coordinates: [  0.316055316666667,  0.183933096666668,  0.999992895000004 ]
    mass: 6.941000
    reduced_to: 19
  - symbol: Li # 29
    coordinates: [  0.649388650000000,  0.183933096666668,  0.999992895000004 ]
    mass: 6.941000
    reduced_to: 19
  - symbol: Li # 30
    coordinates: [  0.982721983333334,  0.183933096666668,  0.999992895000004 ]
    mass: 6.941000
    reduced_to: 19
  - symbol: Li # 31
    coordinates: [  0.316055316666667,  0.517266430000002,  0.999992895000004 ]
    mass: 6.941000
    reduced_to: 19
  - symbol: Li # 32
    coordinates: [  0.649388650000000,  0.517266430000002,  0.999992895000004 ]
    mass: 6.941000
    reduced_to: 19
  - symbol: Li # 33
    coordinates: [  0.982721983333334,  0.517266430000002,  0.999992895000004 ]
    mass: 6.941000
    reduced_to: 19
  - symbol: Li # 34
    coordinates: [  0.316055316666667,  0.850599763333335,  0.999992895000004 ]
    mass: 6.941000
    reduced_to: 19
  - symbol: Li # 35
    coordinates: [  0.649388650000000,  0.850599763333335,  0.999992895000004 ]
    mass: 6.941000
    reduced_to: 19
  - symbol: Li # 36
    coordinates: [  0.982721983333334,  0.850599763333335,  0.999992895000004 ]
    mass: 6.941000
    reduced_to: 19
  - symbol: O  # 37
    coordinates: [  0.316062876666663,  0.017270793333333,  1.000000000000000 ]
    mass: 15.999400
    reduced_to: 37
  - symbol: O  # 38
    coordinates: [  0.649396209999996,  0.017270793333333,  1.000000000000000 ]
    mass: 15.999400
    reduced_to: 37
  - symbol: O  # 39
    coordinates: [  0.982729543333330,  0.017270793333333,  1.000000000000000 ]
    mass: 15.999400
    reduced_to: 37
  - symbol: O  # 40
    coordinates: [  0.316062876666663,  0.350604126666667,  1.000000000000000 ]
    mass: 15.999400
    reduced_to: 37
  - symbol: O  # 41
    coordinates: [  0.649396209999996,  0.350604126666667,  1.000000000000000 ]
    mass: 15.999400
    reduced_to: 37
  - symbol: O  # 42
    coordinates: [  0.982729543333330,  0.350604126666667,  1.000000000000000 ]
    mass: 15.999400
    reduced_to: 37
  - symbol: O  # 43
    coordinates: [  0.316062876666663,  0.683937460000000,  1.000000000000000 ]
    mass: 15.999400
    reduced_to: 37
  - symbol: O  # 44
    coordinates: [  0.649396209999996,  0.683937460000000,  1.000000000000000 ]
    mass: 15.999400
    reduced_to: 37
  - symbol: O  # 45
    coordinates: [  0.982729543333330,  0.683937460000000,  1.000000000000000 ]
    mass: 15.999400
    reduced_to: 37
  - symbol: O  # 46
    coordinates: [  0.316062876666663,  0.017270793333333,  0.500000000000000 ]
    mass: 15.999400
    reduced_to: 37
  - symbol: O  # 47
    coordinates: [  0.649396209999996,  0.017270793333333,  0.500000000000000 ]
    mass: 15.999400
    reduced_to: 37
  - symbol: O  # 48
    coordinates: [  0.982729543333330,  0.017270793333333,  0.500000000000000 ]
    mass: 15.999400
    reduced_to: 37
  - symbol: O  # 49
    coordinates: [  0.316062876666663,  0.350604126666667,  0.500000000000000 ]
    mass: 15.999400
    reduced_to: 37
  - symbol: O  # 50
    coordinates: [  0.649396209999996,  0.350604126666667,  0.500000000000000 ]
    mass: 15.999400
    reduced_to: 37
  - symbol: O  # 51
    coordinates: [  0.982729543333330,  0.350604126666667,  0.500000000000000 ]
    mass: 15.999400
    reduced_to: 37
  - symbol: O  # 52
    coordinates: [  0.316062876666663,  0.683937460000000,  0.500000000000000 ]
    mass: 15.999400
    reduced_to: 37
  - symbol: O  # 53
    coordinates: [  0.649396209999996,  0.683937460000000,  0.500000000000000 ]
    mass: 15.999400
    reduced_to: 37
  - symbol: O  # 54
    coordinates: [  0.982729543333330,  0.683937460000000,  0.500000000000000 ]
    mass: 15.999400
    reduced_to: 37
  - symbol: S  # 55
    coordinates: [  0.199340573333332,  0.233886776666663,  0.149837715000001 ]
    mass: 32.065000
    reduced_to: 55
  - symbol: S  # 56
    coordinates: [  0.532673906666665,  0.233886776666663,  0.149837715000001 ]
    mass: 32.065000
    reduced_to: 55
  - symbol: S  # 57
    coordinates: [  0.866007239999998,  0.233886776666663,  0.149837715000001 ]
    mass: 32.065000
    reduced_to: 55
  - symbol: S  # 58
    coordinates: [  0.199340573333332,  0.567220109999997,  0.149837715000001 ]
    mass: 32.065000
    reduced_to: 55
  - symbol: S  # 59
    coordinates: [  0.532673906666665,  0.567220109999997,  0.149837715000001 ]
    mass: 32.065000
    reduced_to: 55
  - symbol: S  # 60
    coordinates: [  0.866007239999998,  0.567220109999997,  0.149837715000001 ]
    mass: 32.065000
    reduced_to: 55
  - symbol: S  # 61
    coordinates: [  0.199340573333332,  0.900553443333330,  0.149837715000001 ]
    mass: 32.065000
    reduced_to: 55
  - symbol: S  # 62
    coordinates: [  0.532673906666665,  0.900553443333330,  0.149837715000001 ]
    mass: 32.065000
    reduced_to: 55
  - symbol: S  # 63
    coordinates: [  0.866007239999998,  0.900553443333330,  0.149837715000001 ]
    mass: 32.065000
    reduced_to: 55
  - symbol: S  # 64
    coordinates: [  0.199340573333332,  0.233886776666663,  0.649837715000001 ]
    mass: 32.065000
    reduced_to: 55
  - symbol: S  # 65
    coordinates: [  0.532673906666665,  0.233886776666663,  0.649837715000001 ]
    mass: 32.065000
    reduced_to: 55
  - symbol: S  # 66
    coordinates: [  0.866007239999998,  0.233886776666663,  0.649837715000001 ]
    mass: 32.065000
    reduced_to: 55
  - symbol: S  # 67
    coordinates: [  0.199340573333332,  0.567220109999997,  0.649837715000001 ]
    mass: 32.065000
    reduced_to: 55
  - symbol: S  # 68
    coordinates: [  0.532673906666665,  0.567220109999997,  0.649837715000001 ]
    mass: 32.065000
    reduced_to: 55
  - symbol: S  # 69
    coordinates: [  0.866007239999998,  0.567220109999997,  0.649837715000001 ]
    mass: 32.065000
    reduced_to: 55
  - symbol: S  # 70
    coordinates: [  0.199340573333332,  0.900553443333330,  0.649837715000001 ]
    mass: 32.065000
    reduced_to: 55
  - symbol: S  # 71
    coordinates: [  0.532673906666665,  0.900553443333330,  0.649837715000001 ]
    mass: 32.065000
    reduced_to: 55
  - symbol: S  # 72
    coordinates: [  0.866007239999998,  0.900553443333330,  0.649837715000001 ]
    mass: 32.065000
    reduced_to: 55
  - symbol: S  # 73
    coordinates: [  0.099446556666665,  0.133992760000000,  0.350162284999997 ]
    mass: 32.065000
    reduced_to: 73
  - symbol: S  # 74
    coordinates: [  0.432779889999999,  0.133992760000000,  0.350162284999997 ]
    mass: 32.065000
    reduced_to: 73
  - symbol: S  # 75
    coordinates: [  0.766113223333332,  0.133992760000000,  0.350162284999997 ]
    mass: 32.065000
    reduced_to: 73
  - symbol: S  # 76
    coordinates: [  0.099446556666665,  0.467326093333333,  0.350162284999997 ]
    mass: 32.065000
    reduced_to: 73
  - symbol: S  # 77
    coordinates: [  0.432779889999999,  0.467326093333333,  0.350162284999997 ]
    mass: 32.065000
    reduced_to: 73
  - symbol: S  # 78
    coordinates: [  0.766113223333332,  0.467326093333333,  0.350162284999997 ]
    mass: 32.065000
    reduced_to: 73
  - symbol: S  # 79
    coordinates: [  0.099446556666665,  0.800659426666666,  0.350162284999997 ]
    mass: 32.065000
    reduced_to: 73
  - symbol: S  # 80
    coordinates: [  0.432779889999999,  0.800659426666666,  0.350162284999997 ]
    mass: 32.065000
    reduced_to: 73
  - symbol: S  # 81
    coordinates: [  0.766113223333332,  0.800659426666666,  0.350162284999997 ]
    mass: 32.065000
    reduced_to: 73
  - symbol: S  # 82
    coordinates: [  0.099446556666665,  0.133992760000000,  0.850162284999997 ]
    mass: 32.065000
    reduced_to: 73
  - symbol: S  # 83
    coordinates: [  0.432779889999999,  0.133992760000000,  0.850162284999997 ]
    mass: 32.065000
    reduced_to: 73
  - symbol: S  # 84
    coordinates: [  0.766113223333332,  0.133992760000000,  0.850162284999997 ]
    mass: 32.065000
    reduced_to: 73
  - symbol: S  # 85
    coordinates: [  0.099446556666665,  0.467326093333333,  0.850162284999997 ]
    mass: 32.065000
    reduced_to: 73
  - symbol: S  # 86
    coordinates: [  0.432779889999999,  0.467326093333333,  0.850162284999997 ]
    mass: 32.065000
    reduced_to: 73
  - symbol: S  # 87
    coordinates: [  0.766113223333332,  0.467326093333333,  0.850162284999997 ]
    mass: 32.065000
    reduced_to: 73
  - symbol: S  # 88
    coordinates: [  0.099446556666665,  0.800659426666666,  0.850162284999997 ]
    mass: 32.065000
    reduced_to: 73
  - symbol: S  # 89
    coordinates: [  0.432779889999999,  0.800659426666666,  0.850162284999997 ]
    mass: 32.065000
    reduced_to: 73
  - symbol: S  # 90
    coordinates: [  0.766113223333332,  0.800659426666666,  0.850162284999997 ]
    mass: 32.065000
    reduced_to: 73
  - symbol: Fe # 91
    coordinates: [  0.036032080000000,  0.070576303333333,  0.159900374999999 ]
    mass: 55.845000
    reduced_to: 91
  - symbol: Fe # 92
    coordinates: [  0.369365413333333,  0.070576303333333,  0.159900374999999 ]
    mass: 55.845000
    reduced_to: 91
  - symbol: Fe # 93
    coordinates: [  0.702698746666666,  0.070576303333333,  0.159900374999999 ]
    mass: 55.845000
    reduced_to: 91
  - symbol: Fe # 94
    coordinates: [  0.036032080000000,  0.403909636666667,  0.159900374999999 ]
    mass: 55.845000
    reduced_to: 91
  - symbol: Fe # 95
    coordinates: [  0.369365413333333,  0.403909636666667,  0.159900374999999 ]
    mass: 55.845000
    reduced_to: 91
  - symbol: Fe # 96
    coordinates: [  0.702698746666666,  0.403909636666667,  0.159900374999999 ]
    mass: 55.845000
    reduced_to: 91
  - symbol: Fe # 97
    coordinates: [  0.036032080000000,  0.737242970000000,  0.159900374999999 ]
    mass: 55.845000
    reduced_to: 91
  - symbol: Fe # 98
    coordinates: [  0.369365413333333,  0.737242970000000,  0.159900374999999 ]
    mass: 55.845000
    reduced_to: 91
  - symbol: Fe # 99
    coordinates: [  0.702698746666666,  0.737242970000000,  0.159900374999999 ]
    mass: 55.845000
    reduced_to: 91
  - symbol: Fe # 100
    coordinates: [  0.036032080000000,  0.070576303333333,  0.659900374999999 ]
    mass: 55.845000
    reduced_to: 91
  - symbol: Fe # 101
    coordinates: [  0.369365413333333,  0.070576303333333,  0.659900374999999 ]
    mass: 55.845000
    reduced_to: 91
  - symbol: Fe # 102
    coordinates: [  0.702698746666666,  0.070576303333333,  0.659900374999999 ]
    mass: 55.845000
    reduced_to: 91
  - symbol: Fe # 103
    coordinates: [  0.036032080000000,  0.403909636666667,  0.659900374999999 ]
    mass: 55.845000
    reduced_to: 91
  - symbol: Fe # 104
    coordinates: [  0.369365413333333,  0.403909636666667,  0.659900374999999 ]
    mass: 55.845000
    reduced_to: 91
  - symbol: Fe # 105
    coordinates: [  0.702698746666666,  0.403909636666667,  0.659900374999999 ]
    mass: 55.845000
    reduced_to: 91
  - symbol: Fe # 106
    coordinates: [  0.036032080000000,  0.737242970000000,  0.659900374999999 ]
    mass: 55.845000
    reduced_to: 91
  - symbol: Fe # 107
    coordinates: [  0.369365413333333,  0.737242970000000,  0.659900374999999 ]
    mass: 55.845000
    reduced_to: 91
  - symbol: Fe # 108
    coordinates: [  0.702698746666666,  0.737242970000000,  0.659900374999999 ]
    mass: 55.845000
    reduced_to: 91
  - symbol: Fe # 109
    coordinates: [  0.262757029999997,  0.297301253333332,  0.340099625000003 ]
    mass: 55.845000
    reduced_to: 109
  - symbol: Fe # 110
    coordinates: [  0.596090363333331,  0.297301253333332,  0.340099625000003 ]
    mass: 55.845000
    reduced_to: 109
  - symbol: Fe # 111
    coordinates: [  0.929423696666664,  0.297301253333332,  0.340099625000003 ]
    mass: 55.845000
    reduced_to: 109
  - symbol: Fe # 112
    coordinates: [  0.262757029999997,  0.630634586666666,  0.340099625000003 ]
    mass: 55.845000
    reduced_to: 109
  - symbol: Fe # 113
    coordinates: [  0.596090363333331,  0.630634586666666,  0.340099625000003 ]
    mass: 55.845000
    reduced_to: 109
  - symbol: Fe # 114
    coordinates: [  0.929423696666664,  0.630634586666666,  0.340099625000003 ]
    mass: 55.845000
    reduced_to: 109
  - symbol: Fe # 115
    coordinates: [  0.262757029999997,  0.963967919999999,  0.340099625000003 ]
    mass: 55.845000
    reduced_to: 109
  - symbol: Fe # 116
    coordinates: [  0.596090363333331,  0.963967919999999,  0.340099625000003 ]
    mass: 55.845000
    reduced_to: 109
  - symbol: Fe # 117
    coordinates: [  0.929423696666664,  0.963967919999999,  0.340099625000003 ]
    mass: 55.845000
    reduced_to: 109
  - symbol: Fe # 118
    coordinates: [  0.262757029999997,  0.297301253333332,  0.840099625000003 ]
    mass: 55.845000
    reduced_to: 109
  - symbol: Fe # 119
    coordinates: [  0.596090363333331,  0.297301253333332,  0.840099625000003 ]
    mass: 55.845000
    reduced_to: 109
  - symbol: Fe # 120
    coordinates: [  0.929423696666664,  0.297301253333332,  0.840099625000003 ]
    mass: 55.845000
    reduced_to: 109
  - symbol: Fe # 121
    coordinates: [  0.262757029999997,  0.630634586666666,  0.840099625000003 ]
    mass: 55.845000
    reduced_to: 109
  - symbol: Fe # 122
    coordinates: [  0.596090363333331,  0.630634586666666,  0.840099625000003 ]
    mass: 55.845000
    reduced_to: 109
  - symbol: Fe # 123
    coordinates: [  0.929423696666664,  0.630634586666666,  0.840099625000003 ]
    mass: 55.845000
    reduced_to: 109
  - symbol: Fe # 124
    coordinates: [  0.262757029999997,  0.963967919999999,  0.840099625000003 ]
    mass: 55.845000
    reduced_to: 109
  - symbol: Fe # 125
    coordinates: [  0.596090363333331,  0.963967919999999,  0.840099625000003 ]
    mass: 55.845000
    reduced_to: 109
  - symbol: Fe # 126
    coordinates: [  0.929423696666664,  0.963967919999999,  0.840099625000003 ]
    mass: 55.845000
    reduced_to: 109

born_effective_charge:
- # 1 (Li)
  - [  0.921170869184870, -0.010306734798794, -0.092171419838204 ]
  - [ -0.000874302285782,  1.228423478231575, -0.126599334482154 ]
  - [ -0.065472296714892,  0.022230449455863,  0.153043664726412 ]
- # 2 (Li)
  - [  1.228427352307788, -0.000766754847251, -0.126566790001976 ]
  - [ -0.010199222341347,  0.921166987415503, -0.092215924918495 ]
  - [  0.022253398007949, -0.065464420301042,  0.153043672419566 ]
- # 3 (O)
  - [ -2.107526901770421,  0.058519363912004,  0.141919412796445 ]
  - [  0.058519529337263, -2.107485939648700,  0.141969111644299 ]
  - [ -0.020247800088451, -0.020254864443613, -4.249040351438021 ]
- # 4 (S)
  - [ -2.663168172913748, -0.072314224012046,  0.143202243820134 ]
  - [ -0.036429440412898, -2.620244230938208,  0.142487158665870 ]
  - [  0.103084351000291, -0.063995686241526, -0.262576069005188 ]
- # 5 (S)
  - [ -2.620206170644867, -0.036414308207434,  0.142436619210909 ]
  - [ -0.072299400462150, -2.663206218379987,  0.143252517077527 ]
  - [ -0.064031859347874,  0.103061804748978, -0.262576083832289 ]
- # 6 (Fe)
  - [  2.631465001550412,  0.037593145392317, -0.087994313271830 ]
  - [  0.023697321187268,  2.609859302100315, -0.120856762382398 ]
  - [  1.927234775037654, -1.902143430454169,  2.234052753492131 ]
- # 7 (Fe)
  - [  2.609838022285967,  0.023689512561206, -0.120825752715478 ]
  - [  0.037585514977645,  2.631486621219501, -0.088036765604650 ]
  - [ -1.902820567894676,  1.926566147235508,  2.234052413637389 ]

dielectric_constant:
  - [ 38.432954678548640,  0.993259947620234, 23.763792747418989 ]
  - [  0.993264836490411, 38.433652128691598, 23.772247024800631 ]
  - [ 23.730750026355565, 23.739026201032321, 1180.828302972759957 ]

displacements:
- atom:    1
  displacement:
    [   0.0099999964431231,  0.0000017848783378, -0.0000082432842298 ]
  forces:
  - [  -0.0778064700000000, -0.0000533200000000,  0.0000600500000000 ]
  - [   0.0016507900000000, -0.0000602700000000,  0.0000095300000000 ]
  - [   0.0016344400000000, -0.0000584200000000, -0.0000075400000000 ]
  - [  -0.0000574100000000, -0.0000546200000000,  0.0000084200000000 ]
  - [   0.0000779600000000,  0.0001180100000000,  0.0000090000000000 ]
  - [   0.0000892000000000, -0.0002166200000000, -0.0000032200000000 ]
  - [  -0.0000623600000000, -0.0000583900000000, -0.0000162200000000 ]
  - [   0.0000971300000000, -0.0002214900000000, -0.0000315600000000 ]
  - [   0.0000899900000000,  0.0001218800000000, -0.0000187200000000 ]
  - [   0.0000042100000000,  0.0001261800000000, -0.0001610600000000 ]
  - [   0.0000623100000000, -0.0001297700000000,  0.0000183500000000 ]
  - [   0.0000614000000000, -0.0001256600000000,  0.0000359200000000 ]
  - [   0.0000404700000000, -0.0001403900000000, -0.0000447900000000 ]
  - [  -0.0000160900000000,  0.0000423000000000,  0.0000385000000000 ]
  - [   0.0001032200000000, -0.0000484600000000,  0.0000116100000000 ]
  - [   0.0000440500000000, -0.0001356500000000, -0.0000247100000000 ]
  - [   0.0001041200000000, -0.0000474200000000, -0.0000091300000000 ]
  - [  -0.0000249300000000,  0.0000301700000000,  0.0001031200000000 ]
  - [  -0.0001135000000000,  0.0000065900000000, -0.0000553800000000 ]
  - [   0.0001297100000000, -0.0000640300000000,  0.0000759000000000 ]
  - [   0.0001456900000000, -0.0000170000000000, -0.0000585200000000 ]
  - [   0.0000549100000000, -0.0000698600000000, -0.0000063800000000 ]
  - [   0.0000386500000000,  0.0000598800000000,  0.0000310700000000 ]
  - [   0.0000458400000000, -0.0000682200000000,  0.0000455900000000 ]
  - [   0.0001414200000000, -0.0000280100000000, -0.0001113300000000 ]
  - [   0.0001391700000000, -0.0000707800000000,  0.0000992700000000 ]
  - [  -0.0001118200000000,  0.0000212300000000,  0.0000321700000000 ]
  - [   0.0025792400000000,  0.0045869200000000,  0.0000325700000000 ]
  - [   0.0004289600000000, -0.0000311700000000, -0.0000068300000000 ]
  - [   0.0025576400000000, -0.0045884500000000,  0.0000205300000000 ]
  - [   0.0000332600000000, -0.0000217700000000,  0.0000104300000000 ]
  - [   0.0000782300000000, -0.0000278400000000, -0.0000076100000000 ]
  - [   0.0000286800000000, -0.0000294300000000, -0.0000159500000000 ]
  - [   0.0025851900000000, -0.0046331800000000,  0.0000022400000000 ]
  - [   0.0004289800000000, -0.0000251000000000, -0.0000072500000000 ]
  - [   0.0025548800000000,  0.0045379000000000,  0.0000057500000000 ]
  - [   0.0228691000000000, -0.0000429900000000,  0.0000236700000000 ]
  - [  -0.0006960700000000, -0.0000531500000000, -0.0000102700000000 ]
  - [   0.0210432400000000, -0.0000055300000000,  0.0000115700000000 ]
  - [   0.0001576300000000, -0.0003994800000000,  0.0001654300000000 ]
  - [  -0.0002903100000000, -0.0000462700000000, -0.0000408600000000 ]
  - [   0.0001253100000000,  0.0002657800000000,  0.0000454600000000 ]
  - [   0.0001544500000000,  0.0003306100000000, -0.0000354500000000 ]
  - [  -0.0002978600000000, -0.0000121800000000, -0.0001800800000000 ]
  - [   0.0001324500000000, -0.0003783600000000, -0.0000413700000000 ]
  - [   0.0000687500000000, -0.0000734200000000, -0.0003802400000000 ]
  - [  -0.0000806200000000,  0.0000447200000000, -0.0001342700000000 ]
  - [   0.0000275400000000, -0.0000790100000000, -0.0000031300000000 ]
  - [   0.0001036800000000, -0.0000411200000000, -0.0002506800000000 ]
  - [  -0.0000540100000000, -0.0000686800000000,  0.0001862400000000 ]
  - [  -0.0000196900000000,  0.0000216900000000,  0.0000982900000000 ]
  - [  -0.0000436500000000, -0.0000223300000000, -0.0000029900000000 ]
  - [  -0.0000237900000000, -0.0000801600000000,  0.0002851600000000 ]
  - [   0.0000817600000000, -0.0000477500000000,  0.0002107900000000 ]
  - [   0.0025533900000000, -0.0000582500000000,  0.0000943700000000 ]
  - [  -0.0008955600000000, -0.0008457000000000, -0.0006888000000000 ]
  - [  -0.0008211200000000,  0.0007289700000000,  0.0006928500000000 ]
  - [  -0.0001137800000000, -0.0000021300000000,  0.0001027800000000 ]
  - [  -0.0001057900000000, -0.0000348800000000, -0.0000909900000000 ]
  - [   0.0000603200000000, -0.0000200100000000,  0.0000139900000000 ]
  - [   0.0025302700000000, -0.0000168500000000,  0.0001852900000000 ]
  - [  -0.0009104100000000,  0.0008049600000000, -0.0006645000000000 ]
  - [  -0.0007820200000000, -0.0007847900000000,  0.0007363600000000 ]
  - [   0.0000687400000000,  0.0000755700000000, -0.0001221300000000 ]
  - [  -0.0001145900000000,  0.0000352500000000, -0.0000581200000000 ]
  - [   0.0000397000000000, -0.0000382200000000,  0.0001686600000000 ]
  - [   0.0000544800000000,  0.0000177200000000, -0.0000534500000000 ]
  - [  -0.0001432800000000, -0.0000081100000000,  0.0001047300000000 ]
  - [   0.0001087400000000,  0.0000863800000000,  0.0002674400000000 ]
  - [  -0.0000832100000000, -0.0001697600000000,  0.0005826800000000 ]
  - [  -0.0001873900000000, -0.0000990100000000,  0.0000666300000000 ]
  - [   0.0000126900000000, -0.0001284800000000, -0.0004922500000000 ]
  - [   0.0001738200000000, -0.0000122500000000,  0.0004609000000000 ]
  - [  -0.0000346700000000, -0.0000086100000000, -0.0006376900000000 ]
  - [  -0.0001590900000000,  0.0000389100000000, -0.0000265800000000 ]
  - [   0.0002686000000000, -0.0000037500000000, -0.0001968800000000 ]
  - [   0.0000772900000000,  0.0000712500000000,  0.0000880400000000 ]
  - [  -0.0000996900000000, -0.0000000100000000,  0.0000418500000000 ]
  - [   0.0003037300000000,  0.0001896000000000, -0.0001707600000000 ]
  - [   0.0000252500000000,  0.0000850900000000,  0.0000664900000000 ]
  - [  -0.0000939800000000,  0.0001292900000000, -0.0000282500000000 ]
  - [   0.0025698200000000, -0.0000109800000000, -0.0000035000000000 ]
  - [  -0.0007349100000000, -0.0007795300000000,  0.0007676500000000 ]
  - [  -0.0007636300000000,  0.0008220500000000, -0.0007125700000000 ]
  - [  -0.0000780900000000,  0.0001519300000000, -0.0000660900000000 ]
  - [   0.0000857100000000,  0.0001612200000000,  0.0000255900000000 ]
  - [   0.0000640000000000,  0.0001239300000000, -0.0001414300000000 ]
  - [   0.0026075400000000,  0.0000103800000000, -0.0001639300000000 ]
  - [  -0.0007606000000000,  0.0008055900000000,  0.0006252100000000 ]
  - [  -0.0007566200000000, -0.0007802100000000, -0.0007865900000000 ]
  - [   0.0038825700000000, -0.0000491800000000, -0.0098162200000000 ]
  - [   0.0038420700000000, -0.0000194100000000,  0.0098240800000000 ]
  - [   0.0005656200000000, -0.0000198500000000, -0.0001440300000000 ]
  - [  -0.0004701100000000,  0.0000538600000000, -0.0003611600000000 ]
  - [  -0.0005855500000000, -0.0000924400000000,  0.0000816700000000 ]
  - [   0.0005442800000000, -0.0000372700000000, -0.0002074100000000 ]
  - [  -0.0004674600000000,  0.0000044500000000, -0.0003063800000000 ]
  - [  -0.0006249300000000,  0.0001077400000000,  0.0001933700000000 ]
  - [   0.0005458600000000,  0.0000616200000000, -0.0001373800000000 ]
  - [  -0.0001484000000000, -0.0000770400000000, -0.0001618600000000 ]
  - [  -0.0000154600000000,  0.0000151700000000, -0.0004997500000000 ]