 126 126   0   0
  0.1357194E+02  0.1157659E-08  0.1157660E-08  0.1387803E-08  0.5000000E-15
  1.000000000000000E-004
  CAR 
 unknown system                          
     17.62447791    -54.41687229  301      5.40746561      1.00000000
    -54.417  0.0000E+00  0.0000E+00  0.0000E+00  0.0000E+00
    -54.177  0.0000E+00  0.0000E+00  0.0000E+00  0.0000E+00
    -53.937  0.0000E+00  0.0000E+00  0.0000E+00  0.0000E+00
    -53.696  0.0000E+00  0.0000E+00  0.0000E+00  0.0000E+00
    -53.456  0.0000E+00  0.0000E+00  0.0000E+00  0.0000E+00
    -53.216  0.0000E+00  0.0000E+00  0.0000E+00  0.0000E+00
    -52.976  0.0000E+00  0.0000E+00  0.0000E+00  0.0000E+00
    -52.736  0.0000E+00  0.0000E+00  0.0000E+00  0.0000E+00
    -52.496  0.0000E+00  0.0000E+00  0.0000E+00  0.0000E+00
    -52.256  0.0000E+00  0.0000E+00  0.0000E+00  0.0000E+00
    -52.015  0.0000E+00  0.0000E+00  0.0000E+00  0.0000E+00
    -51.775  0.0000E+00  0.0000E+00  0.0000E+00  0.0000E+00
    -51.535  0.0000E+00  0.0000E+00  0.0000E+00  0.0000E+00
    -51.295  0.7950E-03  0.0000E+00  0.1909E-03  0.0000E+00
    -51.055  0.1486E+03  0.0000E+00  0.3569E+02  0.0000E+00
    -50.815  0.1308E+01  0.0000E+00  0.3600E+02  0.0000E+00
    -50.575  0.0000E+00  0.0000E+00  0.3600E+02  0.0000E+00
    -50.335  0.0000E+00  0.0000E+00  0.3600E+02  0.0000E+00
    -50.094  0.0000E+00  0.0000E+00  0.3600E+02  0.0000E+00
    -49.854  0.1966E-05  0.0000E+00  0.3600E+02  0.0000E+00
    -49.614  0.2590E+03  0.0000E+00  0.9819E+02  0.0000E+00
    -49.374  0.4085E+02  0.0000E+00  0.1080E+03  0.0000E+00
    -49.134  0.0000E+00  0.0000E+00  0.1080E+03  0.0000E+00
    -48.894  0.0000E+00  0.0000E+00  0.1080E+03  0.0000E+00
    -48.654  0.0000E+00  0.0000E+00  0.1080E+03  0.0000E+00
    -48.413  0.0000E+00  0.0000E+00  0.1080E+03  0.0000E+00
    -48.173  0.0000E+00  0.0000E+00  0.1080E+03  0.0000E+00
    -47.933  0.0000E+00  0.0000E+00  0.1080E+03  0.0000E+00
    -47.693  0.0000E+00  0.0000E+00  0.1080E+03  0.0000E+00
    -47.453  0.0000E+00  0.0000E+00  0.1080E+03  0.0000E+00
    -47.213  0.0000E+00  0.0000E+00  0.1080E+03  0.0000E+00
    -46.973  0.0000E+00  0.0000E+00  0.1080E+03  0.0000E+00
    -46.732  0.0000E+00  0.0000E+00  0.1080E+03  0.0000E+00
    -46.492  0.0000E+00  0.3592E+00  0.1080E+03  0.8626E-01
    -46.252  0.0000E+00  0.1495E+03  0.1080E+03  0.3600E+02
    -46.012  0.0000E+00  0.4831E+01  0.1080E+03  0.3716E+02
    -45.772  0.0000E+00  0.2950E+03  0.1080E+03  0.1080E+03
    -45.532  0.0000E+00  0.4023E-04  0.1080E+03  0.1080E+03
    -45.292  0.0000E+00  0.0000E+00  0.1080E+03  0.1080E+03
    -45.051  0.0000E+00  0.0000E+00  0.1080E+03  0.1080E+03
    -44.811  0.0000E+00  0.0000E+00  0.1080E+03  0.1080E+03
    -44.571  0.0000E+00  0.0000E+00  0.1080E+03  0.1080E+03
    -44.331  0.0000E+00  0.0000E+00  0.1080E+03  0.1080E+03
    -44.091  0.0000E+00  0.0000E+00  0.1080E+03  0.1080E+03
    -43.851  0.0000E+00  0.0000E+00  0.1080E+03  0.1080E+03
    -43.611  0.0000E+00  0.0000E+00  0.1080E+03  0.1080E+03
    -43.371  0.0000E+00  0.0000E+00  0.1080E+03  0.1080E+03
    -43.130  0.0000E+00  0.0000E+00  0.1080E+03  0.1080E+03
    -42.890  0.0000E+00  0.0000E+00  0.1080E+03  0.1080E+03
    -42.650  0.0000E+00  0.0000E+00  0.1080E+03  0.1080E+03
    -42.410  0.0000E+00  0.0000E+00  0.1080E+03  0.1080E+03
    -42.170  0.0000E+00  0.0000E+00  0.1080E+03  0.1080E+03
    -41.930  0.0000E+00  0.0000E+00  0.1080E+03  0.1080E+03
    -41.690  0.0000E+00  0.0000E+00  0.1080E+03  0.1080E+03
    -41.449  0.0000E+00  0.0000E+00  0.1080E+03  0.1080E+03
    -41.209  0.0000E+00  0.0000E+00  0.1080E+03  0.1080E+03
    -40.969  0.0000E+00  0.0000E+00  0.1080E+03  0.1080E+03
    -40.729  0.0000E+00  0.0000E+00  0.1080E+03  0.1080E+03
    -40.489  0.0000E+00  0.0000E+00  0.1080E+03  0.1080E+03
    -40.249  0.0000E+00  0.0000E+00  0.1080E+03  0.1080E+03
    -40.009  0.0000E+00  0.0000E+00  0.1080E+03  0.1080E+03
    -39.768  0.2196E-02  0.2030E-02  0.1080E+03  0.1080E+03
    -39.528  0.1479E+03  0.1478E+03  0.1435E+03  0.1435E+03
    -39.288  0.2008E+01  0.2082E+01  0.1440E+03  0.1440E+03
    -39.048  0.0000E+00  0.0000E+00  0.1440E+03  0.1440E+03
    -38.808  0.0000E+00  0.0000E+00  0.1440E+03  0.1440E+03
    -38.568  0.0000E+00  0.0000E+00  0.1440E+03  0.1440E+03
    -38.328  0.0000E+00  0.0000E+00  0.1440E+03  0.1440E+03
    -38.087  0.0000E+00  0.0000E+00  0.1440E+03  0.1440E+03
    -37.847  0.0000E+00  0.0000E+00  0.1440E+03  0.1440E+03
    -37.607  0.0000E+00  0.0000E+00  0.1440E+03  0.1440E+03
    -37.367  0.0000E+00  0.0000E+00  0.1440E+03  0.1440E+03
    -37.127  0.0000E+00  0.0000E+00  0.1440E+03  0.1440E+03
    -36.887  0.0000E+00  0.0000E+00  0.1440E+03  0.1440E+03
    -36.647  0.0000E+00  0.0000E+00  0.1440E+03  0.1440E+03
    -36.407  0.0000E+00  0.0000E+00  0.1440E+03  0.1440E+03
    -36.166  0.0000E+00  0.0000E+00  0.1440E+03  0.1440E+03
    -35.926  0.0000E+00  0.0000E+00  0.1440E+03  0.1440E+03
    -35.686  0.0000E+00  0.0000E+00  0.1440E+03  0.1440E+03
    -35.446  0.0000E+00  0.0000E+00  0.1440E+03  0.1440E+03
    -35.206  0.0000E+00  0.0000E+00  0.1440E+03  0.1440E+03
    -34.966  0.0000E+00  0.0000E+00  0.1440E+03  0.1440E+03
    -34.726  0.0000E+00  0.0000E+00  0.1440E+03  0.1440E+03
    -34.485  0.0000E+00  0.0000E+00  0.1440E+03  0.1440E+03
    -34.245  0.0000E+00  0.0000E+00  0.1440E+03  0.1440E+03
    -34.005  0.0000E+00  0.0000E+00  0.1440E+03  0.1440E+03
    -33.765  0.0000E+00  0.0000E+00  0.1440E+03  0.1440E+03
    -33.525  0.0000E+00  0.0000E+00  0.1440E+03  0.1440E+03
    -33.285  0.0000E+00  0.0000E+00  0.1440E+03  0.1440E+03
    -33.045  0.0000E+00  0.0000E+00  0.1440E+03  0.1440E+03
    -32.804  0.0000E+00  0.0000E+00  0.1440E+03  0.1440E+03
    -32.564  0.0000E+00  0.0000E+00  0.1440E+03  0.1440E+03
    -32.324  0.0000E+00  0.0000E+00  0.1440E+03  0.1440E+03
    -32.084  0.0000E+00  0.0000E+00  0.1440E+03  0.1440E+03
    -31.844  0.0000E+00  0.0000E+00  0.1440E+03  0.1440E+03
    -31.604  0.0000E+00  0.0000E+00  0.1440E+03  0.1440E+03
    -31.364  0.0000E+00  0.0000E+00  0.1440E+03  0.1440E+03
    -31.124  0.0000E+00  0.0000E+00  0.1440E+03  0.1440E+03
    -30.883  0.0000E+00  0.0000E+00  0.1440E+03  0.1440E+03
    -30.643  0.0000E+00  0.0000E+00  0.1440E+03  0.1440E+03
    -30.403  0.0000E+00  0.0000E+00  0.1440E+03  0.1440E+03
    -30.163  0.0000E+00  0.0000E+00  0.1440E+03  0.1440E+03
    -29.923  0.0000E+00  0.0000E+00  0.1440E+03  0.1440E+03
    -29.683  0.0000E+00  0.0000E+00  0.1440E+03  0.1440E+03
    -29.443  0.0000E+00  0.0000E+00  0.1440E+03  0.1440E+03
    -29.202  0.0000E+00  0.0000E+00  0.1440E+03  0.1440E+03
    -28.962  0.0000E+00  0.0000E+00  0.1440E+03  0.1440E+03
    -28.722  0.0000E+00  0.0000E+00  0.1440E+03  0.1440E+03
    -28.482  0.0000E+00  0.0000E+00  0.1440E+03  0.1440E+03
    -28.242  0.0000E+00  0.0000E+00  0.1440E+03  0.1440E+03
    -28.002  0.0000E+00  0.0000E+00  0.1440E+03  0.1440E+03
    -27.762  0.0000E+00  0.0000E+00  0.1440E+03  0.1440E+03
    -27.521  0.0000E+00  0.0000E+00  0.1440E+03  0.1440E+03
    -27.281  0.0000E+00  0.0000E+00  0.1440E+03  0.1440E+03
    -27.041  0.0000E+00  0.0000E+00  0.1440E+03  0.1440E+03
    -26.801  0.0000E+00  0.0000E+00  0.1440E+03  0.1440E+03
    -26.561  0.0000E+00  0.0000E+00  0.1440E+03  0.1440E+03
    -26.321  0.0000E+00  0.0000E+00  0.1440E+03  0.1440E+03
    -26.081  0.0000E+00  0.0000E+00  0.1440E+03  0.1440E+03
    -25.840  0.0000E+00  0.0000E+00  0.1440E+03  0.1440E+03
    -25.600  0.0000E+00  0.0000E+00  0.1440E+03  0.1440E+03
    -25.360  0.0000E+00  0.0000E+00  0.1440E+03  0.1440E+03
    -25.120  0.0000E+00  0.0000E+00  0.1440E+03  0.1440E+03
    -24.880  0.0000E+00  0.0000E+00  0.1440E+03  0.1440E+03
    -24.640  0.0000E+00  0.0000E+00  0.1440E+03  0.1440E+03
    -24.400  0.0000E+00  0.0000E+00  0.1440E+03  0.1440E+03
    -24.160  0.0000E+00  0.0000E+00  0.1440E+03  0.1440E+03
    -23.919  0.0000E+00  0.0000E+00  0.1440E+03  0.1440E+03
    -23.679  0.0000E+00  0.0000E+00  0.1440E+03  0.1440E+03
    -23.439  0.0000E+00  0.0000E+00  0.1440E+03  0.1440E+03
    -23.199  0.0000E+00  0.0000E+00  0.1440E+03  0.1440E+03
    -22.959  0.0000E+00  0.0000E+00  0.1440E+03  0.1440E+03
    -22.719  0.0000E+00  0.0000E+00  0.1440E+03  0.1440E+03
    -22.479  0.0000E+00  0.0000E+00  0.1440E+03  0.1440E+03
    -22.238  0.0000E+00  0.0000E+00  0.1440E+03  0.1440E+03
    -21.998  0.0000E+00  0.0000E+00  0.1440E+03  0.1440E+03
    -21.758  0.0000E+00  0.0000E+00  0.1440E+03  0.1440E+03
    -21.518  0.0000E+00  0.0000E+00  0.1440E+03  0.1440E+03
    -21.278  0.0000E+00  0.0000E+00  0.1440E+03  0.1440E+03
    -21.038  0.0000E+00  0.0000E+00  0.1440E+03  0.1440E+03
    -20.798  0.0000E+00  0.0000E+00  0.1440E+03  0.1440E+03
    -20.557  0.0000E+00  0.0000E+00  0.1440E+03  0.1440E+03
    -20.317  0.0000E+00  0.0000E+00  0.1440E+03  0.1440E+03
    -20.077  0.0000E+00  0.0000E+00  0.1440E+03  0.1440E+03
    -19.837  0.0000E+00  0.0000E+00  0.1440E+03  0.1440E+03
    -19.597  0.0000E+00  0.0000E+00  0.1440E+03  0.1440E+03
    -19.357  0.0000E+00  0.0000E+00  0.1440E+03  0.1440E+03
    -19.117  0.0000E+00  0.0000E+00  0.1440E+03  0.1440E+03
    -18.876  0.0000E+00  0.0000E+00  0.1440E+03  0.1440E+03
    -18.636  0.0000E+00  0.0000E+00  0.1440E+03  0.1440E+03
    -18.396  0.0000E+00  0.0000E+00  0.1440E+03  0.1440E+03
    -18.156  0.0000E+00  0.0000E+00  0.1440E+03  0.1440E+03
    -17.916  0.0000E+00  0.0000E+00  0.1440E+03  0.1440E+03
    -17.676  0.0000E+00  0.0000E+00  0.1440E+03  0.1440E+03
    -17.436  0.0000E+00  0.0000E+00  0.1440E+03  0.1440E+03
    -17.196  0.0000E+00  0.0000E+00  0.1440E+03  0.1440E+03
    -16.955  0.0000E+00  0.0000E+00  0.1440E+03  0.1440E+03
    -16.715  0.0000E+00  0.0000E+00  0.1440E+03  0.1440E+03
    -16.475  0.0000E+00  0.0000E+00  0.1440E+03  0.1440E+03
    -16.235  0.0000E+00  0.0000E+00  0.1440E+03  0.1440E+03
    -15.995  0.0000E+00  0.0000E+00  0.1440E+03  0.1440E+03
    -15.755  0.0000E+00  0.0000E+00  0.1440E+03  0.1440E+03
    -15.515  0.0000E+00  0.0000E+00  0.1440E+03  0.1440E+03
    -15.274  0.0000E+00  0.0000E+00  0.1440E+03  0.1440E+03
    -15.034  0.0000E+00  0.0000E+00  0.1440E+03  0.1440E+03
    -14.794  0.0000E+00  0.0000E+00  0.1440E+03  0.1440E+03
    -14.554  0.0000E+00  0.0000E+00  0.1440E+03  0.1440E+03
    -14.314  0.0000E+00  0.0000E+00  0.1440E+03  0.1440E+03
    -14.074  0.0000E+00  0.0000E+00  0.1440E+03  0.1440E+03
    -13.834  0.0000E+00  0.0000E+00  0.1440E+03  0.1440E+03
    -13.593  0.0000E+00  0.0000E+00  0.1440E+03  0.1440E+03
    -13.353  0.0000E+00  0.0000E+00  0.1440E+03  0.1440E+03
    -13.113  0.0000E+00  0.0000E+00  0.1440E+03  0.1440E+03
    -12.873  0.3281E-01  0.0000E+00  0.1440E+03  0.1440E+03
    -12.633  0.7322E+02  0.6409E-03  0.1616E+03  0.1440E+03
    -12.393  0.1703E+01  0.6482E+02  0.1620E+03  0.1596E+03
    -12.153  0.0000E+00  0.1013E+02  0.1620E+03  0.1620E+03
    -11.912  0.0000E+00  0.0000E+00  0.1620E+03  0.1620E+03
    -11.672  0.0000E+00  0.0000E+00  0.1620E+03  0.1620E+03
    -11.432  0.0000E+00  0.0000E+00  0.1620E+03  0.1620E+03
    -11.192  0.0000E+00  0.0000E+00  0.1620E+03  0.1620E+03
    -10.952  0.0000E+00  0.0000E+00  0.1620E+03  0.1620E+03
    -10.712  0.0000E+00  0.0000E+00  0.1620E+03  0.1620E+03
    -10.472  0.0000E+00  0.0000E+00  0.1620E+03  0.1620E+03
    -10.232  0.0000E+00  0.0000E+00  0.1620E+03  0.1620E+03
     -9.991  0.0000E+00  0.0000E+00  0.1620E+03  0.1620E+03
     -9.751  0.0000E+00  0.0000E+00  0.1620E+03  0.1620E+03
     -9.511  0.0000E+00  0.0000E+00  0.1620E+03  0.1620E+03
     -9.271  0.0000E+00  0.0000E+00  0.1620E+03  0.1620E+03
     -9.031  0.0000E+00  0.0000E+00  0.1620E+03  0.1620E+03
     -8.791  0.0000E+00  0.0000E+00  0.1620E+03  0.1620E+03
     -8.551  0.0000E+00  0.0000E+00  0.1620E+03  0.1620E+03
     -8.310  0.0000E+00  0.0000E+00  0.1620E+03  0.1620E+03
     -8.070  0.0000E+00  0.0000E+00  0.1620E+03  0.1620E+03
     -7.830  0.8476E-02  0.1926E-14  0.1620E+03  0.1620E+03
     -7.590  0.7945E+01  0.9248E-01  0.1639E+03  0.1620E+03
     -7.350  0.1444E+02  0.9778E+01  0.1674E+03  0.1644E+03
     -7.110  0.2468E+02  0.1725E+02  0.1733E+03  0.1685E+03
     -6.870  0.7414E+02  0.2412E+02  0.1911E+03  0.1743E+03
     -6.629  0.2869E+02  0.7030E+02  0.1980E+03  0.1912E+03
     -6.389  0.1228E-03  0.2836E+02  0.1980E+03  0.1980E+03
     -6.149  0.0000E+00  0.1061E-01  0.1980E+03  0.1980E+03
     -5.909  0.0000E+00  0.0000E+00  0.1980E+03  0.1980E+03
     -5.669  0.0000E+00  0.0000E+00  0.1980E+03  0.1980E+03
     -5.429  0.0000E+00  0.0000E+00  0.1980E+03  0.1980E+03
     -5.189  0.0000E+00  0.0000E+00  0.1980E+03  0.1980E+03
     -4.948  0.0000E+00  0.0000E+00  0.1980E+03  0.1980E+03
     -4.708  0.0000E+00  0.0000E+00  0.1980E+03  0.1980E+03
     -4.468  0.0000E+00  0.0000E+00  0.1980E+03  0.1980E+03
     -4.228  0.0000E+00  0.0000E+00  0.1980E+03  0.1980E+03
     -3.988  0.0000E+00  0.0000E+00  0.1980E+03  0.1980E+03
     -3.748  0.0000E+00  0.0000E+00  0.1980E+03  0.1980E+03
     -3.508  0.0000E+00  0.0000E+00  0.1980E+03  0.1980E+03
     -3.268  0.0000E+00  0.0000E+00  0.1980E+03  0.1980E+03
     -3.027  0.0000E+00  0.0000E+00  0.1980E+03  0.1980E+03
     -2.787  0.0000E+00  0.0000E+00  0.1980E+03  0.1980E+03
     -2.547  0.0000E+00  0.0000E+00  0.1980E+03  0.1980E+03
     -2.307  0.0000E+00  0.0000E+00  0.1980E+03  0.1980E+03
     -2.067  0.0000E+00  0.0000E+00  0.1980E+03  0.1980E+03
     -1.827  0.5137E-15  0.0000E+00  0.1980E+03  0.1980E+03
     -1.587  0.1532E+00  0.0000E+00  0.1980E+03  0.1980E+03
     -1.346  0.4672E+02  0.0000E+00  0.2093E+03  0.1980E+03
     -1.106  0.2808E+02  0.0000E+00  0.2160E+03  0.1980E+03
     -0.866  0.3164E+01  0.0000E+00  0.2168E+03  0.1980E+03
     -0.626  0.4051E+02  0.6498E-10  0.2265E+03  0.1980E+03
     -0.386  0.1099E+03  0.1347E+01  0.2529E+03  0.1983E+03
     -0.146  0.1155E+03  0.1265E+02  0.2806E+03  0.2014E+03
      0.094  0.1049E+03  0.2006E+02  0.3058E+03  0.2062E+03
      0.335  0.8737E+02  0.2750E+02  0.3268E+03  0.2128E+03
      0.575  0.7685E+02  0.3089E+02  0.3453E+03  0.2202E+03
      0.815  0.3479E+02  0.3749E+02  0.3536E+03  0.2292E+03
      1.055  0.3028E+02  0.3601E+02  0.3609E+03  0.2378E+03
      1.295  0.4997E+02  0.4692E+02  0.3729E+03  0.2491E+03
      1.535  0.3211E+02  0.3091E+02  0.3806E+03  0.2565E+03
      1.775  0.5673E+02  0.6173E+02  0.3942E+03  0.2714E+03
      2.016  0.1239E+03  0.4698E+02  0.4240E+03  0.2826E+03
      2.256  0.7820E+02  0.1849E+02  0.4428E+03  0.2871E+03
      2.496  0.5323E+02  0.3037E+02  0.4555E+03  0.2944E+03
      2.736  0.3977E+02  0.5975E+02  0.4651E+03  0.3087E+03
      2.976  0.2525E+02  0.4965E+02  0.4711E+03  0.3207E+03
      3.216  0.1592E+02  0.5655E+02  0.4750E+03  0.3342E+03
      3.456  0.2758E+02  0.7522E+02  0.4816E+03  0.3523E+03
      3.696  0.4036E+02  0.2632E+02  0.4913E+03  0.3586E+03
      3.937  0.4255E+02  0.1956E+02  0.5015E+03  0.3633E+03
      4.177  0.4502E+02  0.9384E+02  0.5123E+03  0.3858E+03
      4.417  0.4517E+02  0.4062E+02  0.5232E+03  0.3956E+03
      4.657  0.2498E+02  0.1665E+01  0.5292E+03  0.3960E+03
      4.897  0.2765E+02  0.0000E+00  0.5358E+03  0.3960E+03
      5.137  0.1746E+02  0.0000E+00  0.5400E+03  0.3960E+03
      5.377  0.3628E-01  0.0000E+00  0.5400E+03  0.3960E+03
      5.618  0.0000E+00  0.0000E+00  0.5400E+03  0.3960E+03
      5.858  0.0000E+00  0.0000E+00  0.5400E+03  0.3960E+03
      6.098  0.0000E+00  0.4151E-13  0.5400E+03  0.3960E+03
      6.338  0.0000E+00  0.1785E+00  0.5400E+03  0.3960E+03
      6.578  0.0000E+00  0.4456E+01  0.5400E+03  0.3971E+03
      6.818  0.0000E+00  0.1383E+02  0.5400E+03  0.4004E+03
      7.058  0.0000E+00  0.2997E+02  0.5400E+03  0.4076E+03
      7.299  0.6676E-05  0.5684E+02  0.5400E+03  0.4213E+03
      7.539  0.5337E+00  0.7991E+02  0.5401E+03  0.4405E+03
      7.779  0.2314E+01  0.6728E+02  0.5407E+03  0.4566E+03
      8.019  0.1674E+01  0.8342E+02  0.5411E+03  0.4767E+03
      8.259  0.7098E+01  0.9898E+02  0.5428E+03  0.5004E+03
      8.499  0.7687E+01  0.3866E+02  0.5446E+03  0.5097E+03
      8.739  0.4751E+01  0.4437E+02  0.5458E+03  0.5204E+03
      8.980  0.1133E+02  0.4029E+02  0.5485E+03  0.5300E+03
      9.220  0.2025E+02  0.3934E+02  0.5534E+03  0.5395E+03
      9.460  0.2081E+02  0.1498E+02  0.5584E+03  0.5431E+03
      9.700  0.3074E+02  0.1563E+02  0.5657E+03  0.5468E+03
      9.940  0.2756E+02  0.1312E+02  0.5724E+03  0.5500E+03
     10.180  0.1732E+02  0.2572E+02  0.5765E+03  0.5562E+03
     10.420  0.1459E+02  0.2219E+02  0.5800E+03  0.5615E+03
     10.660  0.1894E+02  0.2768E+02  0.5846E+03  0.5681E+03
     10.901  0.2372E+02  0.2489E+02  0.5903E+03  0.5741E+03
     11.141  0.2884E+02  0.2497E+02  0.5972E+03  0.5801E+03
     11.381  0.2912E+02  0.2040E+02  0.6042E+03  0.5850E+03
     11.621  0.3031E+02  0.2434E+02  0.6115E+03  0.5909E+03
     11.861  0.3007E+02  0.2682E+02  0.6187E+03  0.5973E+03
     12.101  0.4169E+02  0.2659E+02  0.6287E+03  0.6037E+03
     12.341  0.5019E+02  0.3627E+02  0.6407E+03  0.6124E+03
     12.582  0.2536E+02  0.3816E+02  0.6468E+03  0.6216E+03
     12.822  0.2739E+02  0.4654E+02  0.6534E+03  0.6327E+03
     13.062  0.3292E+02  0.3543E+02  0.6613E+03  0.6412E+03
     13.302  0.3670E+02  0.3006E+02  0.6701E+03  0.6485E+03
     13.542  0.2431E+02  0.4822E+02  0.6760E+03  0.6600E+03
     13.782  0.1249E+02  0.3842E+02  0.6790E+03  0.6693E+03
     14.022  0.4308E+01  0.2092E+02  0.6800E+03  0.6743E+03
     14.263  0.3450E-02  0.1809E+02  0.6800E+03  0.6786E+03
     14.503  0.0000E+00  0.5710E+01  0.6800E+03  0.6800E+03
     14.743  0.0000E+00  0.7326E-05  0.6800E+03  0.6800E+03
     14.983  0.0000E+00  0.0000E+00  0.6800E+03  0.6800E+03
     15.223  0.0000E+00  0.0000E+00  0.6800E+03  0.6800E+03
     15.463  0.0000E+00  0.0000E+00  0.6800E+03  0.6800E+03
     15.703  0.0000E+00  0.0000E+00  0.6800E+03  0.6800E+03
     15.944  0.0000E+00  0.0000E+00  0.6800E+03  0.6800E+03
     16.184  0.0000E+00  0.0000E+00  0.6800E+03  0.6800E+03
     16.424  0.0000E+00  0.0000E+00  0.6800E+03  0.6800E+03
     16.664  0.0000E+00  0.0000E+00  0.6800E+03  0.6800E+03
     16.904  0.0000E+00  0.0000E+00  0.6800E+03  0.6800E+03
     17.144  0.0000E+00  0.0000E+00  0.6800E+03  0.6800E+03
     17.384  0.0000E+00  0.0000E+00  0.6800E+03  0.6800E+03
     17.624  0.0000E+00  0.0000E+00  0.6800E+03  0.6800E+03
