 vasp.5.4.4.18Apr17-6-g9f103f2a35 (build Oct 25 2017 14:42:18) complex          
  
 executed on             LinuxIFC date 2021.04.17  03:52:57
 running on   48 total cores
 distrk:  each k-point on   24 cores,    2 groups
 distr:  one band on NCORES_PER_BAND=   6 cores,    4 groups


--------------------------------------------------------------------------------------------------------


 INCAR:
 POTCAR:    PAW_PBE Li_sv 10Sep2004               
 POTCAR:    PAW_PBE O 08Apr2002                   
 POTCAR:    PAW_PBE S 06Sep2000                   
 POTCAR:    PAW_PBE Fe_pv 02Aug2007               

 ----------------------------------------------------------------------------- 
|                                                                             |
|           W    W    AA    RRRRR   N    N  II  N    N   GGGG   !!!           |
|           W    W   A  A   R    R  NN   N  II  NN   N  G    G  !!!           |
|           W    W  A    A  R    R  N N  N  II  N N  N  G       !!!           |
|           W WW W  AAAAAA  RRRRR   N  N N  II  N  N N  G  GGG   !            |
|           WW  WW  A    A  R   R   N   NN  II  N   NN  G    G                |
|           W    W  A    A  R    R  N    N  II  N    N   GGGG   !!!           |
|                                                                             |
|      You have enabled k-point parallelism (KPAR>1).                         |
|      This developmental code was originally  written by Paul Kent at ORNL,  |
|      and carefully double checked in Vienna.                                |
|      GW as well as linear response parallelism added by Martijn Marsman     |
|      and Georg Kresse.                                                      |
|      Carefully verify results versus KPAR=1.                                |
|      Report problems to Paul Kent and Vienna.                               |
|                                                                             |
 ----------------------------------------------------------------------------- 

 POTCAR:    PAW_PBE Li_sv 10Sep2004               
  local pseudopotential read in
  atomic valenz-charges read in
  non local Contribution for L=           0  read in
    real space projection operators read in
  non local Contribution for L=           0  read in
    real space projection operators read in
  non local Contribution for L=           1  read in
    real space projection operators read in
    PAW grid and wavefunctions read in
 
   number of l-projection  operators is LMAX  =           3
   number of lm-projection operators is LMMAX =           5
 
 POTCAR:    PAW_PBE O 08Apr2002                   
  local pseudopotential read in
  partial core-charges read in
  partial kinetic energy density read in
  kinetic energy density of atom read in
  atomic valenz-charges read in
  non local Contribution for L=           0  read in
    real space projection operators read in
  non local Contribution for L=           0  read in
    real space projection operators read in
  non local Contribution for L=           1  read in
    real space projection operators read in
  non local Contribution for L=           1  read in
    real space projection operators read in
    PAW grid and wavefunctions read in
 
   number of l-projection  operators is LMAX  =           4
   number of lm-projection operators is LMMAX =           8
 
 POTCAR:    PAW_PBE S 06Sep2000                   
  local pseudopotential read in
  partial core-charges read in
  partial kinetic energy density read in
  atomic valenz-charges read in
  non local Contribution for L=           0  read in
    real space projection operators read in
  non local Contribution for L=           0  read in
    real space projection operators read in
  non local Contribution for L=           1  read in
    real space projection operators read in
  non local Contribution for L=           1  read in
    real space projection operators read in
    PAW grid and wavefunctions read in
 
   number of l-projection  operators is LMAX  =           4
   number of lm-projection operators is LMMAX =           8
 
 POTCAR:    PAW_PBE Fe_pv 02Aug2007               
  local pseudopotential read in
  partial core-charges read in
  partial kinetic energy density read in
  atomic valenz-charges read in
  non local Contribution for L=           1  read in
    real space projection operators read in
  non local Contribution for L=           1  read in
    real space projection operators read in
  non local Contribution for L=           2  read in
    real space projection operators read in
  non local Contribution for L=           2  read in
    real space projection operators read in
  non local Contribution for L=           0  read in
    real space projection operators read in
  non local Contribution for L=           0  read in
    real space projection operators read in
    PAW grid and wavefunctions read in
 
   number of l-projection  operators is LMAX  =           6
   number of lm-projection operators is LMMAX =          18
 

 ----------------------------------------------------------------------------- 
|                                                                             |
|  ADVICE TO THIS USER RUNNING 'VASP/VAMP'   (HEAR YOUR MASTER'S VOICE ...):  |
|                                                                             |
|      You have a (more or less) 'large supercell' and for larger cells       |
|      it might be more efficient to use real space projection opertators     |
|      So try LREAL= Auto  in the INCAR   file.                               |
|      Mind:          For very  accurate calculation you might also keep the  |
|      reciprocal projection scheme          (i.e. LREAL=.FALSE.)             |
|                                                                             |
 ----------------------------------------------------------------------------- 

  PAW_PBE Li_sv 10Sep2004               :
 energy of atom  1       EATOM= -202.7858
 kinetic energy error for atom=    0.0072 (will be added to EATOM!!)
  PAW_PBE O 08Apr2002                   :
 energy of atom  2       EATOM= -432.3788
 kinetic energy error for atom=    0.0129 (will be added to EATOM!!)
  PAW_PBE S 06Sep2000                   :
 energy of atom  3       EATOM= -276.8230
 kinetic energy error for atom=    0.0008 (will be added to EATOM!!)
  PAW_PBE Fe_pv 02Aug2007               :
 energy of atom  4       EATOM=-2457.4239
 kinetic energy error for atom=    0.0041 (will be added to EATOM!!)
 
 
 POSCAR: # Compound: Li36O18S36Fe36. Old comment:
  positions in direct lattice
  No initial velocities read in
 exchange correlation table for  LEXCH =        8
   RHO(1)=    0.500       N(1)  =     2000
   RHO(2)=  100.500       N(2)  =     4000
 


--------------------------------------------------------------------------------------------------------


 ion  position               nearest neighbor table
   1  0.149  0.017  0.000-  37 1.93  39 1.93
   2  0.483  0.017  0.000-  38 1.93  37 1.93
   3  0.816  0.017  0.000-  39 1.93  38 1.93
   4  0.149  0.351  0.000-  40 1.93  42 1.93
   5  0.483  0.351  0.000-  41 1.93  40 1.93
   6  0.816  0.351  0.000-  42 1.93  41 1.93
   7  0.149  0.684  0.000-  43 1.93  45 1.93
   8  0.483  0.684  0.000-  44 1.93  43 1.93
   9  0.816  0.684  0.000-  45 1.93  44 1.93
  10  0.149  0.017  0.500-  46 1.93  48 1.93
  11  0.483  0.017  0.500-  47 1.93  46 1.93
  12  0.816  0.017  0.500-  48 1.93  47 1.93
  13  0.149  0.351  0.500-  49 1.93  51 1.93
  14  0.483  0.351  0.500-  50 1.93  49 1.93
  15  0.816  0.351  0.500-  51 1.93  50 1.93
  16  0.149  0.684  0.500-  52 1.93  54 1.93
  17  0.483  0.684  0.500-  53 1.93  52 1.93
  18  0.816  0.684  0.500-  54 1.93  53 1.93
  19  0.316  0.184  0.500-  46 1.93  49 1.93
  20  0.649  0.184  0.500-  47 1.93  50 1.93
  21  0.983  0.184  0.500-  48 1.93  51 1.93
  22  0.316  0.517  0.500-  49 1.93  52 1.93
  23  0.649  0.517  0.500-  50 1.93  53 1.93
  24  0.983  0.517  0.500-  51 1.93  54 1.93
  25  0.316  0.851  0.500-  52 1.93  46 1.93
  26  0.649  0.851  0.500-  53 1.93  47 1.93
  27  0.983  0.851  0.500-  54 1.93  48 1.93
  28  0.316  0.184  1.000-  37 1.93  40 1.93
  29  0.649  0.184  1.000-  38 1.93  41 1.93
  30  0.983  0.184  1.000-  39 1.93  42 1.93
  31  0.316  0.517  1.000-  40 1.93  43 1.93
  32  0.649  0.517  1.000-  41 1.93  44 1.93
  33  0.983  0.517  1.000-  42 1.93  45 1.93
  34  0.316  0.851  1.000-  43 1.93  37 1.93
  35  0.649  0.851  1.000-  44 1.93  38 1.93
  36  0.983  0.851  1.000-  45 1.93  39 1.93
  37  0.316  0.017  0.000-  28 1.93   1 1.93   2 1.93  34 1.93  92 2.04 124 2.04
  38  0.649  0.017  0.000-  29 1.93   2 1.93   3 1.93  35 1.93  93 2.04 125 2.04
  39  0.983  0.017  0.000-  30 1.93   3 1.93   1 1.93  36 1.93  91 2.04 126 2.04
  40  0.316  0.351  0.000-  31 1.93   4 1.93   5 1.93  28 1.93  95 2.04 118 2.04
  41  0.649  0.351  0.000-  32 1.93   5 1.93   6 1.93  29 1.93  96 2.04 119 2.04
  42  0.983  0.351  0.000-  33 1.93   6 1.93   4 1.93  30 1.93  94 2.04 120 2.04
  43  0.316  0.684  0.000-  34 1.93   7 1.93   8 1.93  31 1.93  98 2.04 121 2.04
  44  0.649  0.684  0.000-  35 1.93   8 1.93   9 1.93  32 1.93  99 2.04 122 2.04
  45  0.983  0.684  0.000-  36 1.93   9 1.93   7 1.93  33 1.93  97 2.04 123 2.04
  46  0.316  0.017  0.500-  19 1.93  10 1.93  11 1.93  25 1.93 101 2.04 115 2.04
  47  0.649  0.017  0.500-  20 1.93  11 1.93  12 1.93  26 1.93 102 2.04 116 2.04
  48  0.983  0.017  0.500-  21 1.93  12 1.93  10 1.93  27 1.93 100 2.04 117 2.04
  49  0.316  0.351  0.500-  22 1.93  13 1.93  14 1.93  19 1.93 104 2.04 109 2.04
  50  0.649  0.351  0.500-  23 1.93  14 1.93  15 1.93  20 1.93 105 2.04 110 2.04
  51  0.983  0.351  0.500-  24 1.93  15 1.93  13 1.93  21 1.93 103 2.04 111 2.04
  52  0.316  0.684  0.500-  25 1.93  16 1.93  17 1.93  22 1.93 107 2.04 112 2.04
  53  0.649  0.684  0.500-  26 1.93  17 1.93  18 1.93  23 1.93 108 2.04 113 2.04
  54  0.983  0.684  0.500-  27 1.93  18 1.93  16 1.93  24 1.93 106 2.04 114 2.04
  55  0.199  0.234  0.151- 109 2.42  91 2.73  94 2.73  92 2.73  95 2.74
  56  0.533  0.234  0.150- 110 2.43  92 2.73  95 2.73  93 2.73  96 2.73
  57  0.866  0.234  0.150- 111 2.43  93 2.73  96 2.73  91 2.73  94 2.73
  58  0.199  0.567  0.150- 112 2.43  94 2.73  97 2.73  95 2.73  98 2.73
  59  0.533  0.567  0.150- 113 2.43  95 2.73  98 2.73  96 2.73  99 2.73
  60  0.866  0.567  0.150- 114 2.43  96 2.73  99 2.73  94 2.73  97 2.73
  61  0.199  0.901  0.150- 115 2.43  97 2.73  91 2.73  98 2.73  92 2.73
  62  0.533  0.901  0.150- 116 2.43  98 2.73  92 2.73  99 2.73  93 2.73
  63  0.866  0.901  0.150- 117 2.43  99 2.73  93 2.73  97 2.73  91 2.73
  64  0.199  0.234  0.650- 118 2.43 100 2.73 103 2.73 101 2.73 104 2.73
  65  0.533  0.234  0.650- 119 2.43 101 2.73 104 2.73 102 2.73 105 2.73
  66  0.866  0.234  0.650- 120 2.43 102 2.73 105 2.73 100 2.73 103 2.73
  67  0.199  0.567  0.650- 121 2.43 103 2.73 106 2.73 104 2.73 107 2.73
  68  0.533  0.567  0.650- 122 2.43 104 2.73 107 2.73 105 2.73 108 2.73
  69  0.866  0.567  0.650- 123 2.43 105 2.73 108 2.73 103 2.73 106 2.73
  70  0.199  0.901  0.650- 124 2.43 106 2.73 100 2.73 107 2.73 101 2.73
  71  0.533  0.901  0.650- 125 2.43 107 2.73 101 2.73 108 2.73 102 2.73
  72  0.866  0.901  0.650- 126 2.43 108 2.73 102 2.73 106 2.73 100 2.73
  73  0.099  0.134  0.350-  91 2.43 109 2.73 111 2.73 115 2.73 117 2.73
  74  0.433  0.134  0.350-  92 2.43 110 2.73 109 2.73 116 2.73 115 2.73
  75  0.766  0.134  0.350-  93 2.43 111 2.73 110 2.73 117 2.73 116 2.73
  76  0.099  0.467  0.350-  94 2.43 112 2.73 114 2.73 109 2.73 111 2.73
  77  0.433  0.467  0.350-  95 2.43 113 2.73 112 2.73 110 2.73 109 2.73
  78  0.766  0.467  0.350-  96 2.43 114 2.73 113 2.73 111 2.73 110 2.73
  79  0.099  0.801  0.350-  97 2.43 115 2.73 117 2.73 112 2.73 114 2.73
  80  0.433  0.801  0.350-  98 2.43 116 2.73 115 2.73 113 2.73 112 2.73
  81  0.766  0.801  0.350-  99 2.43 117 2.73 116 2.73 114 2.73 113 2.73
  82  0.099  0.134  0.850- 100 2.43 118 2.73 120 2.73 124 2.73 126 2.73
  83  0.433  0.134  0.850- 101 2.43 119 2.73 118 2.73 125 2.73 124 2.73
  84  0.766  0.134  0.850- 102 2.43 120 2.73 119 2.73 126 2.73 125 2.73
  85  0.099  0.467  0.850- 103 2.43 121 2.73 123 2.73 118 2.73 120 2.73
  86  0.433  0.467  0.850- 104 2.43 122 2.73 121 2.73 119 2.73 118 2.73
  87  0.766  0.467  0.850- 105 2.43 123 2.73 122 2.73 120 2.73 119 2.73
  88  0.099  0.801  0.850- 106 2.43 124 2.73 126 2.73 121 2.73 123 2.73
  89  0.433  0.801  0.850- 107 2.43 125 2.73 124 2.73 122 2.73 121 2.73
  90  0.766  0.801  0.850- 108 2.43 126 2.73 125 2.73 123 2.73 122 2.73
  91  0.036  0.071  0.160-  39 2.04  73 2.43  55 2.73  61 2.73  57 2.73  63 2.73
  92  0.369  0.071  0.160-  37 2.04  74 2.43  55 2.73  56 2.73  62 2.73  61 2.73
  93  0.703  0.071  0.160-  38 2.04  75 2.43  57 2.73  63 2.73  56 2.73  62 2.73
  94  0.036  0.404  0.160-  42 2.04  76 2.43  55 2.73  58 2.73  60 2.73  57 2.73
  95  0.369  0.404  0.160-  40 2.04  77 2.43  59 2.73  56 2.73  58 2.73  55 2.74
  96  0.703  0.404  0.160-  41 2.04  78 2.43  60 2.73  57 2.73  59 2.73  56 2.73
  97  0.036  0.737  0.160-  45 2.04  79 2.43  61 2.73  58 2.73  63 2.73  60 2.73
  98  0.369  0.737  0.160-  43 2.04  80 2.43  62 2.73  59 2.73  61 2.73  58 2.73
  99  0.703  0.737  0.160-  44 2.04  81 2.43  63 2.73  60 2.73  62 2.73  59 2.73
 100  0.036  0.071  0.660-  48 2.04  82 2.43  64 2.73  70 2.73  66 2.73  72 2.73
 101  0.369  0.071  0.660-  46 2.04  83 2.43  65 2.73  71 2.73  64 2.73  70 2.73
 102  0.703  0.071  0.660-  47 2.04  84 2.43  66 2.73  72 2.73  65 2.73  71 2.73
 103  0.036  0.404  0.660-  51 2.04  85 2.43  67 2.73  64 2.73  69 2.73  66 2.73
 104  0.369  0.404  0.660-  49 2.04  86 2.43  68 2.73  65 2.73  67 2.73  64 2.73
 105  0.703  0.404  0.660-  50 2.04  87 2.43  69 2.73  66 2.73  68 2.73  65 2.73
 106  0.036  0.737  0.660-  54 2.04  88 2.43  70 2.73  67 2.73  72 2.73  69 2.73
 107  0.369  0.737  0.660-  52 2.04  89 2.43  71 2.73  68 2.73  70 2.73  67 2.73
 108  0.703  0.737  0.660-  53 2.04  90 2.43  72 2.73  69 2.73  71 2.73  68 2.73
 109  0.263  0.297  0.340-  49 2.04  55 2.42  73 2.73  74 2.73  76 2.73  77 2.73
 110  0.596  0.297  0.340-  50 2.04  56 2.43  74 2.73  75 2.73  77 2.73  78 2.73
 111  0.929  0.297  0.340-  51 2.04  57 2.43  75 2.73  73 2.73  78 2.73  76 2.73
 112  0.263  0.631  0.340-  52 2.04  58 2.43  76 2.73  77 2.73  79 2.73  80 2.73
 113  0.596  0.631  0.340-  53 2.04  59 2.43  77 2.73  78 2.73  80 2.73  81 2.73
 114  0.929  0.631  0.340-  54 2.04  60 2.43  78 2.73  76 2.73  81 2.73  79 2.73
 115  0.263  0.964  0.340-  46 2.04  61 2.43  79 2.73  80 2.73  73 2.73  74 2.73
 116  0.596  0.964  0.340-  47 2.04  62 2.43  80 2.73  81 2.73  74 2.73  75 2.73
 117  0.929  0.964  0.340-  48 2.04  63 2.43  81 2.73  79 2.73  75 2.73  73 2.73
 118  0.263  0.297  0.840-  40 2.04  64 2.43  82 2.73  83 2.73  85 2.73  86 2.73
 119  0.596  0.297  0.840-  41 2.04  65 2.43  83 2.73  84 2.73  86 2.73  87 2.73
 120  0.929  0.297  0.840-  42 2.04  66 2.43  84 2.73  82 2.73  87 2.73  85 2.73
 121  0.263  0.631  0.840-  43 2.04  67 2.43  85 2.73  86 2.73  88 2.73  89 2.73
 122  0.596  0.631  0.840-  44 2.04  68 2.43  86 2.73  87 2.73  89 2.73  90 2.73
 123  0.929  0.631  0.840-  45 2.04  69 2.43  87 2.73  85 2.73  90 2.73  88 2.73
 124  0.263  0.964  0.840-  37 2.04  70 2.43  88 2.73  89 2.73  82 2.73  83 2.73
 125  0.596  0.964  0.840-  38 2.04  71 2.43  89 2.73  90 2.73  83 2.73  84 2.73
 126  0.929  0.964  0.840-  39 2.04  72 2.43  90 2.73  88 2.73  84 2.73  82 2.73
 

IMPORTANT INFORMATION: All symmetrisations will be switched off!
NOSYMM: (Re-)initialisation of all symmetry stuff for point group C_1.

 
 
 KPOINTS: # No comment                            

Automatic generation of k-mesh.
Space group operators:
 irot       det(A)        alpha          n_x          n_y          n_z        tau_x        tau_y        tau_z
    1     1.000000     0.000000     1.000000     0.000000     0.000000     0.000000     0.000000     0.000000
 
 Subroutine IBZKPT returns following result:
 ===========================================
 
 Found     10 irreducible k-points:
 
 Following reciprocal coordinates:
            Coordinates               Weight
  0.000000  0.000000  0.000000      1.000000
  0.333333  0.000000 -0.000000      2.000000
 -0.000000  0.333333  0.000000      2.000000
  0.333333  0.333333 -0.000000      2.000000
 -0.333333  0.333333  0.000000      2.000000
  0.000000 -0.000000  0.500000      1.000000
  0.333333 -0.000000  0.500000      2.000000
  0.000000  0.333333  0.500000      2.000000
  0.333333  0.333333  0.500000      2.000000
 -0.333333  0.333333  0.500000      2.000000
 
 Following cartesian coordinates:
            Coordinates               Weight
  0.000000  0.000000  0.000000      1.000000
  0.028801  0.000012  0.008684      2.000000
  0.000002  0.028801  0.008684      2.000000
  0.028803  0.028813  0.017368      2.000000
 -0.028799  0.028789 -0.000000      2.000000
  0.000032  0.000032  0.039185      1.000000
  0.028833  0.000044  0.047869      2.000000
  0.000034  0.028833  0.047869      2.000000
  0.028835  0.028845  0.056553      2.000000
 -0.028767  0.028821  0.039185      2.000000
 


--------------------------------------------------------------------------------------------------------




 Dimension of arrays:
   k-points           NKPTS =     10   k-points in BZ     NKDIM =     10   number of bands    NBANDS=    680
   number of dos      NEDOS =    301   number of ions     NIONS =    126
   non local maximal  LDIM  =      6   non local SUM 2l+1 LMDIM =     18
   total plane-waves  NPLWV = ******
   max r-space proj   IRMAX =      1   max aug-charges    IRDMAX= 163177
   dimension x,y,z NGX =    96 NGY =   96 NGZ =  120
   dimension x,y,z NGXF=   192 NGYF=  192 NGZF=  240
   support grid    NGXF=   384 NGYF=  384 NGZF=  480
   ions per type =              36  18  36  36
   NGX,Y,Z   is equivalent  to a cutoff of  13.79, 13.79, 14.37 a.u.
   NGXF,Y,Z  is equivalent  to a cutoff of  27.57, 27.57, 28.75 a.u.

 SYSTEM =  unknown system                          
 POSCAR =  # Compound: Li36O18S36Fe36. Old comment:

 Startparameter for this run:
   NWRITE =      1    write-flag & timer
   PREC   = accura    normal or accurate (medium, high low for compatibility)
   ISTART =      0    job   : 0-new  1-cont  2-samecut
   ICHARG =      1    charge: 1-file 2-atom 10-const
   ISPIN  =      2    spin polarized calculation?
   LNONCOLLINEAR =      F non collinear calculations
   LSORBIT =      F    spin-orbit coupling
   INIWAV =      1    electr: 0-lowe 1-rand  2-diag
   LASPH  =      T    aspherical Exc in radial PAW
   METAGGA=      F    non-selfconsistent MetaGGA calc.

 Electronic Relaxation 1
   ENCUT  =  650.0 eV  47.77 Ry    6.91 a.u.  24.07 24.07 28.85*2*pi/ulx,y,z
   ENINI  =  650.0     initial cutoff
   ENAUG  =  628.9 eV  augmentation charge cutoff
   NELM   =    200;   NELMIN=  8; NELMDL=  0     # of ELM steps 
   EDIFF  = 0.1E-05   stopping-criterion for ELM
   LREAL  =      F    real-space projection
   NLSPLINE    = F    spline interpolate recip. space projectors
   LCOMPAT=      F    compatible to vasp.4.4
   GGA_COMPAT  = T    GGA compatible to vasp.4.4-vasp.4.6
   LMAXPAW     = -100 max onsite density
   LMAXMIX     =    4 max onsite mixed and CHGCAR
   VOSKOWN=      0    Vosko Wilk Nusair interpolation
   ROPT   =    0.00000   0.00000   0.00000   0.00000
 Ionic relaxation
   EDIFFG = 0.1E-04   stopping-criterion for IOM
   NSW    =      0    number of steps for IOM
   NBLOCK =      1;   KBLOCK =      1    inner block; outer block 
   IBRION =     -1    ionic relax: 0-MD 1-quasi-New 2-CG
   NFREE  =      0    steps in history (QN), initial steepest desc. (CG)
   ISIF   =      3    stress and relaxation
   IWAVPR =     10    prediction:  0-non 1-charg 2-wave 3-comb
   ISYM   =      0    0-nonsym 1-usesym 2-fastsym
   LCORR  =      T    Harris-Foulkes like correction to forces

   POTIM  = 0.5000    time-step for ionic-motion
   TEIN   =    0.0    initial temperature
   TEBEG  =    0.0;   TEEND  =   0.0 temperature during run
   SMASS  =  -3.00    Nose mass-parameter (am)
   estimated Nose-frequenzy (Omega)   =  0.10E-29 period in steps =****** mass=  -0.306E-26a.u.
   SCALEE = 1.0000    scale energy and forces
   NPACO  =    256;   APACO  = 16.0  distance and # of slots for P.C.
   PSTRESS=    0.0 pullay stress

  Mass of Ions in am
   POMASS =   7.01 16.00 32.07 55.85
  Ionic Valenz
   ZVAL   =   3.00  6.00  6.00 14.00
  Atomic Wigner-Seitz radii
   RWIGS  =  -1.00 -1.00 -1.00 -1.00
  virtual crystal weights 
   VCA    =   1.00  1.00  1.00  1.00
   NELECT =     936.0000    total number of electrons
   NUPDOWN=      -1.0000    fix difference up-down

 DOS related values:
   EMIN   =  10.00;   EMAX   =-10.00  energy-range for DOS
   EFERMI =   0.00
   ISMEAR =     0;   SIGMA  =   0.05  broadening in eV -4-tet -1-fermi 0-gaus

 Electronic relaxation 2 (details)
   IALGO  =     58    algorithm
   LDIAG  =      T    sub-space diagonalisation (order eigenvalues)
   LSUBROT=      F    optimize rotation matrix (better conditioning)
   TURBO    =      0    0=normal 1=particle mesh
   IRESTART =      0    0=no restart 2=restart with 2 vectors
   NREBOOT  =      0    no. of reboots
   NMIN     =      0    reboot dimension
   EREF     =   0.00    reference energy to select bands
   IMIX   =      4    mixing-type and parameters
     AMIX     =   0.40;   BMIX     =  1.00
     AMIX_MAG =   1.60;   BMIX_MAG =  1.00
     AMIN     =   0.10
     WC   =   100.;   INIMIX=   1;  MIXPRE=   1;  MAXMIX= -45

 Intra band minimization:
   WEIMIN = 0.0000     energy-eigenvalue tresh-hold
   EBREAK =  0.37E-09  absolut break condition
   DEPER  =   0.30     relativ break condition  

   TIME   =   0.40     timestep for ELM

  volume/ion in A,a.u.               =      13.57        91.59
  Fermi-wavevector in a.u.,A,eV,Ry     =   1.339150  2.530627 24.399639  1.793323
  Thomas-Fermi vector in A             =   2.467565
 
 Write flags
   LWAVE        =      F    write WAVECAR
   LDOWNSAMPLE  =      F    k-point downsampling of WAVECAR
   LCHARG       =      T    write CHGCAR
   LVTOT        =      F    write LOCPOT, total local potential
   LVHAR        =      F    write LOCPOT, Hartree potential only
   LELF         =      F    write electronic localiz. function (ELF)
   LORBIT       =      0    0 simple, 1 ext, 2 COOP (PROOUT), +10 PAW based schemes


 Dipole corrections
   LMONO  =      F    monopole corrections only (constant potential shift)
   LDIPOL =      F    correct potential (dipole corrections)
   IDIPOL =      0    1-x, 2-y, 3-z, 4-all directions 
   EPSILON=  1.0000000 bulk dielectric constant

 LDA+U is selected, type is set to LDAUTYPE =  2
   angular momentum for each species LDAUL =    -1   -1   -1    2
   U (eV)           for each species LDAUU =   0.0  0.0  0.0  4.0
   J (eV)           for each species LDAUJ =   0.0  0.0  0.0  0.0
 Exchange correlation treatment:
   GGA     =    PE    GGA type
   LEXCH   =     8    internal setting for exchange type
   VOSKOWN=      0    Vosko Wilk Nusair interpolation
   LHFCALC =     F    Hartree Fock is set to
   LHFONE  =     F    Hartree Fock one center treatment
   AEXX    =    0.0000 exact exchange contribution

 Linear response parameters
   LEPSILON=     F    determine dielectric tensor
   LRPA    =     F    only Hartree local field effects (RPA)
   LNABLA  =     F    use nabla operator in PAW spheres
   LVEL    =     F    velocity operator in full k-point grid
   LINTERFAST=   F  fast interpolation
   KINTER  =     0    interpolate to denser k-point grid
   CSHIFT  =0.1000    complex shift for real part using Kramers Kronig
   OMEGAMAX=  -1.0    maximum frequency
   DEG_THRESHOLD= 0.2000000E-02 threshold for treating states as degnerate
   RTIME   =   -0.100 relaxation time in fs
  (WPLASMAI=    0.000 imaginary part of plasma frequency in eV, 0.658/RTIME)
   DFIELD  = 0.0000000 0.0000000 0.0000000 field for delta impulse in time
 
 Orbital magnetization related:
   ORBITALMAG=     F  switch on orbital magnetization
   LCHIMAG   =     F  perturbation theory with respect to B field
   DQ        =  0.001000  dq finite difference perturbation B field
   LLRAUG    =     F  two centre corrections for induced B field



--------------------------------------------------------------------------------------------------------


 Static calculation
 charge density and potential will be updated during run
 spin polarized calculation
 Conjugate gradient for all bands (Freysoldt, et al. PRB 79, 241103 (2009))
 preconditioned conjugated gradient                                        
 perform sub-space diagonalisation
    before iterative eigenvector-optimisation
 modified Broyden-mixing scheme, WC =      100.0
 initial mixing is a Kerker type mixing with AMIX =  0.4000 and BMIX =      1.0000
 Hartree-type preconditioning will be used
 using additional bands          212
 reciprocal scheme for non local part
 use partial core corrections
 no Harris-corrections to forces 
 use gradient corrections 
 use of overlap-Matrix (Vanderbilt PP)
 Gauss-broadening in eV      SIGMA  =   0.05


--------------------------------------------------------------------------------------------------------


  energy-cutoff  :      650.00
  volume of cell :     1710.06
      direct lattice vectors                 reciprocal lattice vectors
    11.576583240  0.002066280 -0.009542910     0.086402742  0.000036295  0.026052044
    -0.001985520 11.576599830 -0.009542940     0.000006054  0.086402626  0.026052036
    -3.847679420 -3.849030720 12.766359180     0.000064591  0.000064614  0.078369816

  length of vectors
    11.576587358 11.576603934 13.878025836     0.090244912  0.090244792  0.078369870


 
 k-points in units of 2pi/SCALE and weight: # No comment                            
   0.00000000  0.00000000  0.00000000       0.056
   0.02880091  0.00001210  0.00868401       0.111
   0.00000202  0.02880088  0.00868401       0.111
   0.02880293  0.02881297  0.01736803       0.111
  -0.02879890  0.02878878 -0.00000000       0.111
   0.00003230  0.00003231  0.03918491       0.056
   0.02883321  0.00004441  0.04786892       0.111
   0.00003431  0.02883318  0.04786892       0.111
   0.02883523  0.02884528  0.05655294       0.111
  -0.02876660  0.02882108  0.03918491       0.111
 
 k-points in reciprocal lattice and weights: # No comment                            
   0.00000000  0.00000000  0.00000000       0.056
   0.33333333  0.00000000 -0.00000000       0.111
  -0.00000000  0.33333333  0.00000000       0.111
   0.33333333  0.33333333 -0.00000000       0.111
  -0.33333333  0.33333333  0.00000000       0.111
   0.00000000 -0.00000000  0.50000000       0.056
   0.33333333 -0.00000000  0.50000000       0.111
   0.00000000  0.33333333  0.50000000       0.111
   0.33333333  0.33333333  0.50000000       0.111
  -0.33333333  0.33333333  0.50000000       0.111
 
 position of ions in fractional coordinates (direct lattice) 
   0.14940024  0.01727802  0.00000711
   0.48273357  0.01727802  0.00000711
   0.81606690  0.01727802  0.00000711
   0.14940024  0.35061135  0.00000711
   0.48273357  0.35061135  0.00000711
   0.81606690  0.35061135  0.00000711
   0.14940024  0.68394468  0.00000711
   0.48273357  0.68394468  0.00000711
   0.81606690  0.68394468  0.00000711
   0.14940024  0.01727802  0.50000711
   0.48273357  0.01727802  0.50000711
   0.81606690  0.01727802  0.50000711
   0.14940024  0.35061135  0.50000711
   0.48273357  0.35061135  0.50000711
   0.81606690  0.35061135  0.50000711
   0.14940024  0.68394468  0.50000711
   0.48273357  0.68394468  0.50000711
   0.81606690  0.68394468  0.50000711
   0.31605532  0.18393310  0.49999289
   0.64938865  0.18393310  0.49999289
   0.98272198  0.18393310  0.49999289
   0.31605532  0.51726643  0.49999289
   0.64938865  0.51726643  0.49999289
   0.98272198  0.51726643  0.49999289
   0.31605532  0.85059976  0.49999289
   0.64938865  0.85059976  0.49999289
   0.98272198  0.85059976  0.49999289
   0.31605532  0.18393310  0.99999289
   0.64938865  0.18393310  0.99999289
   0.98272198  0.18393310  0.99999289
   0.31605532  0.51726643  0.99999289
   0.64938865  0.51726643  0.99999289
   0.98272198  0.51726643  0.99999289
   0.31605532  0.85059976  0.99999289
   0.64938865  0.85059976  0.99999289
   0.98272198  0.85059976  0.99999289
   0.31606288  0.01727079  0.00000000
   0.64939621  0.01727079  0.00000000
   0.98272954  0.01727079  0.00000000
   0.31606288  0.35060413  0.00000000
   0.64939621  0.35060413  0.00000000
   0.98272954  0.35060413  0.00000000
   0.31606288  0.68393746  0.00000000
   0.64939621  0.68393746  0.00000000
   0.98272954  0.68393746  0.00000000
   0.31606288  0.01727079  0.50000000
   0.64939621  0.01727079  0.50000000
   0.98272954  0.01727079  0.50000000
   0.31606288  0.35060413  0.50000000
   0.64939621  0.35060413  0.50000000
   0.98272954  0.35060413  0.50000000
   0.31606288  0.68393746  0.50000000
   0.64939621  0.68393746  0.50000000
   0.98272954  0.68393746  0.50000000
   0.19934057  0.23388678  0.15055828
   0.53267391  0.23388678  0.14983771
   0.86600724  0.23388678  0.14983771
   0.19934057  0.56722011  0.14983771
   0.53267391  0.56722011  0.14983771
   0.86600724  0.56722011  0.14983771
   0.19934057  0.90055344  0.14983771
   0.53267391  0.90055344  0.14983771
   0.86600724  0.90055344  0.14983771
   0.19934057  0.23388678  0.64983771
   0.53267391  0.23388678  0.64983771
   0.86600724  0.23388678  0.64983771
   0.19934057  0.56722011  0.64983771
   0.53267391  0.56722011  0.64983771
   0.86600724  0.56722011  0.64983771
   0.19934057  0.90055344  0.64983771
   0.53267391  0.90055344  0.64983771
   0.86600724  0.90055344  0.64983771
   0.09944656  0.13399276  0.35016229
   0.43277989  0.13399276  0.35016229
   0.76611322  0.13399276  0.35016229
   0.09944656  0.46732609  0.35016229
   0.43277989  0.46732609  0.35016229
   0.76611322  0.46732609  0.35016229
   0.09944656  0.80065943  0.35016229
   0.43277989  0.80065943  0.35016229
   0.76611322  0.80065943  0.35016229
   0.09944656  0.13399276  0.85016229
   0.43277989  0.13399276  0.85016229
   0.76611322  0.13399276  0.85016229
   0.09944656  0.46732609  0.85016229
   0.43277989  0.46732609  0.85016229
   0.76611322  0.46732609  0.85016229
   0.09944656  0.80065943  0.85016229
   0.43277989  0.80065943  0.85016229
   0.76611322  0.80065943  0.85016229
   0.03603208  0.07057630  0.15990037
   0.36936541  0.07057630  0.15990037
   0.70269875  0.07057630  0.15990037
   0.03603208  0.40390964  0.15990037
   0.36936541  0.40390964  0.15990037
   0.70269875  0.40390964  0.15990037
   0.03603208  0.73724297  0.15990037
   0.36936541  0.73724297  0.15990037
   0.70269875  0.73724297  0.15990037
   0.03603208  0.07057630  0.65990037
   0.36936541  0.07057630  0.65990037
   0.70269875  0.07057630  0.65990037
   0.03603208  0.40390964  0.65990037
   0.36936541  0.40390964  0.65990037
   0.70269875  0.40390964  0.65990037
   0.03603208  0.73724297  0.65990037
   0.36936541  0.73724297  0.65990037
   0.70269875  0.73724297  0.65990037
   0.26275703  0.29730125  0.34009963
   0.59609036  0.29730125  0.34009963
   0.92942370  0.29730125  0.34009963
   0.26275703  0.63063459  0.34009963
   0.59609036  0.63063459  0.34009963
   0.92942370  0.63063459  0.34009963
   0.26275703  0.96396792  0.34009963
   0.59609036  0.96396792  0.34009963
   0.92942370  0.96396792  0.34009963
   0.26275703  0.29730125  0.84009963
   0.59609036  0.29730125  0.84009963
   0.92942370  0.29730125  0.84009963
   0.26275703  0.63063459  0.84009963
   0.59609036  0.63063459  0.84009963
   0.92942370  0.63063459  0.84009963
   0.26275703  0.96396792  0.84009963
   0.59609036  0.96396792  0.84009963
   0.92942370  0.96396792  0.84009963
 
 position of ions in cartesian coordinates  (Angst):
   1.72948263  0.20030204 -0.00149989
   5.58834371  0.20099080 -0.00468086
   9.44720479  0.20167956 -0.00786183
   1.72882079  4.05916865 -0.00468087
   5.58768187  4.05985741 -0.00786184
   9.44654295  4.06054617 -0.01104281
   1.72815895  7.91803526 -0.00786185
   5.58702003  7.91872402 -0.01104282
   9.44588111  7.91941278 -0.01422379
  -0.19435708 -1.72421332  6.38167970
   3.66450400 -1.72352456  6.37849873
   7.52336508 -1.72283580  6.37531776
  -0.19501892  2.13465329  6.37849872
   3.66384216  2.13534205  6.37531775
   7.52270324  2.13603081  6.37213678
  -0.19568076  5.99351990  6.37531774
   3.66318032  5.99420866  6.37213677
   7.52204140  5.99489742  6.36895580
   1.73466311  0.20548490  6.37831754
   5.59352419  0.20617366  6.37513657
   9.45238527  0.20686242  6.37195560
   1.73400127  4.06435151  6.37513656
   5.59286235  4.06504027  6.37195559
   9.45172343  4.06572903  6.36877462
   1.73333943  7.92321812  6.37195558
   5.59220051  7.92390688  6.36877461
   9.45106159  7.92459564  6.36559364
  -0.18917660 -1.71903046 12.76149713
   3.66968448 -1.71834170 12.75831616
   7.52854556 -1.71765294 12.75513519
  -0.18983844  2.13983615 12.75831615
   3.66902264  2.14052491 12.75513518
   7.52788372  2.14121367 12.75195421
  -0.19050028  5.99870276 12.75513517
   3.66836080  5.99939152 12.75195420
   7.52722188  6.00008028 12.74877323
   3.65889391  0.20059014 -0.00318097
   7.51775499  0.20127890 -0.00636194
  11.37661607  0.20196766 -0.00954291
   3.65823207  4.05945675 -0.00636195
   7.51709315  4.06014551 -0.00954292
  11.37595423  4.06083427 -0.01272389
   3.65757023  7.91832336 -0.00954293
   7.51643131  7.91901212 -0.01272390
  11.37529239  7.91970088 -0.01590487
   1.73505420 -1.72392522  6.37999862
   5.59391528 -1.72323646  6.37681765
   9.45277636 -1.72254770  6.37363668
   1.73439236  2.13494139  6.37681764
   5.59325344  2.13563015  6.37363667
   9.45211452  2.13631891  6.37045570
   1.73373052  5.99380800  6.37363666
   5.59259160  5.99449676  6.37045569
   9.45145268  5.99518552  6.36727472
   1.72791836  2.12852207  1.91794681
   5.58955194  2.13198430  1.90556686
   9.44841302  2.13267306  1.90238589
   1.73002902  5.99016215  1.90556685
   5.58889010  5.99085091  1.90238588
   9.44775118  5.99153967  1.89920491
   1.72936718  9.84902876  1.90238587
   5.58822826  9.84971752  1.89920490
   9.44708934  9.85040628  1.89602393
  -0.19314885  0.20678018  8.29192742
   3.66571223  0.20746894  8.28874645
   7.52457331  0.20815770  8.28556548
  -0.19381069  4.06564679  8.28874644
   3.66505039  4.06633555  8.28556547
   7.52391147  4.06702431  8.28238450
  -0.19447253  7.92451340  8.28556546
   3.66438855  7.92520216  8.28238449
   7.52324963  7.92589092  8.27920352
  -0.19632692  0.20360066  4.46806981
   3.66253416  0.20428942  4.46488884
   7.52139524  0.20497818  4.46170787
  -0.19698876  4.06246726  4.46488883
   3.66187232  4.06315602  4.46170786
   7.52073340  4.06384478  4.45852689
  -0.19765060  7.92133388  4.46170785
   3.66121048  7.92202264  4.45852688
   7.52007156  7.92271140  4.45534591
  -2.12016663 -1.72091470 10.85124940
   1.73869445 -1.72022594 10.84806843
   5.59755553 -1.71953718 10.84488746
  -2.12082847  2.13795190 10.84806842
   1.73803261  2.13864066 10.84488745
   5.59689369  2.13932942 10.84170648
  -2.12149031  5.99681852 10.84488744
   1.73737077  5.99750728 10.84170647
   5.59623185  5.99819604 10.83852550
  -0.19825714  0.20164662  2.04032826
   3.66060394  0.20233538  2.03714729
   7.51946502  0.20302414  2.03396632
  -0.19891898  4.06051323  2.03714728
   3.65994210  4.06120199  2.03396631
   7.51880318  4.06189075  2.03078534
  -0.19958082  7.91937984  2.03396630
   3.65928026  7.92006860  2.03078533
   7.51814134  7.92075736  2.02760436
  -2.12209685 -1.72286874  8.42350785
   1.73676423 -1.72217998  8.42032688
   5.59562531 -1.72149122  8.41714591
  -2.12275869  2.13599787  8.42032687
   1.73610239  2.13668663  8.41714590
   5.59496347  2.13737539  8.41396493
  -2.12342053  5.99486448  8.41714589
   1.73544055  5.99555324  8.41396492
   5.59430163  5.99624200  8.41078395
   1.73264400  2.13322666  4.33648938
   5.59150508  2.13391542  4.33330841
   9.45036616  2.13460418  4.33012744
   1.73198216  5.99209327  4.33330840
   5.59084324  5.99278203  4.33012743
   9.44970432  5.99347079  4.32694646
   1.73132032  9.85095988  4.33012742
   5.59018140  9.85164864  4.32694645
   9.44904248  9.85233740  4.32376548
  -0.19119571  0.20871130 10.71966897
   3.66766537  0.20940006 10.71648800
   7.52652645  0.21008882 10.71330703
  -0.19185755  4.06757791 10.71648799
   3.66700353  4.06826667 10.71330702
   7.52586461  4.06895543 10.71012605
  -0.19251939  7.92644452 10.71330701
   3.66634169  7.92713328 10.71012604
   7.52520277  7.92782204 10.70694507
 


--------------------------------------------------------------------------------------------------------


 k-point  1 :   0.0000 0.0000 0.0000  plane waves:   64263
 k-point  2 :   0.3333 0.0000-0.0000  plane waves:   64335
 k-point  3 :  -0.0000 0.3333 0.0000  plane waves:   64335
 k-point  4 :   0.3333 0.3333-0.0000  plane waves:   64357
 k-point  5 :  -0.3333 0.3333 0.0000  plane waves:   64358
 k-point  6 :   0.0000-0.0000 0.5000  plane waves:   64288
 k-point  7 :   0.3333-0.0000 0.5000  plane waves:   64351
 k-point  8 :   0.0000 0.3333 0.5000  plane waves:   64351
 k-point  9 :   0.3333 0.3333 0.5000  plane waves:   64367
 k-point 10 :  -0.3333 0.3333 0.5000  plane waves:   64380

 maximum and minimum number of plane-waves per node :     10768    10677

 maximum number of plane-waves:     64380
 maximum index in each direction: 
   IXMAX=   24   IYMAX=   24   IZMAX=   28
   IXMIN=  -24   IYMIN=  -24   IZMIN=  -29


 parallel 3D FFT for wavefunctions:
    minimum data exchange during FFTs selected (reduces bandwidth)
 parallel 3D FFT for charge:
    minimum data exchange during FFTs selected (reduces bandwidth)


 total amount of memory used by VASP MPI-rank0  2010615. kBytes
=======================================================================

   base      :      30000. kBytes
   nonl-proj :      83483. kBytes
   fftplans  :      59337. kBytes
   grid      :      50429. kBytes
   one-center:        653. kBytes
   wavefun   :    1786713. kBytes
 
     INWAV:  cpu time    0.0000: real time    0.0000
 Broyden mixing: mesh for mixing (old mesh)
   NGX = 49   NGY = 49   NGZ = 57
  (NGX  =192   NGY  =192   NGZ  =240)
  gives a total of 136857 points

 initial charge density was supplied:
 number of electron     936.0000012 magnetization     144.0000005
 charge density for first step will be calculated from the start-wavefunctions


--------------------------------------------------------------------------------------------------------


 Maximum index for augmentation-charges         6958 (set IRDMAX)


--------------------------------------------------------------------------------------------------------


 First call to EWALD:  gamma=   0.148
 Maximum number of real-space cells 3x 3x 3
 Maximum number of reciprocal cells 3x 3x 3

    FEWALD:  cpu time    0.1481: real time    0.1481


--------------------------------------- Iteration      1(   1)  ---------------------------------------


    POTLOK:  cpu time    0.6175: real time    0.6217
    SETDIJ:  cpu time    1.6020: real time    1.6082
    TRIAL :  cpu time  253.1629: real time  255.4076
    CORREC:  cpu time    0.0040: real time    0.0045
    --------------------------------------------
      LOOP:  cpu time  255.9422: real time  258.2107

 eigenvalue-minimisations  : 28328
 total energy-change (2. order) : 0.1264849E+05  (-0.5394372E+05)
 number of electron     936.0000012 magnetization     144.0000005
 augmentation part      936.0000012 magnetization     144.0000005

 Free energy of the ion-electron system (eV)
  ---------------------------------------------------
  alpha Z        PSCENC =      2639.27042227
  Ewald energy   TEWEN  =    -69234.32712487
  -Hartree energ DENC   =    -34828.36325349
  -exchange      EXHF   =         0.00000000
  -V(xc)+E(xc)   XCENC  =      3975.73839749
  PAW double counting   =    109952.41695739  -113408.94482908
  entropy T*S    EENTRO =        -0.02343209
  eigenvalues    EBANDS =        37.39565549
  atomic energy  EATOM  =    113515.32941094
  ---------------------------------------------------
  free energy    TOTEN  =     12648.49220404 eV

  energy without entropy =    12648.51563614  energy(sigma->0) =    12648.50392009


--------------------------------------------------------------------------------------------------------




--------------------------------------- Iteration      1(   2)  ---------------------------------------


    TRIAL :  cpu time  245.0492: real time  247.2061
    CORREC:  cpu time    0.0042: real time    0.0043
    --------------------------------------------
      LOOP:  cpu time  245.0551: real time  247.2138

 eigenvalue-minimisations  : 27200
 total energy-change (2. order) :-0.1127355E+05  (-0.1054572E+05)
 number of electron     936.0000012 magnetization     144.0000005
 augmentation part      936.0000012 magnetization     144.0000005

 Free energy of the ion-electron system (eV)
  ---------------------------------------------------
  alpha Z        PSCENC =      2639.27042227
  Ewald energy   TEWEN  =    -69234.32712487
  -Hartree energ DENC   =    -34828.36325349
  -exchange      EXHF   =         0.00000000
  -V(xc)+E(xc)   XCENC  =      3975.73839749
  PAW double counting   =    109952.41695739  -113408.94482908
  entropy T*S    EENTRO =        -0.08230072
  eigenvalues    EBANDS =    -11236.10008315
  atomic energy  EATOM  =    113515.32941094
  ---------------------------------------------------
  free energy    TOTEN  =      1374.93759678 eV

  energy without entropy =     1375.01989750  energy(sigma->0) =     1374.97874714


--------------------------------------------------------------------------------------------------------




--------------------------------------- Iteration      1(   3)  ---------------------------------------


    TRIAL :  cpu time  265.6699: real time  268.0318
    CORREC:  cpu time    0.0013: real time    0.0015
    --------------------------------------------
      LOOP:  cpu time  265.6823: real time  268.0465

 eigenvalue-minimisations  : 29888
 total energy-change (2. order) :-0.1785642E+04  (-0.1558395E+04)
 number of electron     936.0000012 magnetization     144.0000005
 augmentation part      936.0000012 magnetization     144.0000005

 Free energy of the ion-electron system (eV)
  ---------------------------------------------------
  alpha Z        PSCENC =      2639.27042227
  Ewald energy   TEWEN  =    -69234.32712487
  -Hartree energ DENC   =    -34828.36325349
  -exchange      EXHF   =         0.00000000
  -V(xc)+E(xc)   XCENC  =      3975.73839749
  PAW double counting   =    109952.41695739  -113408.94482908
  entropy T*S    EENTRO =        -0.00000000
  eigenvalues    EBANDS =    -13021.82391891
  atomic energy  EATOM  =    113515.32941094
  ---------------------------------------------------
  free energy    TOTEN  =      -410.70393826 eV

  energy without entropy =     -410.70393826  energy(sigma->0) =     -410.70393826


--------------------------------------------------------------------------------------------------------




--------------------------------------- Iteration      1(   4)  ---------------------------------------


    TRIAL :  cpu time  288.2605: real time  290.9567
    CORREC:  cpu time    0.0012: real time    0.0012
    --------------------------------------------
      LOOP:  cpu time  288.2656: real time  290.9631

 eigenvalue-minimisations  : 33264
 total energy-change (2. order) :-0.2221255E+03  (-0.2191948E+03)
 number of electron     936.0000012 magnetization     144.0000005
 augmentation part      936.0000012 magnetization     144.0000005

 Free energy of the ion-electron system (eV)
  ---------------------------------------------------
  alpha Z        PSCENC =      2639.27042227
  Ewald energy   TEWEN  =    -69234.32712487
  -Hartree energ DENC   =    -34828.36325349
  -exchange      EXHF   =         0.00000000
  -V(xc)+E(xc)   XCENC  =      3975.73839749
  PAW double counting   =    109952.41695739  -113408.94482908
  entropy T*S    EENTRO =        -0.00000000
  eigenvalues    EBANDS =    -13243.94945007
  atomic energy  EATOM  =    113515.32941094
  ---------------------------------------------------
  free energy    TOTEN  =      -632.82946942 eV

  energy without entropy =     -632.82946942  energy(sigma->0) =     -632.82946942


--------------------------------------------------------------------------------------------------------




--------------------------------------- Iteration      1(   5)  ---------------------------------------


    TRIAL :  cpu time  372.4022: real time  375.3072
    CORREC:  cpu time    0.0015: real time    0.0018
    CHARGE:  cpu time    7.2254: real time    7.2550
    --------------------------------------------
      LOOP:  cpu time  379.6333: real time  382.5706

 eigenvalue-minimisations  : 46064
 total energy-change (2. order) :-0.2410458E+02  (-0.2391060E+02)
 number of electron     936.0000012 magnetization     144.0000005
 augmentation part      323.4163001 magnetization      94.2666655

 Free energy of the ion-electron system (eV)
  ---------------------------------------------------
  alpha Z        PSCENC =      2639.27042227
  Ewald energy   TEWEN  =    -69234.32712487
  -Hartree energ DENC   =    -34828.36325349
  -exchange      EXHF   =         0.00000000
  -V(xc)+E(xc)   XCENC  =      3975.73839749
  PAW double counting   =    109952.41695739  -113408.94482908
  entropy T*S    EENTRO =        -0.00000000
  eigenvalues    EBANDS =    -13268.05403390
  atomic energy  EATOM  =    113515.32941094
  ---------------------------------------------------
  free energy    TOTEN  =      -656.93405325 eV

  energy without entropy =     -656.93405325  energy(sigma->0) =     -656.93405325


--------------------------------------------------------------------------------------------------------




--------------------------------------- Iteration      1(   6)  ---------------------------------------


    POTLOK:  cpu time    0.6132: real time    0.6213
    SETDIJ:  cpu time    1.5608: real time    1.5768
    TRIAL :  cpu time  126.3031: real time  127.5524
    CORREC:  cpu time   31.5651: real time   31.7746
    CHARGE:  cpu time    7.3570: real time    7.3777
    --------------------------------------------
      LOOP:  cpu time  167.4053: real time  168.9112

 eigenvalue-minimisations  :     0
 total energy-change (2. order) : 0.4889991E-01  (-0.5207849E+00)
 number of electron     936.0000012 magnetization     144.0000005
 augmentation part      323.0669597 magnetization      94.2312991

 Free energy of the ion-electron system (eV)
  ---------------------------------------------------
  alpha Z        PSCENC =      2639.27042227
  Ewald energy   TEWEN  =    -69234.32712487
  -Hartree energ DENC   =    -34815.11982318
  -exchange      EXHF   =         0.00000000
  -V(xc)+E(xc)   XCENC  =      3973.75938153
  PAW double counting   =    109402.92449745  -112850.57753674
  entropy T*S    EENTRO =        -0.00000000
  eigenvalues    EBANDS =    -13288.14438072
  atomic energy  EATOM  =    113515.32941094
  ---------------------------------------------------
  free energy    TOTEN  =      -656.88515333 eV

  energy without entropy =     -656.88515333  energy(sigma->0) =     -656.88515333


--------------------------------------------------------------------------------------------------------




--------------------------------------- Iteration      1(   7)  ---------------------------------------


    POTLOK:  cpu time    0.6144: real time    0.6145
    SETDIJ:  cpu time    1.5878: real time    1.5900
    TRIAL :  cpu time  125.8266: real time  127.0292
    CORREC:  cpu time   31.2935: real time   31.6797
    CHARGE:  cpu time    7.3021: real time    7.3631
    --------------------------------------------
      LOOP:  cpu time  166.6538: real time  168.3077

 eigenvalue-minimisations  :     0
 total energy-change (2. order) :-0.5209729E+00  (-0.3023166E+00)
 number of electron     936.0000012 magnetization     144.0000005
 augmentation part      322.6895817 magnetization      94.2105622

 Free energy of the ion-electron system (eV)
  ---------------------------------------------------
  alpha Z        PSCENC =      2639.27042227
  Ewald energy   TEWEN  =    -69234.32712487
  -Hartree energ DENC   =    -34823.43515134
  -exchange      EXHF   =         0.00000000
  -V(xc)+E(xc)   XCENC  =      3974.73135198
  PAW double counting   =    109635.54583992  -113086.03001920
  entropy T*S    EENTRO =        -0.00000000
  eigenvalues    EBANDS =    -13278.49085590
  atomic energy  EATOM  =    113515.32941094
  ---------------------------------------------------
  free energy    TOTEN  =      -657.40612622 eV

  energy without entropy =     -657.40612622  energy(sigma->0) =     -657.40612622


--------------------------------------------------------------------------------------------------------




--------------------------------------- Iteration      1(   8)  ---------------------------------------


    POTLOK:  cpu time    0.6086: real time    0.6167
    SETDIJ:  cpu time    1.5859: real time    1.5981
    TRIAL :  cpu time  124.8367: real time  126.2622
    CORREC:  cpu time   31.1043: real time   31.2966
    CHARGE:  cpu time    7.2468: real time    7.2937
    --------------------------------------------
      LOOP:  cpu time  165.4263: real time  167.1137

 eigenvalue-minimisations  :     0
 total energy-change (2. order) :-0.3023603E+00  (-0.1198814E+00)
 number of electron     936.0000012 magnetization     144.0000005
 augmentation part      322.3993979 magnetization      94.1905299

 Free energy of the ion-electron system (eV)
  ---------------------------------------------------
  alpha Z        PSCENC =      2639.27042227
  Ewald energy   TEWEN  =    -69234.32712487
  -Hartree energ DENC   =    -34828.02985324
  -exchange      EXHF   =         0.00000000
  -V(xc)+E(xc)   XCENC  =      3975.30943642
  PAW double counting   =    109908.64976448  -113362.72532948
  entropy T*S    EENTRO =        -0.00000000
  eigenvalues    EBANDS =    -13271.18521300
  atomic energy  EATOM  =    113515.32941094
  ---------------------------------------------------
  free energy    TOTEN  =      -657.70848649 eV

  energy without entropy =     -657.70848649  energy(sigma->0) =     -657.70848649


--------------------------------------------------------------------------------------------------------




--------------------------------------- Iteration      1(   9)  ---------------------------------------


    POTLOK:  cpu time    0.6153: real time    0.6183
    SETDIJ:  cpu time    1.5965: real time    1.6062
    TRIAL :  cpu time  125.3728: real time  126.6712
    CORREC:  cpu time   31.7925: real time   32.1687
    CHARGE:  cpu time    7.3253: real time    7.3557
    --------------------------------------------
      LOOP:  cpu time  166.7106: real time  168.4300

 eigenvalue-minimisations  :     0
 total energy-change (2. order) :-0.1199014E+00  (-0.4444533E-01)
 number of electron     936.0000012 magnetization     144.0000005
 augmentation part      322.2900150 magnetization      94.1799307

 Free energy of the ion-electron system (eV)
  ---------------------------------------------------
  alpha Z        PSCENC =      2639.27042227
  Ewald energy   TEWEN  =    -69234.32712487
  -Hartree energ DENC   =    -34824.22018262
  -exchange      EXHF   =         0.00000000
  -V(xc)+E(xc)   XCENC  =      3975.35708000
  PAW double counting   =    110029.55304096  -113484.69500440
  entropy T*S    EENTRO =        -0.00000000
  eigenvalues    EBANDS =    -13274.09603014
  atomic energy  EATOM  =    113515.32941094
  ---------------------------------------------------
  free energy    TOTEN  =      -657.82838787 eV

  energy without entropy =     -657.82838787  energy(sigma->0) =     -657.82838787


--------------------------------------------------------------------------------------------------------




--------------------------------------- Iteration      1(  10)  ---------------------------------------


    POTLOK:  cpu time    0.6215: real time    0.6291
    SETDIJ:  cpu time    1.5619: real time    1.5899
    TRIAL :  cpu time  125.7714: real time  126.8978
    CORREC:  cpu time   31.6992: real time   31.9666
    CHARGE:  cpu time    7.2186: real time    7.2610
    --------------------------------------------
      LOOP:  cpu time  166.8837: real time  168.3586

 eigenvalue-minimisations  :     0
 total energy-change (2. order) :-0.4444334E-01  (-0.1723388E-01)
 number of electron     936.0000012 magnetization     144.0000005
 augmentation part      322.2210761 magnetization      94.1680390

 Free energy of the ion-electron system (eV)
  ---------------------------------------------------
  alpha Z        PSCENC =      2639.27042227
  Ewald energy   TEWEN  =    -69234.32712487
  -Hartree energ DENC   =    -34829.10949477
  -exchange      EXHF   =         0.00000000
  -V(xc)+E(xc)   XCENC  =      3975.73303006
  PAW double counting   =    110050.96628962  -113507.43569450
  entropy T*S    EENTRO =        -0.00000000
  eigenvalues    EBANDS =    -13268.29966996
  atomic energy  EATOM  =    113515.32941094
  ---------------------------------------------------
  free energy    TOTEN  =      -657.87283121 eV

  energy without entropy =     -657.87283121  energy(sigma->0) =     -657.87283121


--------------------------------------------------------------------------------------------------------




--------------------------------------- Iteration      1(  11)  ---------------------------------------


    POTLOK:  cpu time    0.6157: real time    0.6168
    SETDIJ:  cpu time    1.5611: real time    1.5786
    TRIAL :  cpu time  126.7110: real time  127.7306
    CORREC:  cpu time   31.4696: real time   31.6503
    CHARGE:  cpu time    7.2806: real time    7.3154
    --------------------------------------------
      LOOP:  cpu time  167.6497: real time  168.9051

 eigenvalue-minimisations  :     0
 total energy-change (2. order) :-0.1723844E-01  (-0.5378661E-02)
 number of electron     936.0000012 magnetization     144.0000005
 augmentation part      322.2040865 magnetization      94.1628095

 Free energy of the ion-electron system (eV)
  ---------------------------------------------------
  alpha Z        PSCENC =      2639.27042227
  Ewald energy   TEWEN  =    -69234.32712487
  -Hartree energ DENC   =    -34828.52140836
  -exchange      EXHF   =         0.00000000
  -V(xc)+E(xc)   XCENC  =      3975.75783942
  PAW double counting   =    110013.59032452  -113470.18070374
  entropy T*S    EENTRO =        -0.00000000
  eigenvalues    EBANDS =    -13268.80882982
  atomic energy  EATOM  =    113515.32941094
  ---------------------------------------------------
  free energy    TOTEN  =      -657.89006965 eV

  energy without entropy =     -657.89006965  energy(sigma->0) =     -657.89006965


--------------------------------------------------------------------------------------------------------




--------------------------------------- Iteration      1(  12)  ---------------------------------------


    POTLOK:  cpu time    0.6132: real time    0.6138
    SETDIJ:  cpu time    1.6417: real time    1.6424
    TRIAL :  cpu time  126.1809: real time  127.3524
    CORREC:  cpu time   31.3283: real time   31.5863
    CHARGE:  cpu time    7.2523: real time    7.3013
    --------------------------------------------
      LOOP:  cpu time  167.0319: real time  168.5135

 eigenvalue-minimisations  :     0
 total energy-change (2. order) :-0.5378599E-02  (-0.2488453E-02)
 number of electron     936.0000012 magnetization     144.0000005
 augmentation part      322.1994642 magnetization      94.1565809

 Free energy of the ion-electron system (eV)
  ---------------------------------------------------
  alpha Z        PSCENC =      2639.27042227
  Ewald energy   TEWEN  =    -69234.32712487
  -Hartree energ DENC   =    -34828.48275393
  -exchange      EXHF   =         0.00000000
  -V(xc)+E(xc)   XCENC  =      3975.74504296
  PAW double counting   =    109977.61337576  -113434.40363623
  entropy T*S    EENTRO =        -0.00000000
  eigenvalues    EBANDS =    -13268.64018515
  atomic energy  EATOM  =    113515.32941094
  ---------------------------------------------------
  free energy    TOTEN  =      -657.89544825 eV

  energy without entropy =     -657.89544825  energy(sigma->0) =     -657.89544825


--------------------------------------------------------------------------------------------------------




--------------------------------------- Iteration      1(  13)  ---------------------------------------


    POTLOK:  cpu time    0.6098: real time    0.6177
    SETDIJ:  cpu time    1.5897: real time    1.6154
    TRIAL :  cpu time  126.2801: real time  127.6525
    CORREC:  cpu time   31.8232: real time   32.0313
    CHARGE:  cpu time    7.1916: real time    7.2814
    --------------------------------------------
      LOOP:  cpu time  167.5012: real time  169.2071

 eigenvalue-minimisations  :     0
 total energy-change (2. order) :-0.2492520E-02  (-0.1430880E-02)
 number of electron     936.0000012 magnetization     144.0000005
 augmentation part      322.2055616 magnetization      94.1545475

 Free energy of the ion-electron system (eV)
  ---------------------------------------------------
  alpha Z        PSCENC =      2639.27042227
  Ewald energy   TEWEN  =    -69234.32712487
  -Hartree energ DENC   =    -34828.47196825
  -exchange      EXHF   =         0.00000000
  -V(xc)+E(xc)   XCENC  =      3975.76025174
  PAW double counting   =    109948.07773330  -113404.71150524
  entropy T*S    EENTRO =        -0.00000000
  eigenvalues    EBANDS =    -13268.82516066
  atomic energy  EATOM  =    113515.32941094
  ---------------------------------------------------
  free energy    TOTEN  =      -657.89794077 eV

  energy without entropy =     -657.89794077  energy(sigma->0) =     -657.89794077


--------------------------------------------------------------------------------------------------------




--------------------------------------- Iteration      1(  14)  ---------------------------------------


    POTLOK:  cpu time    0.6180: real time    0.6270
    SETDIJ:  cpu time    1.5652: real time    1.5796
    TRIAL :  cpu time  125.7467: real time  126.7565
    CORREC:  cpu time   31.3701: real time   31.6303
    CHARGE:  cpu time    7.3564: real time    7.3818
    --------------------------------------------
      LOOP:  cpu time  166.6600: real time  167.9824

 eigenvalue-minimisations  :     0
 total energy-change (2. order) :-0.1429678E-02  (-0.8196758E-03)
 number of electron     936.0000012 magnetization     144.0000005
 augmentation part      322.2040169 magnetization      94.1496651

 Free energy of the ion-electron system (eV)
  ---------------------------------------------------
  alpha Z        PSCENC =      2639.27042227
  Ewald energy   TEWEN  =    -69234.32712487
  -Hartree energ DENC   =    -34828.95031467
  -exchange      EXHF   =         0.00000000
  -V(xc)+E(xc)   XCENC  =      3975.76029511
  PAW double counting   =    109939.00651156  -113395.78873082
  entropy T*S    EENTRO =        -0.00000000
  eigenvalues    EBANDS =    -13268.19983996
  atomic energy  EATOM  =    113515.32941094
  ---------------------------------------------------
  free energy    TOTEN  =      -657.89937045 eV

  energy without entropy =     -657.89937045  energy(sigma->0) =     -657.89937045


--------------------------------------------------------------------------------------------------------




--------------------------------------- Iteration      1(  15)  ---------------------------------------


    POTLOK:  cpu time    0.6222: real time    0.6290
    SETDIJ:  cpu time    1.5381: real time    1.5752
    TRIAL :  cpu time  126.1208: real time  127.6242
    CORREC:  cpu time   31.5741: real time   31.7256
    CHARGE:  cpu time    7.1556: real time    7.3240
    --------------------------------------------
      LOOP:  cpu time  167.0202: real time  168.8912

 eigenvalue-minimisations  :     0
 total energy-change (2. order) :-0.8235510E-03  (-0.4523992E-03)
 number of electron     936.0000012 magnetization     144.0000005
 augmentation part      322.2183448 magnetization      94.1510343

 Free energy of the ion-electron system (eV)
  ---------------------------------------------------
  alpha Z        PSCENC =      2639.27042227
  Ewald energy   TEWEN  =    -69234.32712487
  -Hartree energ DENC   =    -34827.95296675
  -exchange      EXHF   =         0.00000000
  -V(xc)+E(xc)   XCENC  =      3975.72420152
  PAW double counting   =    109938.60442298  -113395.09346316
  entropy T*S    EENTRO =        -0.00000000
  eigenvalues    EBANDS =    -13269.45509692
  atomic energy  EATOM  =    113515.32941094
  ---------------------------------------------------
  free energy    TOTEN  =      -657.90019400 eV

  energy without entropy =     -657.90019400  energy(sigma->0) =     -657.90019400


--------------------------------------------------------------------------------------------------------




--------------------------------------- Iteration      1(  16)  ---------------------------------------


    POTLOK:  cpu time    0.6243: real time    0.6303
    SETDIJ:  cpu time    1.5921: real time    1.6077
    TRIAL :  cpu time  125.4867: real time  126.9937
    CORREC:  cpu time   31.3249: real time   31.5818
    CHARGE:  cpu time    7.2769: real time    7.3350
    --------------------------------------------
      LOOP:  cpu time  166.3111: real time  168.1586

 eigenvalue-minimisations  :     0
 total energy-change (2. order) :-0.4511263E-03  (-0.2516748E-03)
 number of electron     936.0000012 magnetization     144.0000005
 augmentation part      322.2135522 magnetization      94.1484178

 Free energy of the ion-electron system (eV)
  ---------------------------------------------------
  alpha Z        PSCENC =      2639.27042227
  Ewald energy   TEWEN  =    -69234.32712487
  -Hartree energ DENC   =    -34829.25417311
  -exchange      EXHF   =         0.00000000
  -V(xc)+E(xc)   XCENC  =      3975.76865661
  PAW double counting   =    109951.67284708  -113408.38016474
  entropy T*S    EENTRO =        -0.00000000
  eigenvalues    EBANDS =    -13267.98051930
  atomic energy  EATOM  =    113515.32941094
  ---------------------------------------------------
  free energy    TOTEN  =      -657.90064513 eV

  energy without entropy =     -657.90064513  energy(sigma->0) =     -657.90064513


--------------------------------------------------------------------------------------------------------




--------------------------------------- Iteration      1(  17)  ---------------------------------------


    POTLOK:  cpu time    0.6183: real time    0.6248
    SETDIJ:  cpu time    1.5305: real time    1.5717
    TRIAL :  cpu time  126.0061: real time  127.1039
    CORREC:  cpu time   30.9612: real time   31.1453
    CHARGE:  cpu time    7.1996: real time    7.3118
    --------------------------------------------
      LOOP:  cpu time  166.3193: real time  167.7652

 eigenvalue-minimisations  :     0
 total energy-change (2. order) :-0.2541826E-03  (-0.1851813E-03)
 number of electron     936.0000012 magnetization     144.0000005
 augmentation part      322.2196415 magnetization      94.1502373

 Free energy of the ion-electron system (eV)
  ---------------------------------------------------
  alpha Z        PSCENC =      2639.27042227
  Ewald energy   TEWEN  =    -69234.32712487
  -Hartree energ DENC   =    -34827.94322579
  -exchange      EXHF   =         0.00000000
  -V(xc)+E(xc)   XCENC  =      3975.71491730
  PAW double counting   =    109955.61938809  -113412.05612648
  entropy T*S    EENTRO =        -0.00000000
  eigenvalues    EBANDS =    -13269.50856076
  atomic energy  EATOM  =    113515.32941094
  ---------------------------------------------------
  free energy    TOTEN  =      -657.90089931 eV

  energy without entropy =     -657.90089931  energy(sigma->0) =     -657.90089931


--------------------------------------------------------------------------------------------------------




--------------------------------------- Iteration      1(  18)  ---------------------------------------


    POTLOK:  cpu time    0.6246: real time    0.6347
    SETDIJ:  cpu time    1.5363: real time    1.5642
    TRIAL :  cpu time  126.2084: real time  127.3357
    CORREC:  cpu time   31.1538: real time   31.4926
    CHARGE:  cpu time    7.2952: real time    7.3096
    --------------------------------------------
      LOOP:  cpu time  166.8238: real time  168.3474

 eigenvalue-minimisations  :     0
 total energy-change (2. order) :-0.1854826E-03  (-0.1393852E-03)
 number of electron     936.0000012 magnetization     144.0000005
 augmentation part      322.2170748 magnetization      94.1502907

 Free energy of the ion-electron system (eV)
  ---------------------------------------------------
  alpha Z        PSCENC =      2639.27042227
  Ewald energy   TEWEN  =    -69234.32712487
  -Hartree energ DENC   =    -34828.68926252
  -exchange      EXHF   =         0.00000000
  -V(xc)+E(xc)   XCENC  =      3975.74416758
  PAW double counting   =    109961.27922088  -113417.84082058
  entropy T*S    EENTRO =        -0.00000000
  eigenvalues    EBANDS =    -13268.66709848
  atomic energy  EATOM  =    113515.32941094
  ---------------------------------------------------
  free energy    TOTEN  =      -657.90108479 eV

  energy without entropy =     -657.90108479  energy(sigma->0) =     -657.90108479


--------------------------------------------------------------------------------------------------------




--------------------------------------- Iteration      1(  19)  ---------------------------------------


    POTLOK:  cpu time    0.6256: real time    0.6309
    SETDIJ:  cpu time    1.5087: real time    1.5670
    TRIAL :  cpu time  125.5565: real time  126.9942
    CORREC:  cpu time   31.4313: real time   31.9360
    CHARGE:  cpu time    7.1421: real time    7.2903
    --------------------------------------------
      LOOP:  cpu time  166.2687: real time  168.4326

 eigenvalue-minimisations  :     0
 total energy-change (2. order) :-0.1399413E-03  (-0.8528677E-04)
 number of electron     936.0000012 magnetization     144.0000005
 augmentation part      322.2173714 magnetization      94.1515380

 Free energy of the ion-electron system (eV)
  ---------------------------------------------------
  alpha Z        PSCENC =      2639.27042227
  Ewald energy   TEWEN  =    -69234.32712487
  -Hartree energ DENC   =    -34828.29412133
  -exchange      EXHF   =         0.00000000
  -V(xc)+E(xc)   XCENC  =      3975.72961130
  PAW double counting   =    109958.24382818  -113414.73433800
  entropy T*S    EENTRO =        -0.00000000
  eigenvalues    EBANDS =    -13269.11891322
  atomic energy  EATOM  =    113515.32941094
  ---------------------------------------------------
  free energy    TOTEN  =      -657.90122473 eV

  energy without entropy =     -657.90122473  energy(sigma->0) =     -657.90122473


--------------------------------------------------------------------------------------------------------




--------------------------------------- Iteration      1(  20)  ---------------------------------------


    POTLOK:  cpu time    0.6163: real time    0.6300
    SETDIJ:  cpu time    1.5533: real time    1.5878
    TRIAL :  cpu time  126.5186: real time  127.6556
    CORREC:  cpu time   31.2448: real time   31.5419
    CHARGE:  cpu time    7.2104: real time    7.3388
    --------------------------------------------
      LOOP:  cpu time  167.1477: real time  168.7681

 eigenvalue-minimisations  :     0
 total energy-change (2. order) :-0.8519216E-04  (-0.4486359E-04)
 number of electron     936.0000012 magnetization     144.0000005
 augmentation part      322.2162757 magnetization      94.1519297

 Free energy of the ion-electron system (eV)
  ---------------------------------------------------
  alpha Z        PSCENC =      2639.27042227
  Ewald energy   TEWEN  =    -69234.32712487
  -Hartree energ DENC   =    -34828.48120353
  -exchange      EXHF   =         0.00000000
  -V(xc)+E(xc)   XCENC  =      3975.73614586
  PAW double counting   =    109955.60464318  -113412.13283043
  entropy T*S    EENTRO =        -0.00000000
  eigenvalues    EBANDS =    -13268.90077334
  atomic energy  EATOM  =    113515.32941094
  ---------------------------------------------------
  free energy    TOTEN  =      -657.90130993 eV

  energy without entropy =     -657.90130993  energy(sigma->0) =     -657.90130993


--------------------------------------------------------------------------------------------------------




--------------------------------------- Iteration      1(  21)  ---------------------------------------


    POTLOK:  cpu time    0.6080: real time    0.6186
    SETDIJ:  cpu time    1.5565: real time    1.5769
    TRIAL :  cpu time  126.1306: real time  127.6316
    CORREC:  cpu time   31.3155: real time   31.4996
    CHARGE:  cpu time    7.3166: real time    7.3470
    --------------------------------------------
      LOOP:  cpu time  166.9335: real time  168.6817

 eigenvalue-minimisations  :     0
 total energy-change (2. order) :-0.4482977E-04  (-0.2927699E-04)
 number of electron     936.0000012 magnetization     144.0000005
 augmentation part      322.2154573 magnetization      94.1522333

 Free energy of the ion-electron system (eV)
  ---------------------------------------------------
  alpha Z        PSCENC =      2639.27042227
  Ewald energy   TEWEN  =    -69234.32712487
  -Hartree energ DENC   =    -34828.44239029
  -exchange      EXHF   =         0.00000000
  -V(xc)+E(xc)   XCENC  =      3975.73571395
  PAW double counting   =    109953.55560279  -113410.07547343
  entropy T*S    EENTRO =        -0.00000000
  eigenvalues    EBANDS =    -13268.94751612
  atomic energy  EATOM  =    113515.32941094
  ---------------------------------------------------
  free energy    TOTEN  =      -657.90135475 eV

  energy without entropy =     -657.90135475  energy(sigma->0) =     -657.90135475


--------------------------------------------------------------------------------------------------------




--------------------------------------- Iteration      1(  22)  ---------------------------------------


    POTLOK:  cpu time    0.6240: real time    0.6306
    SETDIJ:  cpu time    1.5460: real time    1.6039
    TRIAL :  cpu time  126.0770: real time  127.7756
    CORREC:  cpu time   31.3248: real time   31.7854
    CHARGE:  cpu time    7.1210: real time    7.2701
    --------------------------------------------
      LOOP:  cpu time  166.6966: real time  169.0701

 eigenvalue-minimisations  :     0
 total energy-change (2. order) :-0.2903691E-04  (-0.1709294E-04)
 number of electron     936.0000012 magnetization     144.0000005
 augmentation part      322.2158355 magnetization      94.1525117

 Free energy of the ion-electron system (eV)
  ---------------------------------------------------
  alpha Z        PSCENC =      2639.27042227
  Ewald energy   TEWEN  =    -69234.32712487
  -Hartree energ DENC   =    -34828.40998687
  -exchange      EXHF   =         0.00000000
  -V(xc)+E(xc)   XCENC  =      3975.73470481
  PAW double counting   =    109953.05716169  -113409.58010797
  entropy T*S    EENTRO =        -0.00000000
  eigenvalues    EBANDS =    -13268.97586378
  atomic energy  EATOM  =    113515.32941094
  ---------------------------------------------------
  free energy    TOTEN  =      -657.90138379 eV

  energy without entropy =     -657.90138379  energy(sigma->0) =     -657.90138379


--------------------------------------------------------------------------------------------------------




--------------------------------------- Iteration      1(  23)  ---------------------------------------


    POTLOK:  cpu time    0.6195: real time    0.6296
    SETDIJ:  cpu time    1.5709: real time    1.5984
    TRIAL :  cpu time  126.2269: real time  127.3228
    CORREC:  cpu time   31.5317: real time   32.0224
    CHARGE:  cpu time    7.3168: real time    7.3212
    --------------------------------------------
      LOOP:  cpu time  167.2829: real time  168.9119

 eigenvalue-minimisations  :     0
 total energy-change (2. order) :-0.1692485E-04  (-0.8461928E-05)
 number of electron     936.0000012 magnetization     144.0000005
 augmentation part      322.2148421 magnetization      94.1521864

 Free energy of the ion-electron system (eV)
  ---------------------------------------------------
  alpha Z        PSCENC =      2639.27042227
  Ewald energy   TEWEN  =    -69234.32712487
  -Hartree energ DENC   =    -34828.52290049
  -exchange      EXHF   =         0.00000000
  -V(xc)+E(xc)   XCENC  =      3975.73967820
  PAW double counting   =    109954.13653758  -113410.68067387
  entropy T*S    EENTRO =        -0.00000000
  eigenvalues    EBANDS =    -13268.84675047
  atomic energy  EATOM  =    113515.32941094
  ---------------------------------------------------
  free energy    TOTEN  =      -657.90140072 eV

  energy without entropy =     -657.90140072  energy(sigma->0) =     -657.90140072


--------------------------------------------------------------------------------------------------------




--------------------------------------- Iteration      1(  24)  ---------------------------------------


    POTLOK:  cpu time    0.6124: real time    0.6127
    SETDIJ:  cpu time    1.6039: real time    1.6046
    TRIAL :  cpu time  126.5023: real time  127.4839
    CORREC:  cpu time   31.0477: real time   31.3633
    CHARGE:  cpu time    7.1844: real time    7.2598
    --------------------------------------------
      LOOP:  cpu time  166.9563: real time  168.3304

 eigenvalue-minimisations  :     0
 total energy-change (2. order) :-0.8462128E-05  (-0.5510951E-05)
 number of electron     936.0000012 magnetization     144.0000005
 augmentation part      322.2153632 magnetization      94.1523395

 Free energy of the ion-electron system (eV)
  ---------------------------------------------------
  alpha Z        PSCENC =      2639.27042227
  Ewald energy   TEWEN  =    -69234.32712487
  -Hartree energ DENC   =    -34828.38862142
  -exchange      EXHF   =         0.00000000
  -V(xc)+E(xc)   XCENC  =      3975.73433764
  PAW double counting   =    109954.41704217  -113410.94040836
  entropy T*S    EENTRO =        -0.00000000
  eigenvalues    EBANDS =    -13268.99646754
  atomic energy  EATOM  =    113515.32941094
  ---------------------------------------------------
  free energy    TOTEN  =      -657.90140918 eV

  energy without entropy =     -657.90140918  energy(sigma->0) =     -657.90140918


--------------------------------------------------------------------------------------------------------




--------------------------------------- Iteration      1(  25)  ---------------------------------------


    POTLOK:  cpu time    0.6135: real time    0.6138
    SETDIJ:  cpu time    1.5654: real time    1.5756
    TRIAL :  cpu time  126.2779: real time  127.4257
    CORREC:  cpu time   31.1425: real time   31.5645
    CHARGE:  cpu time    7.3215: real time    7.3711
    --------------------------------------------
      LOOP:  cpu time  166.9319: real time  168.5623

 eigenvalue-minimisations  :     0
 total energy-change (2. order) :-0.5494599E-05  (-0.3920580E-05)
 number of electron     936.0000012 magnetization     144.0000005
 augmentation part      322.2147877 magnetization      94.1520806

 Free energy of the ion-electron system (eV)
  ---------------------------------------------------
  alpha Z        PSCENC =      2639.27042227
  Ewald energy   TEWEN  =    -69234.32712487
  -Hartree energ DENC   =    -34828.49909542
  -exchange      EXHF   =         0.00000000
  -V(xc)+E(xc)   XCENC  =      3975.73876720
  PAW double counting   =    109955.20538380  -113411.74956699
  entropy T*S    EENTRO =        -0.00000000
  eigenvalues    EBANDS =    -13268.86961160
  atomic energy  EATOM  =    113515.32941094
  ---------------------------------------------------
  free energy    TOTEN  =      -657.90141467 eV

  energy without entropy =     -657.90141467  energy(sigma->0) =     -657.90141467


--------------------------------------------------------------------------------------------------------




--------------------------------------- Iteration      1(  26)  ---------------------------------------


    POTLOK:  cpu time    0.6132: real time    0.6151
    SETDIJ:  cpu time    1.6281: real time    1.6299
    TRIAL :  cpu time  125.9387: real time  127.3150
    CORREC:  cpu time   31.1303: real time   31.5553
    CHARGE:  cpu time    7.2228: real time    7.3120
    --------------------------------------------
      LOOP:  cpu time  166.5456: real time  168.4403

 eigenvalue-minimisations  :     0
 total energy-change (2. order) :-0.3947818E-05  (-0.2945235E-05)
 number of electron     936.0000012 magnetization     144.0000005
 augmentation part      322.2149636 magnetization      94.1521571

 Free energy of the ion-electron system (eV)
  ---------------------------------------------------
  alpha Z        PSCENC =      2639.27042227
  Ewald energy   TEWEN  =    -69234.32712487
  -Hartree energ DENC   =    -34828.42984553
  -exchange      EXHF   =         0.00000000
  -V(xc)+E(xc)   XCENC  =      3975.73661068
  PAW double counting   =    109955.07917101  -113411.61123729
  entropy T*S    EENTRO =        -0.00000000
  eigenvalues    EBANDS =    -13268.94882582
  atomic energy  EATOM  =    113515.32941094
  ---------------------------------------------------
  free energy    TOTEN  =      -657.90141862 eV

  energy without entropy =     -657.90141862  energy(sigma->0) =     -657.90141862


--------------------------------------------------------------------------------------------------------




--------------------------------------- Iteration      1(  27)  ---------------------------------------


    POTLOK:  cpu time    0.6592: real time    0.6737
    SETDIJ:  cpu time    1.5698: real time    1.5705
    TRIAL :  cpu time  125.9992: real time  127.0902
    CORREC:  cpu time   30.9917: real time   31.3696
    CHARGE:  cpu time    7.3239: real time    7.3321
    --------------------------------------------
      LOOP:  cpu time  166.5462: real time  168.0389

 eigenvalue-minimisations  :     0
 total energy-change (2. order) :-0.2896297E-05  (-0.1981247E-05)
 number of electron     936.0000012 magnetization     144.0000005
 augmentation part      322.2146209 magnetization      94.1519567

 Free energy of the ion-electron system (eV)
  ---------------------------------------------------
  alpha Z        PSCENC =      2639.27042227
  Ewald energy   TEWEN  =    -69234.32712487
  -Hartree energ DENC   =    -34828.48004061
  -exchange      EXHF   =         0.00000000
  -V(xc)+E(xc)   XCENC  =      3975.73804081
  PAW double counting   =    109955.09940560  -113411.64542142
  entropy T*S    EENTRO =        -0.00000000
  eigenvalues    EBANDS =    -13268.88611423
  atomic energy  EATOM  =    113515.32941094
  ---------------------------------------------------
  free energy    TOTEN  =      -657.90142152 eV

  energy without entropy =     -657.90142152  energy(sigma->0) =     -657.90142152


--------------------------------------------------------------------------------------------------------




--------------------------------------- Iteration      1(  28)  ---------------------------------------


    POTLOK:  cpu time    0.6124: real time    0.6132
    SETDIJ:  cpu time    1.5701: real time    1.5708
    TRIAL :  cpu time  125.8911: real time  127.3002
    CORREC:  cpu time   31.9812: real time   32.1452
    CHARGE:  cpu time    7.2929: real time    7.3343
[...]
   -.509E+00 -.507E+00 0.911E+02   0.503E+00 0.501E+00 -.916E+02   0.173E-01 0.171E-01 0.400E+00
   0.126E+00 0.442E-01 0.895E+02   -.124E+00 -.448E-01 -.900E+02   -.527E-02 0.110E-02 0.511E+00
   0.125E+00 0.441E-01 0.895E+02   -.123E+00 -.447E-01 -.900E+02   -.339E-02 0.111E-02 0.512E+00
   0.421E-01 0.128E+00 0.895E+02   -.428E-01 -.126E+00 -.900E+02   0.135E-02 -.552E-02 0.511E+00
   0.845E-01 0.866E-01 0.894E+02   -.844E-01 -.864E-01 -.899E+02   -.785E-03 -.104E-02 0.513E+00
   0.647E-01 0.672E-01 0.894E+02   -.652E-01 -.673E-01 -.899E+02   0.634E-03 -.959E-04 0.513E+00
   0.420E-01 0.127E+00 0.895E+02   -.427E-01 -.125E+00 -.900E+02   0.135E-02 -.363E-02 0.512E+00
   0.651E-01 0.669E-01 0.894E+02   -.653E-01 -.671E-01 -.899E+02   0.149E-03 0.381E-03 0.513E+00
   0.843E-01 0.864E-01 0.894E+02   -.843E-01 -.863E-01 -.899E+02   -.303E-03 -.551E-03 0.513E+00
   0.814E-01 0.835E-01 0.893E+02   -.814E-01 -.834E-01 -.899E+02   -.479E-03 -.726E-03 0.516E+00
   0.568E-01 0.769E-01 0.894E+02   -.572E-01 -.769E-01 -.899E+02   0.567E-03 -.235E-03 0.515E+00
   0.567E-01 0.770E-01 0.894E+02   -.573E-01 -.769E-01 -.899E+02   0.886E-03 -.459E-03 0.515E+00
   0.748E-01 0.589E-01 0.894E+02   -.750E-01 -.592E-01 -.899E+02   0.568E-05 0.322E-03 0.515E+00
   0.572E-01 0.593E-01 0.894E+02   -.576E-01 -.596E-01 -.899E+02   0.573E-03 0.313E-03 0.515E+00
   0.630E-01 0.651E-01 0.894E+02   -.633E-01 -.653E-01 -.899E+02   0.357E-03 0.143E-04 0.515E+00
   0.748E-01 0.589E-01 0.894E+02   -.749E-01 -.593E-01 -.899E+02   -.211E-03 0.628E-03 0.515E+00
   0.631E-01 0.651E-01 0.894E+02   -.633E-01 -.653E-01 -.899E+02   0.270E-03 0.107E-03 0.515E+00
   0.571E-01 0.593E-01 0.894E+02   -.576E-01 -.596E-01 -.899E+02   0.867E-03 0.606E-03 0.515E+00
   0.521E-01 0.541E-01 -.895E+02   -.478E-01 -.498E-01 0.900E+02   -.948E-02 -.973E-02 -.505E+00
   -.188E+00 0.983E-02 -.895E+02   0.185E+00 -.671E-02 0.900E+02   0.754E-02 -.669E-02 -.509E+00
   -.533E-01 -.584E-01 -.894E+02   0.537E-01 0.586E-01 0.899E+02   -.638E-03 0.603E-04 -.515E+00
   0.783E-02 -.186E+00 -.895E+02   -.485E-02 0.183E+00 0.900E+02   -.644E-02 0.728E-02 -.509E+00
   -.144E+00 -.142E+00 -.894E+02   0.142E+00 0.140E+00 0.899E+02   0.454E-02 0.429E-02 -.514E+00
   -.530E-01 -.765E-01 -.894E+02   0.534E-01 0.767E-01 0.899E+02   -.671E-03 -.336E-03 -.514E+00
   -.604E-01 -.512E-01 -.894E+02   0.605E-01 0.518E-01 0.899E+02   0.311E-03 -.884E-03 -.515E+00
   -.786E-01 -.509E-01 -.894E+02   0.786E-01 0.515E-01 0.899E+02   -.966E-04 -.929E-03 -.514E+00
   -.624E-01 -.604E-01 -.894E+02   0.627E-01 0.608E-01 0.899E+02   -.373E-03 -.623E-03 -.514E+00
   -.882E-01 -.861E-01 -.896E+02   0.881E-01 0.862E-01 0.901E+02   0.569E-03 0.313E-03 -.504E+00
   -.214E-01 -.699E-01 -.895E+02   0.223E-01 0.701E-01 0.900E+02   -.157E-02 -.833E-04 -.513E+00
   -.959E-01 -.708E-01 -.894E+02   0.956E-01 0.709E-01 0.899E+02   0.920E-03 -.791E-05 -.513E+00
   -.720E-01 -.194E-01 -.895E+02   0.720E-01 0.204E-01 0.900E+02   0.170E-03 -.181E-02 -.513E+00
   -.494E-01 -.473E-01 -.894E+02   0.501E-01 0.481E-01 0.899E+02   -.120E-02 -.145E-02 -.513E+00
   -.804E-01 -.527E-01 -.894E+02   0.802E-01 0.533E-01 0.899E+02   0.705E-03 -.103E-02 -.513E+00
   -.728E-01 -.939E-01 -.894E+02   0.728E-01 0.937E-01 0.899E+02   0.236E-03 0.661E-03 -.513E+00
   -.547E-01 -.783E-01 -.894E+02   0.552E-01 0.783E-01 0.899E+02   -.781E-03 0.451E-03 -.513E+00
   -.742E-01 -.721E-01 -.894E+02   0.742E-01 0.723E-01 0.899E+02   0.193E-03 -.503E-04 -.514E+00
   0.362E+00 0.360E+00 -.652E+02   -.344E+00 -.343E+00 0.641E+02   -.189E-01 -.185E-01 0.110E+01
   -.251E+00 -.154E+00 -.651E+02   0.250E+00 0.148E+00 0.640E+02   0.184E-02 0.406E-02 0.110E+01
   0.970E-02 -.577E-01 -.656E+02   -.711E-02 0.548E-01 0.645E+02   -.210E-02 0.251E-02 0.111E+01
   -.152E+00 -.253E+00 -.651E+02   0.146E+00 0.252E+00 0.640E+02   0.355E-02 0.240E-02 0.110E+01
   0.261E+00 0.258E+00 -.651E+02   -.239E+00 -.237E+00 0.640E+02   -.205E-01 -.200E-01 0.110E+01
   0.961E-02 -.596E-01 -.656E+02   -.705E-02 0.580E-01 0.645E+02   -.207E-02 0.131E-02 0.111E+01
   -.555E-01 0.740E-02 -.656E+02   0.531E-01 -.537E-02 0.645E+02   0.201E-02 -.154E-02 0.111E+01
   -.572E-01 0.731E-02 -.656E+02   0.563E-01 -.530E-02 0.645E+02   0.751E-03 -.156E-02 0.111E+01
   -.283E-01 -.306E-01 -.656E+02   0.300E-01 0.317E-01 0.645E+02   -.130E-02 -.780E-03 0.111E+01
   -.420E-01 -.443E-01 -.658E+02   0.417E-01 0.434E-01 0.647E+02   0.327E-03 0.820E-03 0.113E+01
   -.242E-01 -.308E-01 -.658E+02   0.242E-01 0.301E-01 0.647E+02   0.973E-04 0.673E-03 0.112E+01
   -.757E-01 -.428E-01 -.657E+02   0.747E-01 0.419E-01 0.646E+02   0.888E-03 0.865E-03 0.112E+01
   -.285E-01 -.265E-01 -.658E+02   0.284E-01 0.259E-01 0.647E+02   0.158E-03 0.626E-03 0.112E+01
   -.389E-01 -.412E-01 -.658E+02   0.388E-01 0.405E-01 0.647E+02   0.171E-03 0.728E-03 0.112E+01
   -.745E-01 -.407E-01 -.657E+02   0.734E-01 0.400E-01 0.646E+02   0.101E-02 0.653E-03 0.112E+01
   -.405E-01 -.781E-01 -.657E+02   0.402E-01 0.764E-01 0.646E+02   0.356E-03 0.144E-02 0.112E+01
   -.384E-01 -.768E-01 -.657E+02   0.383E-01 0.751E-01 0.646E+02   0.117E-03 0.154E-02 0.112E+01
   -.628E-01 -.651E-01 -.657E+02   0.618E-01 0.636E-01 0.646E+02   0.885E-03 0.141E-02 0.111E+01
   -.187E+00 -.190E+00 0.640E+02   0.179E+00 0.181E+00 -.630E+02   0.728E-02 0.779E-02 -.101E+01
   -.403E-01 0.168E-01 0.657E+02   0.386E-01 -.181E-01 -.646E+02   0.114E-02 0.962E-03 -.112E+01
   0.253E+00 0.173E-01 0.656E+02   -.246E+00 -.187E-01 -.645E+02   -.558E-02 0.982E-03 -.111E+01
   0.191E-01 -.426E-01 0.657E+02   -.198E-01 0.403E-01 -.646E+02   0.447E-03 0.168E-02 -.112E+01
   0.394E-01 0.371E-01 0.657E+02   -.412E-01 -.395E-01 -.646E+02   0.139E-02 0.194E-02 -.112E+01
   0.892E-01 0.931E-02 0.657E+02   -.828E-01 -.134E-01 -.646E+02   -.527E-02 0.329E-02 -.112E+01
   0.195E-01 0.251E+00 0.656E+02   -.203E-01 -.244E+00 -.645E+02   0.414E-03 -.508E-02 -.111E+01
   0.116E-01 0.870E-01 0.657E+02   -.151E-01 -.811E-01 -.646E+02   0.273E-02 -.477E-02 -.112E+01
   0.116E+00 0.114E+00 0.657E+02   -.108E+00 -.107E+00 -.646E+02   -.659E-02 -.611E-02 -.111E+01
   0.154E+00 0.152E+00 0.655E+02   -.151E+00 -.150E+00 -.644E+02   -.207E-02 -.151E-02 -.110E+01
   0.640E-01 0.659E-01 0.656E+02   -.624E-01 -.647E-01 -.645E+02   -.143E-02 -.108E-02 -.111E+01
   -.659E-01 0.124E+00 0.655E+02   0.644E-01 -.122E+00 -.644E+02   0.910E-03 -.186E-02 -.111E+01
   0.682E-01 0.617E-01 0.656E+02   -.664E-01 -.607E-01 -.645E+02   -.160E-02 -.889E-03 -.111E+01
   0.540E-01 0.517E-01 0.657E+02   -.523E-01 -.506E-01 -.645E+02   -.153E-02 -.100E-02 -.111E+01
   0.273E-01 0.639E-01 0.657E+02   -.276E-01 -.629E-01 -.645E+02   0.130E-03 -.901E-03 -.111E+01
   0.126E+00 -.680E-01 0.655E+02   -.123E+00 0.660E-01 -.644E+02   -.242E-02 0.141E-02 -.111E+01
   0.663E-01 0.251E-01 0.657E+02   -.646E-01 -.259E-01 -.645E+02   -.146E-02 0.636E-03 -.111E+01
   -.404E-01 -.426E-01 0.656E+02   0.385E-01 0.402E-01 -.645E+02   0.130E-02 0.177E-02 -.111E+01
 -----------------------------------------------------------------------------------------------
   0.745E-01 0.180E-01 -.872E-01   0.656E-13 -.651E-12 0.109E-11   -.668E-01 -.256E-01 0.874E-01
 
 
 POSITION                                       TOTAL-FORCE (eV/Angst)
 -----------------------------------------------------------------------------------
      1.72948      0.20030     -0.00150        -0.000675     -0.002718      0.000181
      5.58834      0.20099     -0.00468         0.000657     -0.000198      0.000104
      9.44720      0.20168     -0.00786        -0.000111     -0.000051      0.000300
      1.72882      4.05917     -0.00468        -0.000667      0.002177     -0.000563
      5.58768      4.05986     -0.00786         0.001072      0.000022      0.000042
      9.44654      4.06055     -0.01104        -0.000559     -0.000146      0.000258
      1.72816      7.91804     -0.00786         0.000055      0.000197      0.000183
      5.58702      7.91872     -0.01104         0.000076      0.000004      0.000087
      9.44588      7.91941     -0.01422         0.000015      0.000031      0.000212
     -0.19436     -1.72421      6.38168        -0.000064      0.000622     -0.000872
      3.66450     -1.72352      6.37850         0.000126      0.000346     -0.000502
      7.52337     -1.72284      6.37532         0.000042     -0.000045     -0.000220
     -0.19502      2.13465      6.37850         0.000516     -0.000196     -0.000961
      3.66384      2.13534      6.37532        -0.000477     -0.000259     -0.000567
      7.52270      2.13603      6.37214         0.000127     -0.000017     -0.000225
     -0.19568      5.99352      6.37532        -0.000109     -0.000485     -0.000621
      3.66318      5.99421      6.37214         0.000092     -0.000139     -0.000306
      7.52204      5.99490      6.36896         0.000099     -0.000090     -0.000156
      1.73466      0.20548      6.37832        -0.000092      0.000444     -0.000971
      5.59352      0.20617      6.37514        -0.000394     -0.000179     -0.000604
      9.45239      0.20686      6.37196         0.000707     -0.000130     -0.000844
      1.73400      4.06435      6.37514        -0.000156     -0.000550     -0.000550
      5.59286      4.06504      6.37196        -0.000040      0.000025     -0.000288
      9.45172      4.06573      6.36877         0.000435      0.000044     -0.000490
      1.73334      7.92322      6.37196         0.000089      0.000055     -0.000244
      5.59220      7.92391      6.36877         0.000020      0.000036     -0.000143
      9.45106      7.92460      6.36559         0.000045     -0.000021     -0.000209
     -0.18918     -1.71903     12.76150         0.002287     -0.000737     -0.000526
      3.66968     -1.71834     12.75832         0.000309     -0.000016      0.000190
      7.52855     -1.71765     12.75514        -0.002636     -0.000752      0.000198
     -0.18984      2.13984     12.75832         0.000124      0.001007      0.000045
      3.66902      2.14052     12.75514         0.000114     -0.000012      0.000107
      7.52788      2.14121     12.75195        -0.000110      0.000575      0.000071
     -0.19050      5.99870     12.75514        -0.000039     -0.000616      0.000274
      3.66836      5.99939     12.75195         0.000142     -0.000054      0.000226
      7.52722      6.00008     12.74877         0.000047     -0.000182      0.000317
      3.65889      0.20059     -0.00318        -0.004180      0.005074      0.002993
      7.51775      0.20128     -0.00636        -0.000293      0.000200     -0.000557
     11.37662      0.20197     -0.00954         0.002648      0.002696     -0.000906
      3.65823      4.05946     -0.00636        -0.006574     -0.006666      0.006889
      7.51709      4.06015     -0.00954        -0.000324     -0.000084     -0.000653
     11.37595      4.06083     -0.01272         0.005074     -0.004288      0.002901
      3.65757      7.91832     -0.00954         0.000005     -0.000363     -0.000631
      7.51643      7.91901     -0.01272        -0.000193     -0.000224     -0.000799
     11.37529      7.91970     -0.01590         0.000202     -0.000381     -0.000608
      1.73505     -1.72393      6.38000         0.000161     -0.000583      0.001182
      5.59392     -1.72324      6.37682         0.000599     -0.000595      0.001485
      9.45278     -1.72255      6.37364        -0.000833     -0.000828      0.002174
      1.73439      2.13494      6.37682         0.000305      0.000247      0.003434
      5.59325      2.13563      6.37364         0.000319      0.000125      0.000877
      9.45211      2.13632      6.37046        -0.000552      0.000075      0.001267
      1.73373      5.99381      6.37364         0.000169      0.000254      0.000830
      5.59259      5.99450      6.37046         0.000280      0.000242      0.001256
      9.45145      5.99519      6.36727        -0.000579      0.000518      0.001515
      1.72792      2.12852      1.91795         0.010804      0.010802     -0.071046
      5.58955      2.13198      1.90557        -0.002434      0.000557     -0.001357
      9.44841      2.13267      1.90239        -0.001556      0.000544     -0.001167
      1.73003      5.99016      1.90557         0.000550     -0.002424     -0.001360
      5.58889      5.99085      1.90239        -0.000702     -0.000694     -0.000876
      9.44775      5.99154      1.89920         0.000124     -0.000123     -0.000846
      1.72937      9.84903      1.90239         0.000538     -0.001486     -0.001099
      5.58823      9.84972      1.89920        -0.000130      0.000175     -0.000808
      9.44709      9.85041      1.89602        -0.000436     -0.000385     -0.000742
     -0.19315      0.20678      8.29193        -0.000567     -0.000519      0.001489
      3.66571      0.20747      8.28875         0.000149     -0.000199      0.000849
      7.52457      0.20816      8.28557         0.000268     -0.000342      0.000890
     -0.19381      4.06565      8.28875        -0.000234      0.000134      0.000839
      3.66505      4.06634      8.28557         0.000138      0.000111      0.000643
      7.52391      4.06702      8.28238        -0.000043     -0.000054      0.000533
     -0.19447      7.92451      8.28557        -0.000390      0.000310      0.000874
      3.66439      7.92520      8.28238        -0.000026      0.000003      0.000530
      7.52325      7.92589      8.27920         0.000258      0.000306      0.000814
     -0.19633      0.20360      4.46807        -0.005062     -0.005044      0.004395
      3.66253      0.20429      4.46489         0.004109     -0.003355      0.002022
      7.52140      0.20498      4.46171        -0.000272      0.000352     -0.000209
     -0.19699      4.06247      4.46489        -0.003372      0.004117      0.002052
      3.66187      4.06316      4.46171         0.002444      0.002438     -0.000231
      7.52073      4.06384      4.45853        -0.000300     -0.000097     -0.000130
     -0.19765      7.92133      4.46171         0.000325     -0.000221     -0.000207
      3.66121      7.92202      4.45853        -0.000109     -0.000251     -0.000135
      7.52007      7.92271      4.45535        -0.000127     -0.000084      0.000060
     -2.12017     -1.72091     10.85125         0.000313      0.000387      0.005983
      1.73869     -1.72023     10.84807        -0.000700      0.000167      0.000588
      5.59756     -1.71954     10.84489         0.000497      0.000193      0.000154
     -2.12083      2.13795     10.84807         0.000096     -0.000709      0.000526
      1.73803      2.13864     10.84489        -0.000540     -0.000523      0.000633
      5.59689      2.13933     10.84171         0.000444     -0.000315      0.000162
     -2.12149      5.99682     10.84489         0.000139      0.000505      0.000129
      1.73737      5.99751     10.84171        -0.000307      0.000465      0.000197
      5.59623      5.99820     10.83853         0.000190      0.000208     -0.000083
     -0.19826      0.20165      2.04033        -0.001100     -0.000988      0.004039
      3.66060      0.20234      2.03715         0.000499     -0.001700      0.004014
      7.51947      0.20302      2.03397         0.000424     -0.000260      0.000222
     -0.19892      4.06051      2.03715        -0.001803      0.000556      0.003978
      3.65994      4.06120      2.03397         0.001308      0.001338      0.003903
      7.51880      4.06189      2.03079         0.000423     -0.000133      0.000128
     -0.19958      7.91938      2.03397        -0.000392      0.000540      0.000231
      3.65928      7.92007      2.03079        -0.000195      0.000499      0.000163
      7.51814      7.92076      2.02760         0.000346      0.000423     -0.000033
     -2.12210     -1.72287      8.42351        -0.000086      0.000036     -0.002311
      1.73676     -1.72218      8.42033        -0.000013      0.000050     -0.000903
      5.59563     -1.72149      8.41715        -0.000184      0.000029     -0.000726
     -2.12276      2.13600      8.42033        -0.000090      0.000047     -0.000936
      1.73610      2.13669      8.41715        -0.000010      0.000083     -0.001772
      5.59496      2.13738      8.41396        -0.000163      0.000063     -0.000552
     -2.12342      5.99486      8.41715        -0.000080     -0.000139     -0.000736
      1.73544      5.99555      8.41396        -0.000009     -0.000111     -0.000548
      5.59430      5.99624      8.41078        -0.000161     -0.000098     -0.000454
      1.73264      2.13323      4.33649        -0.000835     -0.000805      0.035488
      5.59151      2.13392      4.33331        -0.000604     -0.000301      0.000798
      9.45037      2.13460      4.33013         0.001157     -0.000290      0.000111
      1.73198      5.99209      4.33331        -0.000356     -0.000540      0.000811
      5.59084      5.99278      4.33013        -0.000512     -0.000463      0.000550
      9.44970      5.99347      4.32695         0.001025     -0.000756      0.000467
      1.73132      9.85096      4.33013        -0.000376      0.001287      0.000081
      5.59018      9.85165      4.32695        -0.000836      0.001145      0.000463
      9.44904      9.85234      4.32377         0.001335      0.001448      0.000234
     -0.19120      0.20871     10.71967         0.000427      0.000528     -0.002745
      3.66767      0.20940     10.71649         0.000134      0.000175     -0.000074
      7.52653      0.21009     10.71331        -0.000618      0.000578     -0.001561
     -0.19186      4.06758     10.71649         0.000088      0.000164     -0.000089
      3.66700      4.06827     10.71331         0.000168      0.000191      0.000125
      7.52586      4.06896     10.71013        -0.000227      0.000181      0.000040
     -0.19252      7.92644     10.71331         0.000469     -0.000486     -0.001561
      3.66634      7.92713     10.71013         0.000141     -0.000092      0.000063
      7.52520      7.92782     10.70695        -0.000676     -0.000561     -0.000559
 -----------------------------------------------------------------------------------
    total drift:                                0.007620     -0.007614      0.000138


--------------------------------------------------------------------------------------------------------



  FREE ENERGIE OF THE ION-ELECTRON SYSTEM (eV)
  ---------------------------------------------------
  free  energy   TOTEN  =      -657.90142742 eV

  energy  without entropy=     -657.90142742  energy(sigma->0) =     -657.90142742
 


--------------------------------------------------------------------------------------------------------


    POTLOK:  cpu time    2.1510: real time    2.1837


--------------------------------------------------------------------------------------------------------


     LOOP+:  cpu time 6225.8864: real time 6285.9344
    4ORBIT:  cpu time    0.0000: real time    0.0000

 total amount of memory used by VASP MPI-rank0  2010615. kBytes
=======================================================================

   base      :      30000. kBytes
   nonl-proj :      83483. kBytes
   fftplans  :      59337. kBytes
   grid      :      50429. kBytes
   one-center:        653. kBytes
   wavefun   :    1786713. kBytes
 
  
  
 General timing and accounting informations for this job:
 ========================================================
  
                  Total CPU time used (sec):     6333.617
                            User time (sec):     6257.609
                          System time (sec):       76.008
                         Elapsed time (sec):     6396.255
  
                   Maximum memory used (kb):     2463056.
                   Average memory used (kb):           0.
  
                          Minor page faults:      1052160
                          Major page faults:           38
                 Voluntary context switches:        56480
