  88  88   0   0
  0.1431748E+02  0.1111223E-08  0.1111745E-08  0.1056954E-08  0.5000000E-15
  1.000000000000000E-004
  CAR 
 unknown system                          
     17.92118540    -54.34013217  301      5.21523706      1.00000000
    -54.340  0.0000E+00  0.0000E+00  0.0000E+00  0.0000E+00
    -54.099  0.0000E+00  0.0000E+00  0.0000E+00  0.0000E+00
    -53.858  0.0000E+00  0.0000E+00  0.0000E+00  0.0000E+00
    -53.618  0.0000E+00  0.0000E+00  0.0000E+00  0.0000E+00
    -53.377  0.0000E+00  0.0000E+00  0.0000E+00  0.0000E+00
    -53.136  0.0000E+00  0.0000E+00  0.0000E+00  0.0000E+00
    -52.895  0.0000E+00  0.0000E+00  0.0000E+00  0.0000E+00
    -52.654  0.0000E+00  0.0000E+00  0.0000E+00  0.0000E+00
    -52.413  0.0000E+00  0.0000E+00  0.0000E+00  0.0000E+00
    -52.172  0.0000E+00  0.0000E+00  0.0000E+00  0.0000E+00
    -51.931  0.0000E+00  0.0000E+00  0.0000E+00  0.0000E+00
    -51.691  0.0000E+00  0.0000E+00  0.0000E+00  0.0000E+00
    -51.450  0.0000E+00  0.0000E+00  0.0000E+00  0.0000E+00
    -51.209  0.4263E-03  0.0000E+00  0.1027E-03  0.0000E+00
    -50.968  0.1311E+03  0.0000E+00  0.3157E+02  0.0000E+00
    -50.727  0.1784E+01  0.0000E+00  0.3200E+02  0.0000E+00
    -50.486  0.0000E+00  0.0000E+00  0.3200E+02  0.0000E+00
    -50.245  0.0000E+00  0.0000E+00  0.3200E+02  0.0000E+00
    -50.004  0.0000E+00  0.0000E+00  0.3200E+02  0.0000E+00
    -49.764  0.2235E+01  0.0000E+00  0.3254E+02  0.0000E+00
    -49.523  0.2378E+03  0.0000E+00  0.8981E+02  0.0000E+00
    -49.282  0.2569E+02  0.0000E+00  0.9600E+02  0.0000E+00
    -49.041  0.0000E+00  0.0000E+00  0.9600E+02  0.0000E+00
    -48.800  0.0000E+00  0.0000E+00  0.9600E+02  0.0000E+00
    -48.559  0.0000E+00  0.0000E+00  0.9600E+02  0.0000E+00
    -48.318  0.0000E+00  0.0000E+00  0.9600E+02  0.0000E+00
    -48.077  0.0000E+00  0.0000E+00  0.9600E+02  0.0000E+00
    -47.837  0.0000E+00  0.0000E+00  0.9600E+02  0.0000E+00
    -47.596  0.0000E+00  0.0000E+00  0.9600E+02  0.0000E+00
    -47.355  0.0000E+00  0.0000E+00  0.9600E+02  0.0000E+00
    -47.114  0.0000E+00  0.0000E+00  0.9600E+02  0.0000E+00
    -46.873  0.0000E+00  0.0000E+00  0.9600E+02  0.0000E+00
    -46.632  0.0000E+00  0.0000E+00  0.9600E+02  0.0000E+00
    -46.391  0.0000E+00  0.4188E+00  0.9600E+02  0.1009E+00
    -46.151  0.0000E+00  0.1324E+03  0.9600E+02  0.3199E+02
    -45.910  0.0000E+00  0.6310E+02  0.9600E+02  0.4719E+02
    -45.669  0.0000E+00  0.2026E+03  0.9600E+02  0.9600E+02
    -45.428  0.0000E+00  0.0000E+00  0.9600E+02  0.9600E+02
    -45.187  0.0000E+00  0.0000E+00  0.9600E+02  0.9600E+02
    -44.946  0.0000E+00  0.0000E+00  0.9600E+02  0.9600E+02
    -44.705  0.0000E+00  0.0000E+00  0.9600E+02  0.9600E+02
    -44.464  0.0000E+00  0.0000E+00  0.9600E+02  0.9600E+02
    -44.224  0.0000E+00  0.0000E+00  0.9600E+02  0.9600E+02
    -43.983  0.0000E+00  0.0000E+00  0.9600E+02  0.9600E+02
    -43.742  0.0000E+00  0.0000E+00  0.9600E+02  0.9600E+02
    -43.501  0.0000E+00  0.0000E+00  0.9600E+02  0.9600E+02
    -43.260  0.0000E+00  0.0000E+00  0.9600E+02  0.9600E+02
    -43.019  0.0000E+00  0.0000E+00  0.9600E+02  0.9600E+02
    -42.778  0.0000E+00  0.0000E+00  0.9600E+02  0.9600E+02
    -42.537  0.0000E+00  0.0000E+00  0.9600E+02  0.9600E+02
    -42.297  0.0000E+00  0.0000E+00  0.9600E+02  0.9600E+02
    -42.056  0.0000E+00  0.0000E+00  0.9600E+02  0.9600E+02
    -41.815  0.0000E+00  0.0000E+00  0.9600E+02  0.9600E+02
    -41.574  0.0000E+00  0.0000E+00  0.9600E+02  0.9600E+02
    -41.333  0.0000E+00  0.0000E+00  0.9600E+02  0.9600E+02
    -41.092  0.0000E+00  0.0000E+00  0.9600E+02  0.9600E+02
    -40.851  0.0000E+00  0.0000E+00  0.9600E+02  0.9600E+02
    -40.610  0.0000E+00  0.0000E+00  0.9600E+02  0.9600E+02
    -40.370  0.0000E+00  0.0000E+00  0.9600E+02  0.9600E+02
    -40.129  0.9662E-11  0.6004E-11  0.9600E+02  0.9600E+02
    -39.888  0.2066E+02  0.1918E+02  0.1010E+03  0.1006E+03
    -39.647  0.4577E+02  0.4724E+02  0.1120E+03  0.1120E+03
    -39.406  0.0000E+00  0.0000E+00  0.1120E+03  0.1120E+03
    -39.165  0.0000E+00  0.0000E+00  0.1120E+03  0.1120E+03
    -38.924  0.0000E+00  0.0000E+00  0.1120E+03  0.1120E+03
    -38.684  0.0000E+00  0.0000E+00  0.1120E+03  0.1120E+03
    -38.443  0.0000E+00  0.0000E+00  0.1120E+03  0.1120E+03
    -38.202  0.0000E+00  0.0000E+00  0.1120E+03  0.1120E+03
    -37.961  0.0000E+00  0.0000E+00  0.1120E+03  0.1120E+03
    -37.720  0.0000E+00  0.0000E+00  0.1120E+03  0.1120E+03
    -37.479  0.0000E+00  0.0000E+00  0.1120E+03  0.1120E+03
    -37.238  0.0000E+00  0.0000E+00  0.1120E+03  0.1120E+03
    -36.997  0.0000E+00  0.0000E+00  0.1120E+03  0.1120E+03
    -36.757  0.0000E+00  0.0000E+00  0.1120E+03  0.1120E+03
    -36.516  0.0000E+00  0.0000E+00  0.1120E+03  0.1120E+03
    -36.275  0.0000E+00  0.0000E+00  0.1120E+03  0.1120E+03
    -36.034  0.0000E+00  0.0000E+00  0.1120E+03  0.1120E+03
    -35.793  0.0000E+00  0.0000E+00  0.1120E+03  0.1120E+03
    -35.552  0.0000E+00  0.0000E+00  0.1120E+03  0.1120E+03
    -35.311  0.0000E+00  0.0000E+00  0.1120E+03  0.1120E+03
    -35.070  0.0000E+00  0.0000E+00  0.1120E+03  0.1120E+03
    -34.830  0.0000E+00  0.0000E+00  0.1120E+03  0.1120E+03
    -34.589  0.0000E+00  0.0000E+00  0.1120E+03  0.1120E+03
    -34.348  0.0000E+00  0.0000E+00  0.1120E+03  0.1120E+03
    -34.107  0.0000E+00  0.0000E+00  0.1120E+03  0.1120E+03
    -33.866  0.0000E+00  0.0000E+00  0.1120E+03  0.1120E+03
    -33.625  0.0000E+00  0.0000E+00  0.1120E+03  0.1120E+03
    -33.384  0.0000E+00  0.0000E+00  0.1120E+03  0.1120E+03
    -33.143  0.0000E+00  0.0000E+00  0.1120E+03  0.1120E+03
    -32.903  0.0000E+00  0.0000E+00  0.1120E+03  0.1120E+03
    -32.662  0.0000E+00  0.0000E+00  0.1120E+03  0.1120E+03
    -32.421  0.0000E+00  0.0000E+00  0.1120E+03  0.1120E+03
    -32.180  0.0000E+00  0.0000E+00  0.1120E+03  0.1120E+03
    -31.939  0.0000E+00  0.0000E+00  0.1120E+03  0.1120E+03
    -31.698  0.0000E+00  0.0000E+00  0.1120E+03  0.1120E+03
    -31.457  0.0000E+00  0.0000E+00  0.1120E+03  0.1120E+03
    -31.217  0.0000E+00  0.0000E+00  0.1120E+03  0.1120E+03
    -30.976  0.0000E+00  0.0000E+00  0.1120E+03  0.1120E+03
    -30.735  0.0000E+00  0.0000E+00  0.1120E+03  0.1120E+03
    -30.494  0.0000E+00  0.0000E+00  0.1120E+03  0.1120E+03
    -30.253  0.0000E+00  0.0000E+00  0.1120E+03  0.1120E+03
    -30.012  0.0000E+00  0.0000E+00  0.1120E+03  0.1120E+03
    -29.771  0.0000E+00  0.0000E+00  0.1120E+03  0.1120E+03
    -29.530  0.0000E+00  0.0000E+00  0.1120E+03  0.1120E+03
    -29.290  0.0000E+00  0.0000E+00  0.1120E+03  0.1120E+03
    -29.049  0.0000E+00  0.0000E+00  0.1120E+03  0.1120E+03
    -28.808  0.0000E+00  0.0000E+00  0.1120E+03  0.1120E+03
    -28.567  0.0000E+00  0.0000E+00  0.1120E+03  0.1120E+03
    -28.326  0.0000E+00  0.0000E+00  0.1120E+03  0.1120E+03
    -28.085  0.0000E+00  0.0000E+00  0.1120E+03  0.1120E+03
    -27.844  0.0000E+00  0.0000E+00  0.1120E+03  0.1120E+03
    -27.603  0.0000E+00  0.0000E+00  0.1120E+03  0.1120E+03
    -27.363  0.0000E+00  0.0000E+00  0.1120E+03  0.1120E+03
    -27.122  0.0000E+00  0.0000E+00  0.1120E+03  0.1120E+03
    -26.881  0.0000E+00  0.0000E+00  0.1120E+03  0.1120E+03
    -26.640  0.0000E+00  0.0000E+00  0.1120E+03  0.1120E+03
    -26.399  0.0000E+00  0.0000E+00  0.1120E+03  0.1120E+03
    -26.158  0.0000E+00  0.0000E+00  0.1120E+03  0.1120E+03
    -25.917  0.0000E+00  0.0000E+00  0.1120E+03  0.1120E+03
    -25.676  0.0000E+00  0.0000E+00  0.1120E+03  0.1120E+03
    -25.436  0.0000E+00  0.0000E+00  0.1120E+03  0.1120E+03
    -25.195  0.0000E+00  0.0000E+00  0.1120E+03  0.1120E+03
    -24.954  0.0000E+00  0.0000E+00  0.1120E+03  0.1120E+03
    -24.713  0.0000E+00  0.0000E+00  0.1120E+03  0.1120E+03
    -24.472  0.0000E+00  0.0000E+00  0.1120E+03  0.1120E+03
    -24.231  0.0000E+00  0.0000E+00  0.1120E+03  0.1120E+03
    -23.990  0.0000E+00  0.0000E+00  0.1120E+03  0.1120E+03
    -23.750  0.0000E+00  0.0000E+00  0.1120E+03  0.1120E+03
    -23.509  0.0000E+00  0.0000E+00  0.1120E+03  0.1120E+03
    -23.268  0.0000E+00  0.0000E+00  0.1120E+03  0.1120E+03
    -23.027  0.0000E+00  0.0000E+00  0.1120E+03  0.1120E+03
    -22.786  0.0000E+00  0.0000E+00  0.1120E+03  0.1120E+03
    -22.545  0.0000E+00  0.0000E+00  0.1120E+03  0.1120E+03
    -22.304  0.0000E+00  0.0000E+00  0.1120E+03  0.1120E+03
    -22.063  0.0000E+00  0.0000E+00  0.1120E+03  0.1120E+03
    -21.823  0.0000E+00  0.0000E+00  0.1120E+03  0.1120E+03
    -21.582  0.0000E+00  0.0000E+00  0.1120E+03  0.1120E+03
    -21.341  0.0000E+00  0.0000E+00  0.1120E+03  0.1120E+03
    -21.100  0.0000E+00  0.0000E+00  0.1120E+03  0.1120E+03
    -20.859  0.0000E+00  0.0000E+00  0.1120E+03  0.1120E+03
    -20.618  0.0000E+00  0.0000E+00  0.1120E+03  0.1120E+03
    -20.377  0.0000E+00  0.0000E+00  0.1120E+03  0.1120E+03
    -20.136  0.0000E+00  0.0000E+00  0.1120E+03  0.1120E+03
    -19.896  0.0000E+00  0.0000E+00  0.1120E+03  0.1120E+03
    -19.655  0.0000E+00  0.0000E+00  0.1120E+03  0.1120E+03
    -19.414  0.0000E+00  0.0000E+00  0.1120E+03  0.1120E+03
    -19.173  0.0000E+00  0.0000E+00  0.1120E+03  0.1120E+03
    -18.932  0.0000E+00  0.0000E+00  0.1120E+03  0.1120E+03
    -18.691  0.0000E+00  0.0000E+00  0.1120E+03  0.1120E+03
    -18.450  0.0000E+00  0.0000E+00  0.1120E+03  0.1120E+03
    -18.209  0.0000E+00  0.0000E+00  0.1120E+03  0.1120E+03
    -17.969  0.0000E+00  0.0000E+00  0.1120E+03  0.1120E+03
    -17.728  0.0000E+00  0.0000E+00  0.1120E+03  0.1120E+03
    -17.487  0.0000E+00  0.0000E+00  0.1120E+03  0.1120E+03
    -17.246  0.0000E+00  0.0000E+00  0.1120E+03  0.1120E+03
    -17.005  0.0000E+00  0.0000E+00  0.1120E+03  0.1120E+03
    -16.764  0.0000E+00  0.0000E+00  0.1120E+03  0.1120E+03
    -16.523  0.0000E+00  0.0000E+00  0.1120E+03  0.1120E+03
    -16.283  0.0000E+00  0.0000E+00  0.1120E+03  0.1120E+03
    -16.042  0.0000E+00  0.0000E+00  0.1120E+03  0.1120E+03
    -15.801  0.0000E+00  0.0000E+00  0.1120E+03  0.1120E+03
    -15.560  0.0000E+00  0.0000E+00  0.1120E+03  0.1120E+03
    -15.319  0.0000E+00  0.0000E+00  0.1120E+03  0.1120E+03
    -15.078  0.0000E+00  0.0000E+00  0.1120E+03  0.1120E+03
    -14.837  0.0000E+00  0.0000E+00  0.1120E+03  0.1120E+03
    -14.596  0.0000E+00  0.0000E+00  0.1120E+03  0.1120E+03
    -14.356  0.0000E+00  0.0000E+00  0.1120E+03  0.1120E+03
    -14.115  0.0000E+00  0.0000E+00  0.1120E+03  0.1120E+03
    -13.874  0.0000E+00  0.0000E+00  0.1120E+03  0.1120E+03
    -13.633  0.0000E+00  0.0000E+00  0.1120E+03  0.1120E+03
    -13.392  0.2571E-05  0.0000E+00  0.1120E+03  0.1120E+03
    -13.151  0.2117E+02  0.0000E+00  0.1171E+03  0.1120E+03
    -12.910  0.4439E+02  0.1938E-01  0.1278E+03  0.1120E+03
    -12.669  0.8584E+00  0.4501E+02  0.1280E+03  0.1228E+03
    -12.429  0.0000E+00  0.2140E+02  0.1280E+03  0.1280E+03
    -12.188  0.0000E+00  0.0000E+00  0.1280E+03  0.1280E+03
    -11.947  0.0000E+00  0.0000E+00  0.1280E+03  0.1280E+03
    -11.706  0.0000E+00  0.0000E+00  0.1280E+03  0.1280E+03
    -11.465  0.0000E+00  0.0000E+00  0.1280E+03  0.1280E+03
    -11.224  0.0000E+00  0.0000E+00  0.1280E+03  0.1280E+03
    -10.983  0.0000E+00  0.0000E+00  0.1280E+03  0.1280E+03
    -10.742  0.0000E+00  0.0000E+00  0.1280E+03  0.1280E+03
    -10.502  0.0000E+00  0.0000E+00  0.1280E+03  0.1280E+03
    -10.261  0.0000E+00  0.0000E+00  0.1280E+03  0.1280E+03
    -10.020  0.0000E+00  0.0000E+00  0.1280E+03  0.1280E+03
     -9.779  0.0000E+00  0.0000E+00  0.1280E+03  0.1280E+03
     -9.538  0.0000E+00  0.0000E+00  0.1280E+03  0.1280E+03
     -9.297  0.0000E+00  0.0000E+00  0.1280E+03  0.1280E+03
     -9.056  0.0000E+00  0.0000E+00  0.1280E+03  0.1280E+03
     -8.816  0.0000E+00  0.0000E+00  0.1280E+03  0.1280E+03
     -8.575  0.0000E+00  0.0000E+00  0.1280E+03  0.1280E+03
     -8.334  0.0000E+00  0.0000E+00  0.1280E+03  0.1280E+03
     -8.093  0.0000E+00  0.0000E+00  0.1280E+03  0.1280E+03
     -7.852  0.4138E-09  0.0000E+00  0.1280E+03  0.1280E+03
     -7.611  0.7705E+00  0.8001E-10  0.1282E+03  0.1280E+03
     -7.370  0.1349E+02  0.6946E+00  0.1314E+03  0.1282E+03
     -7.129  0.3021E+02  0.1484E+02  0.1387E+03  0.1317E+03
     -6.889  0.3553E+02  0.2928E+02  0.1473E+03  0.1388E+03
     -6.648  0.1964E+02  0.2716E+02  0.1520E+03  0.1453E+03
     -6.407  0.3874E-05  0.2764E+02  0.1520E+03  0.1520E+03
     -6.166  0.0000E+00  0.2837E-01  0.1520E+03  0.1520E+03
     -5.925  0.0000E+00  0.0000E+00  0.1520E+03  0.1520E+03
     -5.684  0.0000E+00  0.0000E+00  0.1520E+03  0.1520E+03
     -5.443  0.0000E+00  0.0000E+00  0.1520E+03  0.1520E+03
     -5.202  0.0000E+00  0.0000E+00  0.1520E+03  0.1520E+03
     -4.962  0.0000E+00  0.0000E+00  0.1520E+03  0.1520E+03
     -4.721  0.0000E+00  0.0000E+00  0.1520E+03  0.1520E+03
     -4.480  0.0000E+00  0.0000E+00  0.1520E+03  0.1520E+03
     -4.239  0.0000E+00  0.0000E+00  0.1520E+03  0.1520E+03
     -3.998  0.0000E+00  0.0000E+00  0.1520E+03  0.1520E+03
     -3.757  0.0000E+00  0.0000E+00  0.1520E+03  0.1520E+03
     -3.516  0.0000E+00  0.0000E+00  0.1520E+03  0.1520E+03
     -3.275  0.0000E+00  0.0000E+00  0.1520E+03  0.1520E+03
     -3.035  0.0000E+00  0.0000E+00  0.1520E+03  0.1520E+03
     -2.794  0.0000E+00  0.0000E+00  0.1520E+03  0.1520E+03
     -2.553  0.0000E+00  0.0000E+00  0.1520E+03  0.1520E+03
     -2.312  0.0000E+00  0.0000E+00  0.1520E+03  0.1520E+03
     -2.071  0.1004E-03  0.0000E+00  0.1520E+03  0.1520E+03
     -1.830  0.1726E+02  0.0000E+00  0.1562E+03  0.1520E+03
     -1.589  0.1908E+02  0.0000E+00  0.1608E+03  0.1520E+03
     -1.348  0.1442E+02  0.0000E+00  0.1642E+03  0.1520E+03
     -1.108  0.1755E+02  0.0000E+00  0.1685E+03  0.1520E+03
     -0.867  0.4727E+02  0.0000E+00  0.1798E+03  0.1520E+03
     -0.626  0.5916E+02  0.4315E-05  0.1941E+03  0.1520E+03
     -0.385  0.3885E+02  0.5038E+01  0.2035E+03  0.1532E+03
     -0.144  0.6903E+02  0.2022E+02  0.2201E+03  0.1581E+03
      0.097  0.7323E+02  0.1232E+02  0.2377E+03  0.1611E+03
      0.338  0.7771E+02  0.1903E+02  0.2564E+03  0.1656E+03
      0.578  0.7012E+02  0.2978E+02  0.2733E+03  0.1728E+03
      0.819  0.5368E+02  0.3967E+02  0.2863E+03  0.1824E+03
      1.060  0.3622E+02  0.3725E+02  0.2950E+03  0.1913E+03
      1.301  0.3094E+02  0.3039E+02  0.3024E+03  0.1987E+03
      1.542  0.4496E+02  0.2097E+02  0.3133E+03  0.2037E+03
      1.783  0.4363E+02  0.2867E+02  0.3238E+03  0.2106E+03
      2.024  0.6928E+02  0.3775E+02  0.3405E+03  0.2197E+03
      2.265  0.5564E+02  0.2645E+02  0.3539E+03  0.2261E+03
      2.505  0.2738E+02  0.2718E+02  0.3605E+03  0.2326E+03
      2.746  0.4296E+02  0.3198E+02  0.3708E+03  0.2403E+03
      2.987  0.2828E+02  0.4487E+02  0.3776E+03  0.2511E+03
      3.228  0.8846E+01  0.4532E+02  0.3797E+03  0.2621E+03
      3.469  0.2914E+02  0.3050E+02  0.3868E+03  0.2694E+03
      3.710  0.2645E+02  0.1186E+02  0.3931E+03  0.2723E+03
      3.951  0.3135E+02  0.1917E+02  0.4007E+03  0.2769E+03
      4.192  0.3590E+02  0.5159E+02  0.4093E+03  0.2893E+03
      4.432  0.3639E+02  0.4581E+02  0.4181E+03  0.3003E+03
      4.673  0.2985E+02  0.1520E+02  0.4253E+03  0.3040E+03
      4.914  0.2541E+02  0.1590E-02  0.4314E+03  0.3040E+03
      5.155  0.2450E+01  0.0000E+00  0.4320E+03  0.3040E+03
      5.396  0.0000E+00  0.0000E+00  0.4320E+03  0.3040E+03
      5.637  0.0000E+00  0.0000E+00  0.4320E+03  0.3040E+03
      5.878  0.0000E+00  0.0000E+00  0.4320E+03  0.3040E+03
      6.119  0.0000E+00  0.2823E-08  0.4320E+03  0.3040E+03
      6.359  0.0000E+00  0.4793E+00  0.4320E+03  0.3041E+03
      6.600  0.0000E+00  0.4226E+01  0.4320E+03  0.3051E+03
      6.841  0.0000E+00  0.8156E+01  0.4320E+03  0.3071E+03
      7.082  0.9978E-14  0.2053E+02  0.4320E+03  0.3120E+03
      7.323  0.4250E-01  0.4501E+02  0.4320E+03  0.3229E+03
      7.564  0.1113E+00  0.5438E+02  0.4320E+03  0.3360E+03
      7.805  0.3219E+00  0.6274E+02  0.4321E+03  0.3511E+03
      8.045  0.6885E+00  0.6647E+02  0.4323E+03  0.3671E+03
      8.286  0.2314E+01  0.7071E+02  0.4328E+03  0.3841E+03
      8.527  0.2672E+01  0.5832E+02  0.4335E+03  0.3982E+03
      8.768  0.9048E+01  0.5884E+02  0.4357E+03  0.4124E+03
      9.009  0.1277E+02  0.4622E+02  0.4387E+03  0.4235E+03
      9.250  0.1329E+02  0.2867E+02  0.4419E+03  0.4304E+03
      9.491  0.1816E+02  0.8399E+01  0.4463E+03  0.4324E+03
      9.732  0.1603E+02  0.3309E+01  0.4502E+03  0.4332E+03
      9.972  0.1573E+02  0.8565E+01  0.4540E+03  0.4353E+03
     10.213  0.2250E+02  0.1896E+02  0.4594E+03  0.4398E+03
     10.454  0.1485E+02  0.1799E+02  0.4630E+03  0.4442E+03
     10.695  0.1517E+02  0.1753E+02  0.4666E+03  0.4484E+03
     10.936  0.1350E+02  0.2741E+02  0.4699E+03  0.4550E+03
     11.177  0.2076E+02  0.1893E+02  0.4749E+03  0.4596E+03
     11.418  0.2529E+02  0.2416E+02  0.4810E+03  0.4654E+03
     11.659  0.2677E+02  0.1417E+02  0.4874E+03  0.4688E+03
     11.899  0.2532E+02  0.1400E+02  0.4935E+03  0.4722E+03
     12.140  0.3279E+02  0.1657E+02  0.5014E+03  0.4762E+03
     12.381  0.1978E+02  0.3760E+02  0.5062E+03  0.4852E+03
     12.622  0.2310E+02  0.3239E+02  0.5117E+03  0.4930E+03
     12.863  0.2172E+02  0.2892E+02  0.5170E+03  0.5000E+03
     13.104  0.1971E+02  0.2017E+02  0.5217E+03  0.5048E+03
     13.345  0.2491E+02  0.2277E+02  0.5277E+03  0.5103E+03
     13.586  0.2325E+02  0.2734E+02  0.5333E+03  0.5169E+03
     13.826  0.1294E+02  0.2376E+02  0.5364E+03  0.5226E+03
     14.067  0.6524E+01  0.2601E+02  0.5380E+03  0.5289E+03
     14.308  0.7122E-02  0.1870E+02  0.5380E+03  0.5334E+03
     14.549  0.0000E+00  0.1593E+02  0.5380E+03  0.5372E+03
     14.790  0.0000E+00  0.3152E+01  0.5380E+03  0.5380E+03
     15.031  0.0000E+00  0.3773E-05  0.5380E+03  0.5380E+03
     15.272  0.0000E+00  0.0000E+00  0.5380E+03  0.5380E+03
     15.512  0.0000E+00  0.0000E+00  0.5380E+03  0.5380E+03
     15.753  0.0000E+00  0.0000E+00  0.5380E+03  0.5380E+03
     15.994  0.0000E+00  0.0000E+00  0.5380E+03  0.5380E+03
     16.235  0.0000E+00  0.0000E+00  0.5380E+03  0.5380E+03
     16.476  0.0000E+00  0.0000E+00  0.5380E+03  0.5380E+03
     16.717  0.0000E+00  0.0000E+00  0.5380E+03  0.5380E+03
     16.958  0.0000E+00  0.0000E+00  0.5380E+03  0.5380E+03
     17.199  0.0000E+00  0.0000E+00  0.5380E+03  0.5380E+03
     17.439  0.0000E+00  0.0000E+00  0.5380E+03  0.5380E+03
     17.680  0.0000E+00  0.0000E+00  0.5380E+03  0.5380E+03
     17.921  0.0000E+00  0.0000E+00  0.5380E+03  0.5380E+03
