 144 144   0   0
  0.1325381E+02  0.1546422E-08  0.1214491E-08  0.1054520E-08  0.5000000E-15
  1.000000000000000E-004
  CAR 
 unknown system                          
     17.01220817    -54.87479133  301      5.09094742      1.00000000
    -54.875  0.0000E+00  0.0000E+00  0.0000E+00  0.0000E+00
    -54.635  0.0000E+00  0.0000E+00  0.0000E+00  0.0000E+00
    -54.396  0.0000E+00  0.0000E+00  0.0000E+00  0.0000E+00
    -54.156  0.0000E+00  0.0000E+00  0.0000E+00  0.0000E+00
    -53.916  0.0000E+00  0.0000E+00  0.0000E+00  0.0000E+00
    -53.677  0.0000E+00  0.0000E+00  0.0000E+00  0.0000E+00
    -53.437  0.0000E+00  0.0000E+00  0.0000E+00  0.0000E+00
    -53.197  0.0000E+00  0.0000E+00  0.0000E+00  0.0000E+00
    -52.958  0.0000E+00  0.0000E+00  0.0000E+00  0.0000E+00
    -52.718  0.0000E+00  0.0000E+00  0.0000E+00  0.0000E+00
    -52.479  0.0000E+00  0.0000E+00  0.0000E+00  0.0000E+00
    -52.239  0.0000E+00  0.0000E+00  0.0000E+00  0.0000E+00
    -51.999  0.0000E+00  0.0000E+00  0.0000E+00  0.0000E+00
    -51.760  0.2512E-03  0.0000E+00  0.6020E-04  0.0000E+00
    -51.520  0.4971E+02  0.0000E+00  0.1191E+02  0.0000E+00
    -51.280  0.8457E+02  0.0000E+00  0.3218E+02  0.0000E+00
    -51.041  0.1596E+02  0.0000E+00  0.3600E+02  0.0000E+00
    -50.801  0.0000E+00  0.0000E+00  0.3600E+02  0.0000E+00
    -50.562  0.0000E+00  0.0000E+00  0.3600E+02  0.0000E+00
    -50.322  0.8547E-04  0.0000E+00  0.3600E+02  0.0000E+00
    -50.082  0.6569E+02  0.0000E+00  0.5174E+02  0.0000E+00
    -49.843  0.2069E+03  0.0000E+00  0.1013E+03  0.0000E+00
    -49.603  0.2789E+02  0.0000E+00  0.1080E+03  0.0000E+00
    -49.363  0.0000E+00  0.0000E+00  0.1080E+03  0.0000E+00
    -49.124  0.0000E+00  0.0000E+00  0.1080E+03  0.0000E+00
    -48.884  0.0000E+00  0.0000E+00  0.1080E+03  0.0000E+00
    -48.645  0.0000E+00  0.0000E+00  0.1080E+03  0.0000E+00
    -48.405  0.0000E+00  0.0000E+00  0.1080E+03  0.0000E+00
    -48.165  0.0000E+00  0.0000E+00  0.1080E+03  0.0000E+00
    -47.926  0.0000E+00  0.0000E+00  0.1080E+03  0.0000E+00
    -47.686  0.0000E+00  0.0000E+00  0.1080E+03  0.0000E+00
    -47.446  0.0000E+00  0.0000E+00  0.1080E+03  0.0000E+00
    -47.207  0.0000E+00  0.0000E+00  0.1080E+03  0.0000E+00
    -46.967  0.0000E+00  0.5242E-01  0.1080E+03  0.1256E-01
    -46.728  0.0000E+00  0.5080E+02  0.1080E+03  0.1218E+02
    -46.488  0.0000E+00  0.9474E+02  0.1080E+03  0.3489E+02
    -46.248  0.0000E+00  0.1441E+03  0.1080E+03  0.6941E+02
    -46.009  0.0000E+00  0.1610E+03  0.1080E+03  0.1080E+03
    -45.769  0.0000E+00  0.6789E-02  0.1080E+03  0.1080E+03
    -45.529  0.0000E+00  0.0000E+00  0.1080E+03  0.1080E+03
    -45.290  0.0000E+00  0.0000E+00  0.1080E+03  0.1080E+03
    -45.050  0.0000E+00  0.0000E+00  0.1080E+03  0.1080E+03
    -44.811  0.0000E+00  0.0000E+00  0.1080E+03  0.1080E+03
    -44.571  0.0000E+00  0.0000E+00  0.1080E+03  0.1080E+03
    -44.331  0.0000E+00  0.0000E+00  0.1080E+03  0.1080E+03
    -44.092  0.0000E+00  0.0000E+00  0.1080E+03  0.1080E+03
    -43.852  0.0000E+00  0.0000E+00  0.1080E+03  0.1080E+03
    -43.612  0.0000E+00  0.0000E+00  0.1080E+03  0.1080E+03
    -43.373  0.0000E+00  0.0000E+00  0.1080E+03  0.1080E+03
    -43.133  0.0000E+00  0.0000E+00  0.1080E+03  0.1080E+03
    -42.894  0.0000E+00  0.0000E+00  0.1080E+03  0.1080E+03
    -42.654  0.0000E+00  0.0000E+00  0.1080E+03  0.1080E+03
    -42.414  0.0000E+00  0.0000E+00  0.1080E+03  0.1080E+03
    -42.175  0.0000E+00  0.0000E+00  0.1080E+03  0.1080E+03
    -41.935  0.0000E+00  0.0000E+00  0.1080E+03  0.1080E+03
    -41.696  0.0000E+00  0.0000E+00  0.1080E+03  0.1080E+03
    -41.456  0.0000E+00  0.0000E+00  0.1080E+03  0.1080E+03
    -41.216  0.0000E+00  0.0000E+00  0.1080E+03  0.1080E+03
    -40.977  0.0000E+00  0.0000E+00  0.1080E+03  0.1080E+03
    -40.737  0.8121E-09  0.2622E-09  0.1080E+03  0.1080E+03
    -40.497  0.2752E+02  0.2424E+02  0.1146E+03  0.1138E+03
    -40.258  0.4698E+02  0.5063E+02  0.1258E+03  0.1259E+03
    -40.018  0.9990E+02  0.9988E+02  0.1498E+03  0.1499E+03
    -39.779  0.2593E+02  0.2557E+02  0.1560E+03  0.1560E+03
    -39.539  0.0000E+00  0.0000E+00  0.1560E+03  0.1560E+03
    -39.299  0.0000E+00  0.0000E+00  0.1560E+03  0.1560E+03
    -39.060  0.0000E+00  0.0000E+00  0.1560E+03  0.1560E+03
    -38.820  0.0000E+00  0.0000E+00  0.1560E+03  0.1560E+03
    -38.580  0.0000E+00  0.0000E+00  0.1560E+03  0.1560E+03
    -38.341  0.0000E+00  0.0000E+00  0.1560E+03  0.1560E+03
    -38.101  0.0000E+00  0.0000E+00  0.1560E+03  0.1560E+03
    -37.862  0.0000E+00  0.0000E+00  0.1560E+03  0.1560E+03
    -37.622  0.0000E+00  0.0000E+00  0.1560E+03  0.1560E+03
    -37.382  0.0000E+00  0.0000E+00  0.1560E+03  0.1560E+03
    -37.143  0.0000E+00  0.0000E+00  0.1560E+03  0.1560E+03
    -36.903  0.0000E+00  0.0000E+00  0.1560E+03  0.1560E+03
    -36.663  0.0000E+00  0.0000E+00  0.1560E+03  0.1560E+03
    -36.424  0.0000E+00  0.0000E+00  0.1560E+03  0.1560E+03
    -36.184  0.0000E+00  0.0000E+00  0.1560E+03  0.1560E+03
    -35.945  0.0000E+00  0.0000E+00  0.1560E+03  0.1560E+03
    -35.705  0.0000E+00  0.0000E+00  0.1560E+03  0.1560E+03
    -35.465  0.0000E+00  0.0000E+00  0.1560E+03  0.1560E+03
    -35.226  0.0000E+00  0.0000E+00  0.1560E+03  0.1560E+03
    -34.986  0.0000E+00  0.0000E+00  0.1560E+03  0.1560E+03
    -34.746  0.0000E+00  0.0000E+00  0.1560E+03  0.1560E+03
    -34.507  0.0000E+00  0.0000E+00  0.1560E+03  0.1560E+03
    -34.267  0.0000E+00  0.0000E+00  0.1560E+03  0.1560E+03
    -34.028  0.0000E+00  0.0000E+00  0.1560E+03  0.1560E+03
    -33.788  0.0000E+00  0.0000E+00  0.1560E+03  0.1560E+03
    -33.548  0.0000E+00  0.0000E+00  0.1560E+03  0.1560E+03
    -33.309  0.0000E+00  0.0000E+00  0.1560E+03  0.1560E+03
    -33.069  0.0000E+00  0.0000E+00  0.1560E+03  0.1560E+03
    -32.829  0.0000E+00  0.0000E+00  0.1560E+03  0.1560E+03
    -32.590  0.0000E+00  0.0000E+00  0.1560E+03  0.1560E+03
    -32.350  0.0000E+00  0.0000E+00  0.1560E+03  0.1560E+03
    -32.111  0.0000E+00  0.0000E+00  0.1560E+03  0.1560E+03
    -31.871  0.0000E+00  0.0000E+00  0.1560E+03  0.1560E+03
    -31.631  0.0000E+00  0.0000E+00  0.1560E+03  0.1560E+03
    -31.392  0.0000E+00  0.0000E+00  0.1560E+03  0.1560E+03
    -31.152  0.0000E+00  0.0000E+00  0.1560E+03  0.1560E+03
    -30.912  0.0000E+00  0.0000E+00  0.1560E+03  0.1560E+03
    -30.673  0.0000E+00  0.0000E+00  0.1560E+03  0.1560E+03
    -30.433  0.0000E+00  0.0000E+00  0.1560E+03  0.1560E+03
    -30.194  0.0000E+00  0.0000E+00  0.1560E+03  0.1560E+03
    -29.954  0.0000E+00  0.0000E+00  0.1560E+03  0.1560E+03
    -29.714  0.0000E+00  0.0000E+00  0.1560E+03  0.1560E+03
    -29.475  0.0000E+00  0.0000E+00  0.1560E+03  0.1560E+03
    -29.235  0.0000E+00  0.0000E+00  0.1560E+03  0.1560E+03
    -28.995  0.0000E+00  0.0000E+00  0.1560E+03  0.1560E+03
    -28.756  0.0000E+00  0.0000E+00  0.1560E+03  0.1560E+03
    -28.516  0.0000E+00  0.0000E+00  0.1560E+03  0.1560E+03
    -28.277  0.0000E+00  0.0000E+00  0.1560E+03  0.1560E+03
    -28.037  0.0000E+00  0.0000E+00  0.1560E+03  0.1560E+03
    -27.797  0.0000E+00  0.0000E+00  0.1560E+03  0.1560E+03
    -27.558  0.0000E+00  0.0000E+00  0.1560E+03  0.1560E+03
    -27.318  0.0000E+00  0.0000E+00  0.1560E+03  0.1560E+03
    -27.078  0.0000E+00  0.0000E+00  0.1560E+03  0.1560E+03
    -26.839  0.0000E+00  0.0000E+00  0.1560E+03  0.1560E+03
    -26.599  0.0000E+00  0.0000E+00  0.1560E+03  0.1560E+03
    -26.360  0.0000E+00  0.0000E+00  0.1560E+03  0.1560E+03
    -26.120  0.0000E+00  0.0000E+00  0.1560E+03  0.1560E+03
    -25.880  0.0000E+00  0.0000E+00  0.1560E+03  0.1560E+03
    -25.641  0.0000E+00  0.0000E+00  0.1560E+03  0.1560E+03
    -25.401  0.0000E+00  0.0000E+00  0.1560E+03  0.1560E+03
    -25.161  0.0000E+00  0.0000E+00  0.1560E+03  0.1560E+03
    -24.922  0.0000E+00  0.0000E+00  0.1560E+03  0.1560E+03
    -24.682  0.0000E+00  0.0000E+00  0.1560E+03  0.1560E+03
    -24.443  0.0000E+00  0.0000E+00  0.1560E+03  0.1560E+03
    -24.203  0.0000E+00  0.0000E+00  0.1560E+03  0.1560E+03
    -23.963  0.0000E+00  0.0000E+00  0.1560E+03  0.1560E+03
    -23.724  0.0000E+00  0.0000E+00  0.1560E+03  0.1560E+03
    -23.484  0.0000E+00  0.0000E+00  0.1560E+03  0.1560E+03
    -23.245  0.0000E+00  0.0000E+00  0.1560E+03  0.1560E+03
    -23.005  0.0000E+00  0.0000E+00  0.1560E+03  0.1560E+03
    -22.765  0.0000E+00  0.0000E+00  0.1560E+03  0.1560E+03
    -22.526  0.0000E+00  0.0000E+00  0.1560E+03  0.1560E+03
    -22.286  0.0000E+00  0.0000E+00  0.1560E+03  0.1560E+03
    -22.046  0.0000E+00  0.0000E+00  0.1560E+03  0.1560E+03
    -21.807  0.0000E+00  0.0000E+00  0.1560E+03  0.1560E+03
    -21.567  0.0000E+00  0.0000E+00  0.1560E+03  0.1560E+03
    -21.328  0.0000E+00  0.0000E+00  0.1560E+03  0.1560E+03
    -21.088  0.0000E+00  0.0000E+00  0.1560E+03  0.1560E+03
    -20.848  0.0000E+00  0.0000E+00  0.1560E+03  0.1560E+03
    -20.609  0.0000E+00  0.0000E+00  0.1560E+03  0.1560E+03
    -20.369  0.0000E+00  0.0000E+00  0.1560E+03  0.1560E+03
    -20.129  0.0000E+00  0.0000E+00  0.1560E+03  0.1560E+03
    -19.890  0.0000E+00  0.0000E+00  0.1560E+03  0.1560E+03
    -19.650  0.0000E+00  0.0000E+00  0.1560E+03  0.1560E+03
    -19.411  0.0000E+00  0.0000E+00  0.1560E+03  0.1560E+03
    -19.171  0.0000E+00  0.0000E+00  0.1560E+03  0.1560E+03
    -18.931  0.0000E+00  0.0000E+00  0.1560E+03  0.1560E+03
    -18.692  0.0000E+00  0.0000E+00  0.1560E+03  0.1560E+03
    -18.452  0.0000E+00  0.0000E+00  0.1560E+03  0.1560E+03
    -18.212  0.0000E+00  0.0000E+00  0.1560E+03  0.1560E+03
    -17.973  0.0000E+00  0.0000E+00  0.1560E+03  0.1560E+03
    -17.733  0.0000E+00  0.0000E+00  0.1560E+03  0.1560E+03
    -17.494  0.0000E+00  0.0000E+00  0.1560E+03  0.1560E+03
    -17.254  0.0000E+00  0.0000E+00  0.1560E+03  0.1560E+03
    -17.014  0.0000E+00  0.0000E+00  0.1560E+03  0.1560E+03
    -16.775  0.0000E+00  0.0000E+00  0.1560E+03  0.1560E+03
    -16.535  0.0000E+00  0.0000E+00  0.1560E+03  0.1560E+03
    -16.295  0.0000E+00  0.0000E+00  0.1560E+03  0.1560E+03
    -16.056  0.0000E+00  0.0000E+00  0.1560E+03  0.1560E+03
    -15.816  0.0000E+00  0.0000E+00  0.1560E+03  0.1560E+03
    -15.577  0.0000E+00  0.0000E+00  0.1560E+03  0.1560E+03
    -15.337  0.0000E+00  0.0000E+00  0.1560E+03  0.1560E+03
    -15.097  0.0000E+00  0.0000E+00  0.1560E+03  0.1560E+03
    -14.858  0.0000E+00  0.0000E+00  0.1560E+03  0.1560E+03
    -14.618  0.0000E+00  0.0000E+00  0.1560E+03  0.1560E+03
    -14.378  0.0000E+00  0.0000E+00  0.1560E+03  0.1560E+03
    -14.139  0.0000E+00  0.0000E+00  0.1560E+03  0.1560E+03
    -13.899  0.1347E-02  0.0000E+00  0.1560E+03  0.1560E+03
    -13.660  0.2227E+02  0.6969E-13  0.1613E+03  0.1560E+03
    -13.420  0.2763E+02  0.1860E+01  0.1680E+03  0.1564E+03
    -13.180  0.8925E+01  0.4450E+02  0.1701E+03  0.1671E+03
    -12.941  0.3148E+02  0.4431E+01  0.1776E+03  0.1682E+03
    -12.701  0.9852E+01  0.4208E+02  0.1800E+03  0.1783E+03
    -12.461  0.0000E+00  0.7280E+01  0.1800E+03  0.1800E+03
    -12.222  0.0000E+00  0.0000E+00  0.1800E+03  0.1800E+03
    -11.982  0.0000E+00  0.0000E+00  0.1800E+03  0.1800E+03
    -11.743  0.0000E+00  0.0000E+00  0.1800E+03  0.1800E+03
    -11.503  0.0000E+00  0.0000E+00  0.1800E+03  0.1800E+03
    -11.263  0.0000E+00  0.0000E+00  0.1800E+03  0.1800E+03
    -11.024  0.0000E+00  0.0000E+00  0.1800E+03  0.1800E+03
    -10.784  0.0000E+00  0.0000E+00  0.1800E+03  0.1800E+03
    -10.544  0.0000E+00  0.0000E+00  0.1800E+03  0.1800E+03
    -10.305  0.0000E+00  0.0000E+00  0.1800E+03  0.1800E+03
    -10.065  0.0000E+00  0.0000E+00  0.1800E+03  0.1800E+03
     -9.826  0.0000E+00  0.0000E+00  0.1800E+03  0.1800E+03
     -9.586  0.0000E+00  0.0000E+00  0.1800E+03  0.1800E+03
     -9.346  0.0000E+00  0.0000E+00  0.1800E+03  0.1800E+03
     -9.107  0.0000E+00  0.0000E+00  0.1800E+03  0.1800E+03
     -8.867  0.0000E+00  0.0000E+00  0.1800E+03  0.1800E+03
     -8.627  0.0000E+00  0.0000E+00  0.1800E+03  0.1800E+03
     -8.388  0.0000E+00  0.0000E+00  0.1800E+03  0.1800E+03
     -8.148  0.0000E+00  0.0000E+00  0.1800E+03  0.1800E+03
     -7.909  0.2415E-02  0.0000E+00  0.1800E+03  0.1800E+03
     -7.669  0.9466E+01  0.1793E-01  0.1823E+03  0.1800E+03
     -7.429  0.2316E+02  0.1205E+02  0.1878E+03  0.1829E+03
     -7.190  0.5593E+02  0.2869E+02  0.2012E+03  0.1898E+03
     -6.950  0.5778E+02  0.6003E+02  0.2151E+03  0.2041E+03
     -6.711  0.3900E+01  0.4620E+02  0.2160E+03  0.2152E+03
     -6.471  0.0000E+00  0.3252E+01  0.2160E+03  0.2160E+03
     -6.231  0.0000E+00  0.0000E+00  0.2160E+03  0.2160E+03
     -5.992  0.0000E+00  0.0000E+00  0.2160E+03  0.2160E+03
     -5.752  0.0000E+00  0.0000E+00  0.2160E+03  0.2160E+03
     -5.512  0.0000E+00  0.0000E+00  0.2160E+03  0.2160E+03
     -5.273  0.0000E+00  0.0000E+00  0.2160E+03  0.2160E+03
     -5.033  0.0000E+00  0.0000E+00  0.2160E+03  0.2160E+03
     -4.794  0.0000E+00  0.0000E+00  0.2160E+03  0.2160E+03
     -4.554  0.0000E+00  0.0000E+00  0.2160E+03  0.2160E+03
     -4.314  0.0000E+00  0.0000E+00  0.2160E+03  0.2160E+03
     -4.075  0.0000E+00  0.0000E+00  0.2160E+03  0.2160E+03
     -3.835  0.0000E+00  0.0000E+00  0.2160E+03  0.2160E+03
     -3.595  0.0000E+00  0.0000E+00  0.2160E+03  0.2160E+03
     -3.356  0.0000E+00  0.0000E+00  0.2160E+03  0.2160E+03
     -3.116  0.0000E+00  0.0000E+00  0.2160E+03  0.2160E+03
     -2.877  0.2510E-13  0.0000E+00  0.2160E+03  0.2160E+03
     -2.637  0.9246E+00  0.0000E+00  0.2162E+03  0.2160E+03
     -2.397  0.1021E+02  0.0000E+00  0.2187E+03  0.2160E+03
     -2.158  0.2055E+02  0.0000E+00  0.2236E+03  0.2160E+03
     -1.918  0.1789E+01  0.0000E+00  0.2240E+03  0.2160E+03
     -1.678  0.3477E+02  0.0000E+00  0.2324E+03  0.2160E+03
     -1.439  0.1972E+02  0.6692E-15  0.2371E+03  0.2160E+03
     -1.199  0.4402E+02  0.9584E-01  0.2476E+03  0.2160E+03
     -0.960  0.4983E+02  0.4428E+01  0.2596E+03  0.2171E+03
     -0.720  0.7516E+02  0.1415E+02  0.2776E+03  0.2205E+03
     -0.480  0.1035E+03  0.1535E+02  0.3024E+03  0.2242E+03
     -0.241  0.8546E+02  0.1973E+02  0.3229E+03  0.2289E+03
     -0.001  0.1105E+03  0.4123E+02  0.3493E+03  0.2388E+03
      0.239  0.6937E+02  0.3393E+02  0.3660E+03  0.2469E+03
      0.478  0.3808E+02  0.4226E+02  0.3751E+03  0.2570E+03
      0.718  0.4572E+02  0.3359E+02  0.3860E+03  0.2651E+03
      0.957  0.4870E+02  0.5318E+02  0.3977E+03  0.2778E+03
      1.197  0.5568E+02  0.6030E+02  0.4111E+03  0.2923E+03
      1.437  0.6449E+02  0.4442E+02  0.4265E+03  0.3029E+03
      1.676  0.1008E+03  0.3995E+02  0.4507E+03  0.3125E+03
      1.916  0.5201E+02  0.3851E+02  0.4631E+03  0.3217E+03
      2.156  0.3895E+02  0.3733E+02  0.4725E+03  0.3306E+03
      2.395  0.4650E+02  0.3833E+02  0.4836E+03  0.3398E+03
      2.635  0.4783E+02  0.4964E+02  0.4951E+03  0.3517E+03
      2.874  0.4346E+02  0.6279E+02  0.5055E+03  0.3668E+03
      3.114  0.4011E+02  0.5878E+02  0.5151E+03  0.3809E+03
      3.354  0.4769E+02  0.4775E+02  0.5265E+03  0.3923E+03
      3.593  0.5246E+02  0.3031E+02  0.5391E+03  0.3996E+03
      3.833  0.4526E+02  0.6149E+02  0.5499E+03  0.4143E+03
      4.073  0.3203E+02  0.7254E+02  0.5576E+03  0.4317E+03
      4.312  0.4232E+02  0.1318E+01  0.5678E+03  0.4320E+03
      4.552  0.2347E+02  0.0000E+00  0.5734E+03  0.4320E+03
      4.791  0.1011E+02  0.0000E+00  0.5758E+03  0.4320E+03
      5.031  0.8487E+00  0.0000E+00  0.5760E+03  0.4320E+03
      5.271  0.0000E+00  0.0000E+00  0.5760E+03  0.4320E+03
      5.510  0.0000E+00  0.0000E+00  0.5760E+03  0.4320E+03
      5.750  0.0000E+00  0.0000E+00  0.5760E+03  0.4320E+03
      5.990  0.0000E+00  0.8210E-11  0.5760E+03  0.4320E+03
      6.229  0.0000E+00  0.1534E+00  0.5760E+03  0.4320E+03
      6.469  0.0000E+00  0.8281E+01  0.5760E+03  0.4340E+03
      6.708  0.0000E+00  0.3046E+02  0.5760E+03  0.4413E+03
      6.948  0.1222E-11  0.4372E+02  0.5760E+03  0.4518E+03
      7.188  0.1139E+00  0.7350E+02  0.5760E+03  0.4694E+03
      7.427  0.1256E+00  0.8065E+02  0.5761E+03  0.4887E+03
      7.667  0.9190E+00  0.6542E+02  0.5763E+03  0.5044E+03
      7.907  0.3522E+01  0.8785E+02  0.5771E+03  0.5255E+03
      8.146  0.4266E+01  0.7113E+02  0.5781E+03  0.5425E+03
      8.386  0.7101E+01  0.5422E+02  0.5798E+03  0.5555E+03
      8.625  0.1651E+02  0.3725E+02  0.5838E+03  0.5644E+03
      8.865  0.2521E+02  0.3893E+02  0.5898E+03  0.5738E+03
      9.105  0.1922E+02  0.1921E+02  0.5944E+03  0.5784E+03
      9.344  0.2551E+02  0.1405E+02  0.6006E+03  0.5817E+03
      9.584  0.3133E+02  0.2060E+02  0.6081E+03  0.5867E+03
      9.824  0.2651E+02  0.3006E+02  0.6144E+03  0.5939E+03
     10.063  0.2959E+02  0.2655E+02  0.6215E+03  0.6002E+03
     10.303  0.2277E+02  0.3492E+02  0.6270E+03  0.6086E+03
     10.542  0.2040E+02  0.3522E+02  0.6319E+03  0.6170E+03
     10.782  0.2871E+02  0.2802E+02  0.6387E+03  0.6237E+03
     11.022  0.3892E+02  0.2229E+02  0.6481E+03  0.6291E+03
     11.261  0.3943E+02  0.2171E+02  0.6575E+03  0.6343E+03
     11.501  0.3723E+02  0.3235E+02  0.6664E+03  0.6420E+03
     11.740  0.4494E+02  0.3872E+02  0.6772E+03  0.6513E+03
     11.980  0.3844E+02  0.4272E+02  0.6864E+03  0.6616E+03
     12.220  0.3860E+02  0.5203E+02  0.6957E+03  0.6740E+03
     12.459  0.3995E+02  0.4667E+02  0.7052E+03  0.6852E+03
     12.699  0.3639E+02  0.3596E+02  0.7139E+03  0.6938E+03
     12.939  0.3429E+02  0.4131E+02  0.7222E+03  0.7037E+03
     13.178  0.2252E+02  0.3956E+02  0.7276E+03  0.7132E+03
     13.418  0.1822E+01  0.3425E+02  0.7280E+03  0.7214E+03
     13.657  0.0000E+00  0.2363E+02  0.7280E+03  0.7271E+03
     13.897  0.0000E+00  0.3890E+01  0.7280E+03  0.7280E+03
     14.137  0.0000E+00  0.3734E-05  0.7280E+03  0.7280E+03
     14.376  0.0000E+00  0.0000E+00  0.7280E+03  0.7280E+03
     14.616  0.0000E+00  0.0000E+00  0.7280E+03  0.7280E+03
     14.856  0.0000E+00  0.0000E+00  0.7280E+03  0.7280E+03
     15.095  0.0000E+00  0.0000E+00  0.7280E+03  0.7280E+03
     15.335  0.0000E+00  0.0000E+00  0.7280E+03  0.7280E+03
     15.574  0.0000E+00  0.0000E+00  0.7280E+03  0.7280E+03
     15.814  0.0000E+00  0.0000E+00  0.7280E+03  0.7280E+03
     16.054  0.0000E+00  0.0000E+00  0.7280E+03  0.7280E+03
     16.293  0.0000E+00  0.0000E+00  0.7280E+03  0.7280E+03
     16.533  0.0000E+00  0.0000E+00  0.7280E+03  0.7280E+03
     16.773  0.0000E+00  0.0000E+00  0.7280E+03  0.7280E+03
     17.012  0.0000E+00  0.0000E+00  0.7280E+03  0.7280E+03
