<?xml version="1.0" encoding="ISO-8859-1"?>
<modeling>
 <generator>
  <i name="program" type="string">vasp </i>
  <i name="version" type="string">5.4.4.18Apr17-6-g9f103f2a35  </i>
  <i name="subversion" type="string">(build Oct 25 2017 14:42:18) complex            parallel </i>
  <i name="platform" type="string">LinuxIFC </i>
  <i name="date" type="string">2021 04 18 </i>
  <i name="time" type="string">00:21:38 </i>
 </generator>
 <incar>
  <i type="string" name="PREC">accurate</i>
  <i type="string" name="ALGO"> normal</i>
  <i type="logical" name="ADDGRID"> T  </i>
  <i type="int" name="ISPIN">     2</i>
  <i type="int" name="ICHARG">     1</i>
  <i type="int" name="NELM">   200</i>
  <i type="int" name="NELMIN">     8</i>
  <i name="EDIFF">      0.00000100</i>
  <i type="int" name="ISYM">     0</i>
  <i name="ENCUT">    650.00000000</i>
  <v name="MAGMOM">      0.60000000      0.60000000      0.60000000      0.60000000      0.60000000      0.60000000      0.60000000      0.60000000      0.60000000      0.60000000      0.60000000      0.60000000      0.60000000      0.60000000      0.60000000      0.60000000      0.60000000      0.60000000      0.60000000      0.60000000
      0.60000000      0.60000000      0.60000000      0.60000000      0.60000000      0.60000000      0.60000000      0.60000000      0.60000000      0.60000000      0.60000000      0.60000000      0.60000000      0.60000000      0.60000000      0.60000000      0.60000000      0.60000000      0.60000000      0.60000000
      0.60000000      0.60000000      0.60000000      0.60000000      0.60000000      0.60000000      0.60000000      0.60000000      5.00000000      5.00000000      5.00000000      5.00000000      5.00000000      5.00000000      5.00000000      5.00000000      5.00000000      5.00000000      5.00000000      5.00000000
      5.00000000      5.00000000      5.00000000      5.00000000      5.00000000      5.00000000      5.00000000      5.00000000      5.00000000      5.00000000      5.00000000      5.00000000      5.00000000      5.00000000      5.00000000      5.00000000      5.00000000      5.00000000      5.00000000      5.00000000
      5.00000000      5.00000000      5.00000000      5.00000000      0.60000000      0.60000000      0.60000000      0.60000000      0.60000000      0.60000000      0.60000000      0.60000000      0.60000000      0.60000000      0.60000000      0.60000000      0.60000000      0.60000000      0.60000000      0.60000000
      0.60000000      0.60000000      0.60000000      0.60000000      0.60000000      0.60000000      0.60000000      0.60000000      0.60000000      0.60000000      0.60000000      0.60000000      0.60000000      0.60000000      0.60000000      0.60000000      0.60000000      0.60000000      0.60000000      0.60000000
      0.60000000      0.60000000      0.60000000      0.60000000      0.60000000      0.60000000      0.60000000      0.60000000      0.60000000      0.60000000      0.60000000      0.60000000      0.60000000      0.60000000      0.60000000      0.60000000      0.60000000      0.60000000      0.60000000      0.60000000
      0.60000000      0.60000000      0.60000000      0.60000000</v>
  <i type="logical" name="LREAL"> F  </i>
  <i type="int" name="ISMEAR">     0</i>
  <i name="SIGMA">      0.05000000</i>
  <i type="int" name="NWRITE">     1</i>
  <i type="int" name="LMAXMIX">     4</i>
  <i type="logical" name="LWAVE"> F  </i>
  <i type="logical" name="LASPH"> T  </i>
  <v type="int" name="KPOINT_BSE">    -1     0     0     0</v>
  <i type="int" name="NELM">   200</i>
  <i type="string" name="GGA"> pe</i>
  <i type="logical" name="LDAU"> T  </i>
  <v type="int" name="LDAUTYPE">     2</v>
  <v type="int" name="LDAUL">    -1     2    -1    -1</v>
  <v name="LDAUU">      0.00000000      4.00000000      0.00000000      0.00000000</v>
  <v name="LDAUJ">      0.00000000      0.00000000      0.00000000      0.00000000</v>
  <i type="logical" name="LASPH"> T  </i>
 </incar>
 <structure name="primitive_cell" >
  <crystal>
   <varray name="basis" >
    <v>      15.21162830       0.00516956      -2.78361592 </v>
    <v>      -0.40798665      11.93565774      -2.20735884 </v>
    <v>      -0.06175567      -0.11168197      10.54442638 </v>
   </varray>
   <i name="volume">   1908.54869108 </i>
   <varray name="rec_basis" >
    <v>       0.06581343       0.00232549       0.00041008 </v>
    <v>       0.00013433       0.08395174       0.00088997 </v>
    <v>       0.01740216       0.01818827       0.09513139 </v>
   </varray>
  </crystal>
  <varray name="positions" >
   <v>       0.47527516       0.00074367       0.00446200 </v>
   <v>      -0.47527003       0.03239991       0.19439947 </v>
   <v>       0.47618324      -0.03189981      -0.19139884 </v>
   <v>       0.37500000       0.16666667       0.00000000 </v>
   <v>       0.37500000      -0.16666667       0.00000000 </v>
   <v>       0.40535584       0.03794021       0.22764128 </v>
   <v>      -0.35733875       0.02567762       0.15406572 </v>
   <v>       0.47796480       0.13582521      -0.18504874 </v>
   <v>       0.47796480      -0.19750812      -0.18504874 </v>
   <v>       0.34464416      -0.03794021      -0.22764128 </v>
   <v>      -0.39266125      -0.02567762      -0.15406572 </v>
   <v>      -0.47447416       0.19979622       0.19877732 </v>
   <v>      -0.47447416      -0.13353711       0.19877732 </v>
   <v>      -0.37500000       0.16666667       0.00000000 </v>
   <v>      -0.37500000      -0.16666667       0.00000000 </v>
   <v>       0.27472484      -0.00074367      -0.00446200 </v>
   <v>       0.27381676       0.03189981       0.19139884 </v>
   <v>      -0.42788806       0.06536154       0.39216926 </v>
   <v>       0.22527003      -0.03239991      -0.19439947 </v>
   <v>       0.47527516      -0.33258966       0.00446200 </v>
   <v>       0.47527516       0.33407700       0.00446200 </v>
   <v>       0.46517249      -0.06641917      -0.39851502 </v>
   <v>       0.27203520       0.19750812       0.18504874 </v>
   <v>       0.27203520      -0.13582521       0.18504874 </v>
   <v>      -0.47527003       0.36573324       0.19439947 </v>
   <v>      -0.47527003      -0.30093342       0.19439947 </v>
   <v>       0.41542107       0.22793643       0.36761855 </v>
   <v>       0.41542107      -0.10539691       0.36761855 </v>
   <v>       0.22447416       0.13353711      -0.19877732 </v>
   <v>       0.22447416      -0.19979622      -0.19877732 </v>
   <v>       0.33457893       0.10539691      -0.36761855 </v>
   <v>       0.33457893      -0.22793643      -0.36761855 </v>
   <v>       0.47618324       0.30143353      -0.19139884 </v>
   <v>       0.47618324      -0.36523314      -0.19139884 </v>
   <v>      -0.22527516      -0.00074367      -0.00446200 </v>
   <v>      -0.22618324       0.03189981       0.19139884 </v>
   <v>      -0.27472997      -0.03239991      -0.19439947 </v>
   <v>      -0.32385262       0.22809805       0.36858830 </v>
   <v>      -0.32385262      -0.10523528       0.36858830 </v>
   <v>      -0.42614738       0.10523528      -0.36858830 </v>
   <v>      -0.42614738      -0.22809805      -0.36858830 </v>
   <v>       0.40535584       0.37127355       0.22764128 </v>
   <v>       0.40535584      -0.29539312       0.22764128 </v>
   <v>      -0.35733875       0.35901095       0.15406572 </v>
   <v>      -0.35733875      -0.30765571       0.15406572 </v>
   <v>       0.34464416       0.29539312      -0.22764128 </v>
   <v>       0.34464416      -0.37127355      -0.22764128 </v>
   <v>      -0.39266125       0.30765571      -0.15406572 </v>
   <v>      -0.39266125      -0.35901095      -0.15406572 </v>
   <v>      -0.22796480       0.19750812       0.18504874 </v>
   <v>      -0.22796480      -0.13582521       0.18504874 </v>
   <v>       0.27472484       0.33258966      -0.00446200 </v>
   <v>       0.27472484      -0.33407700      -0.00446200 </v>
   <v>      -0.27552584       0.13353711      -0.19877732 </v>
   <v>      -0.27552584      -0.19979622      -0.19877732 </v>
   <v>       0.28482751       0.06641917       0.39851502 </v>
   <v>       0.17788806      -0.06536154      -0.39216926 </v>
   <v>       0.10733875      -0.02567762      -0.15406572 </v>
   <v>      -0.32211194      -0.06536154      -0.39216926 </v>
   <v>       0.14266125       0.02567762       0.15406572 </v>
   <v>       0.27381676       0.36523314       0.19139884 </v>
   <v>       0.27381676      -0.30143353       0.19139884 </v>
   <v>      -0.21517249       0.06641917       0.39851502 </v>
   <v>      -0.42788806       0.39869487       0.39216926 </v>
   <v>      -0.42788806      -0.26797179       0.39216926 </v>
   <v>       0.22527003       0.30093342      -0.19439947 </v>
   <v>       0.22527003      -0.36573324      -0.19439947 </v>
   <v>       0.12500000       0.16666667       0.00000000 </v>
   <v>       0.12500000      -0.16666667       0.00000000 </v>
   <v>       0.46517249       0.26691416      -0.39851502 </v>
   <v>       0.46517249      -0.39975250      -0.39851502 </v>
   <v>      -0.22527516       0.33258966      -0.00446200 </v>
   <v>      -0.22527516      -0.33407700      -0.00446200 </v>
   <v>      -0.22618324       0.36523314       0.19139884 </v>
   <v>      -0.22618324      -0.30143353       0.19139884 </v>
   <v>      -0.27472997       0.30093342      -0.19439947 </v>
   <v>      -0.27472997      -0.36573324      -0.19439947 </v>
   <v>       0.37500000      -0.50000000       0.00000000 </v>
   <v>       0.47796480       0.46915854      -0.18504874 </v>
   <v>      -0.47447416      -0.46687045       0.19877732 </v>
   <v>      -0.37500000      -0.50000000       0.00000000 </v>
   <v>      -0.12500000       0.16666667       0.00000000 </v>
   <v>      -0.12500000      -0.16666667       0.00000000 </v>
   <v>      -0.15535584      -0.03794021      -0.22764128 </v>
   <v>      -0.09464416       0.03794021       0.22764128 </v>
   <v>       0.28482751      -0.26691416       0.39851502 </v>
   <v>      -0.32211194       0.26797179      -0.39216926 </v>
   <v>       0.28482751       0.39975250       0.39851502 </v>
   <v>       0.17614738      -0.10523528       0.36858830 </v>
   <v>       0.17550072       0.22809805       0.36858830 </v>
   <v>       0.17788806       0.26797179      -0.39216926 </v>
   <v>       0.17788806      -0.39869487      -0.39216926 </v>
   <v>       0.10733875       0.30765571      -0.15406572 </v>
   <v>       0.10733875      -0.35901095      -0.15406572 </v>
   <v>      -0.32211194      -0.39869487      -0.39216926 </v>
   <v>       0.14266125       0.35901095       0.15406572 </v>
   <v>       0.14266125      -0.30765571       0.15406572 </v>
   <v>       0.07385262       0.10523528      -0.36858830 </v>
   <v>       0.07385262      -0.22809805      -0.36858830 </v>
   <v>      -0.21517249       0.39975250       0.39851502 </v>
   <v>      -0.21517249      -0.26691416       0.39851502 </v>
   <v>       0.27203520      -0.46915854       0.18504874 </v>
   <v>       0.41542107      -0.43873024       0.36761855 </v>
   <v>       0.22447416       0.46687045      -0.19877732 </v>
   <v>       0.33457893       0.43873024      -0.36761855 </v>
   <v>      -0.08457893       0.22793643       0.36761855 </v>
   <v>      -0.08457893      -0.10539691       0.36761855 </v>
   <v>      -0.32385262      -0.43856862       0.36858830 </v>
   <v>      -0.42614738       0.43856862      -0.36858830 </v>
   <v>       0.02472997       0.03239991       0.19439947 </v>
   <v>      -0.02381676      -0.03189981      -0.19139884 </v>
   <v>      -0.16542107       0.10539691      -0.36761855 </v>
   <v>      -0.16542107      -0.22793643      -0.36761855 </v>
   <v>      -0.22796480      -0.46915854       0.18504874 </v>
   <v>      -0.27552584       0.46687045      -0.19877732 </v>
   <v>      -0.02472484       0.00074367       0.00446200 </v>
   <v>      -0.15535584       0.29539312      -0.22764128 </v>
   <v>      -0.15535584      -0.37127355      -0.22764128 </v>
   <v>      -0.09464416       0.37127355       0.22764128 </v>
   <v>      -0.09464416      -0.29539312       0.22764128 </v>
   <v>      -0.02203520       0.13582521      -0.18504874 </v>
   <v>      -0.02203520      -0.19750812      -0.18504874 </v>
   <v>       0.02552584       0.19979622       0.19877732 </v>
   <v>       0.02552584      -0.13353711       0.19877732 </v>
   <v>       0.07211194       0.06536154       0.39216926 </v>
   <v>       0.12500000      -0.50000000       0.00000000 </v>
   <v>      -0.03482751      -0.06641917      -0.39851502 </v>
   <v>       0.07211194      -0.26797179       0.39216926 </v>
   <v>       0.17614738      -0.43856862       0.36858830 </v>
   <v>       0.02472997       0.36573324       0.19439947 </v>
   <v>       0.02472997      -0.30093342       0.19439947 </v>
   <v>      -0.02381676       0.30143353      -0.19139884 </v>
   <v>      -0.02381676      -0.36523314      -0.19139884 </v>
   <v>      -0.12500000      -0.50000000       0.00000000 </v>
   <v>      -0.16542107       0.43873024      -0.36761855 </v>
   <v>      -0.02472484      -0.33258966       0.00446200 </v>
   <v>      -0.02472484       0.33407700       0.00446200 </v>
   <v>       0.07211194       0.39869487       0.39216926 </v>
   <v>       0.07385262       0.43856862      -0.36858830 </v>
   <v>      -0.03482751       0.26691416      -0.39851502 </v>
   <v>      -0.03482751      -0.39975250      -0.39851502 </v>
   <v>      -0.08457893      -0.43873024       0.36761855 </v>
   <v>      -0.02203520       0.46915854      -0.18504874 </v>
   <v>       0.02552584      -0.46687045       0.19877732 </v>
  </varray>
 </structure>
 <varray name="primitive_index" >
  <v type="int" >        1 </v>
  <v type="int" >      134 </v>
  <v type="int" >      131 </v>
  <v type="int" >       91 </v>
  <v type="int" >       95 </v>
  <v type="int" >       43 </v>
  <v type="int" >       38 </v>
  <v type="int" >       67 </v>
  <v type="int" >       71 </v>
  <v type="int" >       35 </v>
  <v type="int" >       30 </v>
  <v type="int" >       74 </v>
  <v type="int" >       78 </v>
  <v type="int" >       86 </v>
  <v type="int" >       90 </v>
  <v type="int" >       11 </v>
  <v type="int" >      139 </v>
  <v type="int" >       20 </v>
  <v type="int" >      125 </v>
  <v type="int" >        5 </v>
  <v type="int" >        3 </v>
  <v type="int" >       53 </v>
  <v type="int" >       79 </v>
  <v type="int" >       83 </v>
  <v type="int" >      136 </v>
  <v type="int" >      138 </v>
  <v type="int" >      103 </v>
  <v type="int" >      107 </v>
  <v type="int" >       61 </v>
  <v type="int" >       65 </v>
  <v type="int" >      115 </v>
  <v type="int" >      119 </v>
  <v type="int" >      127 </v>
  <v type="int" >      129 </v>
  <v type="int" >       12 </v>
  <v type="int" >      140 </v>
  <v type="int" >      126 </v>
  <v type="int" >       98 </v>
  <v type="int" >      102 </v>
  <v type="int" >      110 </v>
  <v type="int" >      114 </v>
  <v type="int" >       45 </v>
  <v type="int" >       47 </v>
  <v type="int" >       40 </v>
  <v type="int" >       42 </v>
  <v type="int" >       31 </v>
  <v type="int" >       33 </v>
  <v type="int" >       26 </v>
  <v type="int" >       28 </v>
  <v type="int" >       80 </v>
  <v type="int" >       84 </v>
  <v type="int" >        7 </v>
  <v type="int" >        9 </v>
  <v type="int" >       62 </v>
  <v type="int" >       66 </v>
  <v type="int" >       55 </v>
  <v type="int" >       17 </v>
  <v type="int" >       29 </v>
  <v type="int" >       18 </v>
  <v type="int" >       37 </v>
  <v type="int" >      141 </v>
  <v type="int" >      143 </v>
  <v type="int" >       56 </v>
  <v type="int" >       22 </v>
  <v type="int" >       24 </v>
  <v type="int" >      121 </v>
  <v type="int" >      123 </v>
  <v type="int" >       85 </v>
  <v type="int" >       89 </v>
  <v type="int" >       49 </v>
  <v type="int" >       51 </v>
  <v type="int" >        8 </v>
  <v type="int" >       10 </v>
  <v type="int" >      142 </v>
  <v type="int" >      144 </v>
  <v type="int" >      122 </v>
  <v type="int" >      124 </v>
  <v type="int" >       93 </v>
  <v type="int" >       69 </v>
  <v type="int" >       76 </v>
  <v type="int" >       88 </v>
  <v type="int" >       92 </v>
  <v type="int" >       96 </v>
  <v type="int" >       36 </v>
  <v type="int" >       44 </v>
  <v type="int" >       59 </v>
  <v type="int" >       14 </v>
  <v type="int" >       57 </v>
  <v type="int" >      101 </v>
  <v type="int" >       97 </v>
  <v type="int" >       13 </v>
  <v type="int" >       15 </v>
  <v type="int" >       25 </v>
  <v type="int" >       27 </v>
  <v type="int" >       16 </v>
  <v type="int" >       39 </v>
  <v type="int" >       41 </v>
  <v type="int" >      109 </v>
  <v type="int" >      113 </v>
  <v type="int" >       58 </v>
  <v type="int" >       60 </v>
  <v type="int" >       81 </v>
  <v type="int" >      105 </v>
  <v type="int" >       63 </v>
  <v type="int" >      117 </v>
  <v type="int" >      104 </v>
  <v type="int" >      108 </v>
  <v type="int" >      100 </v>
  <v type="int" >      112 </v>
  <v type="int" >      133 </v>
  <v type="int" >      132 </v>
  <v type="int" >      116 </v>
  <v type="int" >      120 </v>
  <v type="int" >       82 </v>
  <v type="int" >       64 </v>
  <v type="int" >        2 </v>
  <v type="int" >       32 </v>
  <v type="int" >       34 </v>
  <v type="int" >       46 </v>
  <v type="int" >       48 </v>
  <v type="int" >       68 </v>
  <v type="int" >       72 </v>
  <v type="int" >       73 </v>
  <v type="int" >       77 </v>
  <v type="int" >       19 </v>
  <v type="int" >       87 </v>
  <v type="int" >       54 </v>
  <v type="int" >       23 </v>
  <v type="int" >       99 </v>
  <v type="int" >      135 </v>
  <v type="int" >      137 </v>
  <v type="int" >      128 </v>
  <v type="int" >      130 </v>
  <v type="int" >       94 </v>
  <v type="int" >      118 </v>
  <v type="int" >        6 </v>
  <v type="int" >        4 </v>
  <v type="int" >       21 </v>
  <v type="int" >      111 </v>
  <v type="int" >       50 </v>
  <v type="int" >       52 </v>
  <v type="int" >      106 </v>
  <v type="int" >       70 </v>
  <v type="int" >       75 </v>
 </varray>
 <kpoints>
  <generation param="Gamma">
   <v type="int" name="divisions">       2        3        3 </v>
   <v name="usershift">      0.00000000       0.00000000       0.00000000 </v>
   <v name="genvec1">      0.50000000       0.00000000      -0.00000000 </v>
   <v name="genvec2">      0.00000000       0.33333333       0.00000000 </v>
   <v name="genvec3">      0.00000000       0.00000000       0.33333333 </v>
   <v name="shift">      0.00000000       0.00000000       0.00000000 </v>
  </generation>
  <varray name="kpointlist" >
   <v>       0.00000000       0.00000000       0.00000000 </v>
   <v>       0.50000000      -0.00000000       0.00000000 </v>
   <v>      -0.00000000       0.33333333      -0.00000000 </v>
   <v>       0.50000000       0.33333333      -0.00000000 </v>
   <v>      -0.00000000       0.00000000       0.33333333 </v>
   <v>       0.50000000       0.00000000       0.33333333 </v>
   <v>      -0.00000000       0.33333333       0.33333333 </v>
   <v>       0.50000000       0.33333333       0.33333333 </v>
   <v>      -0.00000000      -0.33333333       0.33333333 </v>
   <v>       0.50000000      -0.33333333       0.33333333 </v>
  </varray>
  <varray name="weights" >
   <v>       0.05555556 </v>
   <v>       0.05555556 </v>
   <v>       0.11111111 </v>
   <v>       0.11111111 </v>
   <v>       0.11111111 </v>
   <v>       0.11111111 </v>
   <v>       0.11111111 </v>
   <v>       0.11111111 </v>
   <v>       0.11111111 </v>
   <v>       0.11111111 </v>
  </varray>
 </kpoints>
 <parameters>
  <separator name="general" >
   <i type="string" name="SYSTEM">unknown system</i>
   <i type="logical" name="LCOMPAT"> F  </i>
  </separator>
  <separator name="electronic" >
   <i type="string" name="PREC">accura</i>
   <i name="ENMAX">    650.00000000</i>
   <i name="ENAUG">    628.94500000</i>
   <i name="EDIFF">      0.00000100</i>
   <i type="int" name="IALGO">    38</i>
   <i type="int" name="IWAVPR">    10</i>
   <i type="int" name="NBANDS">   728</i>
   <i name="NELECT">   1008.00000000</i>
   <i type="int" name="TURBO">     0</i>
   <i type="int" name="IRESTART">     0</i>
   <i type="int" name="NREBOOT">     0</i>
   <i type="int" name="NMIN">     0</i>
   <i name="EREF">      0.00000000</i>
   <separator name="electronic smearing" >
    <i type="int" name="ISMEAR">     0</i>
    <i name="SIGMA">      0.05000000</i>
    <i name="KSPACING">      0.50000000</i>
    <i type="logical" name="KGAMMA"> T  </i>
   </separator>
   <separator name="electronic projectors" >
    <i type="logical" name="LREAL"> F  </i>
    <v name="ROPT">      0.00000000      0.00000000      0.00000000      0.00000000</v>
    <i type="int" name="LMAXPAW">  -100</i>
    <i type="int" name="LMAXMIX">     4</i>
    <i type="logical" name="NLSPLINE"> F  </i>
   </separator>
   <separator name="electronic startup" >
    <i type="int" name="ISTART">     0</i>
    <i type="int" name="ICHARG">     1</i>
    <i type="int" name="INIWAV">     1</i>
   </separator>
   <separator name="electronic spin" >
    <i type="int" name="ISPIN">     2</i>
    <i type="logical" name="LNONCOLLINEAR"> F  </i>
    <v name="MAGMOM">      0.60000000      0.60000000      0.60000000      0.60000000      0.60000000      0.60000000      0.60000000      0.60000000      0.60000000      0.60000000      0.60000000      0.60000000      0.60000000      0.60000000      0.60000000      0.60000000      0.60000000      0.60000000      0.60000000      0.60000000
      0.60000000      0.60000000      0.60000000      0.60000000      0.60000000      0.60000000      0.60000000      0.60000000      0.60000000      0.60000000      0.60000000      0.60000000      0.60000000      0.60000000      0.60000000      0.60000000      0.60000000      0.60000000      0.60000000      0.60000000
      0.60000000      0.60000000      0.60000000      0.60000000      0.60000000      0.60000000      0.60000000      0.60000000      5.00000000      5.00000000      5.00000000      5.00000000      5.00000000      5.00000000      5.00000000      5.00000000      5.00000000      5.00000000      5.00000000      5.00000000
      5.00000000      5.00000000      5.00000000      5.00000000      5.00000000      5.00000000      5.00000000      5.00000000      5.00000000      5.00000000      5.00000000      5.00000000      5.00000000      5.00000000      5.00000000      5.00000000      5.00000000      5.00000000      5.00000000      5.00000000
      5.00000000      5.00000000      5.00000000      5.00000000      0.60000000      0.60000000      0.60000000      0.60000000      0.60000000      0.60000000      0.60000000      0.60000000      0.60000000      0.60000000      0.60000000      0.60000000      0.60000000      0.60000000      0.60000000      0.60000000
      0.60000000      0.60000000      0.60000000      0.60000000      0.60000000      0.60000000      0.60000000      0.60000000      0.60000000      0.60000000      0.60000000      0.60000000      0.60000000      0.60000000      0.60000000      0.60000000      0.60000000      0.60000000      0.60000000      0.60000000
      0.60000000      0.60000000      0.60000000      0.60000000      0.60000000      0.60000000      0.60000000      0.60000000      0.60000000      0.60000000      0.60000000      0.60000000      0.60000000      0.60000000      0.60000000      0.60000000      0.60000000      0.60000000      0.60000000      0.60000000
      0.60000000      0.60000000      0.60000000      0.60000000</v>
    <i name="NUPDOWN">     -1.00000000</i>
    <i type="logical" name="LSORBIT"> F  </i>
    <v name="SAXIS">      0.00000000      0.00000000      1.00000000</v>
    <i type="logical" name="LSPIRAL"> F  </i>
    <v name="QSPIRAL">      0.00000000      0.00000000      0.00000000</v>
    <i type="logical" name="LZEROZ"> F  </i>
   </separator>
   <separator name="electronic exchange-correlation" >
    <i type="logical" name="LASPH"> T  </i>
    <i type="logical" name="LMETAGGA"> F  </i>
   </separator>
   <separator name="electronic convergence" >
    <i type="int" name="NELM">   200</i>
    <i type="int" name="NELMDL">     0</i>
    <i type="int" name="NELMIN">     8</i>
    <i name="ENINI">    650.00000000</i>
    <separator name="electronic convergence detail" >
     <i type="logical" name="LDIAG"> T  </i>
     <i type="logical" name="LSUBROT"> F  </i>
     <i name="WEIMIN">      0.00000000</i>
     <i name="EBREAK">      0.00000000</i>
     <i name="DEPER">      0.30000000</i>
     <i type="int" name="NRMM">     4</i>
     <i name="TIME">      0.40000000</i>
    </separator>
   </separator>
   <separator name="electronic mixer" >
    <i name="AMIX">      0.40000000</i>
    <i name="BMIX">      1.00000000</i>
    <i name="AMIN">      0.10000000</i>
    <i name="AMIX_MAG">      1.60000000</i>
    <i name="BMIX_MAG">      1.00000000</i>
    <separator name="electronic mixer details" >
     <i type="int" name="IMIX">     4</i>
     <i type="logical" name="MIXFIRST"> F  </i>
     <i type="int" name="MAXMIX">   -45</i>
     <i name="WC">    100.00000000</i>
     <i type="int" name="INIMIX">     1</i>
     <i type="int" name="MIXPRE">     1</i>
     <i type="int" name="MREMOVE">     5</i>
    </separator>
   </separator>
   <separator name="electronic dipolcorrection" >
    <i type="logical" name="LDIPOL"> F  </i>
    <i type="logical" name="LMONO"> F  </i>
    <i type="int" name="IDIPOL">     0</i>
    <i name="EPSILON">      1.00000000</i>
    <v name="DIPOL">   -100.00000000   -100.00000000   -100.00000000</v>
    <i name="EFIELD">      0.00000000</i>
   </separator>
  </separator>
  <separator name="grids" >
   <i type="int" name="NGX">   140</i>
   <i type="int" name="NGY">   108</i>
   <i type="int" name="NGZ">    90</i>
   <i type="int" name="NGXF">   280</i>
   <i type="int" name="NGYF">   216</i>
   <i type="int" name="NGZF">   180</i>
   <i type="logical" name="ADDGRID"> T  </i>
  </separator>
  <separator name="ionic" >
   <i type="int" name="NSW">     0</i>
   <i type="int" name="IBRION">    -1</i>
   <i type="int" name="MDALGO">     0</i>
   <i type="int" name="ISIF">     2</i>
   <i name="PSTRESS">      0.00000000</i>
   <i name="EDIFFG">      0.00001000</i>
   <i type="int" name="NFREE">     0</i>
   <i name="POTIM">      0.50000000</i>
   <i name="SMASS">     -3.00000000</i>
   <i name="SCALEE">      1.00000000</i>
  </separator>
  <separator name="ionic md" >
   <i name="TEBEG">      0.00010000</i>
   <i name="TEEND">      0.00010000</i>
   <i type="int" name="NBLOCK">     1</i>
   <i type="int" name="KBLOCK">     1</i>
   <i type="int" name="NPACO">   256</i>
   <i name="APACO">     16.00000000</i>
  </separator>
  <separator name="symmetry" >
   <i type="int" name="ISYM">     0</i>
   <i name="SYMPREC">      0.00001000</i>
  </separator>
  <separator name="dos" >
   <i type="int" name="LORBIT">     0</i>
   <v name="RWIGS">     -1.00000000     -1.00000000     -1.00000000     -1.00000000</v>
   <i type="int" name="NEDOS">   301</i>
   <i name="EMIN">     10.00000000</i>
   <i name="EMAX">    -10.00000000</i>
   <i name="EFERMI">      0.00000000</i>
  </separator>
  <separator name="writing" >
   <i type="int" name="NWRITE">     1</i>
   <i type="logical" name="LWAVE"> F  </i>
   <i type="logical" name="LDOWNSAMPLE"> F  </i>
   <i type="logical" name="LCHARG"> T  </i>
   <i type="logical" name="LPARD"> F  </i>
   <i type="logical" name="LVTOT"> F  </i>
   <i type="logical" name="LVHAR"> F  </i>
   <i type="logical" name="LELF"> F  </i>
   <i type="logical" name="LOPTICS"> F  </i>
   <v name="STM">      0.00000000      0.00000000      0.00000000      0.00000000      0.00000000      0.00000000      0.00000000</v>
  </separator>
  <separator name="performance" >
   <i type="int" name="NPAR">     4</i>
   <i type="int" name="NSIM">     4</i>
   <i type="int" name="NBLK">    -1</i>
   <i type="logical" name="LPLANE"> T  </i>
   <i type="logical" name="LSCALAPACK"> T  </i>
   <i type="logical" name="LSCAAWARE"> F  </i>
   <i type="logical" name="LSCALU"> F  </i>
   <i type="logical" name="LASYNC"> F  </i>
   <i type="logical" name="LORBITALREAL"> F  </i>
  </separator>
  <separator name="miscellaneous" >
   <i type="int" name="IDIOT">     3</i>
   <i type="int" name="ISPECIAL">     0</i>
   <i type="logical" name="LMUSIC"> F  </i>
   <v name="POMASS">      7.01000000     55.84700000     32.06600000     16.00000000</v>
   <v name="DARWINR">      0.00000000      0.00000000      0.00000000      0.00000000</v>
   <v name="DARWINV">      1.00000000      1.00000000      1.00000000      1.00000000</v>
   <i type="logical" name="LCORR"> T  </i>
  </separator>
  <i type="logical" name="GGA_COMPAT"> T  </i>
  <i type="logical" name="LBERRY"> F  </i>
  <i type="int" name="ICORELEVEL">     0</i>
  <i type="logical" name="LDAU"> T  </i>
  <v type="int" name="LDAUTYPE">     2</v>
  <v type="int" name="LDAUL">    -1</v>
  <v name="LDAUU">      0.00000000</v>
  <v name="LDAUJ">      0.00000000</v>
  <i type="int" name="LDAUPRINT">     0</i>
  <i type="int" name="I_CONSTRAINED_M">     0</i>
  <separator name="electronic exchange-correlation" >
   <i type="string" name="GGA">PE</i>
   <i type="int" name="VOSKOWN">     0</i>
   <i type="logical" name="LHFCALC"> F  </i>
   <i type="string" name="PRECFOCK"></i>
   <i type="logical" name="LSYMGRAD"> F  </i>
   <i type="logical" name="LHFONE"> F  </i>
   <i type="logical" name="LRHFCALC"> F  </i>
   <i type="logical" name="LTHOMAS"> F  </i>
   <i type="logical" name="LMODELHF"> F  </i>
   <i name="ENCUT4O">     -1.00000000</i>
   <i type="int" name="EXXOEP">     0</i>
   <i type="int" name="FOURORBIT">     0</i>
   <i name="AEXX">      0.00000000</i>
   <i name="HFALPHA">      0.00000000</i>
   <i name="MCALPHA">      0.00000000</i>
   <i name="ALDAX">      1.00000000</i>
   <i name="AGGAX">      1.00000000</i>
   <i name="ALDAC">      1.00000000</i>
   <i name="AGGAC">      1.00000000</i>
   <i type="int" name="NKREDX">     1</i>
   <i type="int" name="NKREDY">     1</i>
   <i type="int" name="NKREDZ">     1</i>
   <i type="logical" name="SHIFTRED"> F  </i>
   <i type="logical" name="ODDONLY"> F  </i>
   <i type="logical" name="EVENONLY"> F  </i>
   <i type="int" name="LMAXFOCK">     0</i>
   <i type="int" name="NMAXFOCKAE">     0</i>
   <i type="logical" name="LFOCKAEDFT"> F  </i>
   <i name="HFSCREEN">      0.00000000</i>
   <i name="HFSCREENC">      0.00000000</i>
   <i type="int" name="NBANDSGWLOW">     0</i>
  </separator>
  <separator name="vdW DFT" >
   <i type="logical" name="LUSE_VDW"> F  </i>
   <i name="Zab_VDW">     -0.84910000</i>
   <i name="PARAM1">      0.12340000</i>
   <i name="PARAM2">      1.00000000</i>
   <i name="PARAM3">      0.00000000</i>
  </separator>
  <separator name="model GW" >
   <i type="int" name="MODEL_GW">     0</i>
   <i name="MODEL_EPS0">      7.95228621</i>
   <i name="MODEL_ALPHA">      1.00000000</i>
  </separator>
  <separator name="linear response parameters" >
   <i type="logical" name="LEPSILON"> F  </i>
   <i type="logical" name="LRPA"> F  </i>
   <i type="logical" name="LNABLA"> F  </i>
   <i type="logical" name="LVEL"> F  </i>
   <i type="int" name="KINTER">     0</i>
   <i name="CSHIFT">      0.10000000</i>
   <i name="OMEGAMAX">     -1.00000000</i>
   <i name="DEG_THRESHOLD">      0.00200000</i>
   <i name="RTIME">     -0.10000000</i>
   <i name="WPLASMAI">      0.00000000</i>
   <v name="DFIELD">      0.00000000      0.00000000      0.00000000</v>
   <v name="WPLASMA">      0.00000000      0.00000000      0.00000000      0.00000000      0.00000000      0.00000000      0.00000000      0.00000000      0.00000000</v>
  </separator>
  <separator name="orbital magnetization" >
   <i type="logical" name="NUCIND"> F  </i>
   <v name="MAGPOS">      0.00000000      0.00000000      0.00000000</v>
   <i type="logical" name="LNICSALL"> T  </i>
   <i type="logical" name="ORBITALMAG"> F  </i>
   <i type="logical" name="LMAGBLOCH"> F  </i>
   <i type="logical" name="LCHIMAG"> F  </i>
   <i type="logical" name="LGAUGE"> T  </i>
   <i type="int" name="MAGATOM">     0</i>
   <v name="MAGDIPOL">      0.00000000      0.00000000      0.00000000</v>
   <v name="AVECCONST">      0.00000000      0.00000000      0.00000000</v>
  </separator>
  <separator name="response functions" >
   <i type="logical" name="LADDER"> F  </i>
   <i type="logical" name="LRPAFORCE"> F  </i>
   <i type="logical" name="LFXC"> F  </i>
   <i type="logical" name="LHARTREE"> T  </i>
   <i type="int" name="IBSE">     0</i>
   <v type="int" name="KPOINT">    -1     0     0     0</v>
   <i type="logical" name="LTCTE"> F  </i>
   <i type="logical" name="LTETE"> F  </i>
   <i type="logical" name="LTRIPLET"> F  </i>
   <i type="logical" name="LFXCEPS"> F  </i>
   <i type="logical" name="LFXHEG"> F  </i>
   <i type="int" name="NATURALO">     2</i>
   <i type="logical" name="L2ORDER"> F  </i>
   <i type="logical" name="LMP2LT"> F  </i>
   <i type="logical" name="LUSEW"> F  </i>
   <i name="ENCUTGW">     -2.00000000</i>
   <i name="ENCUTGWSOFT">     -2.00000000</i>
   <i name="ENCUTLF">     -1.00000000</i>
   <i type="int" name="LMAXMP2">    -1</i>
   <i name="SCISSOR">      0.00000000</i>
   <i type="int" name="NOMEGA">     0</i>
   <i type="int" name="NOMEGAR">     0</i>
   <i type="int" name="NBANDSGW">    -1</i>
   <i type="int" name="NBANDSO">    -1</i>
   <i type="int" name="NBANDSV">    -1</i>
   <i type="int" name="NELM">   200</i>
   <i type="int" name="NELMHF">     1</i>
   <i type="int" name="DIM">     3</i>
   <i type="int" name="ANTIRES">     0</i>
   <i name="OMEGAMAX">    -30.00000000</i>
   <i name="OMEGAMIN">    -30.00000000</i>
   <i name="OMEGATL">   -200.00000000</i>
   <i type="int" name="OMEGAGRID">   140</i>
   <i name="CSHIFT">     -0.10000000</i>
   <i type="logical" name="SELFENERGY"> F  </i>
   <i type="logical" name="LSPECTRAL"> F  </i>
   <i type="logical" name="LSPECTRALGW"> F  </i>
   <i type="logical" name="LSINGLES"> F  </i>
   <i type="logical" name="LFERMIGW"> F  </i>
   <i type="logical" name="ODDONLYGW"> F  </i>
   <i type="logical" name="EVENONLYGW"> F  </i>
   <i type="int" name="NKREDLFX">     1</i>
   <i type="int" name="NKREDLFY">     1</i>
   <i type="int" name="NKREDLFZ">     1</i>
   <i type="int" name="MAXMEM">  2800</i>
   <i type="int" name="TELESCOPE">     0</i>
   <i type="int" name="TAUPAR">     1</i>
   <i type="int" name="OMEGAPAR">    -1</i>
   <i name="LAMBDA">      1.00000000</i>
  </separator>
  <separator name="External order field" >
   <i name="OFIELD_KAPPA">      0.00000000</i>
   <v name="OFIELD_K">      0.00000000      0.00000000      0.00000000</v>
   <i name="OFIELD_Q6_NEAR">      0.00000000</i>
   <i name="OFIELD_Q6_FAR">      0.00000000</i>
   <i name="OFIELD_A">      0.00000000</i>
  </separator>
 </parameters>
 <atominfo>
  <atoms>     144 </atoms>
  <types>       4 </types>
  <array name="atoms" >
   <dimension dim="1">ion</dimension>
   <field type="string">element</field>
   <field type="int">atomtype</field>
   <set>
    <rc><c>Li</c><c>   1</c></rc>
    <rc><c>Li</c><c>   1</c></rc>
    <rc><c>Li</c><c>   1</c></rc>
    <rc><c>Li</c><c>   1</c></rc>
    <rc><c>Li</c><c>   1</c></rc>
    <rc><c>Li</c><c>   1</c></rc>
    <rc><c>Li</c><c>   1</c></rc>
    <rc><c>Li</c><c>   1</c></rc>
    <rc><c>Li</c><c>   1</c></rc>
    <rc><c>Li</c><c>   1</c></rc>
    <rc><c>Li</c><c>   1</c></rc>
    <rc><c>Li</c><c>   1</c></rc>
    <rc><c>Li</c><c>   1</c></rc>
    <rc><c>Li</c><c>   1</c></rc>
    <rc><c>Li</c><c>   1</c></rc>
    <rc><c>Li</c><c>   1</c></rc>
    <rc><c>Li</c><c>   1</c></rc>
    <rc><c>Li</c><c>   1</c></rc>
    <rc><c>Li</c><c>   1</c></rc>
    <rc><c>Li</c><c>   1</c></rc>
    <rc><c>Li</c><c>   1</c></rc>
    <rc><c>Li</c><c>   1</c></rc>
    <rc><c>Li</c><c>   1</c></rc>
    <rc><c>Li</c><c>   1</c></rc>
    <rc><c>Li</c><c>   1</c></rc>
    <rc><c>Li</c><c>   1</c></rc>
    <rc><c>Li</c><c>   1</c></rc>
    <rc><c>Li</c><c>   1</c></rc>
    <rc><c>Li</c><c>   1</c></rc>
    <rc><c>Li</c><c>   1</c></rc>
    <rc><c>Li</c><c>   1</c></rc>
    <rc><c>Li</c><c>   1</c></rc>
    <rc><c>Li</c><c>   1</c></rc>
    <rc><c>Li</c><c>   1</c></rc>
    <rc><c>Li</c><c>   1</c></rc>
    <rc><c>Li</c><c>   1</c></rc>
    <rc><c>Li</c><c>   1</c></rc>
    <rc><c>Li</c><c>   1</c></rc>
    <rc><c>Li</c><c>   1</c></rc>
    <rc><c>Li</c><c>   1</c></rc>
    <rc><c>Li</c><c>   1</c></rc>
    <rc><c>Li</c><c>   1</c></rc>
    <rc><c>Li</c><c>   1</c></rc>
    <rc><c>Li</c><c>   1</c></rc>
    <rc><c>Li</c><c>   1</c></rc>
    <rc><c>Li</c><c>   1</c></rc>
    <rc><c>Li</c><c>   1</c></rc>
    <rc><c>Li</c><c>   1</c></rc>
    <rc><c>Fe</c><c>   2</c></rc>
    <rc><c>Fe</c><c>   2</c></rc>
    <rc><c>Fe</c><c>   2</c></rc>
    <rc><c>Fe</c><c>   2</c></rc>
    <rc><c>Fe</c><c>   2</c></rc>
    <rc><c>Fe</c><c>   2</c></rc>
    <rc><c>Fe</c><c>   2</c></rc>
    <rc><c>Fe</c><c>   2</c></rc>
    <rc><c>Fe</c><c>   2</c></rc>
    <rc><c>Fe</c><c>   2</c></rc>
    <rc><c>Fe</c><c>   2</c></rc>
    <rc><c>Fe</c><c>   2</c></rc>
    <rc><c>Fe</c><c>   2</c></rc>
    <rc><c>Fe</c><c>   2</c></rc>
    <rc><c>Fe</c><c>   2</c></rc>
    <rc><c>Fe</c><c>   2</c></rc>
    <rc><c>Fe</c><c>   2</c></rc>
    <rc><c>Fe</c><c>   2</c></rc>
    <rc><c>Fe</c><c>   2</c></rc>
    <rc><c>Fe</c><c>   2</c></rc>
    <rc><c>Fe</c><c>   2</c></rc>
    <rc><c>Fe</c><c>   2</c></rc>
    <rc><c>Fe</c><c>   2</c></rc>
    <rc><c>Fe</c><c>   2</c></rc>
    <rc><c>Fe</c><c>   2</c></rc>
    <rc><c>Fe</c><c>   2</c></rc>
    <rc><c>Fe</c><c>   2</c></rc>
    <rc><c>Fe</c><c>   2</c></rc>
    <rc><c>Fe</c><c>   2</c></rc>
    <rc><c>Fe</c><c>   2</c></rc>
    <rc><c>Fe</c><c>   2</c></rc>
    <rc><c>Fe</c><c>   2</c></rc>
    <rc><c>Fe</c><c>   2</c></rc>
    <rc><c>Fe</c><c>   2</c></rc>
    <rc><c>Fe</c><c>   2</c></rc>
    <rc><c>Fe</c><c>   2</c></rc>
    <rc><c>S </c><c>   3</c></rc>
    <rc><c>S </c><c>   3</c></rc>
    <rc><c>S </c><c>   3</c></rc>
    <rc><c>S </c><c>   3</c></rc>
    <rc><c>S </c><c>   3</c></rc>
    <rc><c>S </c><c>   3</c></rc>
    <rc><c>S </c><c>   3</c></rc>
    <rc><c>S </c><c>   3</c></rc>
    <rc><c>S </c><c>   3</c></rc>
    <rc><c>S </c><c>   3</c></rc>
    <rc><c>S </c><c>   3</c></rc>
    <rc><c>S </c><c>   3</c></rc>
    <rc><c>S </c><c>   3</c></rc>
    <rc><c>S </c><c>   3</c></rc>
    <rc><c>S </c><c>   3</c></rc>
    <rc><c>S </c><c>   3</c></rc>
    <rc><c>S </c><c>   3</c></rc>
    <rc><c>S </c><c>   3</c></rc>
    <rc><c>S </c><c>   3</c></rc>
    <rc><c>S </c><c>   3</c></rc>
    <rc><c>S </c><c>   3</c></rc>
    <rc><c>S </c><c>   3</c></rc>
    <rc><c>S </c><c>   3</c></rc>
    <rc><c>S </c><c>   3</c></rc>
    <rc><c>S </c><c>   3</c></rc>
    <rc><c>S </c><c>   3</c></rc>
    <rc><c>S </c><c>   3</c></rc>
    <rc><c>S </c><c>   3</c></rc>
    <rc><c>S </c><c>   3</c></rc>
    <rc><c>S </c><c>   3</c></rc>
    <rc><c>S </c><c>   3</c></rc>
    <rc><c>S </c><c>   3</c></rc>
    <rc><c>S </c><c>   3</c></rc>
    <rc><c>S </c><c>   3</c></rc>
    <rc><c>S </c><c>   3</c></rc>
    <rc><c>S </c><c>   3</c></rc>
    <rc><c>O </c><c>   4</c></rc>
    <rc><c>O </c><c>   4</c></rc>
    <rc><c>O </c><c>   4</c></rc>
    <rc><c>O </c><c>   4</c></rc>
    <rc><c>O </c><c>   4</c></rc>
    <rc><c>O </c><c>   4</c></rc>
    <rc><c>O </c><c>   4</c></rc>
    <rc><c>O </c><c>   4</c></rc>
    <rc><c>O </c><c>   4</c></rc>
    <rc><c>O </c><c>   4</c></rc>
    <rc><c>O </c><c>   4</c></rc>
    <rc><c>O </c><c>   4</c></rc>
    <rc><c>O </c><c>   4</c></rc>
    <rc><c>O </c><c>   4</c></rc>
    <rc><c>O </c><c>   4</c></rc>
    <rc><c>O </c><c>   4</c></rc>
    <rc><c>O </c><c>   4</c></rc>
    <rc><c>O </c><c>   4</c></rc>
    <rc><c>O </c><c>   4</c></rc>
    <rc><c>O </c><c>   4</c></rc>
    <rc><c>O </c><c>   4</c></rc>
    <rc><c>O </c><c>   4</c></rc>
    <rc><c>O </c><c>   4</c></rc>
    <rc><c>O </c><c>   4</c></rc>
   </set>
  </array>
  <array name="atomtypes" >
   <dimension dim="1">type</dimension>
   <field type="int">atomspertype</field>
   <field type="string">element</field>
   <field>mass</field>
   <field>valence</field>
   <field type="string">pseudopotential</field>
   <set>
    <rc><c>  48</c><c>Li</c><c>      7.01000000</c><c>      3.00000000</c><c>  PAW_PBE Li_sv 10Sep2004               </c></rc>
    <rc><c>  36</c><c>Fe</c><c>     55.84700000</c><c>     14.00000000</c><c>  PAW_PBE Fe_pv 02Aug2007               </c></rc>
    <rc><c>  36</c><c>S </c><c>     32.06600000</c><c>      6.00000000</c><c>  PAW_PBE S 06Sep2000                   </c></rc>
    <rc><c>  24</c><c>O </c><c>     16.00000000</c><c>      6.00000000</c><c>  PAW_PBE O 08Apr2002                   </c></rc>
   </set>
  </array>
 </atominfo>
 <structure name="initialpos" >
  <crystal>
   <varray name="basis" >
    <v>      15.21162830       0.00516956      -2.78361592 </v>
    <v>      -0.40798665      11.93565774      -2.20735884 </v>
    <v>      -0.06175567      -0.11168197      10.54442638 </v>
   </varray>
   <i name="volume">   1908.54869108 </i>
   <varray name="rec_basis" >
    <v>       0.06581343       0.00232549       0.00041008 </v>
    <v>       0.00013433       0.08395174       0.00088997 </v>
    <v>       0.01740216       0.01818827       0.09513139 </v>
   </varray>
  </crystal>
  <varray name="positions" >
   <v>       0.47527516       0.00074367       0.00446200 </v>
   <v>       0.97527516       0.00074367       0.00446200 </v>
   <v>       0.47527516       0.33407700       0.00446200 </v>
   <v>       0.97527516       0.33407700       0.00446200 </v>
   <v>       0.47527516       0.66741034       0.00446200 </v>
   <v>       0.97527516       0.66741034       0.00446200 </v>
   <v>       0.27472484       0.33258966       0.99553800 </v>
   <v>       0.77472484       0.33258966       0.99553800 </v>
   <v>       0.27472484       0.66592300       0.99553800 </v>
   <v>       0.77472484       0.66592300       0.99553800 </v>
   <v>       0.27472484       0.99925633       0.99553800 </v>
   <v>       0.77472484       0.99925633       0.99553800 </v>
   <v>       0.17788805       0.26797179       0.60783074 </v>
   <v>       0.67788805       0.26797179       0.60783074 </v>
   <v>       0.17788805       0.60130513       0.60783074 </v>
   <v>       0.67788805       0.60130513       0.60783074 </v>
   <v>       0.17788805       0.93463846       0.60783074 </v>
   <v>       0.67788805       0.93463846       0.60783074 </v>
   <v>       0.07211195       0.06536154       0.39216926 </v>
   <v>       0.57211195       0.06536154       0.39216926 </v>
   <v>       0.07211195       0.39869487       0.39216926 </v>
   <v>       0.57211195       0.39869487       0.39216926 </v>
   <v>       0.07211195       0.73202821       0.39216926 </v>
   <v>       0.57211195       0.73202821       0.39216926 </v>
   <v>       0.10733875       0.30765571       0.84593428 </v>
   <v>       0.60733875       0.30765571       0.84593428 </v>
   <v>       0.10733875       0.64098905       0.84593428 </v>
   <v>       0.60733875       0.64098905       0.84593428 </v>
   <v>       0.10733875       0.97432238       0.84593428 </v>
   <v>       0.60733875       0.97432238       0.84593428 </v>
   <v>       0.34464416       0.29539312       0.77235872 </v>
   <v>       0.84464416       0.29539312       0.77235872 </v>
   <v>       0.34464416       0.62872645       0.77235872 </v>
   <v>       0.84464416       0.62872645       0.77235872 </v>
   <v>       0.34464416       0.96205979       0.77235872 </v>
   <v>       0.84464416       0.96205979       0.77235872 </v>
   <v>       0.14266125       0.02567762       0.15406572 </v>
   <v>       0.64266125       0.02567762       0.15406572 </v>
   <v>       0.14266125       0.35901095       0.15406572 </v>
   <v>       0.64266125       0.35901095       0.15406572 </v>
   <v>       0.14266125       0.69234429       0.15406572 </v>
   <v>       0.64266125       0.69234429       0.15406572 </v>
   <v>       0.40535584       0.03794021       0.22764128 </v>
   <v>       0.90535584       0.03794021       0.22764128 </v>
   <v>       0.40535584       0.37127355       0.22764128 </v>
   <v>       0.90535584       0.37127355       0.22764128 </v>
   <v>       0.40535584       0.70460688       0.22764128 </v>
   <v>       0.90535584       0.70460688       0.22764128 </v>
   <v>       0.46517249       0.26691416       0.60148498 </v>
   <v>       0.96517249       0.26691416       0.60148498 </v>
   <v>       0.46517249       0.60024750       0.60148498 </v>
   <v>       0.96517249       0.60024750       0.60148498 </v>
   <v>       0.46517249       0.93358083       0.60148498 </v>
   <v>       0.96517249       0.93358083       0.60148498 </v>
   <v>       0.28482751       0.06641917       0.39851502 </v>
   <v>       0.78482751       0.06641917       0.39851502 </v>
   <v>       0.28482751       0.39975250       0.39851502 </v>
   <v>       0.78482751       0.39975250       0.39851502 </v>
   <v>       0.28482751       0.73308584       0.39851502 </v>
   <v>       0.78482751       0.73308584       0.39851502 </v>
   <v>       0.22447416       0.13353711       0.80122268 </v>
   <v>       0.72447416       0.13353711       0.80122268 </v>
   <v>       0.22447416       0.46687045       0.80122268 </v>
   <v>       0.72447416       0.46687045       0.80122268 </v>
   <v>       0.22447416       0.80020378       0.80122268 </v>
   <v>       0.72447416       0.80020378       0.80122268 </v>
   <v>       0.47796479       0.13582521       0.81495126 </v>
   <v>       0.97796479       0.13582521       0.81495126 </v>
   <v>       0.47796479       0.46915854       0.81495126 </v>
   <v>       0.97796479       0.46915854       0.81495126 </v>
   <v>       0.47796479       0.80249188       0.81495126 </v>
   <v>       0.97796479       0.80249188       0.81495126 </v>
   <v>       0.02552584       0.19979622       0.19877732 </v>
   <v>       0.52552584       0.19979622       0.19877732 </v>
   <v>       0.02552584       0.53312955       0.19877732 </v>
   <v>       0.52552584       0.53312955       0.19877732 </v>
   <v>       0.02552584       0.86646289       0.19877732 </v>
   <v>       0.52552584       0.86646289       0.19877732 </v>
   <v>       0.27203521       0.19750812       0.18504874 </v>
   <v>       0.77203521       0.19750812       0.18504874 </v>
   <v>       0.27203521       0.53084146       0.18504874 </v>
   <v>       0.77203521       0.53084146       0.18504874 </v>
   <v>       0.27203521       0.86417479       0.18504874 </v>
   <v>       0.77203521       0.86417479       0.18504874 </v>
   <v>       0.12500000       0.16666667       0.00000000 </v>
   <v>       0.62500000       0.16666667       0.00000000 </v>
   <v>       0.12500000       0.50000000       0.00000000 </v>
   <v>       0.62500000       0.50000000       0.00000000 </v>
   <v>       0.12500000       0.83333333       0.00000000 </v>
   <v>       0.62500000       0.83333333       0.00000000 </v>
   <v>       0.37500000       0.16666667       0.00000000 </v>
   <v>       0.87500000       0.16666667       0.00000000 </v>
   <v>       0.37500000       0.50000000       0.00000000 </v>
   <v>       0.87500000       0.50000000       0.00000000 </v>
   <v>       0.37500000       0.83333333       0.00000000 </v>
   <v>       0.87500000       0.83333333       0.00000000 </v>
   <v>       0.17550072       0.22809805       0.36858830 </v>
   <v>       0.67614737       0.22809805       0.36858830 </v>
   <v>       0.17614737       0.56143138       0.36858830 </v>
   <v>       0.67614737       0.56143138       0.36858830 </v>
   <v>       0.17614737       0.89476472       0.36858830 </v>
   <v>       0.67614737       0.89476472       0.36858830 </v>
   <v>       0.41542106       0.22793643       0.36761855 </v>
   <v>       0.91542106       0.22793643       0.36761855 </v>
   <v>       0.41542106       0.56126976       0.36761855 </v>
   <v>       0.91542106       0.56126976       0.36761855 </v>
   <v>       0.41542106       0.89460309       0.36761855 </v>
   <v>       0.91542106       0.89460309       0.36761855 </v>
   <v>       0.07385263       0.10523528       0.63141170 </v>
   <v>       0.57385263       0.10523528       0.63141170 </v>
   <v>       0.07385263       0.43856862       0.63141170 </v>
   <v>       0.57385263       0.43856862       0.63141170 </v>
   <v>       0.07385263       0.77190195       0.63141170 </v>
   <v>       0.57385263       0.77190195       0.63141170 </v>
   <v>       0.33457894       0.10539691       0.63238145 </v>
   <v>       0.83457894       0.10539691       0.63238145 </v>
   <v>       0.33457894       0.43873024       0.63238145 </v>
   <v>       0.83457894       0.43873024       0.63238145 </v>
   <v>       0.33457894       0.77206357       0.63238145 </v>
   <v>       0.83457894       0.77206357       0.63238145 </v>
   <v>       0.22527003       0.30093342       0.80560053 </v>
   <v>       0.72527003       0.30093342       0.80560053 </v>
   <v>       0.22527003       0.63426676       0.80560053 </v>
   <v>       0.72527003       0.63426676       0.80560053 </v>
   <v>       0.22527003       0.96760009       0.80560053 </v>
   <v>       0.72527003       0.96760009       0.80560053 </v>
   <v>       0.47618324       0.30143353       0.80860116 </v>
   <v>       0.97618324       0.30143353       0.80860116 </v>
   <v>       0.47618324       0.63476686       0.80860116 </v>
   <v>       0.97618324       0.63476686       0.80860116 </v>
   <v>       0.47618324       0.96810019       0.80860116 </v>
   <v>       0.97618324       0.96810019       0.80860116 </v>
   <v>       0.02472997       0.03239991       0.19439947 </v>
   <v>       0.52472997       0.03239991       0.19439947 </v>
   <v>       0.02472997       0.36573324       0.19439947 </v>
   <v>       0.52472997       0.36573324       0.19439947 </v>
   <v>       0.02472997       0.69906658       0.19439947 </v>
   <v>       0.52472997       0.69906658       0.19439947 </v>
   <v>       0.27381676       0.03189981       0.19139884 </v>
   <v>       0.77381676       0.03189981       0.19139884 </v>
   <v>       0.27381676       0.36523314       0.19139884 </v>
   <v>       0.77381676       0.36523314       0.19139884 </v>
   <v>       0.27381676       0.69856647       0.19139884 </v>
   <v>       0.77381676       0.69856647       0.19139884 </v>
  </varray>
 </structure>
 <calculation>
  <scstep>
   <time name="dav">  334.94  341.00</time>
   <time name="total">  337.57  343.67</time>
   <energy>
    <i name="alphaZ">   2668.72143546 </i>
    <i name="ewald"> -68027.24524799 </i>
    <i name="hartreedc"> -39874.06490610 </i>
    <i name="XCdc">   4298.61585191 </i>
    <i name="pawpsdc"> 114383.84820647 </i>
    <i name="pawaedc">-118048.71515856 </i>
    <i name="eentropy">     -0.02973862 </i>
    <i name="bandstr">   -564.30281077 </i>
    <i name="atom"> 118542.86816856 </i>
    <i name="e_fr_energy">  13379.69580037 </i>
    <i name="e_wo_entrp">  13379.72553899 </i>
    <i name="e_0_energy">  13379.71066968 </i>
   </energy>
  </scstep>
  <scstep>
   <time name="dav">  324.46  330.04</time>
   <time name="total">  324.46  330.04</time>
   <energy>
    <i name="e_fr_energy">   1421.87742625 </i>
    <i name="e_wo_entrp">   1421.96208981 </i>
    <i name="e_0_energy">   1421.91975803 </i>
   </energy>
  </scstep>
  <scstep>
   <time name="dav">  348.61  354.97</time>
   <time name="total">  348.62  354.97</time>
   <energy>
    <i name="e_fr_energy">   -473.20083601 </i>
    <i name="e_wo_entrp">   -473.20083601 </i>
    <i name="e_0_energy">   -473.20083601 </i>
   </energy>
  </scstep>
  <scstep>
   <time name="dav">  391.80  398.86</time>
   <time name="total">  391.81  398.86</time>
   <energy>
    <i name="e_fr_energy">   -716.00153760 </i>
    <i name="e_wo_entrp">   -716.00153760 </i>
    <i name="e_0_energy">   -716.00153760 </i>
   </energy>
  </scstep>
  <scstep>
   <time name="dav">  514.65  524.42</time>
   <time name="total">  525.43  535.35</time>
   <energy>
    <i name="e_fr_energy">   -745.37033430 </i>
    <i name="e_wo_entrp">   -745.37033430 </i>
    <i name="e_0_energy">   -745.37033430 </i>
   </energy>
  </scstep>
  <scstep>
   <time name="dav">  410.90  418.36</time>
   <time name="total">  423.97  431.85</time>
   <energy>
    <i name="e_fr_energy">   -746.58287025 </i>
    <i name="e_wo_entrp">   -746.58287025 </i>
    <i name="e_0_energy">   -746.58287025 </i>
   </energy>
  </scstep>
  <scstep>
   <time name="dav">  466.65  474.88</time>
   <time name="total">  479.85  488.37</time>
   <energy>
    <i name="e_fr_energy">   -746.63637521 </i>
    <i name="e_wo_entrp">   -746.63637521 </i>
    <i name="e_0_energy">   -746.63637521 </i>
   </energy>
  </scstep>
  <scstep>
   <time name="dav">  440.60  448.57</time>
   <time name="total">  453.92  462.07</time>
   <energy>
    <i name="e_fr_energy">   -746.63560664 </i>
    <i name="e_wo_entrp">   -746.63560664 </i>
    <i name="e_0_energy">   -746.63560664 </i>
   </energy>
  </scstep>
  <scstep>
   <time name="dav">  466.88  475.10</time>
   <time name="total">  480.03  488.56</time>
   <energy>
    <i name="e_fr_energy">   -746.63496762 </i>
    <i name="e_wo_entrp">   -746.63496762 </i>
    <i name="e_0_energy">   -746.63496762 </i>
   </energy>
  </scstep>
  <scstep>
   <time name="dav">  478.44  487.82</time>
   <time name="total">  491.71  501.33</time>
   <energy>
    <i name="e_fr_energy">   -746.63385706 </i>
    <i name="e_wo_entrp">   -746.63385706 </i>
    <i name="e_0_energy">   -746.63385706 </i>
   </energy>
  </scstep>
  <scstep>
   <time name="dav">  481.63  485.94</time>
   <time name="total">  494.93  499.45</time>
   <energy>
    <i name="e_fr_energy">   -746.63177776 </i>
    <i name="e_wo_entrp">   -746.63177776 </i>
    <i name="e_0_energy">   -746.63177776 </i>
   </energy>
  </scstep>
  <scstep>
   <time name="dav">  383.94  387.41</time>
   <time name="total">  397.31  400.94</time>
   <energy>
    <i name="e_fr_energy">   -746.63128176 </i>
    <i name="e_wo_entrp">   -746.63128176 </i>
    <i name="e_0_energy">   -746.63128176 </i>
   </energy>
  </scstep>
  <scstep>
   <time name="dav">  428.63  432.63</time>
   <time name="total">  442.04  446.08</time>
   <energy>
    <i name="e_fr_energy">   -746.63107994 </i>
    <i name="e_wo_entrp">   -746.63107994 </i>
    <i name="e_0_energy">   -746.63107994 </i>
   </energy>
  </scstep>
  <scstep>
   <time name="dav">  443.29  447.11</time>
   <time name="total">  456.58  460.61</time>
   <energy>
    <i name="e_fr_energy">   -746.63101151 </i>
    <i name="e_wo_entrp">   -746.63101151 </i>
    <i name="e_0_energy">   -746.63101151 </i>
   </energy>
  </scstep>
  <scstep>
   <time name="dav">  374.89  378.19</time>
   <time name="total">  388.01  391.63</time>
   <energy>
    <i name="e_fr_energy">   -746.63093716 </i>
    <i name="e_wo_entrp">   -746.63093716 </i>
    <i name="e_0_energy">   -746.63093716 </i>
   </energy>
  </scstep>
  <scstep>
   <time name="dav">  420.85  424.37</time>
   <time name="total">  434.04  437.87</time>
   <energy>
    <i name="e_fr_energy">   -746.63090627 </i>
    <i name="e_wo_entrp">   -746.63090627 </i>
    <i name="e_0_energy">   -746.63090627 </i>
   </energy>
  </scstep>
  <scstep>
   <time name="dav">  420.89  424.39</time>
   <time name="total">  434.48  438.01</time>
   <energy>
    <i name="e_fr_energy">   -746.63090730 </i>
    <i name="e_wo_entrp">   -746.63090730 </i>
    <i name="e_0_energy">   -746.63090730 </i>
   </energy>
  </scstep>
  <scstep>
   <time name="dav">  295.33  297.92</time>
   <time name="total">  297.93  300.53</time>
   <energy>
    <i name="alphaZ">   2668.72143546 </i>
    <i name="ewald"> -68027.24524799 </i>
    <i name="hartreedc"> -39873.94961631 </i>
    <i name="XCdc">   4298.61059759 </i>
    <i name="pawpsdc"> 114379.65344848 </i>
    <i name="pawaedc">-118044.43589545 </i>
    <i name="eentropy">     -0.00000000 </i>
    <i name="bandstr"> -14690.85379846 </i>
    <i name="atom"> 118542.86816856 </i>
    <i name="e_fr_energy">   -746.63090812 </i>
    <i name="e_wo_entrp">   -746.63090812 </i>
    <i name="e_0_energy">   -746.63090812 </i>
   </energy>
  </scstep>
  <structure>
   <crystal>
    <varray name="basis" >
     <v>      15.21162830       0.00516956      -2.78361592 </v>
     <v>      -0.40798665      11.93565774      -2.20735884 </v>
     <v>      -0.06175567      -0.11168197      10.54442638 </v>
    </varray>
    <i name="volume">   1908.54869108 </i>
    <varray name="rec_basis" >
     <v>       0.06581343       0.00232549       0.00041008 </v>
     <v>       0.00013433       0.08395174       0.00088997 </v>
     <v>       0.01740216       0.01818827       0.09513139 </v>
    </varray>
   </crystal>
   <varray name="positions" >
    <v>       0.47527516       0.00074367       0.00446200 </v>
    <v>       0.97527516       0.00074367       0.00446200 </v>
    <v>       0.47527516       0.33407700       0.00446200 </v>
    <v>       0.97527516       0.33407700       0.00446200 </v>
    <v>       0.47527516       0.66741034       0.00446200 </v>
    <v>       0.97527516       0.66741034       0.00446200 </v>
    <v>       0.27472484       0.33258966       0.99553800 </v>
    <v>       0.77472484       0.33258966       0.99553800 </v>
    <v>       0.27472484       0.66592300       0.99553800 </v>
    <v>       0.77472484       0.66592300       0.99553800 </v>
    <v>       0.27472484       0.99925633       0.99553800 </v>
    <v>       0.77472484       0.99925633       0.99553800 </v>
    <v>       0.17788805       0.26797179       0.60783074 </v>
    <v>       0.67788805       0.26797179       0.60783074 </v>
    <v>       0.17788805       0.60130513       0.60783074 </v>
    <v>       0.67788805       0.60130513       0.60783074 </v>
    <v>       0.17788805       0.93463846       0.60783074 </v>
    <v>       0.67788805       0.93463846       0.60783074 </v>
    <v>       0.07211195       0.06536154       0.39216926 </v>
    <v>       0.57211195       0.06536154       0.39216926 </v>
    <v>       0.07211195       0.39869487       0.39216926 </v>
    <v>       0.57211195       0.39869487       0.39216926 </v>
    <v>       0.07211195       0.73202821       0.39216926 </v>
    <v>       0.57211195       0.73202821       0.39216926 </v>
    <v>       0.10733875       0.30765571       0.84593428 </v>
    <v>       0.60733875       0.30765571       0.84593428 </v>
    <v>       0.10733875       0.64098905       0.84593428 </v>
    <v>       0.60733875       0.64098905       0.84593428 </v>
    <v>       0.10733875       0.97432238       0.84593428 </v>
    <v>       0.60733875       0.97432238       0.84593428 </v>
    <v>       0.34464416       0.29539312       0.77235872 </v>
    <v>       0.84464416       0.29539312       0.77235872 </v>
    <v>       0.34464416       0.62872645       0.77235872 </v>
    <v>       0.84464416       0.62872645       0.77235872 </v>
    <v>       0.34464416       0.96205979       0.77235872 </v>
    <v>       0.84464416       0.96205979       0.77235872 </v>
    <v>       0.14266125       0.02567762       0.15406572 </v>
    <v>       0.64266125       0.02567762       0.15406572 </v>
    <v>       0.14266125       0.35901095       0.15406572 </v>
    <v>       0.64266125       0.35901095       0.15406572 </v>
    <v>       0.14266125       0.69234429       0.15406572 </v>
    <v>       0.64266125       0.69234429       0.15406572 </v>
    <v>       0.40535584       0.03794021       0.22764128 </v>
    <v>       0.90535584       0.03794021       0.22764128 </v>
    <v>       0.40535584       0.37127355       0.22764128 </v>
    <v>       0.90535584       0.37127355       0.22764128 </v>
    <v>       0.40535584       0.70460688       0.22764128 </v>
    <v>       0.90535584       0.70460688       0.22764128 </v>
    <v>       0.46517249       0.26691416       0.60148498 </v>
    <v>       0.96517249       0.26691416       0.60148498 </v>
    <v>       0.46517249       0.60024750       0.60148498 </v>
    <v>       0.96517249       0.60024750       0.60148498 </v>
    <v>       0.46517249       0.93358083       0.60148498 </v>
    <v>       0.96517249       0.93358083       0.60148498 </v>
    <v>       0.28482751       0.06641917       0.39851502 </v>
    <v>       0.78482751       0.06641917       0.39851502 </v>
    <v>       0.28482751       0.39975250       0.39851502 </v>
    <v>       0.78482751       0.39975250       0.39851502 </v>
    <v>       0.28482751       0.73308584       0.39851502 </v>
    <v>       0.78482751       0.73308584       0.39851502 </v>
    <v>       0.22447416       0.13353711       0.80122268 </v>
    <v>       0.72447416       0.13353711       0.80122268 </v>
    <v>       0.22447416       0.46687045       0.80122268 </v>
    <v>       0.72447416       0.46687045       0.80122268 </v>
    <v>       0.22447416       0.80020378       0.80122268 </v>
    <v>       0.72447416       0.80020378       0.80122268 </v>
    <v>       0.47796479       0.13582521       0.81495126 </v>
    <v>       0.97796479       0.13582521       0.81495126 </v>
    <v>       0.47796479       0.46915854       0.81495126 </v>
    <v>       0.97796479       0.46915854       0.81495126 </v>
    <v>       0.47796479       0.80249188       0.81495126 </v>
    <v>       0.97796479       0.80249188       0.81495126 </v>
    <v>       0.02552584       0.19979622       0.19877732 </v>
    <v>       0.52552584       0.19979622       0.19877732 </v>
    <v>       0.02552584       0.53312955       0.19877732 </v>
    <v>       0.52552584       0.53312955       0.19877732 </v>
    <v>       0.02552584       0.86646289       0.19877732 </v>
    <v>       0.52552584       0.86646289       0.19877732 </v>
    <v>       0.27203521       0.19750812       0.18504874 </v>
    <v>       0.77203521       0.19750812       0.18504874 </v>
    <v>       0.27203521       0.53084146       0.18504874 </v>
    <v>       0.77203521       0.53084146       0.18504874 </v>
    <v>       0.27203521       0.86417479       0.18504874 </v>
    <v>       0.77203521       0.86417479       0.18504874 </v>
    <v>       0.12500000       0.16666667       0.00000000 </v>
    <v>       0.62500000       0.16666667       0.00000000 </v>
    <v>       0.12500000       0.50000000       0.00000000 </v>
    <v>       0.62500000       0.50000000       0.00000000 </v>
    <v>       0.12500000       0.83333333       0.00000000 </v>
    <v>       0.62500000       0.83333333       0.00000000 </v>
    <v>       0.37500000       0.16666667       0.00000000 </v>
    <v>       0.87500000       0.16666667       0.00000000 </v>
    <v>       0.37500000       0.50000000       0.00000000 </v>
    <v>       0.87500000       0.50000000       0.00000000 </v>
    <v>       0.37500000       0.83333333       0.00000000 </v>
    <v>       0.87500000       0.83333333       0.00000000 </v>
    <v>       0.17550072       0.22809805       0.36858830 </v>
    <v>       0.67614737       0.22809805       0.36858830 </v>
    <v>       0.17614737       0.56143138       0.36858830 </v>
    <v>       0.67614737       0.56143138       0.36858830 </v>
    <v>       0.17614737       0.89476472       0.36858830 </v>
    <v>       0.67614737       0.89476472       0.36858830 </v>
    <v>       0.41542106       0.22793643       0.36761855 </v>
    <v>       0.91542106       0.22793643       0.36761855 </v>
    <v>       0.41542106       0.56126976       0.36761855 </v>
    <v>       0.91542106       0.56126976       0.36761855 </v>
    <v>       0.41542106       0.89460309       0.36761855 </v>
    <v>       0.91542106       0.89460309       0.36761855 </v>
    <v>       0.07385263       0.10523528       0.63141170 </v>
    <v>       0.57385263       0.10523528       0.63141170 </v>
    <v>       0.07385263       0.43856862       0.63141170 </v>
    <v>       0.57385263       0.43856862       0.63141170 </v>
    <v>       0.07385263       0.77190195       0.63141170 </v>
    <v>       0.57385263       0.77190195       0.63141170 </v>
    <v>       0.33457894       0.10539691       0.63238145 </v>
    <v>       0.83457894       0.10539691       0.63238145 </v>
    <v>       0.33457894       0.43873024       0.63238145 </v>
    <v>       0.83457894       0.43873024       0.63238145 </v>
    <v>       0.33457894       0.77206357       0.63238145 </v>
    <v>       0.83457894       0.77206357       0.63238145 </v>
    <v>       0.22527003       0.30093342       0.80560053 </v>
    <v>       0.72527003       0.30093342       0.80560053 </v>
    <v>       0.22527003       0.63426676       0.80560053 </v>
    <v>       0.72527003       0.63426676       0.80560053 </v>
    <v>       0.22527003       0.96760009       0.80560053 </v>
    <v>       0.72527003       0.96760009       0.80560053 </v>
    <v>       0.47618324       0.30143353       0.80860116 </v>
    <v>       0.97618324       0.30143353       0.80860116 </v>
    <v>       0.47618324       0.63476686       0.80860116 </v>
    <v>       0.97618324       0.63476686       0.80860116 </v>
    <v>       0.47618324       0.96810019       0.80860116 </v>
    <v>       0.97618324       0.96810019       0.80860116 </v>
    <v>       0.02472997       0.03239991       0.19439947 </v>
    <v>       0.52472997       0.03239991       0.19439947 </v>
    <v>       0.02472997       0.36573324       0.19439947 </v>
    <v>       0.52472997       0.36573324       0.19439947 </v>
    <v>       0.02472997       0.69906658       0.19439947 </v>
    <v>       0.52472997       0.69906658       0.19439947 </v>
    <v>       0.27381676       0.03189981       0.19139884 </v>
    <v>       0.77381676       0.03189981       0.19139884 </v>
    <v>       0.27381676       0.36523314       0.19139884 </v>
    <v>       0.77381676       0.36523314       0.19139884 </v>
    <v>       0.27381676       0.69856647       0.19139884 </v>
    <v>       0.77381676       0.69856647       0.19139884 </v>
   </varray>
  </structure>
  <varray name="forces" >
   <v>       0.00038738      -0.00023038      -0.00013768 </v>
   <v>       0.00012440       0.00011817       0.00059619 </v>
   <v>       0.00038794       0.00000626      -0.00015086 </v>
   <v>       0.00014874      -0.00004757       0.00059903 </v>
   <v>       0.00034430      -0.00005666      -0.00006282 </v>
   <v>      -0.00004986      -0.00013368      -0.00012533 </v>
   <v>      -0.00065093      -0.00002967      -0.00060979 </v>
   <v>       0.00029236       0.00000875       0.00019460 </v>
   <v>      -0.00050262       0.00009280       0.00007511 </v>
   <v>       0.00021052       0.00010999       0.00010318 </v>
   <v>      -0.00061067      -0.00009050      -0.00058363 </v>
   <v>       0.00027457       0.00024851       0.00016036 </v>
   <v>      -0.00266757       0.00050156       0.00095074 </v>
   <v>       0.00005019       0.00042656       0.00007456 </v>
   <v>      -0.00107026       0.00030236       0.00029743 </v>
   <v>      -0.00005102       0.00045419       0.00004979 </v>
   <v>      -0.00109173       0.00056129       0.00024804 </v>
   <v>      -0.00004188       0.00040650       0.00006048 </v>
   <v>      -0.00123475      -0.00029037      -0.00002249 </v>
   <v>       0.00121338      -0.00079276      -0.00016543 </v>
   <v>      -0.00122421      -0.00062406       0.00002106 </v>
   <v>       0.00119043      -0.00005129      -0.00029587 </v>
   <v>       0.00003845      -0.00043693      -0.00009516 </v>
   <v>       0.00086904      -0.00041887      -0.00019127 </v>
   <v>      -0.00058751      -0.00001753      -0.00048846 </v>
   <v>       0.00005633       0.00013017      -0.00011157 </v>
   <v>      -0.00055673      -0.00019986      -0.00042507 </v>
   <v>      -0.00002812       0.00017196      -0.00012282 </v>
   <v>      -0.00058915       0.00033700      -0.00050596 </v>
   <v>       0.00000573       0.00007758      -0.00010905 </v>
   <v>      -0.00158505      -0.00012439       0.00025174 </v>
   <v>      -0.00110993      -0.00031481       0.00002241 </v>
   <v>      -0.00157438       0.00015939       0.00008747 </v>
   <v>      -0.00116690      -0.00029348       0.00002336 </v>
   <v>      -0.00155924      -0.00067824       0.00020476 </v>
   <v>      -0.00116459      -0.00008321       0.00001530 </v>
   <v>      -0.00183905       0.00053913       0.00108751 </v>
   <v>       0.00070803      -0.00009316       0.00023115 </v>
   <v>      -0.00181650      -0.00049642       0.00126428 </v>
   <v>       0.00071919      -0.00008202       0.00022869 </v>
   <v>      -0.00002111      -0.00015822       0.00012008 </v>
   <v>       0.00054859      -0.00006505       0.00025732 </v>
   <v>       0.00193026      -0.00033439      -0.00031541 </v>
   <v>       0.00212804       0.00070552      -0.00008402 </v>
   <v>       0.00189013       0.00068896      -0.00048297 </v>
   <v>       0.00217947      -0.00016535       0.00006385 </v>
   <v>       0.00126987       0.00023189      -0.00014093 </v>
   <v>       0.00137919       0.00025068       0.00006260 </v>
   <v>       0.00089100       0.00074456       0.00120997 </v>
   <v>       0.00039457       0.00022338      -0.00135791 </v>
   <v>       0.00041854       0.00090714      -0.00023423 </v>
   <v>       0.00037319      -0.00010175      -0.00008419 </v>
   <v>       0.00045806       0.00002077      -0.00010728 </v>
   <v>       0.00034099       0.00105055      -0.00026119 </v>
   <v>      -0.00602299       0.00197037      -0.00040189 </v>
   <v>       0.00097821       0.00019999      -0.00004618 </v>
   <v>      -0.00583271      -0.00329501       0.00060471 </v>
   <v>       0.00101216      -0.00108192       0.00015759 </v>
   <v>      -0.00054738      -0.00044935       0.00032239 </v>
   <v>       0.00055140      -0.00043202       0.00015248 </v>
   <v>      -0.00177355      -0.00011050       0.00055688 </v>
   <v>       0.00123839      -0.00012657       0.00036110 </v>
   <v>      -0.00142286      -0.00027667       0.00037291 </v>
   <v>       0.00092949      -0.00019500       0.00022429 </v>
   <v>      -0.00057616      -0.00025865       0.00024405 </v>
   <v>       0.00073404      -0.00015465       0.00025928 </v>
   <v>       0.00088389       0.00003964       0.00004103 </v>
   <v>      -0.00029155      -0.00008498      -0.00073024 </v>
   <v>       0.00062049       0.00016642       0.00021999 </v>
   <v>      -0.00005716      -0.00016189      -0.00073233 </v>
   <v>       0.00002658      -0.00000999      -0.00015852 </v>
   <v>      -0.00050226       0.00005265      -0.00017349 </v>
   <v>      -0.00563498       0.00005397      -0.00018812 </v>
   <v>       0.00121065       0.00001314      -0.00136191 </v>
   <v>      -0.00052552      -0.00202950       0.00014195 </v>
   <v>       0.00050656       0.00043072      -0.00035568 </v>
   <v>      -0.00070618       0.00235971      -0.00062917 </v>
   <v>       0.00048531      -0.00000717      -0.00030388 </v>
   <v>      -0.00689018       0.00077140       0.00566417 </v>
   <v>       0.00154005       0.00012373       0.00063559 </v>
   <v>      -0.00066199       0.00171691      -0.00027377 </v>
   <v>       0.00086466      -0.00017100       0.00021789 </v>
   <v>      -0.00042666      -0.00181455       0.00035344 </v>
   <v>       0.00081286       0.00020714       0.00015890 </v>
   <v>       0.00290071      -0.00001123      -0.00049975 </v>
   <v>      -0.00096540      -0.00002663      -0.00006770 </v>
   <v>       0.00115828       0.00014085       0.00015591 </v>
   <v>      -0.00073721      -0.00007049      -0.00010393 </v>
   <v>       0.00104007      -0.00003166      -0.00004513 </v>
   <v>      -0.00068175      -0.00003051      -0.00006146 </v>
   <v>      -0.00010139       0.00015711       0.00087477 </v>
   <v>      -0.00114839      -0.00020741      -0.00085555 </v>
   <v>       0.00000513      -0.00029073       0.00020173 </v>
   <v>      -0.00068075       0.00030968      -0.00032168 </v>
   <v>      -0.00006341       0.00039129       0.00035728 </v>
   <v>      -0.00062658      -0.00045334      -0.00024661 </v>
   <v>       0.05719388      -0.00069629      -0.01197284 </v>
   <v>      -0.00163593      -0.00039943       0.00035670 </v>
   <v>       0.00145979      -0.00041956      -0.00004249 </v>
   <v>      -0.00063313      -0.00038577       0.00017461 </v>
   <v>       0.00145165      -0.00034311      -0.00008297 </v>
   <v>      -0.00062903      -0.00044223       0.00019188 </v>
   <v>      -0.00731625      -0.00035602       0.00109225 </v>
   <v>      -0.00452796      -0.00024764       0.00117746 </v>
   <v>      -0.00019747      -0.00110302       0.00013827 </v>
   <v>      -0.00026845       0.00014461       0.00007242 </v>
   <v>      -0.00025418       0.00048472      -0.00011016 </v>
   <v>      -0.00023383      -0.00074287       0.00020992 </v>
   <v>      -0.00071754      -0.00091284       0.00261416 </v>
   <v>      -0.00092545       0.00058527      -0.00036283 </v>
   <v>      -0.00080284       0.00255675       0.00201229 </v>
   <v>      -0.00087888       0.00007868      -0.00027682 </v>
   <v>       0.00043483       0.00038853      -0.00020453 </v>
   <v>      -0.00059202       0.00036433      -0.00019394 </v>
   <v>      -0.00163900       0.00156208      -0.00292977 </v>
   <v>      -0.00068748       0.00016300       0.00021455 </v>
   <v>      -0.00154574      -0.00204351      -0.00236297 </v>
   <v>      -0.00068411       0.00051587       0.00025153 </v>
   <v>       0.00027026       0.00031470      -0.00003811 </v>
   <v>      -0.00043171       0.00030643       0.00007615 </v>
   <v>       0.00128890       0.00024488       0.00017221 </v>
   <v>      -0.00079238       0.00020005      -0.00005924 </v>
   <v>       0.00087784       0.00009969      -0.00011160 </v>
   <v>      -0.00074265       0.00005392      -0.00001689 </v>
   <v>       0.00099577       0.00004168      -0.00004140 </v>
   <v>      -0.00076477      -0.00007351      -0.00001564 </v>
   <v>      -0.00101530      -0.00033068      -0.00053544 </v>
   <v>      -0.00038983      -0.00004901       0.00013163 </v>
   <v>      -0.00097880      -0.00079421      -0.00034871 </v>
   <v>      -0.00051433       0.00048306       0.00008452 </v>
   <v>      -0.00105579       0.00052181      -0.00054667 </v>
   <v>      -0.00044778      -0.00062917       0.00013775 </v>
   <v>      -0.00373320      -0.00842741      -0.00229582 </v>
   <v>      -0.00078701       0.00065940       0.00034186 </v>
   <v>      -0.00426285       0.00656952      -0.00509129 </v>
   <v>      -0.00076387      -0.00069003       0.00057918 </v>
   <v>       0.00045266      -0.00004596      -0.00002176 </v>
   <v>      -0.00048234      -0.00010992       0.00016209 </v>
   <v>      -0.00137505       0.00738941       0.00435613 </v>
   <v>      -0.00037856      -0.00041210       0.00008095 </v>
   <v>      -0.00090500      -0.00526408       0.00667830 </v>
   <v>      -0.00041782       0.00053955      -0.00007982 </v>
   <v>       0.00099233       0.00016623       0.00027285 </v>
   <v>      -0.00006061       0.00009590       0.00015100 </v>
  </varray>
  <varray name="stress" >
   <v>      -0.13646203       0.02058150       0.04007012 </v>
   <v>       0.01060427      -0.16802510      -0.07382179 </v>
   <v>       0.00137544      -0.04495442      -0.12492267 </v>
  </varray>
  <energy>
   <i name="e_fr_energy">   -746.63090812 </i>
   <i name="e_wo_entrp">   -746.63090812 </i>
   <i name="e_0_energy">     -0.00000000 </i>
  </energy>
  <time name="totalsc"> 8184.27 8296.94</time>
  <eigenvalues>
   <array>
    <dimension dim="1">band</dimension>
    <dimension dim="2">kpoint</dimension>
    <dimension dim="3">spin</dimension>
    <field>eigene</field>
    <field>occ</field>
    <set>
     <set comment="spin 1">
      <set comment="kpoint 1">
       <r>  -51.6072    1.0000 </r>
       <r>  -51.6070    1.0000 </r>
       <r>  -51.6044    1.0000 </r>
       <r>  -51.6037    1.0000 </r>
       <r>  -51.6035    1.0000 </r>
       <r>  -51.6031    1.0000 </r>
       <r>  -51.6023    1.0000 </r>
       <r>  -51.6021    1.0000 </r>
       <r>  -51.6018    1.0000 </r>
       <r>  -51.6018    1.0000 </r>
       <r>  -51.6016    1.0000 </r>
       <r>  -51.6010    1.0000 </r>
       <r>  -51.4226    1.0000 </r>
       <r>  -51.4190    1.0000 </r>
       <r>  -51.4190    1.0000 </r>
       <r>  -51.4188    1.0000 </r>
       <r>  -51.4188    1.0000 </r>
       <r>  -51.4183    1.0000 </r>
       <r>  -51.4174    1.0000 </r>
       <r>  -51.4172    1.0000 </r>
       <r>  -51.4172    1.0000 </r>
       <r>  -51.4169    1.0000 </r>
       <r>  -51.4167    1.0000 </r>
       <r>  -51.4165    1.0000 </r>
       <r>  -51.2990    1.0000 </r>
       <r>  -51.2985    1.0000 </r>
       <r>  -51.2981    1.0000 </r>
       <r>  -51.2980    1.0000 </r>
       <r>  -51.2979    1.0000 </r>
       <r>  -51.2978    1.0000 </r>
       <r>  -51.2977    1.0000 </r>
       <r>  -51.2972    1.0000 </r>
       <r>  -51.2969    1.0000 </r>
       <r>  -51.2966    1.0000 </r>
       <r>  -51.2961    1.0000 </r>
       <r>  -51.2917    1.0000 </r>
       <r>  -50.1601    1.0000 </r>
       <r>  -50.1596    1.0000 </r>
       <r>  -50.1591    1.0000 </r>
       <r>  -50.1585    1.0000 </r>
       <r>  -50.1580    1.0000 </r>
       <r>  -50.1577    1.0000 </r>
       <r>  -50.1570    1.0000 </r>
       <r>  -50.1568    1.0000 </r>
       <r>  -50.1566    1.0000 </r>
       <r>  -50.1563    1.0000 </r>
       <r>  -50.1561    1.0000 </r>
       <r>  -50.1555    1.0000 </r>
       <r>  -50.0710    1.0000 </r>
       <r>  -50.0710    1.0000 </r>
       <r>  -50.0674    1.0000 </r>
       <r>  -50.0668    1.0000 </r>
       <r>  -50.0667    1.0000 </r>
       <r>  -50.0662    1.0000 </r>
       <r>  -50.0655    1.0000 </r>
       <r>  -50.0652    1.0000 </r>
       <r>  -50.0651    1.0000 </r>
       <r>  -50.0648    1.0000 </r>
       <r>  -50.0648    1.0000 </r>
       <r>  -50.0641    1.0000 </r>
       <r>  -49.9658    1.0000 </r>
       <r>  -49.9629    1.0000 </r>
       <r>  -49.9627    1.0000 </r>
       <r>  -49.9627    1.0000 </r>
       <r>  -49.9626    1.0000 </r>
       <r>  -49.9623    1.0000 </r>
       <r>  -49.9613    1.0000 </r>
       <r>  -49.9611    1.0000 </r>
       <r>  -49.9611    1.0000 </r>
       <r>  -49.9607    1.0000 </r>
       <r>  -49.9606    1.0000 </r>
       <r>  -49.9606    1.0000 </r>
       <r>  -49.9582    1.0000 </r>
       <r>  -49.9537    1.0000 </r>
       <r>  -49.9536    1.0000 </r>
       <r>  -49.9535    1.0000 </r>
       <r>  -49.9535    1.0000 </r>
       <r>  -49.9532    1.0000 </r>
       <r>  -49.9521    1.0000 </r>
       <r>  -49.9520    1.0000 </r>
       <r>  -49.9519    1.0000 </r>
       <r>  -49.9516    1.0000 </r>
       <r>  -49.9515    1.0000 </r>
       <r>  -49.9513    1.0000 </r>
       <r>  -49.8901    1.0000 </r>
       <r>  -49.8894    1.0000 </r>
       <r>  -49.8893    1.0000 </r>
       <r>  -49.8889    1.0000 </r>
       <r>  -49.8889    1.0000 </r>
       <r>  -49.8889    1.0000 </r>
       <r>  -49.8887    1.0000 </r>
       <r>  -49.8886    1.0000 </r>
       <r>  -49.8885    1.0000 </r>
       <r>  -49.8877    1.0000 </r>
       <r>  -49.8876    1.0000 </r>
       <r>  -49.8823    1.0000 </r>
       <r>  -49.8483    1.0000 </r>
       <r>  -49.8476    1.0000 </r>
       <r>  -49.8476    1.0000 </r>
       <r>  -49.8472    1.0000 </r>
       <r>  -49.8472    1.0000 </r>
       <r>  -49.8472    1.0000 </r>
       <r>  -49.8469    1.0000 </r>
       <r>  -49.8469    1.0000 </r>
[...]
       <r>   -32.5898     0.0000   156.0000 </r>
       <r>   -32.3502     0.0000   156.0000 </r>
       <r>   -32.1106     0.0000   156.0000 </r>
       <r>   -31.8710     0.0000   156.0000 </r>
       <r>   -31.6313     0.0000   156.0000 </r>
       <r>   -31.3917     0.0000   156.0000 </r>
       <r>   -31.1521     0.0000   156.0000 </r>
       <r>   -30.9125     0.0000   156.0000 </r>
       <r>   -30.6728     0.0000   156.0000 </r>
       <r>   -30.4332     0.0000   156.0000 </r>
       <r>   -30.1936     0.0000   156.0000 </r>
       <r>   -29.9540     0.0000   156.0000 </r>
       <r>   -29.7143     0.0000   156.0000 </r>
       <r>   -29.4747     0.0000   156.0000 </r>
       <r>   -29.2351     0.0000   156.0000 </r>
       <r>   -28.9955     0.0000   156.0000 </r>
       <r>   -28.7558     0.0000   156.0000 </r>
       <r>   -28.5162     0.0000   156.0000 </r>
       <r>   -28.2766     0.0000   156.0000 </r>
       <r>   -28.0370     0.0000   156.0000 </r>
       <r>   -27.7974     0.0000   156.0000 </r>
       <r>   -27.5577     0.0000   156.0000 </r>
       <r>   -27.3181     0.0000   156.0000 </r>
       <r>   -27.0785     0.0000   156.0000 </r>
       <r>   -26.8389     0.0000   156.0000 </r>
       <r>   -26.5992     0.0000   156.0000 </r>
       <r>   -26.3596     0.0000   156.0000 </r>
       <r>   -26.1200     0.0000   156.0000 </r>
       <r>   -25.8804     0.0000   156.0000 </r>
       <r>   -25.6407     0.0000   156.0000 </r>
       <r>   -25.4011     0.0000   156.0000 </r>
       <r>   -25.1615     0.0000   156.0000 </r>
       <r>   -24.9219     0.0000   156.0000 </r>
       <r>   -24.6823     0.0000   156.0000 </r>
       <r>   -24.4426     0.0000   156.0000 </r>
       <r>   -24.2030     0.0000   156.0000 </r>
       <r>   -23.9634     0.0000   156.0000 </r>
       <r>   -23.7238     0.0000   156.0000 </r>
       <r>   -23.4841     0.0000   156.0000 </r>
       <r>   -23.2445     0.0000   156.0000 </r>
       <r>   -23.0049     0.0000   156.0000 </r>
       <r>   -22.7653     0.0000   156.0000 </r>
       <r>   -22.5256     0.0000   156.0000 </r>
       <r>   -22.2860     0.0000   156.0000 </r>
       <r>   -22.0464     0.0000   156.0000 </r>
       <r>   -21.8068     0.0000   156.0000 </r>
       <r>   -21.5671     0.0000   156.0000 </r>
       <r>   -21.3275     0.0000   156.0000 </r>
       <r>   -21.0879     0.0000   156.0000 </r>
       <r>   -20.8483     0.0000   156.0000 </r>
       <r>   -20.6087     0.0000   156.0000 </r>
       <r>   -20.3690     0.0000   156.0000 </r>
       <r>   -20.1294     0.0000   156.0000 </r>
       <r>   -19.8898     0.0000   156.0000 </r>
       <r>   -19.6502     0.0000   156.0000 </r>
       <r>   -19.4105     0.0000   156.0000 </r>
       <r>   -19.1709     0.0000   156.0000 </r>
       <r>   -18.9313     0.0000   156.0000 </r>
       <r>   -18.6917     0.0000   156.0000 </r>
       <r>   -18.4520     0.0000   156.0000 </r>
       <r>   -18.2124     0.0000   156.0000 </r>
       <r>   -17.9728     0.0000   156.0000 </r>
       <r>   -17.7332     0.0000   156.0000 </r>
       <r>   -17.4936     0.0000   156.0000 </r>
       <r>   -17.2539     0.0000   156.0000 </r>
       <r>   -17.0143     0.0000   156.0000 </r>
       <r>   -16.7747     0.0000   156.0000 </r>
       <r>   -16.5351     0.0000   156.0000 </r>
       <r>   -16.2954     0.0000   156.0000 </r>
       <r>   -16.0558     0.0000   156.0000 </r>
       <r>   -15.8162     0.0000   156.0000 </r>
       <r>   -15.5766     0.0000   156.0000 </r>
       <r>   -15.3369     0.0000   156.0000 </r>
       <r>   -15.0973     0.0000   156.0000 </r>
       <r>   -14.8577     0.0000   156.0000 </r>
       <r>   -14.6181     0.0000   156.0000 </r>
       <r>   -14.3784     0.0000   156.0000 </r>
       <r>   -14.1388     0.0000   156.0000 </r>
       <r>   -13.8992     0.0000   156.0000 </r>
       <r>   -13.6596     0.0000   156.0000 </r>
       <r>   -13.4200     1.8599   156.4457 </r>
       <r>   -13.1803    44.5014   167.1093 </r>
       <r>   -12.9407     4.4309   168.1710 </r>
       <r>   -12.7011    42.0845   178.2554 </r>
       <r>   -12.4615     7.2804   180.0000 </r>
       <r>   -12.2218     0.0000   180.0000 </r>
       <r>   -11.9822     0.0000   180.0000 </r>
       <r>   -11.7426     0.0000   180.0000 </r>
       <r>   -11.5030     0.0000   180.0000 </r>
       <r>   -11.2633     0.0000   180.0000 </r>
       <r>   -11.0237     0.0000   180.0000 </r>
       <r>   -10.7841     0.0000   180.0000 </r>
       <r>   -10.5445     0.0000   180.0000 </r>
       <r>   -10.3049     0.0000   180.0000 </r>
       <r>   -10.0652     0.0000   180.0000 </r>
       <r>    -9.8256     0.0000   180.0000 </r>
       <r>    -9.5860     0.0000   180.0000 </r>
       <r>    -9.3464     0.0000   180.0000 </r>
       <r>    -9.1067     0.0000   180.0000 </r>
       <r>    -8.8671     0.0000   180.0000 </r>
       <r>    -8.6275     0.0000   180.0000 </r>
       <r>    -8.3879     0.0000   180.0000 </r>
       <r>    -8.1482     0.0000   180.0000 </r>
       <r>    -7.9086     0.0000   180.0000 </r>
       <r>    -7.6690     0.0179   180.0043 </r>
       <r>    -7.4294    12.0456   182.8907 </r>
       <r>    -7.1897    28.6911   189.7658 </r>
       <r>    -6.9501    60.0279   204.1498 </r>
       <r>    -6.7105    46.2012   215.2207 </r>
       <r>    -6.4709     3.2521   216.0000 </r>
       <r>    -6.2313     0.0000   216.0000 </r>
       <r>    -5.9916     0.0000   216.0000 </r>
       <r>    -5.7520     0.0000   216.0000 </r>
       <r>    -5.5124     0.0000   216.0000 </r>
       <r>    -5.2728     0.0000   216.0000 </r>
       <r>    -5.0331     0.0000   216.0000 </r>
       <r>    -4.7935     0.0000   216.0000 </r>
       <r>    -4.5539     0.0000   216.0000 </r>
       <r>    -4.3143     0.0000   216.0000 </r>
       <r>    -4.0746     0.0000   216.0000 </r>
       <r>    -3.8350     0.0000   216.0000 </r>
       <r>    -3.5954     0.0000   216.0000 </r>
       <r>    -3.3558     0.0000   216.0000 </r>
       <r>    -3.1162     0.0000   216.0000 </r>
       <r>    -2.8765     0.0000   216.0000 </r>
       <r>    -2.6369     0.0000   216.0000 </r>
       <r>    -2.3973     0.0000   216.0000 </r>
       <r>    -2.1577     0.0000   216.0000 </r>
       <r>    -1.9180     0.0000   216.0000 </r>
       <r>    -1.6784     0.0000   216.0000 </r>
       <r>    -1.4388     0.0000   216.0000 </r>
       <r>    -1.1992     0.0958   216.0230 </r>
       <r>    -0.9595     4.4283   217.0841 </r>
       <r>    -0.7199    14.1450   220.4736 </r>
       <r>    -0.4803    15.3511   224.1520 </r>
       <r>    -0.2407    19.7281   228.8794 </r>
       <r>    -0.0010    41.2335   238.7599 </r>
       <r>     0.2386    33.9292   246.8901 </r>
       <r>     0.4782    42.2584   257.0162 </r>
       <r>     0.7178    33.5863   265.0643 </r>
       <r>     0.9574    53.1823   277.8080 </r>
       <r>     1.1971    60.3044   292.2583 </r>
       <r>     1.4367    44.4181   302.9019 </r>
       <r>     1.6763    39.9502   312.4749 </r>
       <r>     1.9159    38.5111   321.7031 </r>
       <r>     2.1556    37.3324   330.6488 </r>
       <r>     2.3952    38.3286   339.8332 </r>
       <r>     2.6348    49.6424   351.7287 </r>
       <r>     2.8744    62.7940   366.7756 </r>
       <r>     3.1141    58.7795   380.8605 </r>
       <r>     3.3537    47.7511   392.3028 </r>
       <r>     3.5933    30.3101   399.5658 </r>
       <r>     3.8329    61.4922   414.3008 </r>
       <r>     4.0725    72.5444   431.6841 </r>
       <r>     4.3122     1.3182   432.0000 </r>
       <r>     4.5518     0.0000   432.0000 </r>
       <r>     4.7914     0.0000   432.0000 </r>
       <r>     5.0310     0.0000   432.0000 </r>
       <r>     5.2707     0.0000   432.0000 </r>
       <r>     5.5103     0.0000   432.0000 </r>
       <r>     5.7499     0.0000   432.0000 </r>
       <r>     5.9895     0.0000   432.0000 </r>
       <r>     6.2292     0.1534   432.0368 </r>
       <r>     6.4688     8.2809   434.0211 </r>
       <r>     6.7084    30.4585   441.3196 </r>
       <r>     6.9480    43.7211   451.7962 </r>
       <r>     7.1877    73.4965   469.4077 </r>
       <r>     7.4273    80.6454   488.7322 </r>
       <r>     7.6669    65.4237   504.4093 </r>
       <r>     7.9065    87.8512   525.4605 </r>
       <r>     8.1461    71.1272   542.5042 </r>
       <r>     8.3858    54.2241   555.4976 </r>
       <r>     8.6254    37.2454   564.4224 </r>
       <r>     8.8650    38.9281   573.7505 </r>
       <r>     9.1046    19.2098   578.3536 </r>
       <r>     9.3443    14.0514   581.7207 </r>
       <r>     9.5839    20.5991   586.6567 </r>
       <r>     9.8235    30.0598   593.8598 </r>
       <r>    10.0631    26.5523   600.2223 </r>
       <r>    10.3028    34.9204   608.5900 </r>
       <r>    10.5424    35.2185   617.0292 </r>
       <r>    10.7820    28.0204   623.7436 </r>
       <r>    11.0216    22.2858   629.0838 </r>
       <r>    11.2612    21.7094   634.2859 </r>
       <r>    11.5009    32.3538   642.0386 </r>
       <r>    11.7405    38.7169   651.3160 </r>
       <r>    11.9801    42.7217   661.5532 </r>
       <r>    12.2197    52.0297   674.0207 </r>
       <r>    12.4594    46.6660   685.2029 </r>
       <r>    12.6990    35.9623   693.8204 </r>
       <r>    12.9386    41.3096   703.7191 </r>
       <r>    13.1782    39.5591   713.1984 </r>
       <r>    13.4179    34.2546   721.4066 </r>
       <r>    13.6575    23.6258   727.0679 </r>
       <r>    13.8971     3.8899   728.0000 </r>
       <r>    14.1367     0.0000   728.0000 </r>
       <r>    14.3764     0.0000   728.0000 </r>
       <r>    14.6160     0.0000   728.0000 </r>
       <r>    14.8556     0.0000   728.0000 </r>
       <r>    15.0952     0.0000   728.0000 </r>
       <r>    15.3348     0.0000   728.0000 </r>
       <r>    15.5745     0.0000   728.0000 </r>
       <r>    15.8141     0.0000   728.0000 </r>
       <r>    16.0537     0.0000   728.0000 </r>
       <r>    16.2933     0.0000   728.0000 </r>
       <r>    16.5330     0.0000   728.0000 </r>
       <r>    16.7726     0.0000   728.0000 </r>
       <r>    17.0122     0.0000   728.0000 </r>
      </set>
     </set>
    </array>
   </total>
  </dos>
 </calculation>
 <structure name="finalpos" >
  <crystal>
   <varray name="basis" >
    <v>      15.21162830       0.00516956      -2.78361592 </v>
    <v>      -0.40798665      11.93565774      -2.20735884 </v>
    <v>      -0.06175567      -0.11168197      10.54442638 </v>
   </varray>
   <i name="volume">   1908.54869108 </i>
   <varray name="rec_basis" >
    <v>       0.06581343       0.00232549       0.00041008 </v>
    <v>       0.00013433       0.08395174       0.00088997 </v>
    <v>       0.01740216       0.01818827       0.09513139 </v>
   </varray>
  </crystal>
  <varray name="positions" >
   <v>       0.47527516       0.00074367       0.00446200 </v>
   <v>       0.97527516       0.00074367       0.00446200 </v>
   <v>       0.47527516       0.33407700       0.00446200 </v>
   <v>       0.97527516       0.33407700       0.00446200 </v>
   <v>       0.47527516       0.66741034       0.00446200 </v>
   <v>       0.97527516       0.66741034       0.00446200 </v>
   <v>       0.27472484       0.33258966       0.99553800 </v>
   <v>       0.77472484       0.33258966       0.99553800 </v>
   <v>       0.27472484       0.66592300       0.99553800 </v>
   <v>       0.77472484       0.66592300       0.99553800 </v>
   <v>       0.27472484       0.99925633       0.99553800 </v>
   <v>       0.77472484       0.99925633       0.99553800 </v>
   <v>       0.17788805       0.26797179       0.60783074 </v>
   <v>       0.67788805       0.26797179       0.60783074 </v>
   <v>       0.17788805       0.60130513       0.60783074 </v>
   <v>       0.67788805       0.60130513       0.60783074 </v>
   <v>       0.17788805       0.93463846       0.60783074 </v>
   <v>       0.67788805       0.93463846       0.60783074 </v>
   <v>       0.07211195       0.06536154       0.39216926 </v>
   <v>       0.57211195       0.06536154       0.39216926 </v>
   <v>       0.07211195       0.39869487       0.39216926 </v>
   <v>       0.57211195       0.39869487       0.39216926 </v>
   <v>       0.07211195       0.73202821       0.39216926 </v>
   <v>       0.57211195       0.73202821       0.39216926 </v>
   <v>       0.10733875       0.30765571       0.84593428 </v>
   <v>       0.60733875       0.30765571       0.84593428 </v>
   <v>       0.10733875       0.64098905       0.84593428 </v>
   <v>       0.60733875       0.64098905       0.84593428 </v>
   <v>       0.10733875       0.97432238       0.84593428 </v>
   <v>       0.60733875       0.97432238       0.84593428 </v>
   <v>       0.34464416       0.29539312       0.77235872 </v>
   <v>       0.84464416       0.29539312       0.77235872 </v>
   <v>       0.34464416       0.62872645       0.77235872 </v>
   <v>       0.84464416       0.62872645       0.77235872 </v>
   <v>       0.34464416       0.96205979       0.77235872 </v>
   <v>       0.84464416       0.96205979       0.77235872 </v>
   <v>       0.14266125       0.02567762       0.15406572 </v>
   <v>       0.64266125       0.02567762       0.15406572 </v>
   <v>       0.14266125       0.35901095       0.15406572 </v>
   <v>       0.64266125       0.35901095       0.15406572 </v>
   <v>       0.14266125       0.69234429       0.15406572 </v>
   <v>       0.64266125       0.69234429       0.15406572 </v>
   <v>       0.40535584       0.03794021       0.22764128 </v>
   <v>       0.90535584       0.03794021       0.22764128 </v>
   <v>       0.40535584       0.37127355       0.22764128 </v>
   <v>       0.90535584       0.37127355       0.22764128 </v>
   <v>       0.40535584       0.70460688       0.22764128 </v>
   <v>       0.90535584       0.70460688       0.22764128 </v>
   <v>       0.46517249       0.26691416       0.60148498 </v>
   <v>       0.96517249       0.26691416       0.60148498 </v>
   <v>       0.46517249       0.60024750       0.60148498 </v>
   <v>       0.96517249       0.60024750       0.60148498 </v>
   <v>       0.46517249       0.93358083       0.60148498 </v>
   <v>       0.96517249       0.93358083       0.60148498 </v>
   <v>       0.28482751       0.06641917       0.39851502 </v>
   <v>       0.78482751       0.06641917       0.39851502 </v>
   <v>       0.28482751       0.39975250       0.39851502 </v>
   <v>       0.78482751       0.39975250       0.39851502 </v>
   <v>       0.28482751       0.73308584       0.39851502 </v>
   <v>       0.78482751       0.73308584       0.39851502 </v>
   <v>       0.22447416       0.13353711       0.80122268 </v>
   <v>       0.72447416       0.13353711       0.80122268 </v>
   <v>       0.22447416       0.46687045       0.80122268 </v>
   <v>       0.72447416       0.46687045       0.80122268 </v>
   <v>       0.22447416       0.80020378       0.80122268 </v>
   <v>       0.72447416       0.80020378       0.80122268 </v>
   <v>       0.47796479       0.13582521       0.81495126 </v>
   <v>       0.97796479       0.13582521       0.81495126 </v>
   <v>       0.47796479       0.46915854       0.81495126 </v>
   <v>       0.97796479       0.46915854       0.81495126 </v>
   <v>       0.47796479       0.80249188       0.81495126 </v>
   <v>       0.97796479       0.80249188       0.81495126 </v>
   <v>       0.02552584       0.19979622       0.19877732 </v>
   <v>       0.52552584       0.19979622       0.19877732 </v>
   <v>       0.02552584       0.53312955       0.19877732 </v>
   <v>       0.52552584       0.53312955       0.19877732 </v>
   <v>       0.02552584       0.86646289       0.19877732 </v>
   <v>       0.52552584       0.86646289       0.19877732 </v>
   <v>       0.27203521       0.19750812       0.18504874 </v>
   <v>       0.77203521       0.19750812       0.18504874 </v>
   <v>       0.27203521       0.53084146       0.18504874 </v>
   <v>       0.77203521       0.53084146       0.18504874 </v>
   <v>       0.27203521       0.86417479       0.18504874 </v>
   <v>       0.77203521       0.86417479       0.18504874 </v>
   <v>       0.12500000       0.16666667       0.00000000 </v>
   <v>       0.62500000       0.16666667       0.00000000 </v>
   <v>       0.12500000       0.50000000       0.00000000 </v>
   <v>       0.62500000       0.50000000       0.00000000 </v>
   <v>       0.12500000       0.83333333       0.00000000 </v>
   <v>       0.62500000       0.83333333       0.00000000 </v>
   <v>       0.37500000       0.16666667       0.00000000 </v>
   <v>       0.87500000       0.16666667       0.00000000 </v>
   <v>       0.37500000       0.50000000       0.00000000 </v>
   <v>       0.87500000       0.50000000       0.00000000 </v>
   <v>       0.37500000       0.83333333       0.00000000 </v>
   <v>       0.87500000       0.83333333       0.00000000 </v>
   <v>       0.17550072       0.22809805       0.36858830 </v>
   <v>       0.67614737       0.22809805       0.36858830 </v>
   <v>       0.17614737       0.56143138       0.36858830 </v>
   <v>       0.67614737       0.56143138       0.36858830 </v>
   <v>       0.17614737       0.89476472       0.36858830 </v>
   <v>       0.67614737       0.89476472       0.36858830 </v>
   <v>       0.41542106       0.22793643       0.36761855 </v>
   <v>       0.91542106       0.22793643       0.36761855 </v>
   <v>       0.41542106       0.56126976       0.36761855 </v>
   <v>       0.91542106       0.56126976       0.36761855 </v>
   <v>       0.41542106       0.89460309       0.36761855 </v>
   <v>       0.91542106       0.89460309       0.36761855 </v>
   <v>       0.07385263       0.10523528       0.63141170 </v>
   <v>       0.57385263       0.10523528       0.63141170 </v>
   <v>       0.07385263       0.43856862       0.63141170 </v>
   <v>       0.57385263       0.43856862       0.63141170 </v>
   <v>       0.07385263       0.77190195       0.63141170 </v>
   <v>       0.57385263       0.77190195       0.63141170 </v>
   <v>       0.33457894       0.10539691       0.63238145 </v>
   <v>       0.83457894       0.10539691       0.63238145 </v>
   <v>       0.33457894       0.43873024       0.63238145 </v>
   <v>       0.83457894       0.43873024       0.63238145 </v>
   <v>       0.33457894       0.77206357       0.63238145 </v>
   <v>       0.83457894       0.77206357       0.63238145 </v>
   <v>       0.22527003       0.30093342       0.80560053 </v>
   <v>       0.72527003       0.30093342       0.80560053 </v>
   <v>       0.22527003       0.63426676       0.80560053 </v>
   <v>       0.72527003       0.63426676       0.80560053 </v>
   <v>       0.22527003       0.96760009       0.80560053 </v>
   <v>       0.72527003       0.96760009       0.80560053 </v>
   <v>       0.47618324       0.30143353       0.80860116 </v>
   <v>       0.97618324       0.30143353       0.80860116 </v>
   <v>       0.47618324       0.63476686       0.80860116 </v>
   <v>       0.97618324       0.63476686       0.80860116 </v>
   <v>       0.47618324       0.96810019       0.80860116 </v>
   <v>       0.97618324       0.96810019       0.80860116 </v>
   <v>       0.02472997       0.03239991       0.19439947 </v>
   <v>       0.52472997       0.03239991       0.19439947 </v>
   <v>       0.02472997       0.36573324       0.19439947 </v>
   <v>       0.52472997       0.36573324       0.19439947 </v>
   <v>       0.02472997       0.69906658       0.19439947 </v>
   <v>       0.52472997       0.69906658       0.19439947 </v>
   <v>       0.27381676       0.03189981       0.19139884 </v>
   <v>       0.77381676       0.03189981       0.19139884 </v>
   <v>       0.27381676       0.36523314       0.19139884 </v>
   <v>       0.77381676       0.36523314       0.19139884 </v>
   <v>       0.27381676       0.69856647       0.19139884 </v>
   <v>       0.77381676       0.69856647       0.19139884 </v>
  </varray>
 </structure>
</modeling>
