 144 144   0   0
  0.1325381E+02  0.1546422E-08  0.1214491E-08  0.1054520E-08  0.5000000E-15
  1.000000000000000E-004
  CAR 
 unknown system                          
     17.01329182    -54.87573487  301      5.09169489      1.00000000
    -54.876  0.0000E+00  0.0000E+00  0.0000E+00  0.0000E+00
    -54.636  0.0000E+00  0.0000E+00  0.0000E+00  0.0000E+00
    -54.396  0.0000E+00  0.0000E+00  0.0000E+00  0.0000E+00
    -54.157  0.0000E+00  0.0000E+00  0.0000E+00  0.0000E+00
    -53.917  0.0000E+00  0.0000E+00  0.0000E+00  0.0000E+00
    -53.678  0.0000E+00  0.0000E+00  0.0000E+00  0.0000E+00
    -53.438  0.0000E+00  0.0000E+00  0.0000E+00  0.0000E+00
    -53.198  0.0000E+00  0.0000E+00  0.0000E+00  0.0000E+00
    -52.959  0.0000E+00  0.0000E+00  0.0000E+00  0.0000E+00
    -52.719  0.0000E+00  0.0000E+00  0.0000E+00  0.0000E+00
    -52.479  0.0000E+00  0.0000E+00  0.0000E+00  0.0000E+00
    -52.240  0.0000E+00  0.0000E+00  0.0000E+00  0.0000E+00
    -52.000  0.0000E+00  0.0000E+00  0.0000E+00  0.0000E+00
    -51.761  0.2073E-03  0.0000E+00  0.4968E-04  0.0000E+00
    -51.521  0.4964E+02  0.0000E+00  0.1189E+02  0.0000E+00
    -51.281  0.8447E+02  0.0000E+00  0.3214E+02  0.0000E+00
    -51.042  0.1612E+02  0.0000E+00  0.3600E+02  0.0000E+00
    -50.802  0.0000E+00  0.0000E+00  0.3600E+02  0.0000E+00
    -50.562  0.0000E+00  0.0000E+00  0.3600E+02  0.0000E+00
    -50.323  0.7670E-04  0.0000E+00  0.3600E+02  0.0000E+00
    -50.083  0.6479E+02  0.0000E+00  0.5153E+02  0.0000E+00
    -49.844  0.2075E+03  0.0000E+00  0.1013E+03  0.0000E+00
    -49.604  0.2815E+02  0.0000E+00  0.1080E+03  0.0000E+00
    -49.364  0.0000E+00  0.0000E+00  0.1080E+03  0.0000E+00
    -49.125  0.0000E+00  0.0000E+00  0.1080E+03  0.0000E+00
    -48.885  0.0000E+00  0.0000E+00  0.1080E+03  0.0000E+00
    -48.645  0.0000E+00  0.0000E+00  0.1080E+03  0.0000E+00
    -48.406  0.0000E+00  0.0000E+00  0.1080E+03  0.0000E+00
    -48.166  0.0000E+00  0.0000E+00  0.1080E+03  0.0000E+00
    -47.926  0.0000E+00  0.0000E+00  0.1080E+03  0.0000E+00
    -47.687  0.0000E+00  0.0000E+00  0.1080E+03  0.0000E+00
    -47.447  0.0000E+00  0.0000E+00  0.1080E+03  0.0000E+00
    -47.208  0.0000E+00  0.0000E+00  0.1080E+03  0.0000E+00
    -46.968  0.0000E+00  0.4658E-01  0.1080E+03  0.1116E-01
    -46.728  0.0000E+00  0.5073E+02  0.1080E+03  0.1217E+02
    -46.489  0.0000E+00  0.9472E+02  0.1080E+03  0.3487E+02
    -46.249  0.0000E+00  0.1429E+03  0.1080E+03  0.6910E+02
    -46.009  0.0000E+00  0.1623E+03  0.1080E+03  0.1080E+03
    -45.770  0.0000E+00  0.6840E-02  0.1080E+03  0.1080E+03
    -45.530  0.0000E+00  0.0000E+00  0.1080E+03  0.1080E+03
    -45.291  0.0000E+00  0.0000E+00  0.1080E+03  0.1080E+03
    -45.051  0.0000E+00  0.0000E+00  0.1080E+03  0.1080E+03
    -44.811  0.0000E+00  0.0000E+00  0.1080E+03  0.1080E+03
    -44.572  0.0000E+00  0.0000E+00  0.1080E+03  0.1080E+03
    -44.332  0.0000E+00  0.0000E+00  0.1080E+03  0.1080E+03
    -44.092  0.0000E+00  0.0000E+00  0.1080E+03  0.1080E+03
    -43.853  0.0000E+00  0.0000E+00  0.1080E+03  0.1080E+03
    -43.613  0.0000E+00  0.0000E+00  0.1080E+03  0.1080E+03
    -43.373  0.0000E+00  0.0000E+00  0.1080E+03  0.1080E+03
    -43.134  0.0000E+00  0.0000E+00  0.1080E+03  0.1080E+03
    -42.894  0.0000E+00  0.0000E+00  0.1080E+03  0.1080E+03
    -42.655  0.0000E+00  0.0000E+00  0.1080E+03  0.1080E+03
    -42.415  0.0000E+00  0.0000E+00  0.1080E+03  0.1080E+03
    -42.175  0.0000E+00  0.0000E+00  0.1080E+03  0.1080E+03
    -41.936  0.0000E+00  0.0000E+00  0.1080E+03  0.1080E+03
    -41.696  0.0000E+00  0.0000E+00  0.1080E+03  0.1080E+03
    -41.456  0.0000E+00  0.0000E+00  0.1080E+03  0.1080E+03
    -41.217  0.0000E+00  0.0000E+00  0.1080E+03  0.1080E+03
    -40.977  0.0000E+00  0.0000E+00  0.1080E+03  0.1080E+03
    -40.738  0.9744E-09  0.3168E-09  0.1080E+03  0.1080E+03
    -40.498  0.2786E+02  0.2458E+02  0.1147E+03  0.1139E+03
    -40.258  0.4637E+02  0.5004E+02  0.1258E+03  0.1259E+03
    -40.019  0.9978E+02  0.9977E+02  0.1497E+03  0.1498E+03
    -39.779  0.2630E+02  0.2592E+02  0.1560E+03  0.1560E+03
    -39.539  0.0000E+00  0.0000E+00  0.1560E+03  0.1560E+03
    -39.300  0.0000E+00  0.0000E+00  0.1560E+03  0.1560E+03
    -39.060  0.0000E+00  0.0000E+00  0.1560E+03  0.1560E+03
    -38.821  0.0000E+00  0.0000E+00  0.1560E+03  0.1560E+03
    -38.581  0.0000E+00  0.0000E+00  0.1560E+03  0.1560E+03
    -38.341  0.0000E+00  0.0000E+00  0.1560E+03  0.1560E+03
    -38.102  0.0000E+00  0.0000E+00  0.1560E+03  0.1560E+03
    -37.862  0.0000E+00  0.0000E+00  0.1560E+03  0.1560E+03
    -37.622  0.0000E+00  0.0000E+00  0.1560E+03  0.1560E+03
    -37.383  0.0000E+00  0.0000E+00  0.1560E+03  0.1560E+03
    -37.143  0.0000E+00  0.0000E+00  0.1560E+03  0.1560E+03
    -36.903  0.0000E+00  0.0000E+00  0.1560E+03  0.1560E+03
    -36.664  0.0000E+00  0.0000E+00  0.1560E+03  0.1560E+03
    -36.424  0.0000E+00  0.0000E+00  0.1560E+03  0.1560E+03
    -36.185  0.0000E+00  0.0000E+00  0.1560E+03  0.1560E+03
    -35.945  0.0000E+00  0.0000E+00  0.1560E+03  0.1560E+03
    -35.705  0.0000E+00  0.0000E+00  0.1560E+03  0.1560E+03
    -35.466  0.0000E+00  0.0000E+00  0.1560E+03  0.1560E+03
    -35.226  0.0000E+00  0.0000E+00  0.1560E+03  0.1560E+03
    -34.986  0.0000E+00  0.0000E+00  0.1560E+03  0.1560E+03
    -34.747  0.0000E+00  0.0000E+00  0.1560E+03  0.1560E+03
    -34.507  0.0000E+00  0.0000E+00  0.1560E+03  0.1560E+03
    -34.268  0.0000E+00  0.0000E+00  0.1560E+03  0.1560E+03
    -34.028  0.0000E+00  0.0000E+00  0.1560E+03  0.1560E+03
    -33.788  0.0000E+00  0.0000E+00  0.1560E+03  0.1560E+03
    -33.549  0.0000E+00  0.0000E+00  0.1560E+03  0.1560E+03
    -33.309  0.0000E+00  0.0000E+00  0.1560E+03  0.1560E+03
    -33.069  0.0000E+00  0.0000E+00  0.1560E+03  0.1560E+03
    -32.830  0.0000E+00  0.0000E+00  0.1560E+03  0.1560E+03
    -32.590  0.0000E+00  0.0000E+00  0.1560E+03  0.1560E+03
    -32.351  0.0000E+00  0.0000E+00  0.1560E+03  0.1560E+03
    -32.111  0.0000E+00  0.0000E+00  0.1560E+03  0.1560E+03
    -31.871  0.0000E+00  0.0000E+00  0.1560E+03  0.1560E+03
    -31.632  0.0000E+00  0.0000E+00  0.1560E+03  0.1560E+03
    -31.392  0.0000E+00  0.0000E+00  0.1560E+03  0.1560E+03
    -31.152  0.0000E+00  0.0000E+00  0.1560E+03  0.1560E+03
    -30.913  0.0000E+00  0.0000E+00  0.1560E+03  0.1560E+03
    -30.673  0.0000E+00  0.0000E+00  0.1560E+03  0.1560E+03
    -30.433  0.0000E+00  0.0000E+00  0.1560E+03  0.1560E+03
    -30.194  0.0000E+00  0.0000E+00  0.1560E+03  0.1560E+03
    -29.954  0.0000E+00  0.0000E+00  0.1560E+03  0.1560E+03
    -29.715  0.0000E+00  0.0000E+00  0.1560E+03  0.1560E+03
    -29.475  0.0000E+00  0.0000E+00  0.1560E+03  0.1560E+03
    -29.235  0.0000E+00  0.0000E+00  0.1560E+03  0.1560E+03
    -28.996  0.0000E+00  0.0000E+00  0.1560E+03  0.1560E+03
    -28.756  0.0000E+00  0.0000E+00  0.1560E+03  0.1560E+03
    -28.516  0.0000E+00  0.0000E+00  0.1560E+03  0.1560E+03
    -28.277  0.0000E+00  0.0000E+00  0.1560E+03  0.1560E+03
    -28.037  0.0000E+00  0.0000E+00  0.1560E+03  0.1560E+03
    -27.798  0.0000E+00  0.0000E+00  0.1560E+03  0.1560E+03
    -27.558  0.0000E+00  0.0000E+00  0.1560E+03  0.1560E+03
    -27.318  0.0000E+00  0.0000E+00  0.1560E+03  0.1560E+03
    -27.079  0.0000E+00  0.0000E+00  0.1560E+03  0.1560E+03
    -26.839  0.0000E+00  0.0000E+00  0.1560E+03  0.1560E+03
    -26.599  0.0000E+00  0.0000E+00  0.1560E+03  0.1560E+03
    -26.360  0.0000E+00  0.0000E+00  0.1560E+03  0.1560E+03
    -26.120  0.0000E+00  0.0000E+00  0.1560E+03  0.1560E+03
    -25.880  0.0000E+00  0.0000E+00  0.1560E+03  0.1560E+03
    -25.641  0.0000E+00  0.0000E+00  0.1560E+03  0.1560E+03
    -25.401  0.0000E+00  0.0000E+00  0.1560E+03  0.1560E+03
    -25.162  0.0000E+00  0.0000E+00  0.1560E+03  0.1560E+03
    -24.922  0.0000E+00  0.0000E+00  0.1560E+03  0.1560E+03
    -24.682  0.0000E+00  0.0000E+00  0.1560E+03  0.1560E+03
    -24.443  0.0000E+00  0.0000E+00  0.1560E+03  0.1560E+03
    -24.203  0.0000E+00  0.0000E+00  0.1560E+03  0.1560E+03
    -23.963  0.0000E+00  0.0000E+00  0.1560E+03  0.1560E+03
    -23.724  0.0000E+00  0.0000E+00  0.1560E+03  0.1560E+03
    -23.484  0.0000E+00  0.0000E+00  0.1560E+03  0.1560E+03
    -23.245  0.0000E+00  0.0000E+00  0.1560E+03  0.1560E+03
    -23.005  0.0000E+00  0.0000E+00  0.1560E+03  0.1560E+03
    -22.765  0.0000E+00  0.0000E+00  0.1560E+03  0.1560E+03
    -22.526  0.0000E+00  0.0000E+00  0.1560E+03  0.1560E+03
    -22.286  0.0000E+00  0.0000E+00  0.1560E+03  0.1560E+03
    -22.046  0.0000E+00  0.0000E+00  0.1560E+03  0.1560E+03
    -21.807  0.0000E+00  0.0000E+00  0.1560E+03  0.1560E+03
    -21.567  0.0000E+00  0.0000E+00  0.1560E+03  0.1560E+03
    -21.328  0.0000E+00  0.0000E+00  0.1560E+03  0.1560E+03
    -21.088  0.0000E+00  0.0000E+00  0.1560E+03  0.1560E+03
    -20.848  0.0000E+00  0.0000E+00  0.1560E+03  0.1560E+03
    -20.609  0.0000E+00  0.0000E+00  0.1560E+03  0.1560E+03
    -20.369  0.0000E+00  0.0000E+00  0.1560E+03  0.1560E+03
    -20.129  0.0000E+00  0.0000E+00  0.1560E+03  0.1560E+03
    -19.890  0.0000E+00  0.0000E+00  0.1560E+03  0.1560E+03
    -19.650  0.0000E+00  0.0000E+00  0.1560E+03  0.1560E+03
    -19.410  0.0000E+00  0.0000E+00  0.1560E+03  0.1560E+03
    -19.171  0.0000E+00  0.0000E+00  0.1560E+03  0.1560E+03
    -18.931  0.0000E+00  0.0000E+00  0.1560E+03  0.1560E+03
    -18.692  0.0000E+00  0.0000E+00  0.1560E+03  0.1560E+03
    -18.452  0.0000E+00  0.0000E+00  0.1560E+03  0.1560E+03
    -18.212  0.0000E+00  0.0000E+00  0.1560E+03  0.1560E+03
    -17.973  0.0000E+00  0.0000E+00  0.1560E+03  0.1560E+03
    -17.733  0.0000E+00  0.0000E+00  0.1560E+03  0.1560E+03
    -17.493  0.0000E+00  0.0000E+00  0.1560E+03  0.1560E+03
    -17.254  0.0000E+00  0.0000E+00  0.1560E+03  0.1560E+03
    -17.014  0.0000E+00  0.0000E+00  0.1560E+03  0.1560E+03
    -16.775  0.0000E+00  0.0000E+00  0.1560E+03  0.1560E+03
    -16.535  0.0000E+00  0.0000E+00  0.1560E+03  0.1560E+03
    -16.295  0.0000E+00  0.0000E+00  0.1560E+03  0.1560E+03
    -16.056  0.0000E+00  0.0000E+00  0.1560E+03  0.1560E+03
    -15.816  0.0000E+00  0.0000E+00  0.1560E+03  0.1560E+03
    -15.576  0.0000E+00  0.0000E+00  0.1560E+03  0.1560E+03
    -15.337  0.0000E+00  0.0000E+00  0.1560E+03  0.1560E+03
    -15.097  0.0000E+00  0.0000E+00  0.1560E+03  0.1560E+03
    -14.858  0.0000E+00  0.0000E+00  0.1560E+03  0.1560E+03
    -14.618  0.0000E+00  0.0000E+00  0.1560E+03  0.1560E+03
    -14.378  0.0000E+00  0.0000E+00  0.1560E+03  0.1560E+03
    -14.139  0.0000E+00  0.0000E+00  0.1560E+03  0.1560E+03
    -13.899  0.1299E-02  0.0000E+00  0.1560E+03  0.1560E+03
    -13.659  0.2224E+02  0.6291E-13  0.1613E+03  0.1560E+03
    -13.420  0.2766E+02  0.1834E+01  0.1680E+03  0.1564E+03
    -13.180  0.9044E+01  0.4449E+02  0.1701E+03  0.1671E+03
    -12.940  0.3146E+02  0.4497E+01  0.1777E+03  0.1682E+03
    -12.701  0.9749E+01  0.4219E+02  0.1800E+03  0.1783E+03
    -12.461  0.0000E+00  0.7149E+01  0.1800E+03  0.1800E+03
    -12.222  0.0000E+00  0.0000E+00  0.1800E+03  0.1800E+03
    -11.982  0.0000E+00  0.0000E+00  0.1800E+03  0.1800E+03
    -11.742  0.0000E+00  0.0000E+00  0.1800E+03  0.1800E+03
    -11.503  0.0000E+00  0.0000E+00  0.1800E+03  0.1800E+03
    -11.263  0.0000E+00  0.0000E+00  0.1800E+03  0.1800E+03
    -11.023  0.0000E+00  0.0000E+00  0.1800E+03  0.1800E+03
    -10.784  0.0000E+00  0.0000E+00  0.1800E+03  0.1800E+03
    -10.544  0.0000E+00  0.0000E+00  0.1800E+03  0.1800E+03
    -10.305  0.0000E+00  0.0000E+00  0.1800E+03  0.1800E+03
    -10.065  0.0000E+00  0.0000E+00  0.1800E+03  0.1800E+03
     -9.825  0.0000E+00  0.0000E+00  0.1800E+03  0.1800E+03
     -9.586  0.0000E+00  0.0000E+00  0.1800E+03  0.1800E+03
     -9.346  0.0000E+00  0.0000E+00  0.1800E+03  0.1800E+03
     -9.106  0.0000E+00  0.0000E+00  0.1800E+03  0.1800E+03
     -8.867  0.0000E+00  0.0000E+00  0.1800E+03  0.1800E+03
     -8.627  0.0000E+00  0.0000E+00  0.1800E+03  0.1800E+03
     -8.387  0.0000E+00  0.0000E+00  0.1800E+03  0.1800E+03
     -8.148  0.0000E+00  0.0000E+00  0.1800E+03  0.1800E+03
     -7.908  0.2529E-02  0.0000E+00  0.1800E+03  0.1800E+03
     -7.669  0.9504E+01  0.1863E-01  0.1823E+03  0.1800E+03
     -7.429  0.2320E+02  0.1208E+02  0.1878E+03  0.1829E+03
     -7.189  0.5601E+02  0.2876E+02  0.2013E+03  0.1898E+03
     -6.950  0.5766E+02  0.6006E+02  0.2151E+03  0.2042E+03
     -6.710  0.3859E+01  0.4610E+02  0.2160E+03  0.2152E+03
     -6.470  0.0000E+00  0.3219E+01  0.2160E+03  0.2160E+03
     -6.231  0.0000E+00  0.0000E+00  0.2160E+03  0.2160E+03
     -5.991  0.0000E+00  0.0000E+00  0.2160E+03  0.2160E+03
     -5.752  0.0000E+00  0.0000E+00  0.2160E+03  0.2160E+03
     -5.512  0.0000E+00  0.0000E+00  0.2160E+03  0.2160E+03
     -5.272  0.0000E+00  0.0000E+00  0.2160E+03  0.2160E+03
     -5.033  0.0000E+00  0.0000E+00  0.2160E+03  0.2160E+03
     -4.793  0.0000E+00  0.0000E+00  0.2160E+03  0.2160E+03
     -4.553  0.0000E+00  0.0000E+00  0.2160E+03  0.2160E+03
     -4.314  0.0000E+00  0.0000E+00  0.2160E+03  0.2160E+03
     -4.074  0.0000E+00  0.0000E+00  0.2160E+03  0.2160E+03
     -3.835  0.0000E+00  0.0000E+00  0.2160E+03  0.2160E+03
     -3.595  0.0000E+00  0.0000E+00  0.2160E+03  0.2160E+03
     -3.355  0.0000E+00  0.0000E+00  0.2160E+03  0.2160E+03
     -3.116  0.0000E+00  0.0000E+00  0.2160E+03  0.2160E+03
     -2.876  0.2499E-13  0.0000E+00  0.2160E+03  0.2160E+03
     -2.636  0.9259E+00  0.0000E+00  0.2162E+03  0.2160E+03
     -2.397  0.1021E+02  0.0000E+00  0.2187E+03  0.2160E+03
     -2.157  0.2062E+02  0.0000E+00  0.2236E+03  0.2160E+03
     -1.917  0.1725E+01  0.0000E+00  0.2240E+03  0.2160E+03
     -1.678  0.3478E+02  0.0000E+00  0.2324E+03  0.2160E+03
     -1.438  0.1973E+02  0.6950E-15  0.2371E+03  0.2160E+03
     -1.199  0.4410E+02  0.9698E-01  0.2477E+03  0.2160E+03
     -0.959  0.4987E+02  0.4431E+01  0.2596E+03  0.2171E+03
     -0.719  0.7518E+02  0.1417E+02  0.2776E+03  0.2205E+03
     -0.480  0.1036E+03  0.1537E+02  0.3024E+03  0.2242E+03
     -0.240  0.8548E+02  0.1976E+02  0.3229E+03  0.2289E+03
     -0.000  0.1105E+03  0.4121E+02  0.3494E+03  0.2388E+03
      0.239  0.6929E+02  0.3393E+02  0.3660E+03  0.2469E+03
      0.479  0.3804E+02  0.4227E+02  0.3751E+03  0.2570E+03
      0.718  0.4572E+02  0.3361E+02  0.3861E+03  0.2651E+03
      0.958  0.4868E+02  0.5328E+02  0.3977E+03  0.2779E+03
      1.198  0.5569E+02  0.6022E+02  0.4111E+03  0.2923E+03
      1.437  0.6459E+02  0.4444E+02  0.4266E+03  0.3029E+03
      1.677  0.1008E+03  0.3991E+02  0.4507E+03  0.3125E+03
      1.917  0.5186E+02  0.3853E+02  0.4631E+03  0.3217E+03
      2.156  0.3902E+02  0.3733E+02  0.4725E+03  0.3307E+03
      2.396  0.4649E+02  0.3834E+02  0.4836E+03  0.3399E+03
      2.635  0.4784E+02  0.4972E+02  0.4951E+03  0.3518E+03
      2.875  0.4343E+02  0.6273E+02  0.5055E+03  0.3668E+03
      3.115  0.4010E+02  0.5877E+02  0.5151E+03  0.3809E+03
      3.354  0.4776E+02  0.4767E+02  0.5266E+03  0.3923E+03
      3.594  0.5241E+02  0.3031E+02  0.5391E+03  0.3996E+03
      3.834  0.4523E+02  0.6171E+02  0.5500E+03  0.4144E+03
      4.073  0.3205E+02  0.7229E+02  0.5576E+03  0.4317E+03
      4.313  0.4229E+02  0.1286E+01  0.5678E+03  0.4320E+03
      4.553  0.2345E+02  0.0000E+00  0.5734E+03  0.4320E+03
      4.792  0.1009E+02  0.0000E+00  0.5758E+03  0.4320E+03
      5.032  0.8248E+00  0.0000E+00  0.5760E+03  0.4320E+03
      5.271  0.0000E+00  0.0000E+00  0.5760E+03  0.4320E+03
      5.511  0.0000E+00  0.0000E+00  0.5760E+03  0.4320E+03
      5.751  0.0000E+00  0.0000E+00  0.5760E+03  0.4320E+03
      5.990  0.0000E+00  0.9062E-11  0.5760E+03  0.4320E+03
      6.230  0.0000E+00  0.1553E+00  0.5760E+03  0.4320E+03
      6.470  0.0000E+00  0.8305E+01  0.5760E+03  0.4340E+03
      6.709  0.0000E+00  0.3049E+02  0.5760E+03  0.4413E+03
      6.949  0.1382E-11  0.4377E+02  0.5760E+03  0.4518E+03
      7.188  0.1156E+00  0.7361E+02  0.5760E+03  0.4695E+03
      7.428  0.1243E+00  0.8062E+02  0.5761E+03  0.4888E+03
      7.668  0.9257E+00  0.6543E+02  0.5763E+03  0.5045E+03
      7.907  0.3532E+01  0.8787E+02  0.5771E+03  0.5255E+03
      8.147  0.4263E+01  0.7106E+02  0.5781E+03  0.5425E+03
      8.387  0.7113E+01  0.5417E+02  0.5799E+03  0.5555E+03
      8.626  0.1653E+02  0.3726E+02  0.5838E+03  0.5645E+03
      8.866  0.2519E+02  0.3887E+02  0.5898E+03  0.5738E+03
      9.105  0.1922E+02  0.1917E+02  0.5945E+03  0.5784E+03
      9.345  0.2557E+02  0.1409E+02  0.6006E+03  0.5817E+03
      9.585  0.3137E+02  0.2059E+02  0.6081E+03  0.5867E+03
      9.824  0.2648E+02  0.3009E+02  0.6144E+03  0.5939E+03
     10.064  0.2957E+02  0.2656E+02  0.6215E+03  0.6002E+03
     10.304  0.2276E+02  0.3500E+02  0.6270E+03  0.6086E+03
     10.543  0.2039E+02  0.3515E+02  0.6319E+03  0.6171E+03
     10.783  0.2880E+02  0.2803E+02  0.6388E+03  0.6238E+03
     11.023  0.3889E+02  0.2225E+02  0.6481E+03  0.6291E+03
     11.262  0.3946E+02  0.2177E+02  0.6575E+03  0.6343E+03
     11.502  0.3717E+02  0.3235E+02  0.6665E+03  0.6421E+03
     11.741  0.4502E+02  0.3870E+02  0.6772E+03  0.6513E+03
     11.981  0.3839E+02  0.4274E+02  0.6864E+03  0.6616E+03
     12.221  0.3861E+02  0.5209E+02  0.6957E+03  0.6741E+03
     12.460  0.3996E+02  0.4660E+02  0.7053E+03  0.6852E+03
     12.700  0.3635E+02  0.3595E+02  0.7140E+03  0.6939E+03
     12.940  0.3428E+02  0.4134E+02  0.7222E+03  0.7038E+03
     13.179  0.2242E+02  0.3950E+02  0.7276E+03  0.7132E+03
     13.419  0.1804E+01  0.3430E+02  0.7280E+03  0.7214E+03
     13.658  0.0000E+00  0.2349E+02  0.7280E+03  0.7271E+03
     13.898  0.0000E+00  0.3879E+01  0.7280E+03  0.7280E+03
     14.138  0.0000E+00  0.3732E-05  0.7280E+03  0.7280E+03
     14.377  0.0000E+00  0.0000E+00  0.7280E+03  0.7280E+03
     14.617  0.0000E+00  0.0000E+00  0.7280E+03  0.7280E+03
     14.857  0.0000E+00  0.0000E+00  0.7280E+03  0.7280E+03
     15.096  0.0000E+00  0.0000E+00  0.7280E+03  0.7280E+03
     15.336  0.0000E+00  0.0000E+00  0.7280E+03  0.7280E+03
     15.576  0.0000E+00  0.0000E+00  0.7280E+03  0.7280E+03
     15.815  0.0000E+00  0.0000E+00  0.7280E+03  0.7280E+03
     16.055  0.0000E+00  0.0000E+00  0.7280E+03  0.7280E+03
     16.294  0.0000E+00  0.0000E+00  0.7280E+03  0.7280E+03
     16.534  0.0000E+00  0.0000E+00  0.7280E+03  0.7280E+03
     16.774  0.0000E+00  0.0000E+00  0.7280E+03  0.7280E+03
     17.013  0.0000E+00  0.0000E+00  0.7280E+03  0.7280E+03
