  88  88   0   0
  0.1431748E+02  0.1111223E-08  0.1111745E-08  0.1056954E-08  0.5000000E-15
  1.000000000000000E-004
  CAR 
 unknown system                          
     17.91805442    -54.33981753  301      5.21271194      1.00000000
    -54.340  0.0000E+00  0.0000E+00  0.0000E+00  0.0000E+00
    -54.099  0.0000E+00  0.0000E+00  0.0000E+00  0.0000E+00
    -53.858  0.0000E+00  0.0000E+00  0.0000E+00  0.0000E+00
    -53.617  0.0000E+00  0.0000E+00  0.0000E+00  0.0000E+00
    -53.376  0.0000E+00  0.0000E+00  0.0000E+00  0.0000E+00
    -53.136  0.0000E+00  0.0000E+00  0.0000E+00  0.0000E+00
    -52.895  0.0000E+00  0.0000E+00  0.0000E+00  0.0000E+00
    -52.654  0.0000E+00  0.0000E+00  0.0000E+00  0.0000E+00
    -52.413  0.0000E+00  0.0000E+00  0.0000E+00  0.0000E+00
    -52.172  0.0000E+00  0.0000E+00  0.0000E+00  0.0000E+00
    -51.931  0.0000E+00  0.0000E+00  0.0000E+00  0.0000E+00
    -51.690  0.0000E+00  0.0000E+00  0.0000E+00  0.0000E+00
    -51.450  0.0000E+00  0.0000E+00  0.0000E+00  0.0000E+00
    -51.209  0.4469E-03  0.0000E+00  0.1076E-03  0.0000E+00
    -50.968  0.1311E+03  0.0000E+00  0.3158E+02  0.0000E+00
    -50.727  0.1759E+01  0.0000E+00  0.3200E+02  0.0000E+00
    -50.486  0.0000E+00  0.0000E+00  0.3200E+02  0.0000E+00
    -50.245  0.0000E+00  0.0000E+00  0.3200E+02  0.0000E+00
    -50.004  0.0000E+00  0.0000E+00  0.3200E+02  0.0000E+00
    -49.763  0.2149E+01  0.0000E+00  0.3252E+02  0.0000E+00
    -49.523  0.2380E+03  0.0000E+00  0.8985E+02  0.0000E+00
    -49.282  0.2553E+02  0.0000E+00  0.9600E+02  0.0000E+00
    -49.041  0.0000E+00  0.0000E+00  0.9600E+02  0.0000E+00
    -48.800  0.0000E+00  0.0000E+00  0.9600E+02  0.0000E+00
    -48.559  0.0000E+00  0.0000E+00  0.9600E+02  0.0000E+00
    -48.318  0.0000E+00  0.0000E+00  0.9600E+02  0.0000E+00
    -48.077  0.0000E+00  0.0000E+00  0.9600E+02  0.0000E+00
    -47.837  0.0000E+00  0.0000E+00  0.9600E+02  0.0000E+00
    -47.596  0.0000E+00  0.0000E+00  0.9600E+02  0.0000E+00
    -47.355  0.0000E+00  0.0000E+00  0.9600E+02  0.0000E+00
    -47.114  0.0000E+00  0.0000E+00  0.9600E+02  0.0000E+00
    -46.873  0.0000E+00  0.0000E+00  0.9600E+02  0.0000E+00
    -46.632  0.0000E+00  0.0000E+00  0.9600E+02  0.0000E+00
    -46.391  0.0000E+00  0.4356E+00  0.9600E+02  0.1049E+00
    -46.151  0.0000E+00  0.1324E+03  0.9600E+02  0.3199E+02
    -45.910  0.0000E+00  0.6288E+02  0.9600E+02  0.4714E+02
    -45.669  0.0000E+00  0.2029E+03  0.9600E+02  0.9600E+02
    -45.428  0.0000E+00  0.0000E+00  0.9600E+02  0.9600E+02
    -45.187  0.0000E+00  0.0000E+00  0.9600E+02  0.9600E+02
    -44.946  0.0000E+00  0.0000E+00  0.9600E+02  0.9600E+02
    -44.705  0.0000E+00  0.0000E+00  0.9600E+02  0.9600E+02
    -44.465  0.0000E+00  0.0000E+00  0.9600E+02  0.9600E+02
    -44.224  0.0000E+00  0.0000E+00  0.9600E+02  0.9600E+02
    -43.983  0.0000E+00  0.0000E+00  0.9600E+02  0.9600E+02
    -43.742  0.0000E+00  0.0000E+00  0.9600E+02  0.9600E+02
    -43.501  0.0000E+00  0.0000E+00  0.9600E+02  0.9600E+02
    -43.260  0.0000E+00  0.0000E+00  0.9600E+02  0.9600E+02
    -43.019  0.0000E+00  0.0000E+00  0.9600E+02  0.9600E+02
    -42.779  0.0000E+00  0.0000E+00  0.9600E+02  0.9600E+02
    -42.538  0.0000E+00  0.0000E+00  0.9600E+02  0.9600E+02
    -42.297  0.0000E+00  0.0000E+00  0.9600E+02  0.9600E+02
    -42.056  0.0000E+00  0.0000E+00  0.9600E+02  0.9600E+02
    -41.815  0.0000E+00  0.0000E+00  0.9600E+02  0.9600E+02
    -41.574  0.0000E+00  0.0000E+00  0.9600E+02  0.9600E+02
    -41.333  0.0000E+00  0.0000E+00  0.9600E+02  0.9600E+02
    -41.093  0.0000E+00  0.0000E+00  0.9600E+02  0.9600E+02
    -40.852  0.0000E+00  0.0000E+00  0.9600E+02  0.9600E+02
    -40.611  0.0000E+00  0.0000E+00  0.9600E+02  0.9600E+02
    -40.370  0.0000E+00  0.0000E+00  0.9600E+02  0.9600E+02
    -40.129  0.2819E-11  0.1807E-11  0.9600E+02  0.9600E+02
    -39.888  0.1709E+02  0.1586E+02  0.1001E+03  0.9982E+02
    -39.647  0.4934E+02  0.5057E+02  0.1120E+03  0.1120E+03
    -39.407  0.0000E+00  0.0000E+00  0.1120E+03  0.1120E+03
    -39.166  0.0000E+00  0.0000E+00  0.1120E+03  0.1120E+03
    -38.925  0.0000E+00  0.0000E+00  0.1120E+03  0.1120E+03
    -38.684  0.0000E+00  0.0000E+00  0.1120E+03  0.1120E+03
    -38.443  0.0000E+00  0.0000E+00  0.1120E+03  0.1120E+03
    -38.202  0.0000E+00  0.0000E+00  0.1120E+03  0.1120E+03
    -37.961  0.0000E+00  0.0000E+00  0.1120E+03  0.1120E+03
    -37.721  0.0000E+00  0.0000E+00  0.1120E+03  0.1120E+03
    -37.480  0.0000E+00  0.0000E+00  0.1120E+03  0.1120E+03
    -37.239  0.0000E+00  0.0000E+00  0.1120E+03  0.1120E+03
    -36.998  0.0000E+00  0.0000E+00  0.1120E+03  0.1120E+03
    -36.757  0.0000E+00  0.0000E+00  0.1120E+03  0.1120E+03
    -36.516  0.0000E+00  0.0000E+00  0.1120E+03  0.1120E+03
    -36.275  0.0000E+00  0.0000E+00  0.1120E+03  0.1120E+03
    -36.034  0.0000E+00  0.0000E+00  0.1120E+03  0.1120E+03
    -35.794  0.0000E+00  0.0000E+00  0.1120E+03  0.1120E+03
    -35.553  0.0000E+00  0.0000E+00  0.1120E+03  0.1120E+03
    -35.312  0.0000E+00  0.0000E+00  0.1120E+03  0.1120E+03
    -35.071  0.0000E+00  0.0000E+00  0.1120E+03  0.1120E+03
    -34.830  0.0000E+00  0.0000E+00  0.1120E+03  0.1120E+03
    -34.589  0.0000E+00  0.0000E+00  0.1120E+03  0.1120E+03
    -34.348  0.0000E+00  0.0000E+00  0.1120E+03  0.1120E+03
    -34.108  0.0000E+00  0.0000E+00  0.1120E+03  0.1120E+03
    -33.867  0.0000E+00  0.0000E+00  0.1120E+03  0.1120E+03
    -33.626  0.0000E+00  0.0000E+00  0.1120E+03  0.1120E+03
    -33.385  0.0000E+00  0.0000E+00  0.1120E+03  0.1120E+03
    -33.144  0.0000E+00  0.0000E+00  0.1120E+03  0.1120E+03
    -32.903  0.0000E+00  0.0000E+00  0.1120E+03  0.1120E+03
    -32.662  0.0000E+00  0.0000E+00  0.1120E+03  0.1120E+03
    -32.422  0.0000E+00  0.0000E+00  0.1120E+03  0.1120E+03
    -32.181  0.0000E+00  0.0000E+00  0.1120E+03  0.1120E+03
    -31.940  0.0000E+00  0.0000E+00  0.1120E+03  0.1120E+03
    -31.699  0.0000E+00  0.0000E+00  0.1120E+03  0.1120E+03
    -31.458  0.0000E+00  0.0000E+00  0.1120E+03  0.1120E+03
    -31.217  0.0000E+00  0.0000E+00  0.1120E+03  0.1120E+03
    -30.976  0.0000E+00  0.0000E+00  0.1120E+03  0.1120E+03
    -30.736  0.0000E+00  0.0000E+00  0.1120E+03  0.1120E+03
    -30.495  0.0000E+00  0.0000E+00  0.1120E+03  0.1120E+03
    -30.254  0.0000E+00  0.0000E+00  0.1120E+03  0.1120E+03
    -30.013  0.0000E+00  0.0000E+00  0.1120E+03  0.1120E+03
    -29.772  0.0000E+00  0.0000E+00  0.1120E+03  0.1120E+03
    -29.531  0.0000E+00  0.0000E+00  0.1120E+03  0.1120E+03
    -29.290  0.0000E+00  0.0000E+00  0.1120E+03  0.1120E+03
    -29.050  0.0000E+00  0.0000E+00  0.1120E+03  0.1120E+03
    -28.809  0.0000E+00  0.0000E+00  0.1120E+03  0.1120E+03
    -28.568  0.0000E+00  0.0000E+00  0.1120E+03  0.1120E+03
    -28.327  0.0000E+00  0.0000E+00  0.1120E+03  0.1120E+03
    -28.086  0.0000E+00  0.0000E+00  0.1120E+03  0.1120E+03
    -27.845  0.0000E+00  0.0000E+00  0.1120E+03  0.1120E+03
    -27.604  0.0000E+00  0.0000E+00  0.1120E+03  0.1120E+03
    -27.364  0.0000E+00  0.0000E+00  0.1120E+03  0.1120E+03
    -27.123  0.0000E+00  0.0000E+00  0.1120E+03  0.1120E+03
    -26.882  0.0000E+00  0.0000E+00  0.1120E+03  0.1120E+03
    -26.641  0.0000E+00  0.0000E+00  0.1120E+03  0.1120E+03
    -26.400  0.0000E+00  0.0000E+00  0.1120E+03  0.1120E+03
    -26.159  0.0000E+00  0.0000E+00  0.1120E+03  0.1120E+03
    -25.918  0.0000E+00  0.0000E+00  0.1120E+03  0.1120E+03
    -25.678  0.0000E+00  0.0000E+00  0.1120E+03  0.1120E+03
    -25.437  0.0000E+00  0.0000E+00  0.1120E+03  0.1120E+03
    -25.196  0.0000E+00  0.0000E+00  0.1120E+03  0.1120E+03
    -24.955  0.0000E+00  0.0000E+00  0.1120E+03  0.1120E+03
    -24.714  0.0000E+00  0.0000E+00  0.1120E+03  0.1120E+03
    -24.473  0.0000E+00  0.0000E+00  0.1120E+03  0.1120E+03
    -24.232  0.0000E+00  0.0000E+00  0.1120E+03  0.1120E+03
    -23.992  0.0000E+00  0.0000E+00  0.1120E+03  0.1120E+03
    -23.751  0.0000E+00  0.0000E+00  0.1120E+03  0.1120E+03
    -23.510  0.0000E+00  0.0000E+00  0.1120E+03  0.1120E+03
    -23.269  0.0000E+00  0.0000E+00  0.1120E+03  0.1120E+03
    -23.028  0.0000E+00  0.0000E+00  0.1120E+03  0.1120E+03
    -22.787  0.0000E+00  0.0000E+00  0.1120E+03  0.1120E+03
    -22.546  0.0000E+00  0.0000E+00  0.1120E+03  0.1120E+03
    -22.305  0.0000E+00  0.0000E+00  0.1120E+03  0.1120E+03
    -22.065  0.0000E+00  0.0000E+00  0.1120E+03  0.1120E+03
    -21.824  0.0000E+00  0.0000E+00  0.1120E+03  0.1120E+03
    -21.583  0.0000E+00  0.0000E+00  0.1120E+03  0.1120E+03
    -21.342  0.0000E+00  0.0000E+00  0.1120E+03  0.1120E+03
    -21.101  0.0000E+00  0.0000E+00  0.1120E+03  0.1120E+03
    -20.860  0.0000E+00  0.0000E+00  0.1120E+03  0.1120E+03
    -20.619  0.0000E+00  0.0000E+00  0.1120E+03  0.1120E+03
    -20.379  0.0000E+00  0.0000E+00  0.1120E+03  0.1120E+03
    -20.138  0.0000E+00  0.0000E+00  0.1120E+03  0.1120E+03
    -19.897  0.0000E+00  0.0000E+00  0.1120E+03  0.1120E+03
    -19.656  0.0000E+00  0.0000E+00  0.1120E+03  0.1120E+03
    -19.415  0.0000E+00  0.0000E+00  0.1120E+03  0.1120E+03
    -19.174  0.0000E+00  0.0000E+00  0.1120E+03  0.1120E+03
    -18.933  0.0000E+00  0.0000E+00  0.1120E+03  0.1120E+03
    -18.693  0.0000E+00  0.0000E+00  0.1120E+03  0.1120E+03
    -18.452  0.0000E+00  0.0000E+00  0.1120E+03  0.1120E+03
    -18.211  0.0000E+00  0.0000E+00  0.1120E+03  0.1120E+03
    -17.970  0.0000E+00  0.0000E+00  0.1120E+03  0.1120E+03
    -17.729  0.0000E+00  0.0000E+00  0.1120E+03  0.1120E+03
    -17.488  0.0000E+00  0.0000E+00  0.1120E+03  0.1120E+03
    -17.247  0.0000E+00  0.0000E+00  0.1120E+03  0.1120E+03
    -17.007  0.0000E+00  0.0000E+00  0.1120E+03  0.1120E+03
    -16.766  0.0000E+00  0.0000E+00  0.1120E+03  0.1120E+03
    -16.525  0.0000E+00  0.0000E+00  0.1120E+03  0.1120E+03
    -16.284  0.0000E+00  0.0000E+00  0.1120E+03  0.1120E+03
    -16.043  0.0000E+00  0.0000E+00  0.1120E+03  0.1120E+03
    -15.802  0.0000E+00  0.0000E+00  0.1120E+03  0.1120E+03
    -15.561  0.0000E+00  0.0000E+00  0.1120E+03  0.1120E+03
    -15.321  0.0000E+00  0.0000E+00  0.1120E+03  0.1120E+03
    -15.080  0.0000E+00  0.0000E+00  0.1120E+03  0.1120E+03
    -14.839  0.0000E+00  0.0000E+00  0.1120E+03  0.1120E+03
    -14.598  0.0000E+00  0.0000E+00  0.1120E+03  0.1120E+03
    -14.357  0.0000E+00  0.0000E+00  0.1120E+03  0.1120E+03
    -14.116  0.0000E+00  0.0000E+00  0.1120E+03  0.1120E+03
    -13.875  0.0000E+00  0.0000E+00  0.1120E+03  0.1120E+03
    -13.635  0.0000E+00  0.0000E+00  0.1120E+03  0.1120E+03
    -13.394  0.1901E-05  0.0000E+00  0.1120E+03  0.1120E+03
    -13.153  0.2072E+02  0.0000E+00  0.1170E+03  0.1120E+03
    -12.912  0.4475E+02  0.1596E-01  0.1278E+03  0.1120E+03
    -12.671  0.9546E+00  0.4443E+02  0.1280E+03  0.1227E+03
    -12.430  0.0000E+00  0.2198E+02  0.1280E+03  0.1280E+03
    -12.189  0.0000E+00  0.0000E+00  0.1280E+03  0.1280E+03
    -11.949  0.0000E+00  0.0000E+00  0.1280E+03  0.1280E+03
    -11.708  0.0000E+00  0.0000E+00  0.1280E+03  0.1280E+03
    -11.467  0.0000E+00  0.0000E+00  0.1280E+03  0.1280E+03
    -11.226  0.0000E+00  0.0000E+00  0.1280E+03  0.1280E+03
    -10.985  0.0000E+00  0.0000E+00  0.1280E+03  0.1280E+03
    -10.744  0.0000E+00  0.0000E+00  0.1280E+03  0.1280E+03
    -10.503  0.0000E+00  0.0000E+00  0.1280E+03  0.1280E+03
    -10.263  0.0000E+00  0.0000E+00  0.1280E+03  0.1280E+03
    -10.022  0.0000E+00  0.0000E+00  0.1280E+03  0.1280E+03
     -9.781  0.0000E+00  0.0000E+00  0.1280E+03  0.1280E+03
     -9.540  0.0000E+00  0.0000E+00  0.1280E+03  0.1280E+03
     -9.299  0.0000E+00  0.0000E+00  0.1280E+03  0.1280E+03
     -9.058  0.0000E+00  0.0000E+00  0.1280E+03  0.1280E+03
     -8.817  0.0000E+00  0.0000E+00  0.1280E+03  0.1280E+03
     -8.576  0.0000E+00  0.0000E+00  0.1280E+03  0.1280E+03
     -8.336  0.0000E+00  0.0000E+00  0.1280E+03  0.1280E+03
     -8.095  0.0000E+00  0.0000E+00  0.1280E+03  0.1280E+03
     -7.854  0.2864E-09  0.0000E+00  0.1280E+03  0.1280E+03
     -7.613  0.7249E+00  0.5503E-10  0.1282E+03  0.1280E+03
     -7.372  0.1329E+02  0.6518E+00  0.1314E+03  0.1282E+03
     -7.131  0.3023E+02  0.1462E+02  0.1387E+03  0.1317E+03
     -6.890  0.3528E+02  0.2934E+02  0.1472E+03  0.1387E+03
     -6.650  0.2012E+02  0.2703E+02  0.1520E+03  0.1453E+03
     -6.409  0.7556E-05  0.2797E+02  0.1520E+03  0.1520E+03
     -6.168  0.0000E+00  0.3246E-01  0.1520E+03  0.1520E+03
     -5.927  0.0000E+00  0.0000E+00  0.1520E+03  0.1520E+03
     -5.686  0.0000E+00  0.0000E+00  0.1520E+03  0.1520E+03
     -5.445  0.0000E+00  0.0000E+00  0.1520E+03  0.1520E+03
     -5.204  0.0000E+00  0.0000E+00  0.1520E+03  0.1520E+03
     -4.964  0.0000E+00  0.0000E+00  0.1520E+03  0.1520E+03
     -4.723  0.0000E+00  0.0000E+00  0.1520E+03  0.1520E+03
     -4.482  0.0000E+00  0.0000E+00  0.1520E+03  0.1520E+03
     -4.241  0.0000E+00  0.0000E+00  0.1520E+03  0.1520E+03
     -4.000  0.0000E+00  0.0000E+00  0.1520E+03  0.1520E+03
     -3.759  0.0000E+00  0.0000E+00  0.1520E+03  0.1520E+03
     -3.518  0.0000E+00  0.0000E+00  0.1520E+03  0.1520E+03
     -3.278  0.0000E+00  0.0000E+00  0.1520E+03  0.1520E+03
     -3.037  0.0000E+00  0.0000E+00  0.1520E+03  0.1520E+03
     -2.796  0.0000E+00  0.0000E+00  0.1520E+03  0.1520E+03
     -2.555  0.0000E+00  0.0000E+00  0.1520E+03  0.1520E+03
     -2.314  0.0000E+00  0.0000E+00  0.1520E+03  0.1520E+03
     -2.073  0.7261E-04  0.0000E+00  0.1520E+03  0.1520E+03
     -1.832  0.1698E+02  0.0000E+00  0.1561E+03  0.1520E+03
     -1.592  0.1919E+02  0.0000E+00  0.1607E+03  0.1520E+03
     -1.351  0.1451E+02  0.0000E+00  0.1642E+03  0.1520E+03
     -1.110  0.1745E+02  0.0000E+00  0.1684E+03  0.1520E+03
     -0.869  0.4699E+02  0.0000E+00  0.1797E+03  0.1520E+03
     -0.628  0.5916E+02  0.3054E-05  0.1940E+03  0.1520E+03
     -0.387  0.3877E+02  0.4840E+01  0.2033E+03  0.1532E+03
     -0.146  0.6880E+02  0.2027E+02  0.2199E+03  0.1580E+03
      0.094  0.7334E+02  0.1229E+02  0.2375E+03  0.1610E+03
      0.335  0.7767E+02  0.1894E+02  0.2563E+03  0.1656E+03
      0.576  0.7014E+02  0.2973E+02  0.2732E+03  0.1727E+03
      0.817  0.5406E+02  0.3956E+02  0.2862E+03  0.1823E+03
      1.058  0.3623E+02  0.3726E+02  0.2949E+03  0.1912E+03
      1.299  0.3086E+02  0.3058E+02  0.3023E+03  0.1986E+03
      1.540  0.4499E+02  0.2091E+02  0.3132E+03  0.2036E+03
      1.780  0.4332E+02  0.2871E+02  0.3236E+03  0.2105E+03
      2.021  0.6926E+02  0.3758E+02  0.3403E+03  0.2196E+03
      2.262  0.5608E+02  0.2672E+02  0.3538E+03  0.2260E+03
      2.503  0.2724E+02  0.2714E+02  0.3604E+03  0.2326E+03
      2.744  0.4290E+02  0.3170E+02  0.3707E+03  0.2402E+03
      2.985  0.2870E+02  0.4475E+02  0.3776E+03  0.2510E+03
      3.226  0.8796E+01  0.4540E+02  0.3797E+03  0.2619E+03
      3.466  0.2891E+02  0.3088E+02  0.3867E+03  0.2694E+03
      3.707  0.2660E+02  0.1198E+02  0.3931E+03  0.2722E+03
      3.948  0.3128E+02  0.1880E+02  0.4006E+03  0.2768E+03
      4.189  0.3589E+02  0.5184E+02  0.4093E+03  0.2893E+03
      4.430  0.3640E+02  0.4570E+02  0.4180E+03  0.3003E+03
      4.671  0.2993E+02  0.1550E+02  0.4252E+03  0.3040E+03
      4.912  0.2550E+02  0.2067E-02  0.4314E+03  0.3040E+03
      5.152  0.2569E+01  0.0000E+00  0.4320E+03  0.3040E+03
      5.393  0.0000E+00  0.0000E+00  0.4320E+03  0.3040E+03
      5.634  0.0000E+00  0.0000E+00  0.4320E+03  0.3040E+03
      5.875  0.0000E+00  0.0000E+00  0.4320E+03  0.3040E+03
      6.116  0.0000E+00  0.1895E-08  0.4320E+03  0.3040E+03
      6.357  0.0000E+00  0.4621E+00  0.4320E+03  0.3041E+03
      6.598  0.0000E+00  0.4222E+01  0.4320E+03  0.3051E+03
      6.839  0.0000E+00  0.8107E+01  0.4320E+03  0.3071E+03
      7.079  0.5932E-14  0.2025E+02  0.4320E+03  0.3120E+03
      7.320  0.3903E-01  0.4483E+02  0.4320E+03  0.3228E+03
      7.561  0.1147E+00  0.5416E+02  0.4320E+03  0.3358E+03
      7.802  0.3068E+00  0.6282E+02  0.4321E+03  0.3509E+03
      8.043  0.6964E+00  0.6641E+02  0.4323E+03  0.3669E+03
      8.284  0.2286E+01  0.7061E+02  0.4328E+03  0.3839E+03
      8.525  0.2671E+01  0.5838E+02  0.4335E+03  0.3980E+03
      8.765  0.9016E+01  0.5890E+02  0.4356E+03  0.4122E+03
      9.006  0.1272E+02  0.4659E+02  0.4387E+03  0.4234E+03
      9.247  0.1322E+02  0.2893E+02  0.4419E+03  0.4304E+03
      9.488  0.1816E+02  0.8487E+01  0.4463E+03  0.4324E+03
      9.729  0.1605E+02  0.3257E+01  0.4501E+03  0.4332E+03
      9.970  0.1574E+02  0.8518E+01  0.4539E+03  0.4353E+03
     10.211  0.2249E+02  0.1891E+02  0.4593E+03  0.4398E+03
     10.451  0.1487E+02  0.1797E+02  0.4629E+03  0.4441E+03
     10.692  0.1518E+02  0.1743E+02  0.4666E+03  0.4483E+03
     10.933  0.1343E+02  0.2747E+02  0.4698E+03  0.4550E+03
     11.174  0.2073E+02  0.1895E+02  0.4748E+03  0.4595E+03
     11.415  0.2519E+02  0.2413E+02  0.4809E+03  0.4653E+03
     11.656  0.2685E+02  0.1429E+02  0.4873E+03  0.4688E+03
     11.897  0.2517E+02  0.1395E+02  0.4934E+03  0.4721E+03
     12.137  0.3295E+02  0.1647E+02  0.5013E+03  0.4761E+03
     12.378  0.1979E+02  0.3746E+02  0.5061E+03  0.4851E+03
     12.619  0.2311E+02  0.3239E+02  0.5117E+03  0.4929E+03
     12.860  0.2162E+02  0.2912E+02  0.5169E+03  0.4999E+03
     13.101  0.1985E+02  0.2018E+02  0.5217E+03  0.5048E+03
     13.342  0.2467E+02  0.2266E+02  0.5276E+03  0.5103E+03
     13.583  0.2359E+02  0.2731E+02  0.5333E+03  0.5168E+03
     13.823  0.1331E+02  0.2372E+02  0.5365E+03  0.5225E+03
     14.064  0.6261E+01  0.2608E+02  0.5380E+03  0.5288E+03
     14.305  0.3398E-03  0.1895E+02  0.5380E+03  0.5334E+03
     14.546  0.0000E+00  0.1635E+02  0.5380E+03  0.5373E+03
     14.787  0.0000E+00  0.2795E+01  0.5380E+03  0.5380E+03
     15.028  0.0000E+00  0.2239E-05  0.5380E+03  0.5380E+03
     15.269  0.0000E+00  0.0000E+00  0.5380E+03  0.5380E+03
     15.509  0.0000E+00  0.0000E+00  0.5380E+03  0.5380E+03
     15.750  0.0000E+00  0.0000E+00  0.5380E+03  0.5380E+03
     15.991  0.0000E+00  0.0000E+00  0.5380E+03  0.5380E+03
     16.232  0.0000E+00  0.0000E+00  0.5380E+03  0.5380E+03
     16.473  0.0000E+00  0.0000E+00  0.5380E+03  0.5380E+03
     16.714  0.0000E+00  0.0000E+00  0.5380E+03  0.5380E+03
     16.955  0.0000E+00  0.0000E+00  0.5380E+03  0.5380E+03
     17.195  0.0000E+00  0.0000E+00  0.5380E+03  0.5380E+03
     17.436  0.0000E+00  0.0000E+00  0.5380E+03  0.5380E+03
     17.677  0.0000E+00  0.0000E+00  0.5380E+03  0.5380E+03
     17.918  0.0000E+00  0.0000E+00  0.5380E+03  0.5380E+03
