 vasp.5.4.4.18Apr17-6-g9f103f2a35 (build Oct 25 2017 14:42:18) complex          
  
 executed on             LinuxIFC date 2021.06.02  18:18:50
 running on   24 total cores
 distrk:  each k-point on   12 cores,    2 groups
 distr:  one band on NCORES_PER_BAND=   6 cores,    2 groups


--------------------------------------------------------------------------------------------------------


 INCAR:
 POTCAR:    PAW_PBE Li_sv 10Sep2004               
 POTCAR:    PAW_PBE O 08Apr2002                   
 POTCAR:    PAW_PBE S 06Sep2000                   
 POTCAR:    PAW_PBE Fe_pv 02Aug2007               

 ----------------------------------------------------------------------------- 
|                                                                             |
|           W    W    AA    RRRRR   N    N  II  N    N   GGGG   !!!           |
|           W    W   A  A   R    R  NN   N  II  NN   N  G    G  !!!           |
|           W    W  A    A  R    R  N N  N  II  N N  N  G       !!!           |
|           W WW W  AAAAAA  RRRRR   N  N N  II  N  N N  G  GGG   !            |
|           WW  WW  A    A  R   R   N   NN  II  N   NN  G    G                |
|           W    W  A    A  R    R  N    N  II  N    N   GGGG   !!!           |
|                                                                             |
|      You have enabled k-point parallelism (KPAR>1).                         |
|      This developmental code was originally  written by Paul Kent at ORNL,  |
|      and carefully double checked in Vienna.                                |
|      GW as well as linear response parallelism added by Martijn Marsman     |
|      and Georg Kresse.                                                      |
|      Carefully verify results versus KPAR=1.                                |
|      Report problems to Paul Kent and Vienna.                               |
|                                                                             |
 ----------------------------------------------------------------------------- 

 POTCAR:    PAW_PBE Li_sv 10Sep2004               
  local pseudopotential read in
  atomic valenz-charges read in
  non local Contribution for L=           0  read in
    real space projection operators read in
  non local Contribution for L=           0  read in
    real space projection operators read in
  non local Contribution for L=           1  read in
    real space projection operators read in
    PAW grid and wavefunctions read in
 
   number of l-projection  operators is LMAX  =           3
   number of lm-projection operators is LMMAX =           5
 
 POTCAR:    PAW_PBE O 08Apr2002                   
  local pseudopotential read in
  partial core-charges read in
  partial kinetic energy density read in
  kinetic energy density of atom read in
  atomic valenz-charges read in
  non local Contribution for L=           0  read in
    real space projection operators read in
  non local Contribution for L=           0  read in
    real space projection operators read in
  non local Contribution for L=           1  read in
    real space projection operators read in
  non local Contribution for L=           1  read in
    real space projection operators read in
    PAW grid and wavefunctions read in
 
   number of l-projection  operators is LMAX  =           4
   number of lm-projection operators is LMMAX =           8
 
 POTCAR:    PAW_PBE S 06Sep2000                   
  local pseudopotential read in
  partial core-charges read in
  partial kinetic energy density read in
  atomic valenz-charges read in
  non local Contribution for L=           0  read in
    real space projection operators read in
  non local Contribution for L=           0  read in
    real space projection operators read in
  non local Contribution for L=           1  read in
    real space projection operators read in
  non local Contribution for L=           1  read in
    real space projection operators read in
    PAW grid and wavefunctions read in
 
   number of l-projection  operators is LMAX  =           4
   number of lm-projection operators is LMMAX =           8
 
 POTCAR:    PAW_PBE Fe_pv 02Aug2007               
  local pseudopotential read in
  partial core-charges read in
  partial kinetic energy density read in
  atomic valenz-charges read in
  non local Contribution for L=           1  read in
    real space projection operators read in
  non local Contribution for L=           1  read in
    real space projection operators read in
  non local Contribution for L=           2  read in
    real space projection operators read in
  non local Contribution for L=           2  read in
    real space projection operators read in
  non local Contribution for L=           0  read in
    real space projection operators read in
  non local Contribution for L=           0  read in
    real space projection operators read in
    PAW grid and wavefunctions read in
 
   number of l-projection  operators is LMAX  =           6
   number of lm-projection operators is LMMAX =          18
 

 ----------------------------------------------------------------------------- 
|                                                                             |
|  ADVICE TO THIS USER RUNNING 'VASP/VAMP'   (HEAR YOUR MASTER'S VOICE ...):  |
|                                                                             |
|      You have a (more or less) 'large supercell' and for larger cells       |
|      it might be more efficient to use real space projection opertators     |
|      So try LREAL= Auto  in the INCAR   file.                               |
|      Mind:          For very  accurate calculation you might also keep the  |
|      reciprocal projection scheme          (i.e. LREAL=.FALSE.)             |
|                                                                             |
 ----------------------------------------------------------------------------- 

  PAW_PBE Li_sv 10Sep2004               :
 energy of atom  1       EATOM= -202.7858
 kinetic energy error for atom=    0.0072 (will be added to EATOM!!)
  PAW_PBE O 08Apr2002                   :
 energy of atom  2       EATOM= -432.3788
 kinetic energy error for atom=    0.0129 (will be added to EATOM!!)
  PAW_PBE S 06Sep2000                   :
 energy of atom  3       EATOM= -276.8230
 kinetic energy error for atom=    0.0008 (will be added to EATOM!!)
  PAW_PBE Fe_pv 02Aug2007               :
 energy of atom  4       EATOM=-2457.4239
 kinetic energy error for atom=    0.0041 (will be added to EATOM!!)
 
 
 POSCAR: # Compound: Li16O16S24Fe32. Old comment:
  positions in direct lattice
  No initial velocities read in
 exchange correlation table for  LEXCH =        8
   RHO(1)=    0.500       N(1)  =     2000
   RHO(2)=  100.500       N(2)  =     4000
 


--------------------------------------------------------------------------------------------------------


 ion  position               nearest neighbor table
   1  0.289  0.469  0.156-  27 2.00  29 2.00  55 2.53  49 2.53
   2  0.789  0.469  0.156-  28 2.00  30 2.00  56 2.53  50 2.53
   3  0.289  0.969  0.156-  25 2.00  31 2.00  53 2.53  51 2.53
   4  0.789  0.969  0.156-  26 2.00  32 2.00  54 2.53  52 2.53
   5  0.046  0.219  0.186-  30 1.98  25 1.98
   6  0.546  0.219  0.186-  29 1.98  26 1.98
   7  0.046  0.719  0.186-  32 1.98  27 1.98
   8  0.546  0.719  0.186-  31 1.98  28 1.98
   9  0.454  0.469  0.814-  20 1.98  21 1.98
  10  0.954  0.469  0.814-  19 1.98  22 1.98
  11  0.454  0.969  0.814-  18 1.98  23 1.98
  12  0.954  0.969  0.814-  17 1.98  24 1.98
  13  0.211  0.219  0.844-  21 2.00  17 2.00  49 2.53  53 2.53
  14  0.711  0.219  0.844-  22 2.00  18 2.00  50 2.53  54 2.53
  15  0.211  0.719  0.844-  23 2.00  19 2.00  51 2.53  55 2.53
  16  0.711  0.719  0.844-  24 2.00  20 2.00  52 2.53  56 2.53
  17  0.077  0.095  0.803-  12 1.98  13 2.00  57 2.01  83 2.01  86 2.01
  18  0.577  0.095  0.803-  11 1.98  14 2.00  58 2.01  84 2.01  85 2.01
  19  0.077  0.595  0.803-  10 1.98  15 2.00  59 2.01  81 2.01  88 2.01
  20  0.577  0.595  0.803-   9 1.98  16 2.00  60 2.01  82 2.01  87 2.01
  21  0.325  0.343  0.803-   9 1.98  13 2.00  61 2.01  81 2.01  85 2.01
  22  0.825  0.343  0.803-  10 1.98  14 2.00  62 2.01  82 2.01  86 2.01
  23  0.325  0.843  0.803-  11 1.98  15 2.00  63 2.01  83 2.01  87 2.01
  24  0.825  0.843  0.803-  12 1.98  16 2.00  64 2.01  84 2.01  88 2.01
  25  0.175  0.093  0.197-   5 1.98   3 2.00  65 2.01  77 2.01  75 2.01
  26  0.675  0.093  0.197-   6 1.98   4 2.00  66 2.01  78 2.01  76 2.01
  27  0.175  0.593  0.197-   7 1.98   1 2.00  67 2.01  79 2.01  73 2.01
  28  0.675  0.593  0.197-   8 1.98   2 2.00  68 2.01  80 2.01  74 2.01
  29  0.423  0.345  0.197-   6 1.98   1 2.00  69 2.01  77 2.01  74 2.01
  30  0.923  0.345  0.197-   5 1.98   2 2.00  70 2.01  78 2.01  73 2.01
  31  0.423  0.845  0.197-   8 1.98   3 2.00  71 2.01  79 2.01  76 2.01
  32  0.923  0.845  0.197-   7 1.98   4 2.00  72 2.01  80 2.01  75 2.01
  33  0.219  0.345  0.371-  61 2.41  67 2.65  69 2.65
  34  0.719  0.345  0.371-  62 2.41  68 2.65  70 2.65
  35  0.219  0.845  0.371-  63 2.41  65 2.65  71 2.65
  36  0.719  0.845  0.371-  64 2.41  66 2.65  72 2.65
  37  0.467  0.093  0.371-  58 2.41  71 2.65  65 2.65
  38  0.967  0.093  0.371-  57 2.41  72 2.65  66 2.65
  39  0.467  0.593  0.371-  60 2.41  69 2.65  67 2.65
  40  0.967  0.593  0.371-  59 2.41  70 2.65  68 2.65
  41  0.033  0.343  0.629-  70 2.41  57 2.65  61 2.66
  42  0.533  0.343  0.629-  69 2.41  58 2.65  62 2.65
  43  0.033  0.843  0.629-  72 2.41  59 2.65  63 2.65
  44  0.533  0.843  0.629-  71 2.41  60 2.65  64 2.65
  45  0.281  0.095  0.629-  65 2.41  61 2.65  57 2.65
  46  0.781  0.095  0.629-  66 2.41  62 2.65  58 2.65
  47  0.281  0.595  0.629-  67 2.41  63 2.65  59 2.65
  48  0.781  0.595  0.629-  68 2.41  64 2.65  60 2.65
  49  0.124  0.344  0.000-  73 2.51  86 2.51  81 2.52  77 2.52  13 2.53   1 2.53
  50  0.624  0.344  0.000-  74 2.51  85 2.51  82 2.52  78 2.52  14 2.53   2 2.53
  51  0.124  0.844  0.000-  75 2.51  88 2.51  83 2.52  79 2.52  15 2.53   3 2.53
  52  0.624  0.844  0.000-  76 2.51  87 2.51  84 2.52  80 2.52  16 2.53   4 2.53
  53  0.376  0.094  1.000-  85 2.51  76 2.51  77 2.52  83 2.52   3 2.53  13 2.53
  54  0.876  0.094  1.000-  86 2.51  75 2.51  78 2.52  84 2.52   4 2.53  14 2.53
  55  0.376  0.594  1.000-  87 2.51  74 2.51  79 2.52  81 2.52   1 2.53  15 2.53
  56  0.876  0.594  1.000-  88 2.51  73 2.51  80 2.52  82 2.52   2 2.53  16 2.53
  57  0.038  0.106  0.606-  17 2.01  38 2.41  41 2.65  45 2.65
  58  0.538  0.106  0.606-  18 2.01  37 2.41  42 2.65  46 2.65
  59  0.038  0.606  0.606-  19 2.01  40 2.41  43 2.65  47 2.65
  60  0.538  0.606  0.606-  20 2.01  39 2.41  44 2.65  48 2.65
  61  0.266  0.332  0.606-  21 2.01  33 2.41  45 2.65  41 2.66
  62  0.765  0.332  0.606-  22 2.01  34 2.41  46 2.65  42 2.65
  63  0.265  0.832  0.606-  23 2.01  35 2.41  47 2.65  43 2.65
  64  0.765  0.832  0.606-  24 2.01  36 2.41  48 2.65  44 2.65
  65  0.235  0.082  0.394-  25 2.01  45 2.41  35 2.65  37 2.65
  66  0.735  0.082  0.394-  26 2.01  46 2.41  36 2.65  38 2.65
  67  0.235  0.582  0.394-  27 2.01  47 2.41  33 2.65  39 2.65
  68  0.735  0.582  0.394-  28 2.01  48 2.41  34 2.65  40 2.65
  69  0.462  0.356  0.394-  29 2.01  42 2.41  39 2.65  33 2.65
  70  0.962  0.356  0.394-  30 2.01  41 2.41  40 2.65  34 2.65
  71  0.462  0.856  0.394-  31 2.01  44 2.41  37 2.65  35 2.65
  72  0.962  0.856  0.394-  32 2.01  43 2.41  38 2.65  36 2.65
  73  0.038  0.469  0.154-  30 2.01  27 2.01  49 2.51  56 2.51
  74  0.538  0.469  0.154-  29 2.01  28 2.01  50 2.51  55 2.51
  75  0.038  0.969  0.154-  32 2.01  25 2.01  51 2.51  54 2.51
  76  0.538  0.969  0.154-  31 2.01  26 2.01  52 2.51  53 2.51
  77  0.289  0.219  0.154-  25 2.01  29 2.01  53 2.52  49 2.52
  78  0.789  0.219  0.154-  26 2.01  30 2.01  54 2.52  50 2.52
  79  0.289  0.719  0.154-  27 2.01  31 2.01  55 2.52  51 2.52
  80  0.789  0.719  0.154-  28 2.01  32 2.01  56 2.52  52 2.52
  81  0.211  0.469  0.846-  21 2.01  19 2.01  49 2.52  55 2.52
  82  0.711  0.469  0.846-  22 2.01  20 2.01  50 2.52  56 2.52
  83  0.211  0.969  0.846-  23 2.01  17 2.01  51 2.52  53 2.52
  84  0.711  0.969  0.846-  24 2.01  18 2.01  52 2.52  54 2.52
  85  0.462  0.219  0.846-  18 2.01  21 2.01  53 2.51  50 2.51
  86  0.962  0.219  0.846-  17 2.01  22 2.01  54 2.51  49 2.51
  87  0.462  0.719  0.846-  20 2.01  23 2.01  55 2.51  52 2.51
  88  0.962  0.719  0.846-  19 2.01  24 2.01  56 2.51  51 2.51
 

IMPORTANT INFORMATION: All symmetrisations will be switched off!
NOSYMM: (Re-)initialisation of all symmetry stuff for point group C_1.

 
 
 KPOINTS: # No comment                            

Automatic generation of k-mesh.
Space group operators:
 irot       det(A)        alpha          n_x          n_y          n_z        tau_x        tau_y        tau_z
    1     1.000000     0.000000     1.000000     0.000000     0.000000     0.000000     0.000000     0.000000
 
 Subroutine IBZKPT returns following result:
 ===========================================
 
 Found     14 irreducible k-points:
 
 Following reciprocal coordinates:
            Coordinates               Weight
  0.000000  0.000000  0.000000      1.000000
  0.333333  0.000000  0.000000      2.000000
  0.000000  0.333333  0.000000      2.000000
  0.333333  0.333333  0.000000      2.000000
 -0.333333  0.333333 -0.000000      2.000000
  0.000000  0.000000  0.333333      2.000000
  0.333333  0.000000  0.333333      2.000000
 -0.333333  0.000000  0.333333      2.000000
  0.000000  0.333333  0.333333      2.000000
  0.333333  0.333333  0.333333      2.000000
 -0.333333  0.333333  0.333333      2.000000
  0.000000 -0.333333  0.333333      2.000000
  0.333333 -0.333333  0.333333      2.000000
 -0.333333 -0.333333  0.333333      2.000000
 
 Following cartesian coordinates:
            Coordinates               Weight
  0.000000  0.000000  0.000000      1.000000
  0.029997  0.000000  0.008162      2.000000
  0.000000  0.029983  0.000000      2.000000
  0.029997  0.029983  0.008162      2.000000
 -0.029997  0.029983 -0.008162      2.000000
  0.000001  0.000000  0.032684      2.000000
  0.029998  0.000000  0.040846      2.000000
 -0.029996  0.000000  0.024522      2.000000
  0.000001  0.029983  0.032684      2.000000
  0.029998  0.029983  0.040846      2.000000
 -0.029996  0.029983  0.024522      2.000000
  0.000001 -0.029983  0.032684      2.000000
  0.029998 -0.029983  0.040846      2.000000
 -0.029996 -0.029983  0.024522      2.000000
 


--------------------------------------------------------------------------------------------------------




 Dimension of arrays:
   k-points           NKPTS =     14   k-points in BZ     NKDIM =     14   number of bands    NBANDS=    538
   number of dos      NEDOS =    301   number of ions     NIONS =     88
   non local maximal  LDIM  =      6   non local SUM 2l+1 LMDIM =     18
   total plane-waves  NPLWV = 829440
   max r-space proj   IRMAX =      1   max aug-charges    IRDMAX= 166102
   dimension x,y,z NGX =    96 NGY =   96 NGZ =   90
   dimension x,y,z NGXF=   192 NGYF=  192 NGZF=  180
   support grid    NGXF=   384 NGYF=  384 NGZF=  360
   ions per type =              16  16  24  32
   NGX,Y,Z   is equivalent  to a cutoff of  14.36, 14.36, 14.16 a.u.
   NGXF,Y,Z  is equivalent  to a cutoff of  28.72, 28.71, 28.31 a.u.

 SYSTEM =  unknown system                          
 POSCAR =  # Compound: Li16O16S24Fe32. Old comment:

 Startparameter for this run:
   NWRITE =      1    write-flag & timer
   PREC   = accura    normal or accurate (medium, high low for compatibility)
   ISTART =      0    job   : 0-new  1-cont  2-samecut
   ICHARG =      1    charge: 1-file 2-atom 10-const
   ISPIN  =      2    spin polarized calculation?
   LNONCOLLINEAR =      F non collinear calculations
   LSORBIT =      F    spin-orbit coupling
   INIWAV =      1    electr: 0-lowe 1-rand  2-diag
   LASPH  =      T    aspherical Exc in radial PAW
   METAGGA=      F    non-selfconsistent MetaGGA calc.

 Electronic Relaxation 1
   ENCUT  =  650.0 eV  47.77 Ry    6.91 a.u.  23.10 23.11 21.97*2*pi/ulx,y,z
   ENINI  =  650.0     initial cutoff
   ENAUG  =  628.9 eV  augmentation charge cutoff
   NELM   =    200;   NELMIN=  8; NELMDL=  0     # of ELM steps 
   EDIFF  = 0.1E-05   stopping-criterion for ELM
   LREAL  =      F    real-space projection
   NLSPLINE    = F    spline interpolate recip. space projectors
   LCOMPAT=      F    compatible to vasp.4.4
   GGA_COMPAT  = T    GGA compatible to vasp.4.4-vasp.4.6
   LMAXPAW     = -100 max onsite density
   LMAXMIX     =    4 max onsite mixed and CHGCAR
   VOSKOWN=      0    Vosko Wilk Nusair interpolation
   ROPT   =    0.00000   0.00000   0.00000   0.00000
 Ionic relaxation
   EDIFFG = 0.1E-04   stopping-criterion for IOM
   NSW    =      0    number of steps for IOM
   NBLOCK =      1;   KBLOCK =      1    inner block; outer block 
   IBRION =     -1    ionic relax: 0-MD 1-quasi-New 2-CG
   NFREE  =      0    steps in history (QN), initial steepest desc. (CG)
   ISIF   =      2    stress and relaxation
   IWAVPR =     10    prediction:  0-non 1-charg 2-wave 3-comb
   ISYM   =      0    0-nonsym 1-usesym 2-fastsym
   LCORR  =      T    Harris-Foulkes like correction to forces

   POTIM  = 0.5000    time-step for ionic-motion
   TEIN   =    0.0    initial temperature
   TEBEG  =    0.0;   TEEND  =   0.0 temperature during run
   SMASS  =  -3.00    Nose mass-parameter (am)
   estimated Nose-frequenzy (Omega)   =  0.10E-29 period in steps =****** mass=  -0.282E-26a.u.
   SCALEE = 1.0000    scale energy and forces
   NPACO  =    256;   APACO  = 16.0  distance and # of slots for P.C.
   PSTRESS=    0.0 pullay stress

  Mass of Ions in am
   POMASS =   7.01 16.00 32.07 55.85
  Ionic Valenz
   ZVAL   =   3.00  6.00  6.00 14.00
  Atomic Wigner-Seitz radii
   RWIGS  =  -1.00 -1.00 -1.00 -1.00
  virtual crystal weights 
   VCA    =   1.00  1.00  1.00  1.00
   NELECT =     736.0000    total number of electrons
   NUPDOWN=      -1.0000    fix difference up-down

 DOS related values:
   EMIN   =  10.00;   EMAX   =-10.00  energy-range for DOS
   EFERMI =   0.00
   ISMEAR =     0;   SIGMA  =   0.05  broadening in eV -4-tet -1-fermi 0-gaus

 Electronic relaxation 2 (details)
   IALGO  =     38    algorithm
   LDIAG  =      T    sub-space diagonalisation (order eigenvalues)
   LSUBROT=      F    optimize rotation matrix (better conditioning)
   TURBO    =      0    0=normal 1=particle mesh
   IRESTART =      0    0=no restart 2=restart with 2 vectors
   NREBOOT  =      0    no. of reboots
   NMIN     =      0    reboot dimension
   EREF     =   0.00    reference energy to select bands
   IMIX   =      4    mixing-type and parameters
     AMIX     =   0.40;   BMIX     =  1.00
     AMIX_MAG =   1.60;   BMIX_MAG =  1.00
     AMIN     =   0.10
     WC   =   100.;   INIMIX=   1;  MIXPRE=   1;  MAXMIX= -45

 Intra band minimization:
   WEIMIN = 0.0000     energy-eigenvalue tresh-hold
   EBREAK =  0.46E-09  absolut break condition
   DEPER  =   0.30     relativ break condition  

   TIME   =   0.40     timestep for ELM

  volume/ion in A,a.u.               =      14.32        96.62
  Fermi-wavevector in a.u.,A,eV,Ry     =   1.368520  2.586127 25.481613  1.872846
  Thomas-Fermi vector in A             =   2.494476
 
 Write flags
   LWAVE        =      F    write WAVECAR
   LDOWNSAMPLE  =      F    k-point downsampling of WAVECAR
   LCHARG       =      T    write CHGCAR
   LVTOT        =      F    write LOCPOT, total local potential
   LVHAR        =      F    write LOCPOT, Hartree potential only
   LELF         =      F    write electronic localiz. function (ELF)
   LORBIT       =      0    0 simple, 1 ext, 2 COOP (PROOUT), +10 PAW based schemes


 Dipole corrections
   LMONO  =      F    monopole corrections only (constant potential shift)
   LDIPOL =      F    correct potential (dipole corrections)
   IDIPOL =      0    1-x, 2-y, 3-z, 4-all directions 
   EPSILON=  1.0000000 bulk dielectric constant

 LDA+U is selected, type is set to LDAUTYPE =  2
   angular momentum for each species LDAUL =    -1   -1   -1    2
   U (eV)           for each species LDAUU =   0.0  0.0  0.0  4.0
   J (eV)           for each species LDAUJ =   0.0  0.0  0.0  0.0
 Exchange correlation treatment:
   GGA     =    PE    GGA type
   LEXCH   =     8    internal setting for exchange type
   VOSKOWN=      0    Vosko Wilk Nusair interpolation
   LHFCALC =     F    Hartree Fock is set to
   LHFONE  =     F    Hartree Fock one center treatment
   AEXX    =    0.0000 exact exchange contribution

 Linear response parameters
   LEPSILON=     F    determine dielectric tensor
   LRPA    =     F    only Hartree local field effects (RPA)
   LNABLA  =     F    use nabla operator in PAW spheres
   LVEL    =     F    velocity operator in full k-point grid
   LINTERFAST=   F  fast interpolation
   KINTER  =     0    interpolate to denser k-point grid
   CSHIFT  =0.1000    complex shift for real part using Kramers Kronig
   OMEGAMAX=  -1.0    maximum frequency
   DEG_THRESHOLD= 0.2000000E-02 threshold for treating states as degnerate
   RTIME   =   -0.100 relaxation time in fs
  (WPLASMAI=    0.000 imaginary part of plasma frequency in eV, 0.658/RTIME)
   DFIELD  = 0.0000000 0.0000000 0.0000000 field for delta impulse in time
 
 Orbital magnetization related:
   ORBITALMAG=     F  switch on orbital magnetization
   LCHIMAG   =     F  perturbation theory with respect to B field
   DQ        =  0.001000  dq finite difference perturbation B field
   LLRAUG    =     F  two centre corrections for induced B field



--------------------------------------------------------------------------------------------------------


 Static calculation
 charge density and potential will be updated during run
 spin polarized calculation
 Variant of blocked Davidson
 Davidson routine will perform the subspace rotation
 perform sub-space diagonalisation
    after iterative eigenvector-optimisation
 modified Broyden-mixing scheme, WC =      100.0
 initial mixing is a Kerker type mixing with AMIX =  0.4000 and BMIX =      1.0000
 Hartree-type preconditioning will be used
 using additional bands          170
 reciprocal scheme for non local part
 use partial core corrections
 calculate Harris-corrections to forces 
   (improved forces if not selfconsistent)
 use gradient corrections 
 use of overlap-Matrix (Vanderbilt PP)
 Gauss-broadening in eV      SIGMA  =   0.05


--------------------------------------------------------------------------------------------------------


  energy-cutoff  :      650.00
  volume of cell :     1259.94
      direct lattice vectors                 reciprocal lattice vectors
    11.112233740  0.000000000 -0.000290340     0.089991547  0.000000000  0.024487024
     0.000000000 11.117451940  0.000000000     0.000000000  0.089948669  0.000000000
    -2.775108980  0.000000000 10.198722210     0.000002562  0.000000000  0.098052196

  length of vectors
    11.112233744 11.117451940 10.569539468     0.093263567  0.089948669  0.098052196


 
 k-points in units of 2pi/SCALE and weight: # No comment                            
   0.00000000  0.00000000  0.00000000       0.037
   0.02999718  0.00000000  0.00816234       0.074
   0.00000000  0.02998289  0.00000000       0.074
   0.02999718  0.02998289  0.00816234       0.074
  -0.02999718  0.02998289 -0.00816234       0.074
   0.00000085  0.00000000  0.03268407       0.074
   0.02999804  0.00000000  0.04084641       0.074
  -0.02999633  0.00000000  0.02452172       0.074
   0.00000085  0.02998289  0.03268407       0.074
   0.02999804  0.02998289  0.04084641       0.074
  -0.02999633  0.02998289  0.02452172       0.074
   0.00000085 -0.02998289  0.03268407       0.074
   0.02999804 -0.02998289  0.04084641       0.074
  -0.02999633 -0.02998289  0.02452172       0.074
 
 k-points in reciprocal lattice and weights: # No comment                            
   0.00000000  0.00000000  0.00000000       0.037
   0.33333333  0.00000000  0.00000000       0.074
   0.00000000  0.33333333  0.00000000       0.074
   0.33333333  0.33333333  0.00000000       0.074
  -0.33333333  0.33333333 -0.00000000       0.074
   0.00000000  0.00000000  0.33333333       0.074
   0.33333333  0.00000000  0.33333333       0.074
  -0.33333333  0.00000000  0.33333333       0.074
   0.00000000  0.33333333  0.33333333       0.074
   0.33333333  0.33333333  0.33333333       0.074
  -0.33333333  0.33333333  0.33333333       0.074
   0.00000000 -0.33333333  0.33333333       0.074
   0.33333333 -0.33333333  0.33333333       0.074
  -0.33333333 -0.33333333  0.33333333       0.074
 
 position of ions in fractional coordinates (direct lattice) 
   0.28894969  0.46933910  0.15583616
   0.78894969  0.46933910  0.15583616
   0.28894969  0.96933910  0.15583616
   0.78894969  0.96933910  0.15583616
   0.04646972  0.21934976  0.18586770
   0.54646972  0.21934976  0.18586770
   0.04646972  0.71934976  0.18586770
   0.54646972  0.71934976  0.18586770
   0.45353028  0.46934976  0.81413230
   0.95353028  0.46934976  0.81413230
   0.45353028  0.96934976  0.81413230
   0.95353028  0.96934976  0.81413230
   0.21105031  0.21933910  0.84416384
   0.71105031  0.21933910  0.84416384
   0.21105031  0.71933910  0.84416384
   0.71105031  0.71933910  0.84416384
   0.07654971  0.09530995  0.80250593
   0.57654971  0.09530995  0.80250593
   0.07654971  0.59530995  0.80250593
   0.57654971  0.59530995  0.80250593
   0.32470466  0.34338175  0.80250383
   0.82470466  0.34338175  0.80250383
   0.32470466  0.84338175  0.80250383
   0.82470466  0.84338175  0.80250383
   0.17529534  0.09338175  0.19749617
   0.67529534  0.09338175  0.19749617
   0.17529534  0.59338175  0.19749617
   0.67529534  0.59338175  0.19749617
   0.42345029  0.34530995  0.19749407
   0.92345029  0.34530995  0.19749407
   0.42345029  0.84530995  0.19749407
   0.92345029  0.84530995  0.19749407
   0.21868463  0.34523395  0.37102476
   0.71868463  0.34523395  0.37102476
   0.21868463  0.84523395  0.37102476
   0.71868463  0.84523395  0.37102476
   0.46681660  0.09344897  0.37102399
   0.96681660  0.09344897  0.37102399
   0.46681660  0.59344897  0.37102399
   0.96681660  0.59344897  0.37102399
   0.03318340  0.34344897  0.62897601
   0.53318340  0.34344897  0.62897601
   0.03318340  0.84344897  0.62897601
   0.53318340  0.84344897  0.62897601
   0.28131537  0.09523395  0.62897524
   0.78131537  0.09523395  0.62897524
   0.28131537  0.59523395  0.62897524
   0.78131537  0.59523395  0.62897524
   0.12439279  0.34434306  0.00000412
   0.62439279  0.34434306  0.00000412
   0.12439279  0.84434306  0.00000412
   0.62439279  0.84434306  0.00000412
   0.37560721  0.09434306  0.99999588
   0.87560721  0.09434306  0.99999588
   0.37560721  0.59434306  0.99999588
   0.87560721  0.59434306  0.99999588
   0.03824426  0.10634799  0.60632306
   0.53824426  0.10634799  0.60632306
   0.03824426  0.60634799  0.60632306
   0.53824426  0.60634799  0.60632306
   0.26582703  0.33232651  0.60632763
   0.76492712  0.33232651  0.60632763
   0.26492712  0.83232651  0.60632763
   0.76492712  0.83232651  0.60632763
   0.23507288  0.08232651  0.39367237
   0.73507288  0.08232651  0.39367237
   0.23507288  0.58232651  0.39367237
   0.73507288  0.58232651  0.39367237
   0.46175574  0.35634799  0.39367694
   0.96175574  0.35634799  0.39367694
   0.46175574  0.85634799  0.39367694
   0.96175574  0.85634799  0.39367694
   0.03848398  0.46936404  0.15397331
   0.53848398  0.46936404  0.15397331
   0.03848398  0.96936404  0.15397331
   0.53848398  0.96936404  0.15397331
   0.28861657  0.21935690  0.15447525
   0.78861657  0.21935690  0.15447525
   0.28861657  0.71935690  0.15447525
   0.78861657  0.71935690  0.15447525
   0.21138343  0.46935690  0.84552475
   0.71138343  0.46935690  0.84552475
   0.21138343  0.96935690  0.84552475
   0.71138343  0.96935690  0.84552475
   0.46151602  0.21936404  0.84602669
   0.96151602  0.21936404  0.84602669
   0.46151602  0.71936404  0.84602669
   0.96151602  0.71936404  0.84602669
 
 position of ions in cartesian coordinates  (Angst):
   2.77841422  5.21785483  1.58924581
   8.33453109  5.21785483  1.58910064
   2.77841422 10.77658080  1.58924581
   8.33453109 10.77658080  1.58910064
   0.00057921  2.43861041  1.89559955
   5.55669608  2.43861041  1.89545438
   0.00057921  7.99733638  1.89559955
   5.55669608  7.99733638  1.89545438
   2.78042868  5.21797340  8.30297749
   8.33654555  5.21797340  8.30283232
   2.78042868 10.77669937  8.30297749
   8.33654555 10.77669937  8.30283232
   0.00259367  2.43849185  8.60933123
   5.55871054  2.43849185  8.60918606
   0.00259367  7.99721782  8.60933123
   5.55871054  7.99721782  8.60918606
  -1.37640314  1.05960384  8.18451283
   4.17971373  1.05960384  8.18436766
  -1.37640314  6.61832981  8.18451283
   4.17971373  6.61832981  8.18436766
   1.38115855  3.81753010  8.18441936
   6.93727542  3.81753010  8.18427419
   1.38115855  9.37625607  8.18441936
   6.93727542  9.37625607  8.18427419
   1.39984934  1.03816712  2.01415768
   6.95596621  1.03816712  2.01401251
   1.39984934  6.59689309  2.01415768
   6.95596621  6.59689309  2.01401251
   4.15741103  3.83896683  2.01406421
   9.71352790  3.83896683  2.01391904
   4.15741103  9.39769280  2.01406421
   9.71352790  9.39769280  2.01391904
   1.40044058  3.83812185  3.78391497
   6.95655745  3.83812185  3.78376980
   1.40044058  9.39684782  3.78391497
   6.95655745  9.39684782  3.78376980
   4.15774317  1.03891443  3.78383507
   9.71386004  1.03891443  3.78368990
   4.15774317  6.59764040  3.78383507
   9.71386004  6.59764040  3.78368990
  -1.37673528  3.81827742  6.41474197
   4.17938159  3.81827742  6.41459680
  -1.37673528  9.37700339  6.41474197
   4.17938159  9.37700339  6.41459680
   1.38056731  1.05875886  6.41466207
   6.93668418  1.05875886  6.41451690
   1.38056731  6.61748483  6.41466207
   6.93668418  6.61748483  6.41451690
   1.38227032  3.82821742  0.00000590
   6.93838719  3.82821742 -0.00013927
   1.38227032  9.38694339  0.00000590
   6.93838719  9.38694339 -0.00013927
   1.39873757  1.04885444 10.19857114
   6.95485444  1.04885444 10.19842597
   1.39873757  6.60758041 10.19857114
   6.95485444  6.60758041 10.19842597
  -1.25763347  1.18231867  6.18370935
   4.29848340  1.18231867  6.18356418
  -1.25763347  6.74104464  6.18370935
   4.29848340  6.74104464  6.18356418
   1.27130689  3.69462400  6.18368989
   6.81742376  3.69462400  6.18354498
   1.26130689  9.25334997  6.18369015
   6.81742376  9.25334997  6.18354498
   1.51970100  0.91526102  4.01488689
   7.07581787  0.91526102  4.01474172
   1.51970100  6.47398699  4.01488689
   7.07581787  6.47398699  4.01474172
   4.03864136  3.96168165  4.01486769
   9.59475823  3.96168165  4.01472252
   4.03864136  9.52040762  4.01486769
   9.59475823  9.52040762  4.01472252
   0.00035027  5.21813216  1.57031984
   5.55646714  5.21813216  1.57017467
   0.00035027 10.77685813  1.57031984
   5.55646714 10.77685813  1.57017467
   2.77848919  2.43868979  1.57536637
   8.33460606  2.43868979  1.57522120
   2.77848919  7.99741576  1.57536637
   8.33460606  7.99741576  1.57522120
   0.00251870  5.21805278  8.62321067
   5.55863557  5.21805278  8.62306550
   0.00251870 10.77677875  8.62321067
   5.55863557 10.77677875  8.62306550
   2.78065762  2.43876917  8.62825720
   8.33677449  2.43876917  8.62811203
   2.78065762  7.99749514  8.62825720
   8.33677449  7.99749514  8.62811203
 


--------------------------------------------------------------------------------------------------------


 k-point  1 :   0.0000 0.0000 0.0000  plane waves:   47369
 k-point  2 :   0.3333 0.0000 0.0000  plane waves:   47373
 k-point  3 :   0.0000 0.3333 0.0000  plane waves:   47370
 k-point  4 :   0.3333 0.3333 0.0000  plane waves:   47404
 k-point  5 :  -0.3333 0.3333-0.0000  plane waves:   47404
 k-point  6 :   0.0000 0.0000 0.3333  plane waves:   47419
 k-point  7 :   0.3333 0.0000 0.3333  plane waves:   47399
 k-point  8 :  -0.3333 0.0000 0.3333  plane waves:   47417
 k-point  9 :   0.0000 0.3333 0.3333  plane waves:   47409
 k-point 10 :   0.3333 0.3333 0.3333  plane waves:   47422
 k-point 11 :  -0.3333 0.3333 0.3333  plane waves:   47440
 k-point 12 :   0.0000-0.3333 0.3333  plane waves:   47409
 k-point 13 :   0.3333-0.3333 0.3333  plane waves:   47422
 k-point 14 :  -0.3333-0.3333 0.3333  plane waves:   47440

 maximum and minimum number of plane-waves per node :      7942     7858

 maximum number of plane-waves:     47440
 maximum index in each direction: 
   IXMAX=   23   IYMAX=   23   IZMAX=   21
   IXMIN=  -23   IYMIN=  -23   IZMIN=  -22


 parallel 3D FFT for wavefunctions:
    minimum data exchange during FFTs selected (reduces bandwidth)
 parallel 3D FFT for charge:
    minimum data exchange during FFTs selected (reduces bandwidth)


 total amount of memory used by VASP MPI-rank0  1233264. kBytes
=======================================================================

   base      :      30000. kBytes
   nonl-proj :      75226. kBytes
   fftplans  :      85054. kBytes
   grid      :      64684. kBytes
   one-center:        466. kBytes
   wavefun   :     977834. kBytes
 
     INWAV:  cpu time    0.0000: real time    0.0000
 Broyden mixing: mesh for mixing (old mesh)
   NGX = 47   NGY = 47   NGZ = 43
  (NGX  =192   NGY  =192   NGZ  =180)
  gives a total of  94987 points

 initial charge density was supplied:
 number of electron     736.0000016 magnetization     127.9999885
 keeping initial charge density in first step


--------------------------------------------------------------------------------------------------------


 Maximum index for augmentation-charges        13229 (set IRDMAX)


--------------------------------------------------------------------------------------------------------


 First call to EWALD:  gamma=   0.164
 Maximum number of real-space cells 3x 3x 3
 Maximum number of reciprocal cells 3x 3x 3

    FEWALD:  cpu time    0.0039: real time    0.0041


--------------------------------------- Iteration      1(   1)  ---------------------------------------


    POTLOK:  cpu time    1.0468: real time    1.4268
    SETDIJ:  cpu time    2.2888: real time    2.2969
     EDDAV:  cpu time  310.1390: real time  313.8726
       DOS:  cpu time    0.0081: real time    0.0081
    --------------------------------------------
      LOOP:  cpu time  313.4827: real time  317.6044

 eigenvalue-minimisations  : 30944
 total energy-change (2. order) : 0.1040958E+05  (-0.4118856E+05)
 number of electron     736.0000016 magnetization     127.9999885
 augmentation part      736.0000016 magnetization     127.9999885

 Free energy of the ion-electron system (eV)
  ---------------------------------------------------
  alpha Z        PSCENC =      2314.49656628
  Ewald energy   TEWEN  =    -57723.20661509
  -Hartree energ DENC   =    -30348.71644896
  -exchange      EXHF   =         0.00000000
  -V(xc)+E(xc)   XCENC  =      3229.29945688
  PAW double counting   =     92679.89207989   -95535.38516353
  entropy T*S    EENTRO =        -0.01841602
  eigenvalues    EBANDS =       349.73700893
  atomic energy  EATOM  =     95443.47970955
  Solvation  Ediel_sol  =         0.00000000
  ---------------------------------------------------
  free energy    TOTEN  =     10409.57817793 eV

  energy without entropy =    10409.59659395  energy(sigma->0) =    10409.58738594


--------------------------------------------------------------------------------------------------------




--------------------------------------- Iteration      1(   2)  ---------------------------------------


     EDDAV:  cpu time  304.8226: real time  308.5164
       DOS:  cpu time    0.0081: real time    0.0081
    --------------------------------------------
      LOOP:  cpu time  304.8307: real time  308.5245

 eigenvalue-minimisations  : 30128
 total energy-change (2. order) :-0.9232077E+04  (-0.8658258E+04)
 number of electron     736.0000016 magnetization     127.9999885
 augmentation part      736.0000016 magnetization     127.9999885

 Free energy of the ion-electron system (eV)
  ---------------------------------------------------
  alpha Z        PSCENC =      2314.49656628
  Ewald energy   TEWEN  =    -57723.20661509
  -Hartree energ DENC   =    -30348.71644896
  -exchange      EXHF   =         0.00000000
  -V(xc)+E(xc)   XCENC  =      3229.29945688
  PAW double counting   =     92679.89207989   -95535.38516353
  entropy T*S    EENTRO =        -0.06657513
  eigenvalues    EBANDS =     -8882.29159205
  atomic energy  EATOM  =     95443.47970955
  Solvation  Ediel_sol  =         0.00000000
  ---------------------------------------------------
  free energy    TOTEN  =      1177.50141784 eV

  energy without entropy =     1177.56799297  energy(sigma->0) =     1177.53470540


--------------------------------------------------------------------------------------------------------




--------------------------------------- Iteration      1(   3)  ---------------------------------------


     EDDAV:  cpu time  319.7239: real time  322.8867
       DOS:  cpu time    0.0024: real time    0.0024
    --------------------------------------------
      LOOP:  cpu time  319.7264: real time  322.8892

 eigenvalue-minimisations  : 32384
 total energy-change (2. order) :-0.1485630E+04  (-0.1279010E+04)
 number of electron     736.0000016 magnetization     127.9999885
 augmentation part      736.0000016 magnetization     127.9999885

 Free energy of the ion-electron system (eV)
  ---------------------------------------------------
  alpha Z        PSCENC =      2314.49656628
  Ewald energy   TEWEN  =    -57723.20661509
  -Hartree energ DENC   =    -30348.71644896
  -exchange      EXHF   =         0.00000000
  -V(xc)+E(xc)   XCENC  =      3229.29945688
  PAW double counting   =     92679.89207989   -95535.38516353
  entropy T*S    EENTRO =        -0.00000000
  eigenvalues    EBANDS =    -10367.98820257
  atomic energy  EATOM  =     95443.47970955
  Solvation  Ediel_sol  =         0.00000000
  ---------------------------------------------------
  free energy    TOTEN  =      -308.12861756 eV

  energy without entropy =     -308.12861756  energy(sigma->0) =     -308.12861756


--------------------------------------------------------------------------------------------------------




--------------------------------------- Iteration      1(   4)  ---------------------------------------


     EDDAV:  cpu time  342.1441: real time  346.2683
       DOS:  cpu time    0.0025: real time    0.0025
    --------------------------------------------
      LOOP:  cpu time  342.1466: real time  346.2708

 eigenvalue-minimisations  : 35032
 total energy-change (2. order) :-0.1681733E+03  (-0.1654231E+03)
 number of electron     736.0000016 magnetization     127.9999885
 augmentation part      736.0000016 magnetization     127.9999885

 Free energy of the ion-electron system (eV)
  ---------------------------------------------------
  alpha Z        PSCENC =      2314.49656628
  Ewald energy   TEWEN  =    -57723.20661509
  -Hartree energ DENC   =    -30348.71644896
  -exchange      EXHF   =         0.00000000
  -V(xc)+E(xc)   XCENC  =      3229.29945688
  PAW double counting   =     92679.89207989   -95535.38516353
  entropy T*S    EENTRO =        -0.00000000
  eigenvalues    EBANDS =    -10536.16146382
  atomic energy  EATOM  =     95443.47970955
  Solvation  Ediel_sol  =         0.00000000
  ---------------------------------------------------
  free energy    TOTEN  =      -476.30187880 eV

  energy without entropy =     -476.30187880  energy(sigma->0) =     -476.30187880


--------------------------------------------------------------------------------------------------------




--------------------------------------- Iteration      1(   5)  ---------------------------------------


     EDDAV:  cpu time  455.4279: real time  460.7251
       DOS:  cpu time    0.0026: real time    0.0026
    CHARGE:  cpu time    9.2386: real time    9.4002
    MIXING:  cpu time    0.0372: real time    0.0372
    --------------------------------------------
      LOOP:  cpu time  464.7063: real time  470.1650

 eigenvalue-minimisations  : 49768
 total energy-change (2. order) :-0.1242871E+02  (-0.1230559E+02)
 number of electron     736.0000016 magnetization     127.9999932
 augmentation part      278.4626203 magnetization      84.1343219

 Broyden mixing:
  rms(total) = 0.21852E+00    rms(broyden)= 0.21836E+00
  rms(prec ) = 0.22181E+00
  weight for this iteration     100.00

 Free energy of the ion-electron system (eV)
  ---------------------------------------------------
  alpha Z        PSCENC =      2314.49656628
  Ewald energy   TEWEN  =    -57723.20661509
  -Hartree energ DENC   =    -30348.71644896
  -exchange      EXHF   =         0.00000000
  -V(xc)+E(xc)   XCENC  =      3229.29945688
  PAW double counting   =     92679.89207989   -95535.38516353
  entropy T*S    EENTRO =        -0.00000000
  eigenvalues    EBANDS =    -10548.59017315
  atomic energy  EATOM  =     95443.47970955
  Solvation  Ediel_sol  =         0.00000000
  ---------------------------------------------------
  free energy    TOTEN  =      -488.73058814 eV

  energy without entropy =     -488.73058814  energy(sigma->0) =     -488.73058814


--------------------------------------------------------------------------------------------------------




--------------------------------------- Iteration      1(   6)  ---------------------------------------


    POTLOK:  cpu time    1.0418: real time    1.0456
    SETDIJ:  cpu time    2.3339: real time    2.3468
     EDDAV:  cpu time  399.0721: real time  403.3465
       DOS:  cpu time    0.0032: real time    0.0033
    CHARGE:  cpu time    9.2566: real time    9.3635
    MIXING:  cpu time    0.0358: real time    0.0358
    --------------------------------------------
      LOOP:  cpu time  411.7433: real time  416.1414

 eigenvalue-minimisations  : 42280
 total energy-change (2. order) :-0.4694357E+00  (-0.4805771E+00)
 number of electron     736.0000016 magnetization     127.9999951
 augmentation part      277.9600063 magnetization      84.1634062

 Broyden mixing:
  rms(total) = 0.10707E+00    rms(broyden)= 0.10691E+00
  rms(prec ) = 0.10778E+00
  weight for this iteration     100.00

 eigenvalues of (default mixing * dielectric matrix)
  average eigenvalue GAMMA=   0.6700
  0.6700

 Free energy of the ion-electron system (eV)
  ---------------------------------------------------
  alpha Z        PSCENC =      2314.49656628
  Ewald energy   TEWEN  =    -57723.20661509
  -Hartree energ DENC   =    -30346.88923031
  -exchange      EXHF   =         0.00000000
  -V(xc)+E(xc)   XCENC  =      3228.99901623
  PAW double counting   =     92521.64354083   -95375.48069433
  entropy T*S    EENTRO =        -0.00000000
  eigenvalues    EBANDS =    -10552.24231698
  atomic energy  EATOM  =     95443.47970955
  Solvation  Ediel_sol  =         0.00000000
  ---------------------------------------------------
  free energy    TOTEN  =      -489.20002382 eV

  energy without entropy =     -489.20002382  energy(sigma->0) =     -489.20002382


--------------------------------------------------------------------------------------------------------




--------------------------------------- Iteration      1(   7)  ---------------------------------------


    POTLOK:  cpu time    1.0433: real time    1.0459
    SETDIJ:  cpu time    2.3036: real time    2.3054
     EDDAV:  cpu time  421.7668: real time  426.6364
       DOS:  cpu time    0.0027: real time    0.0027
    CHARGE:  cpu time    9.2835: real time    9.3609
    MIXING:  cpu time    0.0371: real time    0.0372
    --------------------------------------------
      LOOP:  cpu time  434.4371: real time  439.3885

 eigenvalue-minimisations  : 45376
 total energy-change (2. order) :-0.1726477E-01  (-0.1752942E-01)
 number of electron     736.0000016 magnetization     127.9999958
 augmentation part      277.8797086 magnetization      84.1549208

 Broyden mixing:
  rms(total) = 0.59348E-01    rms(broyden)= 0.59306E-01
  rms(prec ) = 0.60793E-01
  weight for this iteration     100.00

 eigenvalues of (default mixing * dielectric matrix)
  average eigenvalue GAMMA=   0.5397
  0.5397  0.5397

 Free energy of the ion-electron system (eV)
  ---------------------------------------------------
  alpha Z        PSCENC =      2314.49656628
  Ewald energy   TEWEN  =    -57723.20661509
  -Hartree energ DENC   =    -30347.81767776
  -exchange      EXHF   =         0.00000000
  -V(xc)+E(xc)   XCENC  =      3229.08399727
  PAW double counting   =     92580.04710766   -95434.46014450
  entropy T*S    EENTRO =        -0.00000000
  eigenvalues    EBANDS =    -10550.84023200
  atomic energy  EATOM  =     95443.47970955
  Solvation  Ediel_sol  =         0.00000000
  ---------------------------------------------------
  free energy    TOTEN  =      -489.21728860 eV

  energy without entropy =     -489.21728860  energy(sigma->0) =     -489.21728860


--------------------------------------------------------------------------------------------------------




--------------------------------------- Iteration      1(   8)  ---------------------------------------


    POTLOK:  cpu time    1.0383: real time    1.0445
    SETDIJ:  cpu time    2.3018: real time    2.3035
     EDDAV:  cpu time  403.9648: real time  408.3638
       DOS:  cpu time    0.0027: real time    0.0027
    CHARGE:  cpu time    9.3453: real time    9.3720
    MIXING:  cpu time    0.0339: real time    0.0339
    --------------------------------------------
      LOOP:  cpu time  416.6868: real time  421.1204

 eigenvalue-minimisations  : 43248
 total energy-change (2. order) : 0.3986370E-03  (-0.4019650E-03)
 number of electron     736.0000016 magnetization     127.9999967
 augmentation part      277.8712727 magnetization      84.1569230

 Broyden mixing:
  rms(total) = 0.53421E-01    rms(broyden)= 0.53418E-01
  rms(prec ) = 0.54700E-01
  weight for this iteration     100.00

 eigenvalues of (default mixing * dielectric matrix)
  average eigenvalue GAMMA=   0.5915
  0.5510  0.6117  0.6117

 Free energy of the ion-electron system (eV)
  ---------------------------------------------------
  alpha Z        PSCENC =      2314.49656628
  Ewald energy   TEWEN  =    -57723.20661509
  -Hartree energ DENC   =    -30347.79050175
  -exchange      EXHF   =         0.00000000
  -V(xc)+E(xc)   XCENC  =      3229.11216821
  PAW double counting   =     92593.32372129   -95447.86842907
  entropy T*S    EENTRO =        -0.00000000
  eigenvalues    EBANDS =    -10550.76350938
  atomic energy  EATOM  =     95443.47970955
  Solvation  Ediel_sol  =         0.00000000
  ---------------------------------------------------
  free energy    TOTEN  =      -489.21688996 eV

  energy without entropy =     -489.21688996  energy(sigma->0) =     -489.21688996


--------------------------------------------------------------------------------------------------------




--------------------------------------- Iteration      1(   9)  ---------------------------------------


    POTLOK:  cpu time    1.0457: real time    1.0523
    SETDIJ:  cpu time    2.2948: real time    2.3167
     EDDAV:  cpu time  436.8417: real time  442.1498
       DOS:  cpu time    0.0028: real time    0.0028
    CHARGE:  cpu time    9.2824: real time    9.4059
    MIXING:  cpu time    0.0388: real time    0.0409
    --------------------------------------------
      LOOP:  cpu time  449.5063: real time  454.9685

 eigenvalue-minimisations  : 47488
 total energy-change (2. order) : 0.7086030E-03  (-0.2217807E-04)
 number of electron     736.0000016 magnetization     127.9999997
 augmentation part      277.8736968 magnetization      84.1571049

 Broyden mixing:
  rms(total) = 0.42757E-01    rms(broyden)= 0.42757E-01
  rms(prec ) = 0.43720E-01
  weight for this iteration     100.00

 eigenvalues of (default mixing * dielectric matrix)
  average eigenvalue GAMMA=   1.1144
  1.9748  1.1959  0.6520  0.6349

 Free energy of the ion-electron system (eV)
  ---------------------------------------------------
  alpha Z        PSCENC =      2314.49656628
  Ewald energy   TEWEN  =    -57723.20661509
  -Hartree energ DENC   =    -30347.93917407
  -exchange      EXHF   =         0.00000000
  -V(xc)+E(xc)   XCENC  =      3229.15441251
  PAW double counting   =     92607.98682279   -95462.73050592
  entropy T*S    EENTRO =        -0.00000000
  eigenvalues    EBANDS =    -10550.45739741
  atomic energy  EATOM  =     95443.47970955
  Solvation  Ediel_sol  =         0.00000000
  ---------------------------------------------------
  free energy    TOTEN  =      -489.21618136 eV

  energy without entropy =     -489.21618136  energy(sigma->0) =     -489.21618136


--------------------------------------------------------------------------------------------------------




--------------------------------------- Iteration      1(  10)  ---------------------------------------


    POTLOK:  cpu time    1.0461: real time    1.0645
    SETDIJ:  cpu time    2.2880: real time    2.3074
     EDDAV:  cpu time  452.5214: real time  457.4768
       DOS:  cpu time    0.0030: real time    0.0053
    CHARGE:  cpu time    9.2328: real time    9.4378
    MIXING:  cpu time    0.0339: real time    0.0345
    --------------------------------------------
      LOOP:  cpu time  465.1252: real time  470.3266

 eigenvalue-minimisations  : 48968
 total energy-change (2. order) : 0.9044925E-03  (-0.2022139E-03)
 number of electron     736.0000016 magnetization     128.0000004
 augmentation part      277.8922438 magnetization      84.1588901

 Broyden mixing:
  rms(total) = 0.80122E-02    rms(broyden)= 0.80078E-02
  rms(prec ) = 0.80730E-02
  weight for this iteration     100.00

 eigenvalues of (default mixing * dielectric matrix)
  average eigenvalue GAMMA=   1.0715
  2.5832  0.9001  0.6639  0.6639  0.5462

 Free energy of the ion-electron system (eV)
  ---------------------------------------------------
  alpha Z        PSCENC =      2314.49656628
  Ewald energy   TEWEN  =    -57723.20661509
  -Hartree energ DENC   =    -30348.67830305
  -exchange      EXHF   =         0.00000000
  -V(xc)+E(xc)   XCENC  =      3229.30657405
  PAW double counting   =     92663.38767910   -95518.85512505
  entropy T*S    EENTRO =        -0.00000000
  eigenvalues    EBANDS =    -10549.14576265
  atomic energy  EATOM  =     95443.47970955
  Solvation  Ediel_sol  =         0.00000000
  ---------------------------------------------------
  free energy    TOTEN  =      -489.21527686 eV

  energy without entropy =     -489.21527686  energy(sigma->0) =     -489.21527686


--------------------------------------------------------------------------------------------------------




--------------------------------------- Iteration      1(  11)  ---------------------------------------


    POTLOK:  cpu time    1.0478: real time    1.0515
    SETDIJ:  cpu time    2.3145: real time    2.3237
     EDDAV:  cpu time  369.6817: real time  373.7095
       DOS:  cpu time    0.0028: real time    0.0032
    CHARGE:  cpu time    9.3170: real time    9.3796
    MIXING:  cpu time    0.0362: real time    0.0368
    --------------------------------------------
      LOOP:  cpu time  382.4001: real time  386.5041

 eigenvalue-minimisations  : 38744
 total energy-change (2. order) :-0.8327856E-04  (-0.5119830E-04)
 number of electron     736.0000016 magnetization     128.0000004
 augmentation part      277.8951983 magnetization      84.1586591

 Broyden mixing:
  rms(total) = 0.66237E-02    rms(broyden)= 0.66217E-02
  rms(prec ) = 0.69939E-02
  weight for this iteration     100.00

 eigenvalues of (default mixing * dielectric matrix)
  average eigenvalue GAMMA=   1.0493
  2.6233  0.7815  0.7815  0.8476  0.6310  0.6310

 Free energy of the ion-electron system (eV)
  ---------------------------------------------------
  alpha Z        PSCENC =      2314.49656628
  Ewald energy   TEWEN  =    -57723.20661509
  -Hartree energ DENC   =    -30348.79596561
  -exchange      EXHF   =         0.00000000
  -V(xc)+E(xc)   XCENC  =      3229.32762646
  PAW double counting   =     92675.70670663   -95531.28685397
  entropy T*S    EENTRO =        -0.00000000
  eigenvalues    EBANDS =    -10548.93653440
  atomic energy  EATOM  =     95443.47970955
  Solvation  Ediel_sol  =         0.00000000
  ---------------------------------------------------
  free energy    TOTEN  =      -489.21536014 eV

  energy without entropy =     -489.21536014  energy(sigma->0) =     -489.21536014


--------------------------------------------------------------------------------------------------------




--------------------------------------- Iteration      1(  12)  ---------------------------------------


    POTLOK:  cpu time    1.0484: real time    1.0617
    SETDIJ:  cpu time    2.2921: real time    2.3263
     EDDAV:  cpu time  384.5896: real time  388.8129
       DOS:  cpu time    0.0025: real time    0.0025
    CHARGE:  cpu time    9.3709: real time    9.4127
    MIXING:  cpu time    0.0329: real time    0.0329
    --------------------------------------------
      LOOP:  cpu time  397.3363: real time  401.6490

 eigenvalue-minimisations  : 40752
 total energy-change (2. order) : 0.1980356E-04  (-0.4367436E-05)
 number of electron     736.0000016 magnetization     128.0000004
 augmentation part      277.8967257 magnetization      84.1584690

 Broyden mixing:
  rms(total) = 0.51698E-02    rms(broyden)= 0.51683E-02
  rms(prec ) = 0.54449E-02
  weight for this iteration     100.00

 eigenvalues of (default mixing * dielectric matrix)
  average eigenvalue GAMMA=   1.1444
  2.6224  1.3430  1.3430  0.8531  0.6638  0.6638  0.5216

 Free energy of the ion-electron system (eV)
  ---------------------------------------------------
  alpha Z        PSCENC =      2314.49656628
  Ewald energy   TEWEN  =    -57723.20661509
  -Hartree energ DENC   =    -30348.77625103
  -exchange      EXHF   =         0.00000000
  -V(xc)+E(xc)   XCENC  =      3229.31968358
  PAW double counting   =     92676.17881879   -95531.72521625
  entropy T*S    EENTRO =        -0.00000000
  eigenvalues    EBANDS =    -10548.98203616
  atomic energy  EATOM  =     95443.47970955
  Solvation  Ediel_sol  =         0.00000000
  ---------------------------------------------------
  free energy    TOTEN  =      -489.21534034 eV

  energy without entropy =     -489.21534034  energy(sigma->0) =     -489.21534034


--------------------------------------------------------------------------------------------------------




--------------------------------------- Iteration      1(  13)  ---------------------------------------


    POTLOK:  cpu time    1.0231: real time    1.0446
    SETDIJ:  cpu time    2.2882: real time    2.3071
     EDDAV:  cpu time  356.4815: real time  360.7739
       DOS:  cpu time    0.0026: real time    0.0026
    CHARGE:  cpu time    9.4483: real time    9.5068
    MIXING:  cpu time    0.0397: real time    0.0397
    --------------------------------------------
      LOOP:  cpu time  369.2835: real time  373.6747

 eigenvalue-minimisations  : 36896
 total energy-change (2. order) : 0.1452497E-04  (-0.2861446E-05)
 number of electron     736.0000016 magnetization     128.0000005
 augmentation part      277.8946712 magnetization      84.1582721

 Broyden mixing:
  rms(total) = 0.14065E-02    rms(broyden)= 0.14021E-02
  rms(prec ) = 0.14420E-02
  weight for this iteration     100.00

 eigenvalues of (default mixing * dielectric matrix)
  average eigenvalue GAMMA=   1.1897
  2.8882  1.5602  1.5602  0.8881  0.7165  0.7165  0.5940  0.5940

 Free energy of the ion-electron system (eV)
  ---------------------------------------------------
  alpha Z        PSCENC =      2314.49656628
  Ewald energy   TEWEN  =    -57723.20661509
  -Hartree energ DENC   =    -30348.72045708
  -exchange      EXHF   =         0.00000000
  -V(xc)+E(xc)   XCENC  =      3229.30193412
  PAW double counting   =     92677.27127760   -95532.75238545
  entropy T*S    EENTRO =        -0.00000000
  eigenvalues    EBANDS =    -10549.08535574
  atomic energy  EATOM  =     95443.47970955
  Solvation  Ediel_sol  =         0.00000000
  ---------------------------------------------------
  free energy    TOTEN  =      -489.21532581 eV

  energy without entropy =     -489.21532581  energy(sigma->0) =     -489.21532581


--------------------------------------------------------------------------------------------------------




--------------------------------------- Iteration      1(  14)  ---------------------------------------


    POTLOK:  cpu time    1.0452: real time    1.0470
    SETDIJ:  cpu time    2.3305: real time    2.3325
     EDDAV:  cpu time  324.0329: real time  327.7019
       DOS:  cpu time    0.0027: real time    0.0027
    CHARGE:  cpu time    9.2487: real time    9.4524
    MIXING:  cpu time    0.0384: real time    0.0405
    --------------------------------------------
      LOOP:  cpu time  336.6984: real time  340.5770

 eigenvalue-minimisations  : 32624
 total energy-change (2. order) :-0.4694914E-05  (-0.2090689E-05)
 number of electron     736.0000016 magnetization     128.0000005
 augmentation part      277.8933174 magnetization      84.1581439

 Broyden mixing:
  rms(total) = 0.91248E-03    rms(broyden)= 0.90558E-03
  rms(prec ) = 0.94427E-03
  weight for this iteration     100.00

 eigenvalues of (default mixing * dielectric matrix)
  average eigenvalue GAMMA=   1.1236
  2.8567  1.5274  1.5274  0.9998  0.7081  0.7081  0.6450  0.6450  0.4949

 Free energy of the ion-electron system (eV)
  ---------------------------------------------------
  alpha Z        PSCENC =      2314.49656628
  Ewald energy   TEWEN  =    -57723.20661509
  -Hartree energ DENC   =    -30348.71405359
  -exchange      EXHF   =         0.00000000
  -V(xc)+E(xc)   XCENC  =      3229.29781399
  PAW double counting   =     92678.49843647   -95533.97093068
  entropy T*S    EENTRO =        -0.00000000
  eigenvalues    EBANDS =    -10549.09625743
  atomic energy  EATOM  =     95443.47970955
  Solvation  Ediel_sol  =         0.00000000
  ---------------------------------------------------
  free energy    TOTEN  =      -489.21533051 eV

  energy without entropy =     -489.21533051  energy(sigma->0) =     -489.21533051


--------------------------------------------------------------------------------------------------------




--------------------------------------- Iteration      1(  15)  ---------------------------------------


    POTLOK:  cpu time    1.0356: real time    1.0670
    SETDIJ:  cpu time    2.2684: real time    2.2984
     EDDAV:  cpu time  282.8070: real time  286.2540
       DOS:  cpu time    0.0025: real time    0.0025
    CHARGE:  cpu time    9.4699: real time    9.5064
    MIXING:  cpu time    0.0494: real time    0.0545
    --------------------------------------------
      LOOP:  cpu time  295.6329: real time  299.1828

 eigenvalue-minimisations  : 27400
 total energy-change (2. order) : 0.1244378E-05  (-0.2380686E-06)
 number of electron     736.0000016 magnetization     128.0000005
 augmentation part      277.8930638 magnetization      84.1582285

 Broyden mixing:
  rms(total) = 0.62083E-03    rms(broyden)= 0.61085E-03
  rms(prec ) = 0.62730E-03
  weight for this iteration     100.00

 eigenvalues of (default mixing * dielectric matrix)
  average eigenvalue GAMMA=   1.1314
  2.8599  1.4918  1.2802  1.2802  0.9229  0.9229  0.5831  0.5831  0.6950  0.6950

 Free energy of the ion-electron system (eV)
  ---------------------------------------------------
  alpha Z        PSCENC =      2314.49656628
  Ewald energy   TEWEN  =    -57723.20661509
  -Hartree energ DENC   =    -30348.71581343
  -exchange      EXHF   =         0.00000000
  -V(xc)+E(xc)   XCENC  =      3229.29931964
  PAW double counting   =     92678.73479725   -95534.21692675
  entropy T*S    EENTRO =        -0.00000000
  eigenvalues    EBANDS =    -10549.08636671
  atomic energy  EATOM  =     95443.47970955
  Solvation  Ediel_sol  =         0.00000000
  ---------------------------------------------------
  free energy    TOTEN  =      -489.21532926 eV

  energy without entropy =     -489.21532926  energy(sigma->0) =     -489.21532926


--------------------------------------------------------------------------------------------------------




--------------------------------------- Iteration      1(  16)  ---------------------------------------


    POTLOK:  cpu time    1.0629: real time    1.0952
    SETDIJ:  cpu time    2.2402: real time    2.2719
     EDDAV:  cpu time  212.1529: real time  214.6108
       DOS:  cpu time    0.0024: real time    0.0024
    --------------------------------------------
      LOOP:  cpu time  215.4585: real time  217.9802

 eigenvalue-minimisations  : 17920
 total energy-change (2. order) :-0.8878123E-06  (-0.2789728E-07)
 number of electron     736.0000016 magnetization     128.0000005
 augmentation part      277.8930638 magnetization      84.1582285

 Free energy of the ion-electron system (eV)
  ---------------------------------------------------
  alpha Z        PSCENC =      2314.49656628
  Ewald energy   TEWEN  =    -57723.20661509
  -Hartree energ DENC   =    -30348.71122345
  -exchange      EXHF   =         0.00000000
  -V(xc)+E(xc)   XCENC  =      3229.29844647
  PAW double counting   =     92679.14379969   -95534.62631355
  entropy T*S    EENTRO =        -0.00000000
  eigenvalues    EBANDS =    -10549.08970004
  atomic energy  EATOM  =     95443.47970955
  Solvation  Ediel_sol  =         0.00000000
  ---------------------------------------------------
  free energy    TOTEN  =      -489.21533015 eV

  energy without entropy =     -489.21533015  energy(sigma->0) =     -489.21533015


--------------------------------------------------------------------------------------------------------




 average (electrostatic) potential at core
  the test charge radii are     0.7079  0.7215  0.9698  0.9500
  (the norm of the test charge is              1.0000)
       1 -58.9489       2 -58.9490       3 -58.9493       4 -58.9490       5 -58.9483
       6 -58.9482       7 -58.9481       8 -58.9482       9 -58.9500      10 -58.9466
      11 -58.9483      12 -58.9478      13 -58.9478      14 -58.9497      15 -58.9490
      16 -58.9492      17 -69.8152      18 -69.8172      19 -69.8154      20 -69.8171
      21 -69.8173      22 -69.8161      23 -69.8165      24 -69.8163      25 -69.8163
      26 -69.8163      27 -69.8164      28 -69.8163      29 -69.8164      30 -69.8161
      31 -69.8166      32 -69.8160      33 -85.5803      34 -85.5796      35 -85.5799
      36 -85.5798      37 -85.5804      38 -85.5790      39 -85.5804      40 -85.5792
      41 -85.5714      42 -85.5868      43 -85.5797      44 -85.5799      45 -85.5799
      46 -85.5797      47 -85.5801      48 -85.5798      49 -85.6381      50 -85.6393
      51 -85.6386      52 -85.6388      53 -85.6390      54 -85.6385      55 -85.6387
      56 -85.6387      57 -78.5723      58 -78.5753      59 -78.5732      60 -78.5749
      61 -78.5738      62 -78.5746      63 -78.5743      64 -78.5740      65 -78.5741
      66 -78.5740      67 -78.5742      68 -78.5740      69 -78.5758      70 -78.5718
      71 -78.5744      72 -78.5738      73 -78.5820      74 -78.5821      75 -78.5818
      76 -78.5822      77 -78.5914      78 -78.5915      79 -78.5917      80 -78.5914
      81 -78.5904      82 -78.5923      83 -78.5915      84 -78.5917      85 -78.5835
      86 -78.5809      87 -78.5821      88 -78.5817
 
 
 
 E-fermi :   5.2127     XC(G=0): -10.4850     alpha+bet :-11.8156


 spin component 1

 k-point     1 :       0.0000    0.0000    0.0000
  band No.  band energies     occupation 
      1     -51.0554      1.00000
      2     -51.0551      1.00000
      3     -51.0550      1.00000
      4     -51.0546      1.00000
      5     -51.0540      1.00000
      6     -51.0538      1.00000
      7     -51.0536      1.00000
      8     -51.0535      1.00000
      9     -51.0528      1.00000
     10     -51.0527      1.00000
     11     -51.0526      1.00000
     12     -51.0522      1.00000
     13     -51.0520      1.00000
     14     -51.0509      1.00000
     15     -51.0508      1.00000
     16     -51.0498      1.00000
     17     -51.0447      1.00000
     18     -51.0443      1.00000
     19     -51.0442      1.00000
     20     -51.0442      1.00000
     21     -51.0438      1.00000
     22     -51.0438      1.00000
     23     -51.0437      1.00000
     24     -51.0433      1.00000
     25     -51.0405      1.00000
     26     -51.0396      1.00000
     27     -51.0396      1.00000
     28     -51.0396      1.00000
     29     -51.0392      1.00000
     30     -51.0392      1.00000
     31     -51.0391      1.00000
     32     -51.0385      1.00000
     33     -49.7024      1.00000
     34     -49.7017      1.00000
     35     -49.7017      1.00000
     36     -49.7016      1.00000
     37     -49.7015      1.00000
     38     -49.7015      1.00000
     39     -49.7014      1.00000
     40     -49.6999      1.00000
     41     -49.6961      1.00000
     42     -49.6942      1.00000
     43     -49.6942      1.00000
     44     -49.6941      1.00000
     45     -49.6941      1.00000
     46     -49.6938      1.00000
     47     -49.6938      1.00000
     48     -49.6928      1.00000
     49     -49.5989      1.00000
     50     -49.5981      1.00000
     51     -49.5980      1.00000
     52     -49.5974      1.00000
     53     -49.5973      1.00000
     54     -49.5970      1.00000
     55     -49.5970      1.00000
     56     -49.5968      1.00000
     57     -49.5964      1.00000
     58     -49.5963      1.00000
     59     -49.5961      1.00000
     60     -49.5960      1.00000
     61     -49.5956      1.00000
     62     -49.5949      1.00000
     63     -49.5947      1.00000
     64     -49.5940      1.00000
     65     -49.5679      1.00000
     66     -49.5671      1.00000
     67     -49.5667      1.00000
     68     -49.5666      1.00000
     69     -49.5662      1.00000
     70     -49.5660      1.00000
     71     -49.5657      1.00000
     72     -49.5654      1.00000
     73     -49.5650      1.00000
     74     -49.5646      1.00000
     75     -49.5645      1.00000
     76     -49.5644      1.00000
     77     -49.5640      1.00000
     78     -49.5637      1.00000
     79     -49.5633      1.00000
     80     -49.5627      1.00000
     81     -49.5548      1.00000
     82     -49.5543      1.00000
     83     -49.5542      1.00000
     84     -49.5541      1.00000
     85     -49.5541      1.00000
     86     -49.5540      1.00000
     87     -49.5540      1.00000
     88     -49.5532      1.00000
     89     -49.5406      1.00000
     90     -49.5397      1.00000
     91     -49.5396      1.00000
     92     -49.5395      1.00000
     93     -49.5395      1.00000
     94     -49.5393      1.00000
     95     -49.5392      1.00000
     96     -49.5384      1.00000
     97     -39.8670      1.00000
     98     -39.8661      1.00000
     99     -39.8660      1.00000
    100     -39.8656      1.00000
    101     -39.8655      1.00000
    102     -39.8654      1.00000
    103     -39.8654      1.00000
    104     -39.8652      1.00000
    105     -39.8652      1.00000
    106     -39.8651      1.00000
    107     -39.8650      1.00000
    108     -39.8648      1.00000
    109     -39.8648      1.00000
    110     -39.8646      1.00000
    111     -39.8640      1.00000
    112     -39.8634      1.00000
    113     -13.2250      1.00000
    114     -13.2248      1.00000
    115     -13.2105      1.00000
    116     -13.1836      1.00000
    117     -13.1011      1.00000
    118     -13.0991      1.00000
    119     -13.0990      1.00000
    120     -13.0931      1.00000
    121     -13.0862      1.00000
    122     -13.0802      1.00000
    123     -13.0800      1.00000
    124     -13.0778      1.00000
    125     -12.9882      1.00000
    126     -12.9775      1.00000
    127     -12.9420      1.00000
    128     -12.9419      1.00000
    129      -7.6452      1.00000
    130      -7.4068      1.00000
    131      -7.3262      1.00000
    132      -7.3262      1.00000
    133      -7.3093      1.00000
    134      -7.3092      1.00000
    135      -7.3085      1.00000
    136      -7.3074      1.00000
    137      -7.1694      1.00000
    138      -7.1574      1.00000
    139      -7.1238      1.00000
    140      -7.1237      1.00000
    141      -7.0366      1.00000
    142      -7.0219      1.00000
    143      -7.0021      1.00000
    144      -7.0017      1.00000
    145      -6.9409      1.00000
    146      -6.9406      1.00000
    147      -6.8872      1.00000
    148      -6.8870      1.00000
    149      -6.8650      1.00000
    150      -6.8618      1.00000
    151      -6.8343      1.00000
    152      -6.8036      1.00000
    153      -1.9356      1.00000
    154      -1.9355      1.00000
    155      -1.9105      1.00000
    156      -1.8936      1.00000
    157      -1.6667      1.00000
    158      -1.6663      1.00000
    159      -1.6587      1.00000
    160      -1.6574      1.00000
    161      -1.5997      1.00000
    162      -1.5981      1.00000
    163      -1.5864      1.00000
    164      -1.5861      1.00000
    165      -1.2982      1.00000
    166      -1.1749      1.00000
    167      -1.1747      1.00000
    168      -1.1133      1.00000
    169      -1.1131      1.00000
    170      -1.1072      1.00000
    171      -1.0495      1.00000
    172      -0.9811      1.00000
    173      -0.9646      1.00000
    174      -0.9595      1.00000
    175      -0.9577      1.00000
    176      -0.9573      1.00000
    177      -0.9470      1.00000
    178      -0.9450      1.00000
    179      -0.9227      1.00000
    180      -0.8713      1.00000
    181      -0.8712      1.00000
    182      -0.8038      1.00000
    183      -0.8027      1.00000
    184      -0.8025      1.00000
    185      -0.7752      1.00000
    186      -0.7744      1.00000
    187      -0.7740      1.00000
    188      -0.7610      1.00000
    189      -0.7168      1.00000
    190      -0.7165      1.00000
    191      -0.7066      1.00000
    192      -0.7051      1.00000
    193      -0.6990      1.00000
    194      -0.6989      1.00000
    195      -0.6088      1.00000
    196      -0.6086      1.00000
    197      -0.5615      1.00000
    198      -0.5614      1.00000
    199      -0.5495      1.00000
    200      -0.5480      1.00000
    201      -0.4082      1.00000
    202      -0.4080      1.00000
    203      -0.3570      1.00000
    204      -0.3479      1.00000
    205      -0.3293      1.00000
    206      -0.3289      1.00000
    207      -0.2985      1.00000
    208      -0.2984      1.00000
    209      -0.2812      1.00000
    210      -0.2692      1.00000
    211      -0.2629      1.00000
    212      -0.2555      1.00000
    213      -0.2549      1.00000
    214      -0.2090      1.00000
    215      -0.2088      1.00000
    216      -0.1887      1.00000
    217      -0.1868      1.00000
    218      -0.1867      1.00000
    219      -0.1757      1.00000
    220      -0.1580      1.00000
    221      -0.1254      1.00000
    222      -0.1252      1.00000
    223      -0.1092      1.00000
    224      -0.0708      1.00000
    225      -0.0702      1.00000
    226      -0.0605      1.00000
    227      -0.0434      1.00000
    228      -0.0176      1.00000
    229      -0.0174      1.00000
    230      -0.0114      1.00000
    231       0.0016      1.00000
    232       0.0017      1.00000
    233       0.0464      1.00000
    234       0.0495      1.00000
    235       0.0495      1.00000
    236       0.0912      1.00000
    237       0.0934      1.00000
    238       0.1183      1.00000
    239       0.1186      1.00000
    240       0.1577      1.00000
    241       0.1626      1.00000
    242       0.1767      1.00000
    243       0.1791      1.00000
    244       0.1817      1.00000
    245       0.1823      1.00000
    246       0.1855      1.00000
    247       0.1892      1.00000
    248       0.1933      1.00000
    249       0.1941      1.00000
    250       0.2010      1.00000
    251       0.2011      1.00000
    252       0.2388      1.00000
    253       0.2510      1.00000
    254       0.2568      1.00000
    255       0.2571      1.00000
    256       0.2765      1.00000
    257       0.3374      1.00000
    258       0.3477      1.00000
    259       0.3588      1.00000
    260       0.3589      1.00000
    261       0.3603      1.00000
    262       0.3605      1.00000
    263       0.3882      1.00000
    264       0.4016      1.00000
    265       0.4528      1.00000
    266       0.4529      1.00000
    267       0.5789      1.00000
    268       0.5791      1.00000
    269       0.5845      1.00000
    270       0.6020      1.00000
    271       0.6022      1.00000
    272       0.6064      1.00000
    273       0.6080      1.00000
    274       0.6401      1.00000
    275       0.6510      1.00000
    276       0.6514      1.00000
    277       0.6620      1.00000
    278       0.6623      1.00000
    279       0.6657      1.00000
    280       0.6732      1.00000
    281       0.6750      1.00000
    282       0.6751      1.00000
    283       0.6964      1.00000
    284       0.7231      1.00000
    285       0.7834      1.00000
    286       0.8199      1.00000
    287       0.8297      1.00000
    288       0.8321      1.00000
    289       0.8325      1.00000
    290       0.8611      1.00000
    291       0.8615      1.00000
    292       0.9095      1.00000
    293       0.9406      1.00000
    294       0.9479      1.00000
    295       0.9483      1.00000
    296       0.9832      1.00000
    297       1.0259      1.00000
    298       1.0706      1.00000
    299       1.2694      1.00000
    300       1.2981      1.00000
    301       1.2986      1.00000
    302       1.3117      1.00000
    303       1.3333      1.00000
    304       1.3336      1.00000
    305       1.3381      1.00000
    306       1.3846      1.00000
    307       1.4056      1.00000
    308       1.4284      1.00000
    309       1.4671      1.00000
    310       1.4680      1.00000
    311       1.4684      1.00000
    312       1.4818      1.00000
    313       1.5107      1.00000
    314       1.5111      1.00000
    315       1.5409      1.00000
    316       1.5613      1.00000
    317       1.5769      1.00000
    318       1.6465      1.00000
    319       1.6552      1.00000
    320       1.7558      1.00000
    321       1.7564      1.00000
    322       1.7634      1.00000
    323       1.7783      1.00000
    324       1.8028      1.00000
    325       1.8030      1.00000
    326       1.8108      1.00000
    327       1.8233      1.00000
    328       1.8365      1.00000
    329       1.8367      1.00000
    330       1.8465      1.00000
    331       1.8468      1.00000
    332       1.8784      1.00000
    333       1.8898      1.00000
    334       1.9469      1.00000
    335       1.9935      1.00000
    336       1.9939      1.00000
    337       2.0062      1.00000
    338       2.0064      1.00000
    339       2.0098      1.00000
    340       2.0188      1.00000
    341       2.0201      1.00000
    342       2.0207      1.00000
    343       2.0396      1.00000
    344       2.0468      1.00000
    345       2.0470      1.00000
    346       2.0574      1.00000
    347       2.0687      1.00000
    348       2.0689      1.00000
    349       2.0917      1.00000
    350       2.1126      1.00000
    351       2.1907      1.00000
    352       2.1908      1.00000
    353       2.2469      1.00000
    354       2.2471      1.00000
    355       2.2705      1.00000
    356       2.2729      1.00000
    357       2.2851      1.00000
    358       2.4278      1.00000
    359       2.4662      1.00000
    360       2.4666      1.00000
    361       2.4777      1.00000
    362       2.5036      1.00000
    363       2.5276      1.00000
    364       2.5543      1.00000
    365       2.5921      1.00000
    366       2.6267      1.00000
    367       2.6268      1.00000
    368       2.6558      1.00000
    369       2.7384      1.00000
    370       2.7387      1.00000
    371       2.7608      1.00000
    372       2.7610      1.00000
    373       2.8339      1.00000
    374       2.8727      1.00000
    375       2.9266      1.00000
    376       2.9340      1.00000
    377       2.9348      1.00000
    378       2.9686      1.00000
    379       3.0270      1.00000
    380       3.0279      1.00000
    381       3.0621      1.00000
    382       3.0969      1.00000
    383       3.3077      1.00000
    384       3.3104      1.00000
    385       3.3479      1.00000
    386       3.3760      1.00000
    387       3.4211      1.00000
    388       3.4217      1.00000
    389       3.4400      1.00000
    390       3.4584      1.00000
    391       3.4586      1.00000
    392       3.5314      1.00000
    393       3.7475      1.00000
    394       3.8082      1.00000
    395       3.8091      1.00000
    396       3.8151      1.00000
    397       3.8154      1.00000
    398       3.8823      1.00000
    399       3.8828      1.00000
    400       3.9321      1.00000
    401       3.9351      1.00000
    402       3.9405      1.00000
    403       3.9407      1.00000
    404       4.0393      1.00000
    405       4.0396      1.00000
    406       4.0702      1.00000
    407       4.1384      1.00000
    408       4.1488      1.00000
    409       4.1511      1.00000
    410       4.3148      1.00000
    411       4.3182      1.00000
    412       4.3379      1.00000
    413       4.3584      1.00000
    414       4.3584      1.00000
    415       4.4289      1.00000
    416       4.4443      1.00000
    417       4.4460      1.00000
    418       4.4542      1.00000
    419       4.4565      1.00000
    420       4.4566      1.00000
    421       4.6364      1.00000
    422       4.6368      1.00000
    423       4.7324      1.00000
    424       4.7327      1.00000
    425       4.7641      1.00000
    426       4.7642      1.00000
    427       4.7694      1.00000
    428       4.7696      1.00000
    429       4.8105      1.00000
    430       4.8532      1.00000
    431       4.8537      1.00000
    432       4.8572      1.00000
    433       7.3437      0.00000
    434       8.1285      0.00000
    435       8.4449      0.00000
    436       8.6423      0.00000
    437       8.6427      0.00000
    438       8.8580      0.00000
    439       9.0845      0.00000
    440       9.0847      0.00000
    441       9.2613      0.00000
    442       9.2736      0.00000
    443       9.2888      0.00000
    444       9.2895      0.00000
    445       9.7267      0.00000
    446       9.7716      0.00000
    447       9.7720      0.00000
    448       9.7900      0.00000
    449       9.8546      0.00000
    450       9.8548      0.00000
    451       9.8591      0.00000
    452       9.8789      0.00000
    453       9.8892      0.00000
    454      10.0608      0.00000
    455      10.0830      0.00000
    456      10.1361      0.00000
    457      10.1363      0.00000
    458      10.3061      0.00000
    459      10.3064      0.00000
    460      10.4169      0.00000
    461      10.5263      0.00000
    462      10.5706      0.00000
    463      10.5718      0.00000
    464      10.5720      0.00000
    465      10.5783      0.00000
    466      10.5785      0.00000
    467      10.6757      0.00000
    468      10.9762      0.00000
    469      11.0191      0.00000
    470      11.0193      0.00000
    471      11.0406      0.00000
    472      11.0409      0.00000
    473      11.0773      0.00000
    474      11.1283      0.00000
    475      11.1782      0.00000
[...]
   -.877E-01 0.348E-01 -.259E+02   0.902E-01 -.362E-01 0.256E+02   -.152E-02 0.426E-03 0.252E+00   -.301E-04 0.190E-04 0.481E-04
   0.241E-01 0.366E-01 -.259E+02   -.246E-01 -.363E-01 0.257E+02   0.323E-03 -.422E-03 0.251E+00   -.279E-05 0.813E-05 0.377E-04
   -.287E-01 -.169E-01 -.259E+02   0.295E-01 0.180E-01 0.257E+02   -.545E-03 -.897E-03 0.251E+00   -.137E-04 -.113E-05 0.358E-04
   0.932E-01 -.997E-01 -.418E+02   -.950E-01 0.102E+00 0.418E+02   0.131E-02 -.967E-03 0.123E-01   0.295E-04 -.161E-04 -.154E-04
   -.799E-01 0.330E-01 -.421E+02   0.820E-01 -.325E-01 0.421E+02   -.132E-02 -.104E-02 0.100E-01   -.252E-04 0.136E-04 -.471E-04
   0.362E-01 0.331E-01 -.420E+02   -.367E-01 -.324E-01 0.420E+02   0.170E-03 -.894E-03 0.108E-01   0.108E-04 0.107E-04 -.179E-04
   -.232E-01 0.253E-02 -.421E+02   0.241E-01 -.101E-02 0.421E+02   -.726E-03 -.140E-02 0.108E-01   -.227E-04 -.160E-04 -.220E-04
   0.158E+02 0.148E+02 -.126E+03   -.162E+02 -.151E+02 0.131E+03   0.387E+00 0.374E+00 -.462E+01   -.130E-04 0.209E-04 0.503E-04
   0.158E+02 0.151E+02 -.126E+03   -.162E+02 -.154E+02 0.131E+03   0.385E+00 0.385E+00 -.463E+01   -.656E-04 0.139E-03 -.732E-04
   0.158E+02 0.151E+02 -.126E+03   -.162E+02 -.154E+02 0.131E+03   0.386E+00 0.385E+00 -.463E+01   -.958E-04 0.129E-03 0.287E-04
   0.158E+02 0.148E+02 -.126E+03   -.162E+02 -.152E+02 0.131E+03   0.386E+00 0.376E+00 -.463E+01   -.930E-04 0.120E-04 -.401E-04
   -.145E+02 -.149E+02 -.126E+03   0.149E+02 0.153E+02 0.131E+03   -.319E+00 -.377E+00 -.464E+01   0.639E-04 0.468E-04 0.168E-04
   -.161E+02 -.149E+02 -.126E+03   0.165E+02 0.153E+02 0.131E+03   -.404E+00 -.379E+00 -.463E+01   -.190E-03 -.357E-04 -.122E-04
   -.159E+02 -.149E+02 -.126E+03   0.162E+02 0.153E+02 0.131E+03   -.389E+00 -.379E+00 -.463E+01   0.390E-04 -.401E-04 0.327E-06
   -.160E+02 -.149E+02 -.126E+03   0.164E+02 0.153E+02 0.131E+03   -.390E+00 -.379E+00 -.463E+01   -.490E-04 -.978E-04 0.358E-06
   0.160E+02 -.149E+02 0.126E+03   -.164E+02 0.153E+02 -.131E+03   0.390E+00 -.379E+00 0.463E+01   0.590E-04 -.488E-04 0.209E-04
   0.159E+02 -.149E+02 0.126E+03   -.163E+02 0.153E+02 -.131E+03   0.388E+00 -.379E+00 0.463E+01   -.888E-04 -.338E-04 -.337E-04
   0.160E+02 -.149E+02 0.126E+03   -.164E+02 0.153E+02 -.131E+03   0.390E+00 -.380E+00 0.463E+01   0.765E-04 -.760E-04 0.317E-04
   0.159E+02 -.149E+02 0.126E+03   -.163E+02 0.153E+02 -.131E+03   0.389E+00 -.380E+00 0.463E+01   -.334E-04 -.307E-04 -.282E-04
   -.159E+02 0.149E+02 0.126E+03   0.163E+02 -.153E+02 -.131E+03   -.385E+00 0.380E+00 0.463E+01   0.484E-04 0.385E-04 0.467E-04
   -.159E+02 0.149E+02 0.126E+03   0.163E+02 -.153E+02 -.131E+03   -.385E+00 0.380E+00 0.463E+01   0.232E-06 0.159E-03 -.238E-04
   -.159E+02 0.149E+02 0.126E+03   0.163E+02 -.153E+02 -.131E+03   -.386E+00 0.380E+00 0.463E+01   0.434E-04 0.248E-04 0.289E-04
   -.159E+02 0.149E+02 0.126E+03   0.163E+02 -.153E+02 -.131E+03   -.387E+00 0.380E+00 0.463E+01   0.788E-04 0.722E-04 0.314E-05
   0.288E+02 0.282E+02 0.335E+02   -.292E+02 -.285E+02 -.340E+02   0.361E+00 0.354E+00 0.516E+00   0.290E-03 0.170E-04 0.161E-03
   0.278E+02 0.282E+02 0.333E+02   -.282E+02 -.285E+02 -.338E+02   0.346E+00 0.353E+00 0.518E+00   -.115E-03 0.558E-04 0.763E-04
   0.281E+02 0.282E+02 0.334E+02   -.284E+02 -.285E+02 -.339E+02   0.351E+00 0.353E+00 0.519E+00   0.373E-04 0.224E-04 0.560E-04
   0.279E+02 0.282E+02 0.333E+02   -.283E+02 -.285E+02 -.339E+02   0.350E+00 0.353E+00 0.519E+00   -.321E-04 0.226E-04 0.768E-04
   -.280E+02 -.281E+02 0.334E+02   0.283E+02 0.285E+02 -.340E+02   -.349E+00 -.352E+00 0.520E+00   -.614E-04 -.221E-04 0.127E-03
   -.280E+02 -.283E+02 0.332E+02   0.283E+02 0.287E+02 -.337E+02   -.349E+00 -.356E+00 0.517E+00   0.409E-04 -.104E-03 0.696E-04
   -.280E+02 -.283E+02 0.334E+02   0.283E+02 0.287E+02 -.339E+02   -.349E+00 -.355E+00 0.520E+00   -.229E-04 -.692E-04 0.112E-03
   -.280E+02 -.281E+02 0.332E+02   0.283E+02 0.285E+02 -.337E+02   -.349E+00 -.352E+00 0.517E+00   0.197E-04 -.785E-05 0.201E-04
   0.266E+02 -.281E+02 -.332E+02   -.269E+02 0.285E+02 0.337E+02   0.336E+00 -.353E+00 -.519E+00   -.250E-04 -.576E-04 0.257E-04
   0.269E+02 -.283E+02 -.334E+02   -.273E+02 0.286E+02 0.340E+02   0.326E+00 -.354E+00 -.519E+00   -.307E-04 -.163E-04 -.148E-03
   0.279E+02 -.282E+02 -.333E+02   -.283E+02 0.286E+02 0.338E+02   0.350E+00 -.354E+00 -.519E+00   0.237E-04 -.690E-04 -.745E-04
   0.279E+02 -.282E+02 -.333E+02   -.283E+02 0.286E+02 0.338E+02   0.349E+00 -.354E+00 -.519E+00   -.198E-04 -.613E-04 -.850E-04
   -.274E+02 0.283E+02 -.333E+02   0.277E+02 -.286E+02 0.339E+02   -.341E+00 0.354E+00 -.518E+00   0.118E-03 0.232E-04 -.711E-04
   -.282E+02 0.282E+02 -.333E+02   0.285E+02 -.285E+02 0.339E+02   -.354E+00 0.353E+00 -.519E+00   -.488E-04 0.497E-04 -.550E-04
   -.276E+02 0.281E+02 -.333E+02   0.279E+02 -.285E+02 0.339E+02   -.342E+00 0.351E+00 -.519E+00   0.116E-03 0.443E-04 -.799E-04
   -.282E+02 0.282E+02 -.333E+02   0.285E+02 -.285E+02 0.339E+02   -.354E+00 0.353E+00 -.519E+00   -.449E-04 0.272E-04 -.556E-04
   0.990E+01 0.513E-01 0.127E+00   -.100E+02 -.518E-01 -.129E+00   0.115E+00 0.516E-03 0.273E-02   -.547E-04 0.341E-04 0.671E-04
   0.983E+01 0.430E-01 -.135E+00   -.995E+01 -.435E-01 0.137E+00   0.115E+00 0.349E-03 -.193E-02   -.935E-04 0.757E-04 -.534E-04
   0.991E+01 0.451E-01 0.156E-01   -.100E+02 -.455E-01 -.157E-01   0.115E+00 0.356E-03 0.296E-03   -.654E-04 -.341E-05 0.405E-04
   0.988E+01 0.489E-01 -.327E-01   -.100E+02 -.494E-01 0.329E-01   0.115E+00 0.505E-03 -.253E-03   -.934E-04 0.490E-05 -.179E-04
   -.982E+01 0.582E-01 0.228E-01   0.993E+01 -.588E-01 -.229E-01   -.114E+00 0.552E-03 -.889E-04   0.455E-04 -.352E-05 -.304E-05
   -.996E+01 0.380E-01 -.912E-02   0.101E+02 -.384E-01 0.916E-02   -.115E+00 0.253E-03 -.110E-03   0.114E-03 0.227E-04 -.375E-04
   -.983E+01 0.363E-01 0.223E-01   0.994E+01 -.367E-01 -.225E-01   -.114E+00 0.421E-03 0.295E-03   0.769E-04 -.533E-05 -.979E-05
   -.995E+01 0.560E-01 -.783E-02   0.101E+02 -.564E-01 0.799E-02   -.115E+00 0.240E-03 -.343E-03   0.419E-04 0.135E-04 -.260E-04
   0.186E+02 0.181E+02 0.185E+03   -.175E+02 -.170E+02 -.183E+03   -.106E+01 -.110E+01 -.241E+01   0.197E-04 -.216E-03 -.194E-03
   0.185E+02 0.196E+02 0.185E+03   -.175E+02 -.185E+02 -.183E+03   -.107E+01 -.107E+01 -.241E+01   -.410E-04 0.325E-03 -.177E-03
   0.188E+02 0.195E+02 0.185E+03   -.178E+02 -.185E+02 -.183E+03   -.106E+01 -.108E+01 -.241E+01   0.811E-04 0.401E-03 -.207E-03
   0.187E+02 0.185E+02 0.185E+03   -.177E+02 -.174E+02 -.183E+03   -.106E+01 -.109E+01 -.241E+01   -.280E-04 -.187E-03 -.125E-03
   -.156E+02 -.193E+02 0.185E+03   0.146E+02 0.182E+02 -.183E+03   0.104E+01 0.109E+01 -.241E+01   0.377E-02 0.157E-04 -.362E-03
   -.196E+02 -.189E+02 0.185E+03   0.185E+02 0.178E+02 -.183E+03   0.103E+01 0.109E+01 -.241E+01   -.691E-03 -.104E-03 -.236E-03
   -.187E+02 -.189E+02 0.185E+03   0.176E+02 0.178E+02 -.183E+03   0.106E+01 0.108E+01 -.241E+01   0.232E-04 -.181E-03 -.198E-03
   -.191E+02 -.189E+02 0.185E+03   0.180E+02 0.178E+02 -.183E+03   0.106E+01 0.109E+01 -.241E+01   -.376E-04 -.158E-03 -.267E-03
   0.195E+02 -.188E+02 -.185E+03   -.184E+02 0.177E+02 0.183E+03   -.106E+01 0.109E+01 0.241E+01   0.255E-03 -.228E-04 0.221E-03
   0.186E+02 -.189E+02 -.185E+03   -.176E+02 0.178E+02 0.183E+03   -.107E+01 0.109E+01 0.241E+01   -.175E-03 -.144E-03 0.434E-03
   0.195E+02 -.190E+02 -.185E+03   -.184E+02 0.179E+02 0.183E+03   -.106E+01 0.108E+01 0.241E+01   0.182E-03 -.202E-03 0.207E-03
   0.186E+02 -.189E+02 -.185E+03   -.176E+02 0.178E+02 0.183E+03   -.107E+01 0.109E+01 0.241E+01   -.157E-03 -.110E-03 0.249E-03
   -.197E+02 0.188E+02 -.184E+03   0.186E+02 -.177E+02 0.182E+03   0.106E+01 -.109E+01 0.243E+01   -.267E-03 0.481E-04 0.621E-03
   -.197E+02 0.190E+02 -.186E+03   0.186E+02 -.180E+02 0.184E+03   0.106E+01 -.108E+01 0.238E+01   -.172E-03 0.152E-03 -.234E-03
   -.190E+02 0.190E+02 -.185E+03   0.180E+02 -.179E+02 0.183E+03   0.106E+01 -.108E+01 0.241E+01   -.937E-04 0.107E-03 0.133E-03
   -.190E+02 0.189E+02 -.185E+03   0.180E+02 -.178E+02 0.183E+03   0.106E+01 -.109E+01 0.241E+01   -.342E-04 0.396E-04 0.258E-03
   0.798E-01 -.105E-01 0.209E+03   -.824E-01 0.914E-02 -.211E+03   0.197E-02 0.164E-02 0.207E+01   0.113E-03 0.166E-04 -.267E-03
   -.390E-01 -.116E+00 0.209E+03   0.381E-01 0.114E+00 -.211E+03   0.836E-03 0.185E-02 0.206E+01   0.812E-05 -.223E-04 -.390E-03
   0.458E-01 -.110E+00 0.209E+03   -.481E-01 0.108E+00 -.211E+03   0.178E-02 0.225E-02 0.206E+01   0.136E-03 0.730E-05 -.384E-03
   -.670E-02 -.364E-01 0.209E+03   0.740E-02 0.342E-01 -.211E+03   -.304E-03 0.235E-02 0.206E+01   -.161E-03 -.175E-03 -.366E-03
   0.187E+00 -.211E-01 0.199E+03   -.190E+00 0.219E-01 -.201E+03   0.239E-02 -.196E-03 0.206E+01   -.423E-04 -.125E-03 -.259E-03
   -.149E+00 -.711E-01 0.199E+03   0.151E+00 0.676E-01 -.201E+03   -.190E-02 0.314E-02 0.206E+01   -.461E-04 0.141E-03 -.474E-03
   0.108E+00 -.676E-01 0.199E+03   -.109E+00 0.660E-01 -.201E+03   0.105E-02 0.163E-02 0.206E+01   -.304E-04 -.237E-04 -.287E-03
   -.630E-01 -.424E-01 0.199E+03   0.646E-01 0.404E-01 -.201E+03   -.111E-02 0.201E-02 0.206E+01   -.141E-03 -.687E-04 -.408E-03
   0.368E+00 0.462E+00 -.198E+03   -.378E+00 -.468E+00 0.200E+03   0.746E-02 0.429E-02 -.205E+01   0.339E-03 0.291E-04 0.491E-03
   -.395E+00 -.156E+00 -.199E+03   0.402E+00 0.157E+00 0.201E+03   -.543E-02 -.693E-04 -.207E+01   -.151E-03 -.106E-03 0.194E-03
   0.132E+00 -.173E+00 -.199E+03   -.137E+00 0.172E+00 0.201E+03   0.341E-02 0.104E-02 -.206E+01   0.220E-03 -.676E-04 0.367E-03
   -.170E+00 0.706E-02 -.199E+03   0.173E+00 -.104E-01 0.201E+03   -.254E-02 0.298E-02 -.206E+01   -.924E-04 0.251E-04 0.332E-03
   0.151E+00 0.444E+00 -.210E+03   -.152E+00 -.453E+00 0.212E+03   0.131E-02 0.625E-02 -.207E+01   0.742E-04 0.156E-03 0.160E-03
   -.390E+00 -.191E+00 -.209E+03   0.398E+00 0.193E+00 0.211E+03   -.606E-02 -.397E-03 -.206E+01   -.202E-03 -.138E-03 0.546E-03
   0.758E-01 -.178E+00 -.209E+03   -.770E-01 0.177E+00 0.211E+03   0.867E-03 0.165E-02 -.206E+01   0.737E-04 -.796E-04 0.304E-03
   -.121E+00 -.769E-02 -.209E+03   0.125E+00 0.351E-02 0.211E+03   -.271E-02 0.378E-02 -.206E+01   -.402E-04 -.240E-05 0.367E-03
 -----------------------------------------------------------------------------------------------
   0.332E-01 -.335E-01 0.167E-01   -.169E-12 -.141E-12 -.131E-11   -.356E-01 0.327E-01 -.169E-01   0.269E-02 -.377E-03 0.176E-03
 
 
 POSITION                                       TOTAL-FORCE (eV/Angst)
 -----------------------------------------------------------------------------------
      2.77841      5.21785      1.58925        -0.000104     -0.000230     -0.000092
      8.33453      5.21785      1.58910         0.000249      0.000153      0.000118
      2.77841     10.77658      1.58925        -0.000120     -0.000034     -0.000116
      8.33453     10.77658      1.58910         0.000261      0.000097      0.000098
      0.00058      2.43861      1.89560        -0.000349     -0.000298     -0.000257
      5.55670      2.43861      1.89545         0.000026      0.000076      0.000122
      0.00058      7.99734      1.89560        -0.000214      0.000008      0.000116
      5.55670      7.99734      1.89545         0.000061      0.000022     -0.000091
      2.78043      5.21797      8.30298         0.000519      0.002359      0.003394
      8.33655      5.21797      8.30283         0.001011     -0.000941     -0.001309
      2.78043     10.77670      8.30298        -0.000100     -0.000116     -0.000215
      8.33655     10.77670      8.30283         0.000231      0.000191      0.000038
      0.00259      2.43849      8.60933        -0.000509      0.001639     -0.003408
      5.55871      2.43849      8.60919         0.000701     -0.000458      0.000946
      0.00259      7.99722      8.60933        -0.000331     -0.000131      0.000111
      5.55871      7.99722      8.60919         0.000104      0.000118      0.000049
     -1.37640      1.05960      8.18451         0.000446     -0.001802      0.000870
      4.17971      1.05960      8.18437        -0.000373      0.001501     -0.000687
     -1.37640      6.61833      8.18451        -0.000137      0.001591      0.000665
      4.17971      6.61833      8.18437         0.000239     -0.001232     -0.000620
      1.38116      3.81753      8.18442         0.007284     -0.000199      0.003297
      6.93728      3.81753      8.18427        -0.004895      0.000588      0.000092
      1.38116      9.37626      8.18442        -0.000107     -0.000006     -0.000212
      6.93728      9.37626      8.18427        -0.000319      0.000103     -0.000104
      1.39985      1.03817      2.01416         0.000451      0.000172      0.000278
      6.95597      1.03817      2.01401        -0.000219      0.000011     -0.000071
      1.39985      6.59689      2.01416         0.000330     -0.000048      0.000253
      6.95597      6.59689      2.01401        -0.000118     -0.000073     -0.000026
      4.15741      3.83897      2.01406         0.000312     -0.000031      0.000474
      9.71353      3.83897      2.01392         0.000223      0.000083     -0.000724
      4.15741      9.39769      2.01406        -0.000145      0.000068      0.000263
      9.71353      9.39769      2.01392        -0.000187     -0.000097     -0.000194
      1.40044      3.83812      3.78391         0.002650     -0.000316     -0.001659
      6.95656      3.83812      3.78377        -0.002400     -0.000049     -0.000265
      1.40044      9.39685      3.78391         0.000193     -0.000142      0.000227
      6.95656      9.39685      3.78377        -0.000329     -0.000150      0.000064
      4.15774      1.03891      3.78384         0.000025      0.000754      0.000761
      9.71386      1.03891      3.78369         0.000108     -0.000699     -0.000651
      4.15774      6.59764      3.78384         0.000009     -0.000507      0.000822
      9.71386      6.59764      3.78369         0.000139      0.000949     -0.000612
     -1.37674      3.81828      6.41474         0.004586     -0.000872     -0.001456
      4.17938      3.81828      6.41460        -0.006623      0.000291      0.000280
     -1.37674      9.37700      6.41474         0.000190      0.000169     -0.000138
      4.17938      9.37700      6.41460         0.000029      0.000092     -0.000196
      1.38057      1.05876      6.41466         0.002099     -0.000473     -0.000396
      6.93668      1.05876      6.41452        -0.001472     -0.000110     -0.000155
      1.38057      6.61748      6.41466         0.002030     -0.000876      0.000015
      6.93668      6.61748      6.41452        -0.001151     -0.000170     -0.000107
      1.38227      3.82822      0.00001         0.000124      0.000038      0.001056
      6.93839      3.82822     -0.00014        -0.000061     -0.000089     -0.000654
      1.38227      9.38694      0.00001         0.000119     -0.000031      0.000233
      6.93839      9.38694     -0.00014        -0.000094     -0.000001     -0.000056
      1.39874      1.04885     10.19857         0.000339      0.000037     -0.000213
      6.95485      1.04885     10.19843        -0.000311     -0.000072     -0.000108
      1.39874      6.60758     10.19857         0.000285     -0.000015      0.000108
      6.95485      6.60758     10.19843        -0.000236     -0.000091     -0.000216
     -1.25763      1.18232      6.18371         0.001079      0.004167      0.000342
      4.29848      1.18232      6.18356         0.000713     -0.003017     -0.000158
     -1.25763      6.74104      6.18371         0.000289     -0.002974      0.000321
      4.29848      6.74104      6.18356         0.000212      0.002236     -0.000027
      1.27131      3.69462      6.18369        -0.022017      0.001221     -0.000266
      6.81742      3.69462      6.18354         0.009449      0.000046      0.000043
      1.26131      9.25335      6.18369         0.000840      0.000053     -0.000040
      6.81742      9.25335      6.18354         0.000117     -0.000012      0.000122
      1.51970      0.91526      4.01489        -0.001009     -0.000455     -0.000319
      7.07582      0.91526      4.01474         0.000268      0.000021     -0.000044
      1.51970      6.47399      4.01489        -0.001009      0.000569     -0.000365
      7.07582      6.47399      4.01474         0.000258     -0.000135     -0.000079
      4.03864      3.96168      4.01487         0.002207      0.000504     -0.006122
      9.59476      3.96168      4.01472         0.002246     -0.000635      0.007062
      4.03864      9.52041      4.01487         0.000244     -0.000050      0.000044
      9.59476      9.52041      4.01472         0.000282      0.000142     -0.000250
      0.00035      5.21813      1.57032        -0.000511      0.000307     -0.000588
      5.55647      5.21813      1.57017        -0.000007      0.000047      0.000224
      0.00035     10.77686      1.57032        -0.000377      0.000019      0.000184
      5.55647     10.77686      1.57017         0.000234     -0.000036     -0.000029
      2.77849      2.43869      1.57537        -0.000379      0.000457      0.000047
      8.33461      2.43869      1.57522         0.000545     -0.000239      0.000156
      2.77849      7.99742      1.57537        -0.000169     -0.000002     -0.000323
      8.33461      7.99742      1.57522         0.000380     -0.000036      0.000195
      0.00252      5.21805      8.62321        -0.001555     -0.002162     -0.004704
      5.55864      5.21805      8.62307         0.001382      0.000707      0.001607
      0.00252     10.77678      8.62321        -0.000863      0.000402      0.000218
      5.55864     10.77678      8.62307         0.000465     -0.000332      0.000152
      2.78066      2.43877      8.62826         0.000314     -0.002515      0.004974
      8.33677      2.43877      8.62811         0.001651      0.001087     -0.001986
      2.78066      7.99750      8.62826        -0.000257      0.000258     -0.000038
      8.33677      7.99750      8.62811         0.000512     -0.000392     -0.000098
 -----------------------------------------------------------------------------------
    total drift:                                0.000307     -0.001149     -0.000041


--------------------------------------------------------------------------------------------------------



  FREE ENERGIE OF THE ION-ELECTRON SYSTEM (eV)
  ---------------------------------------------------
  free  energy   TOTEN  =      -489.21533015 eV

  energy  without entropy=     -489.21533015  energy(sigma->0) =     -489.21533015
 


--------------------------------------------------------------------------------------------------------


    POTLOK:  cpu time    3.2957: real time    3.3567


--------------------------------------------------------------------------------------------------------


     LOOP+:  cpu time 6443.0599: real time 6515.1844
    4ORBIT:  cpu time    0.0000: real time    0.0000

 total amount of memory used by VASP MPI-rank0  1233264. kBytes
=======================================================================

   base      :      30000. kBytes
   nonl-proj :      75226. kBytes
   fftplans  :      85054. kBytes
   grid      :      64684. kBytes
   one-center:        466. kBytes
   wavefun   :     977834. kBytes
 
  
  
 General timing and accounting informations for this job:
 ========================================================
  
                  Total CPU time used (sec):     6540.318
                            User time (sec):     6471.747
                          System time (sec):       68.571
                         Elapsed time (sec):     6614.016
  
                   Maximum memory used (kb):     1436624.
                   Average memory used (kb):           0.
  
                          Minor page faults:       838053
                          Major page faults:            7
                 Voluntary context switches:        63258
