  99  99   0   0
  0.1430410E+02  0.1177748E-08  0.1177748E-08  0.1058004E-08  0.5000000E-15
  1.000000000000000E-004
  CAR 
 unknown system                          
     17.92396540    -54.33553283  301      5.42909383      1.00000000
    -54.336  0.0000E+00  0.0000E+00  0.0000E+00  0.0000E+00
    -54.095  0.0000E+00  0.0000E+00  0.0000E+00  0.0000E+00
    -53.854  0.0000E+00  0.0000E+00  0.0000E+00  0.0000E+00
    -53.613  0.0000E+00  0.0000E+00  0.0000E+00  0.0000E+00
    -53.372  0.0000E+00  0.0000E+00  0.0000E+00  0.0000E+00
    -53.131  0.0000E+00  0.0000E+00  0.0000E+00  0.0000E+00
    -52.890  0.0000E+00  0.0000E+00  0.0000E+00  0.0000E+00
    -52.649  0.0000E+00  0.0000E+00  0.0000E+00  0.0000E+00
    -52.409  0.0000E+00  0.0000E+00  0.0000E+00  0.0000E+00
    -52.168  0.0000E+00  0.0000E+00  0.0000E+00  0.0000E+00
    -51.927  0.0000E+00  0.0000E+00  0.0000E+00  0.0000E+00
    -51.686  0.0000E+00  0.0000E+00  0.0000E+00  0.0000E+00
    -51.445  0.0000E+00  0.0000E+00  0.0000E+00  0.0000E+00
    -51.204  0.4846E-03  0.0000E+00  0.1167E-03  0.0000E+00
    -50.963  0.1474E+03  0.0000E+00  0.3551E+02  0.0000E+00
    -50.723  0.2050E+01  0.0000E+00  0.3600E+02  0.0000E+00
    -50.482  0.0000E+00  0.0000E+00  0.3600E+02  0.0000E+00
    -50.241  0.0000E+00  0.0000E+00  0.3600E+02  0.0000E+00
    -50.000  0.0000E+00  0.0000E+00  0.3600E+02  0.0000E+00
    -49.759  0.1863E+01  0.0000E+00  0.3645E+02  0.0000E+00
    -49.518  0.2709E+03  0.0000E+00  0.1017E+03  0.0000E+00
    -49.277  0.2611E+02  0.0000E+00  0.1080E+03  0.0000E+00
    -49.037  0.0000E+00  0.0000E+00  0.1080E+03  0.0000E+00
    -48.796  0.0000E+00  0.0000E+00  0.1080E+03  0.0000E+00
    -48.555  0.0000E+00  0.0000E+00  0.1080E+03  0.0000E+00
    -48.314  0.0000E+00  0.0000E+00  0.1080E+03  0.0000E+00
    -48.073  0.0000E+00  0.0000E+00  0.1080E+03  0.0000E+00
    -47.832  0.0000E+00  0.0000E+00  0.1080E+03  0.0000E+00
    -47.591  0.0000E+00  0.0000E+00  0.1080E+03  0.0000E+00
    -47.350  0.0000E+00  0.0000E+00  0.1080E+03  0.0000E+00
    -47.110  0.0000E+00  0.0000E+00  0.1080E+03  0.0000E+00
    -46.869  0.0000E+00  0.0000E+00  0.1080E+03  0.0000E+00
    -46.628  0.0000E+00  0.0000E+00  0.1080E+03  0.0000E+00
    -46.387  0.0000E+00  0.3285E+00  0.1080E+03  0.7913E-01
    -46.146  0.0000E+00  0.1491E+03  0.1080E+03  0.3599E+02
    -45.905  0.0000E+00  0.6846E+02  0.1080E+03  0.5248E+02
    -45.664  0.0000E+00  0.2305E+03  0.1080E+03  0.1080E+03
    -45.424  0.0000E+00  0.0000E+00  0.1080E+03  0.1080E+03
    -45.183  0.0000E+00  0.0000E+00  0.1080E+03  0.1080E+03
    -44.942  0.0000E+00  0.0000E+00  0.1080E+03  0.1080E+03
    -44.701  0.0000E+00  0.0000E+00  0.1080E+03  0.1080E+03
    -44.460  0.0000E+00  0.0000E+00  0.1080E+03  0.1080E+03
    -44.219  0.0000E+00  0.0000E+00  0.1080E+03  0.1080E+03
    -43.978  0.0000E+00  0.0000E+00  0.1080E+03  0.1080E+03
    -43.737  0.0000E+00  0.0000E+00  0.1080E+03  0.1080E+03
    -43.497  0.0000E+00  0.0000E+00  0.1080E+03  0.1080E+03
    -43.256  0.0000E+00  0.0000E+00  0.1080E+03  0.1080E+03
    -43.015  0.0000E+00  0.0000E+00  0.1080E+03  0.1080E+03
    -42.774  0.0000E+00  0.0000E+00  0.1080E+03  0.1080E+03
    -42.533  0.0000E+00  0.0000E+00  0.1080E+03  0.1080E+03
    -42.292  0.0000E+00  0.0000E+00  0.1080E+03  0.1080E+03
    -42.051  0.0000E+00  0.0000E+00  0.1080E+03  0.1080E+03
    -41.811  0.0000E+00  0.0000E+00  0.1080E+03  0.1080E+03
    -41.570  0.0000E+00  0.0000E+00  0.1080E+03  0.1080E+03
    -41.329  0.0000E+00  0.0000E+00  0.1080E+03  0.1080E+03
    -41.088  0.0000E+00  0.0000E+00  0.1080E+03  0.1080E+03
    -40.847  0.0000E+00  0.0000E+00  0.1080E+03  0.1080E+03
    -40.606  0.0000E+00  0.0000E+00  0.1080E+03  0.1080E+03
    -40.365  0.0000E+00  0.0000E+00  0.1080E+03  0.1080E+03
    -40.124  0.5686E-11  0.3654E-11  0.1080E+03  0.1080E+03
    -39.884  0.2077E+02  0.1933E+02  0.1130E+03  0.1127E+03
    -39.643  0.5396E+02  0.5540E+02  0.1260E+03  0.1260E+03
    -39.402  0.0000E+00  0.0000E+00  0.1260E+03  0.1260E+03
    -39.161  0.0000E+00  0.0000E+00  0.1260E+03  0.1260E+03
    -38.920  0.0000E+00  0.0000E+00  0.1260E+03  0.1260E+03
    -38.679  0.0000E+00  0.0000E+00  0.1260E+03  0.1260E+03
    -38.438  0.0000E+00  0.0000E+00  0.1260E+03  0.1260E+03
    -38.198  0.0000E+00  0.0000E+00  0.1260E+03  0.1260E+03
    -37.957  0.0000E+00  0.0000E+00  0.1260E+03  0.1260E+03
    -37.716  0.0000E+00  0.0000E+00  0.1260E+03  0.1260E+03
    -37.475  0.0000E+00  0.0000E+00  0.1260E+03  0.1260E+03
    -37.234  0.0000E+00  0.0000E+00  0.1260E+03  0.1260E+03
    -36.993  0.0000E+00  0.0000E+00  0.1260E+03  0.1260E+03
    -36.752  0.0000E+00  0.0000E+00  0.1260E+03  0.1260E+03
    -36.512  0.0000E+00  0.0000E+00  0.1260E+03  0.1260E+03
    -36.271  0.0000E+00  0.0000E+00  0.1260E+03  0.1260E+03
    -36.030  0.0000E+00  0.0000E+00  0.1260E+03  0.1260E+03
    -35.789  0.0000E+00  0.0000E+00  0.1260E+03  0.1260E+03
    -35.548  0.0000E+00  0.0000E+00  0.1260E+03  0.1260E+03
    -35.307  0.0000E+00  0.0000E+00  0.1260E+03  0.1260E+03
    -35.066  0.0000E+00  0.0000E+00  0.1260E+03  0.1260E+03
    -34.825  0.0000E+00  0.0000E+00  0.1260E+03  0.1260E+03
    -34.585  0.0000E+00  0.0000E+00  0.1260E+03  0.1260E+03
    -34.344  0.0000E+00  0.0000E+00  0.1260E+03  0.1260E+03
    -34.103  0.0000E+00  0.0000E+00  0.1260E+03  0.1260E+03
    -33.862  0.0000E+00  0.0000E+00  0.1260E+03  0.1260E+03
    -33.621  0.0000E+00  0.0000E+00  0.1260E+03  0.1260E+03
    -33.380  0.0000E+00  0.0000E+00  0.1260E+03  0.1260E+03
    -33.139  0.0000E+00  0.0000E+00  0.1260E+03  0.1260E+03
    -32.899  0.0000E+00  0.0000E+00  0.1260E+03  0.1260E+03
    -32.658  0.0000E+00  0.0000E+00  0.1260E+03  0.1260E+03
    -32.417  0.0000E+00  0.0000E+00  0.1260E+03  0.1260E+03
    -32.176  0.0000E+00  0.0000E+00  0.1260E+03  0.1260E+03
    -31.935  0.0000E+00  0.0000E+00  0.1260E+03  0.1260E+03
    -31.694  0.0000E+00  0.0000E+00  0.1260E+03  0.1260E+03
    -31.453  0.0000E+00  0.0000E+00  0.1260E+03  0.1260E+03
    -31.212  0.0000E+00  0.0000E+00  0.1260E+03  0.1260E+03
    -30.972  0.0000E+00  0.0000E+00  0.1260E+03  0.1260E+03
    -30.731  0.0000E+00  0.0000E+00  0.1260E+03  0.1260E+03
    -30.490  0.0000E+00  0.0000E+00  0.1260E+03  0.1260E+03
    -30.249  0.0000E+00  0.0000E+00  0.1260E+03  0.1260E+03
    -30.008  0.0000E+00  0.0000E+00  0.1260E+03  0.1260E+03
    -29.767  0.0000E+00  0.0000E+00  0.1260E+03  0.1260E+03
    -29.526  0.0000E+00  0.0000E+00  0.1260E+03  0.1260E+03
    -29.286  0.0000E+00  0.0000E+00  0.1260E+03  0.1260E+03
    -29.045  0.0000E+00  0.0000E+00  0.1260E+03  0.1260E+03
    -28.804  0.0000E+00  0.0000E+00  0.1260E+03  0.1260E+03
    -28.563  0.0000E+00  0.0000E+00  0.1260E+03  0.1260E+03
    -28.322  0.0000E+00  0.0000E+00  0.1260E+03  0.1260E+03
    -28.081  0.0000E+00  0.0000E+00  0.1260E+03  0.1260E+03
    -27.840  0.0000E+00  0.0000E+00  0.1260E+03  0.1260E+03
    -27.600  0.0000E+00  0.0000E+00  0.1260E+03  0.1260E+03
    -27.359  0.0000E+00  0.0000E+00  0.1260E+03  0.1260E+03
    -27.118  0.0000E+00  0.0000E+00  0.1260E+03  0.1260E+03
    -26.877  0.0000E+00  0.0000E+00  0.1260E+03  0.1260E+03
    -26.636  0.0000E+00  0.0000E+00  0.1260E+03  0.1260E+03
    -26.395  0.0000E+00  0.0000E+00  0.1260E+03  0.1260E+03
    -26.154  0.0000E+00  0.0000E+00  0.1260E+03  0.1260E+03
    -25.913  0.0000E+00  0.0000E+00  0.1260E+03  0.1260E+03
    -25.673  0.0000E+00  0.0000E+00  0.1260E+03  0.1260E+03
    -25.432  0.0000E+00  0.0000E+00  0.1260E+03  0.1260E+03
    -25.191  0.0000E+00  0.0000E+00  0.1260E+03  0.1260E+03
    -24.950  0.0000E+00  0.0000E+00  0.1260E+03  0.1260E+03
    -24.709  0.0000E+00  0.0000E+00  0.1260E+03  0.1260E+03
    -24.468  0.0000E+00  0.0000E+00  0.1260E+03  0.1260E+03
    -24.227  0.0000E+00  0.0000E+00  0.1260E+03  0.1260E+03
    -23.987  0.0000E+00  0.0000E+00  0.1260E+03  0.1260E+03
    -23.746  0.0000E+00  0.0000E+00  0.1260E+03  0.1260E+03
    -23.505  0.0000E+00  0.0000E+00  0.1260E+03  0.1260E+03
    -23.264  0.0000E+00  0.0000E+00  0.1260E+03  0.1260E+03
    -23.023  0.0000E+00  0.0000E+00  0.1260E+03  0.1260E+03
    -22.782  0.0000E+00  0.0000E+00  0.1260E+03  0.1260E+03
    -22.541  0.0000E+00  0.0000E+00  0.1260E+03  0.1260E+03
    -22.300  0.0000E+00  0.0000E+00  0.1260E+03  0.1260E+03
    -22.060  0.0000E+00  0.0000E+00  0.1260E+03  0.1260E+03
    -21.819  0.0000E+00  0.0000E+00  0.1260E+03  0.1260E+03
    -21.578  0.0000E+00  0.0000E+00  0.1260E+03  0.1260E+03
    -21.337  0.0000E+00  0.0000E+00  0.1260E+03  0.1260E+03
    -21.096  0.0000E+00  0.0000E+00  0.1260E+03  0.1260E+03
    -20.855  0.0000E+00  0.0000E+00  0.1260E+03  0.1260E+03
    -20.614  0.0000E+00  0.0000E+00  0.1260E+03  0.1260E+03
    -20.374  0.0000E+00  0.0000E+00  0.1260E+03  0.1260E+03
    -20.133  0.0000E+00  0.0000E+00  0.1260E+03  0.1260E+03
    -19.892  0.0000E+00  0.0000E+00  0.1260E+03  0.1260E+03
    -19.651  0.0000E+00  0.0000E+00  0.1260E+03  0.1260E+03
    -19.410  0.0000E+00  0.0000E+00  0.1260E+03  0.1260E+03
    -19.169  0.0000E+00  0.0000E+00  0.1260E+03  0.1260E+03
    -18.928  0.0000E+00  0.0000E+00  0.1260E+03  0.1260E+03
    -18.688  0.0000E+00  0.0000E+00  0.1260E+03  0.1260E+03
    -18.447  0.0000E+00  0.0000E+00  0.1260E+03  0.1260E+03
    -18.206  0.0000E+00  0.0000E+00  0.1260E+03  0.1260E+03
    -17.965  0.0000E+00  0.0000E+00  0.1260E+03  0.1260E+03
    -17.724  0.0000E+00  0.0000E+00  0.1260E+03  0.1260E+03
    -17.483  0.0000E+00  0.0000E+00  0.1260E+03  0.1260E+03
    -17.242  0.0000E+00  0.0000E+00  0.1260E+03  0.1260E+03
    -17.001  0.0000E+00  0.0000E+00  0.1260E+03  0.1260E+03
    -16.761  0.0000E+00  0.0000E+00  0.1260E+03  0.1260E+03
    -16.520  0.0000E+00  0.0000E+00  0.1260E+03  0.1260E+03
    -16.279  0.0000E+00  0.0000E+00  0.1260E+03  0.1260E+03
    -16.038  0.0000E+00  0.0000E+00  0.1260E+03  0.1260E+03
    -15.797  0.0000E+00  0.0000E+00  0.1260E+03  0.1260E+03
    -15.556  0.0000E+00  0.0000E+00  0.1260E+03  0.1260E+03
    -15.315  0.0000E+00  0.0000E+00  0.1260E+03  0.1260E+03
    -15.075  0.0000E+00  0.0000E+00  0.1260E+03  0.1260E+03
    -14.834  0.0000E+00  0.0000E+00  0.1260E+03  0.1260E+03
    -14.593  0.0000E+00  0.0000E+00  0.1260E+03  0.1260E+03
    -14.352  0.0000E+00  0.0000E+00  0.1260E+03  0.1260E+03
    -14.111  0.0000E+00  0.0000E+00  0.1260E+03  0.1260E+03
    -13.870  0.0000E+00  0.0000E+00  0.1260E+03  0.1260E+03
    -13.629  0.0000E+00  0.0000E+00  0.1260E+03  0.1260E+03
    -13.388  0.7159E-04  0.0000E+00  0.1260E+03  0.1260E+03
    -13.148  0.2822E+02  0.0000E+00  0.1328E+03  0.1260E+03
    -12.907  0.4607E+02  0.1199E+00  0.1439E+03  0.1260E+03
    -12.666  0.4341E+00  0.5551E+02  0.1440E+03  0.1394E+03
    -12.425  0.0000E+00  0.1911E+02  0.1440E+03  0.1440E+03
    -12.184  0.0000E+00  0.0000E+00  0.1440E+03  0.1440E+03
    -11.943  0.0000E+00  0.0000E+00  0.1440E+03  0.1440E+03
    -11.702  0.0000E+00  0.0000E+00  0.1440E+03  0.1440E+03
    -11.462  0.0000E+00  0.0000E+00  0.1440E+03  0.1440E+03
    -11.221  0.0000E+00  0.0000E+00  0.1440E+03  0.1440E+03
    -10.980  0.0000E+00  0.0000E+00  0.1440E+03  0.1440E+03
    -10.739  0.0000E+00  0.0000E+00  0.1440E+03  0.1440E+03
    -10.498  0.0000E+00  0.0000E+00  0.1440E+03  0.1440E+03
    -10.257  0.0000E+00  0.0000E+00  0.1440E+03  0.1440E+03
    -10.016  0.0000E+00  0.0000E+00  0.1440E+03  0.1440E+03
     -9.776  0.0000E+00  0.0000E+00  0.1440E+03  0.1440E+03
     -9.535  0.0000E+00  0.0000E+00  0.1440E+03  0.1440E+03
     -9.294  0.0000E+00  0.0000E+00  0.1440E+03  0.1440E+03
     -9.053  0.0000E+00  0.0000E+00  0.1440E+03  0.1440E+03
     -8.812  0.0000E+00  0.0000E+00  0.1440E+03  0.1440E+03
     -8.571  0.0000E+00  0.0000E+00  0.1440E+03  0.1440E+03
     -8.330  0.0000E+00  0.0000E+00  0.1440E+03  0.1440E+03
     -8.089  0.0000E+00  0.0000E+00  0.1440E+03  0.1440E+03
     -7.849  0.2610E-11  0.0000E+00  0.1440E+03  0.1440E+03
     -7.608  0.3467E+00  0.2820E-12  0.1441E+03  0.1440E+03
     -7.367  0.1542E+02  0.2737E+00  0.1478E+03  0.1441E+03
     -7.126  0.3280E+02  0.1714E+02  0.1557E+03  0.1482E+03
     -6.885  0.3128E+02  0.3174E+02  0.1632E+03  0.1558E+03
     -6.644  0.3225E+02  0.2333E+02  0.1710E+03  0.1615E+03
     -6.403  0.5401E-03  0.3935E+02  0.1710E+03  0.1709E+03
     -6.163  0.0000E+00  0.2637E+00  0.1710E+03  0.1710E+03
     -5.922  0.0000E+00  0.0000E+00  0.1710E+03  0.1710E+03
     -5.681  0.0000E+00  0.0000E+00  0.1710E+03  0.1710E+03
     -5.440  0.0000E+00  0.0000E+00  0.1710E+03  0.1710E+03
     -5.199  0.0000E+00  0.0000E+00  0.1710E+03  0.1710E+03
     -4.958  0.0000E+00  0.0000E+00  0.1710E+03  0.1710E+03
     -4.717  0.0000E+00  0.0000E+00  0.1710E+03  0.1710E+03
     -4.476  0.0000E+00  0.0000E+00  0.1710E+03  0.1710E+03
     -4.236  0.0000E+00  0.0000E+00  0.1710E+03  0.1710E+03
     -3.995  0.0000E+00  0.0000E+00  0.1710E+03  0.1710E+03
     -3.754  0.0000E+00  0.0000E+00  0.1710E+03  0.1710E+03
     -3.513  0.0000E+00  0.0000E+00  0.1710E+03  0.1710E+03
     -3.272  0.0000E+00  0.0000E+00  0.1710E+03  0.1710E+03
     -3.031  0.0000E+00  0.0000E+00  0.1710E+03  0.1710E+03
     -2.790  0.0000E+00  0.0000E+00  0.1710E+03  0.1710E+03
     -2.550  0.0000E+00  0.0000E+00  0.1710E+03  0.1710E+03
     -2.309  0.0000E+00  0.0000E+00  0.1710E+03  0.1710E+03
     -2.068  0.1713E-02  0.0000E+00  0.1710E+03  0.1710E+03
     -1.827  0.2164E+02  0.0000E+00  0.1762E+03  0.1710E+03
     -1.586  0.1896E+02  0.0000E+00  0.1808E+03  0.1710E+03
     -1.345  0.1474E+02  0.0000E+00  0.1843E+03  0.1710E+03
     -1.104  0.2273E+02  0.0000E+00  0.1898E+03  0.1710E+03
     -0.864  0.5469E+02  0.0000E+00  0.2030E+03  0.1710E+03
     -0.623  0.6284E+02  0.3222E-04  0.2181E+03  0.1710E+03
     -0.382  0.3892E+02  0.7322E+01  0.2275E+03  0.1728E+03
     -0.141  0.8036E+02  0.2216E+02  0.2468E+03  0.1781E+03
      0.100  0.8806E+02  0.1290E+02  0.2681E+03  0.1812E+03
      0.341  0.8459E+02  0.2300E+02  0.2884E+03  0.1868E+03
      0.582  0.7234E+02  0.2928E+02  0.3059E+03  0.1938E+03
      0.823  0.6502E+02  0.4869E+02  0.3215E+03  0.2055E+03
      1.063  0.4064E+02  0.4071E+02  0.3313E+03  0.2153E+03
      1.304  0.3383E+02  0.3438E+02  0.3394E+03  0.2236E+03
      1.545  0.5154E+02  0.2308E+02  0.3519E+03  0.2292E+03
      1.786  0.4933E+02  0.3314E+02  0.3637E+03  0.2372E+03
      2.027  0.7458E+02  0.4059E+02  0.3817E+03  0.2469E+03
      2.268  0.6979E+02  0.3043E+02  0.3985E+03  0.2543E+03
      2.509  0.3081E+02  0.2891E+02  0.4059E+03  0.2612E+03
      2.749  0.4977E+02  0.3574E+02  0.4179E+03  0.2698E+03
      2.990  0.2851E+02  0.4600E+02  0.4248E+03  0.2809E+03
      3.231  0.8323E+01  0.4962E+02  0.4268E+03  0.2929E+03
      3.472  0.3786E+02  0.4356E+02  0.4359E+03  0.3034E+03
      3.713  0.2630E+02  0.8589E+01  0.4423E+03  0.3054E+03
      3.954  0.3518E+02  0.1890E+02  0.4507E+03  0.3100E+03
      4.195  0.4012E+02  0.6933E+02  0.4604E+03  0.3267E+03
      4.436  0.3776E+02  0.5075E+02  0.4695E+03  0.3389E+03
      4.676  0.3652E+02  0.1285E+02  0.4783E+03  0.3420E+03
      4.917  0.2685E+02  0.1129E-03  0.4847E+03  0.3420E+03
      5.158  0.5192E+01  0.0000E+00  0.4860E+03  0.3420E+03
      5.399  0.1229E-04  0.0000E+00  0.4860E+03  0.3420E+03
      5.640  0.0000E+00  0.0000E+00  0.4860E+03  0.3420E+03
      5.881  0.0000E+00  0.0000E+00  0.4860E+03  0.3420E+03
      6.122  0.0000E+00  0.1103E-10  0.4860E+03  0.3420E+03
      6.362  0.0000E+00  0.8420E+00  0.4860E+03  0.3422E+03
      6.603  0.0000E+00  0.5121E+01  0.4860E+03  0.3434E+03
      6.844  0.0000E+00  0.8209E+01  0.4860E+03  0.3454E+03
      7.085  0.2049E-15  0.1948E+02  0.4860E+03  0.3501E+03
      7.326  0.2112E-01  0.5765E+02  0.4860E+03  0.3640E+03
      7.567  0.1326E+00  0.5979E+02  0.4860E+03  0.3784E+03
      7.808  0.5147E+00  0.6394E+02  0.4862E+03  0.3938E+03
      8.049  0.5003E+00  0.7365E+02  0.4863E+03  0.4115E+03
      8.289  0.2278E+01  0.7781E+02  0.4868E+03  0.4303E+03
      8.530  0.4328E+01  0.7183E+02  0.4879E+03  0.4476E+03
      8.771  0.9116E+01  0.6748E+02  0.4901E+03  0.4638E+03
      9.012  0.1512E+02  0.4942E+02  0.4937E+03  0.4757E+03
      9.253  0.1547E+02  0.3427E+02  0.4974E+03  0.4840E+03
      9.494  0.1945E+02  0.9722E+01  0.5021E+03  0.4863E+03
      9.735  0.1534E+02  0.5237E+01  0.5058E+03  0.4876E+03
      9.975  0.2337E+02  0.1107E+02  0.5114E+03  0.4903E+03
     10.216  0.1785E+02  0.1522E+02  0.5157E+03  0.4939E+03
     10.457  0.2120E+02  0.2521E+02  0.5208E+03  0.5000E+03
     10.698  0.1579E+02  0.2120E+02  0.5247E+03  0.5051E+03
     10.939  0.1480E+02  0.2108E+02  0.5282E+03  0.5102E+03
     11.180  0.2148E+02  0.3259E+02  0.5334E+03  0.5180E+03
     11.421  0.3127E+02  0.2040E+02  0.5409E+03  0.5229E+03
     11.661  0.2960E+02  0.1913E+02  0.5481E+03  0.5275E+03
     11.902  0.3201E+02  0.1207E+02  0.5558E+03  0.5305E+03
     12.143  0.3669E+02  0.2214E+02  0.5646E+03  0.5358E+03
     12.384  0.2254E+02  0.4382E+02  0.5700E+03  0.5463E+03
     12.625  0.2050E+02  0.3638E+02  0.5750E+03  0.5551E+03
     12.866  0.2619E+02  0.3441E+02  0.5813E+03  0.5634E+03
     13.107  0.2437E+02  0.2048E+02  0.5871E+03  0.5683E+03
     13.348  0.2842E+02  0.2297E+02  0.5940E+03  0.5739E+03
     13.588  0.2567E+02  0.3309E+02  0.6002E+03  0.5818E+03
     13.829  0.1903E+02  0.2685E+02  0.6048E+03  0.5883E+03
     14.070  0.5159E+01  0.2753E+02  0.6060E+03  0.5949E+03
     14.311  0.3222E-02  0.2143E+02  0.6060E+03  0.6001E+03
     14.552  0.0000E+00  0.2125E+02  0.6060E+03  0.6052E+03
     14.793  0.0000E+00  0.3277E+01  0.6060E+03  0.6060E+03
     15.034  0.0000E+00  0.2238E-05  0.6060E+03  0.6060E+03
     15.274  0.0000E+00  0.0000E+00  0.6060E+03  0.6060E+03
     15.515  0.0000E+00  0.0000E+00  0.6060E+03  0.6060E+03
     15.756  0.0000E+00  0.0000E+00  0.6060E+03  0.6060E+03
     15.997  0.0000E+00  0.0000E+00  0.6060E+03  0.6060E+03
     16.238  0.0000E+00  0.0000E+00  0.6060E+03  0.6060E+03
     16.479  0.0000E+00  0.0000E+00  0.6060E+03  0.6060E+03
     16.720  0.0000E+00  0.0000E+00  0.6060E+03  0.6060E+03
     16.961  0.0000E+00  0.0000E+00  0.6060E+03  0.6060E+03
     17.201  0.0000E+00  0.0000E+00  0.6060E+03  0.6060E+03
     17.442  0.0000E+00  0.0000E+00  0.6060E+03  0.6060E+03
     17.683  0.0000E+00  0.0000E+00  0.6060E+03  0.6060E+03
     17.924  0.0000E+00  0.0000E+00  0.6060E+03  0.6060E+03
