<?xml version="1.0" encoding="ISO-8859-1"?>
<modeling>
 <generator>
  <i name="program" type="string">vasp </i>
  <i name="version" type="string">5.4.4.18Apr17-6-g9f103f2a35  </i>
  <i name="subversion" type="string">(build Oct 25 2017 14:42:18) complex            parallel </i>
  <i name="platform" type="string">LinuxIFC </i>
  <i name="date" type="string">2021 05 28 </i>
  <i name="time" type="string">05:29:07 </i>
 </generator>
 <incar>
  <i type="string" name="PREC">accurate</i>
  <i type="string" name="ALGO"> normal</i>
  <i type="logical" name="ADDGRID"> T  </i>
  <i type="int" name="ISPIN">     2</i>
  <i type="int" name="ICHARG">     1</i>
  <i type="int" name="NELM">   200</i>
  <i type="int" name="NELMIN">     8</i>
  <i name="EDIFF">      0.00000100</i>
  <i type="int" name="ISYM">     0</i>
  <i name="ENCUT">    650.00000000</i>
  <v name="MAGMOM">      0.60000000      0.60000000      0.60000000      0.60000000      0.60000000      0.60000000      0.60000000      0.60000000      0.60000000      0.60000000      0.60000000      0.60000000      0.60000000      0.60000000      0.60000000      0.60000000      0.60000000      0.60000000      0.60000000      0.60000000
      0.60000000      0.60000000      0.60000000      0.60000000      0.60000000      0.60000000      0.60000000      0.60000000      0.60000000      0.60000000      0.60000000      0.60000000      0.60000000      0.60000000      0.60000000      0.60000000      0.60000000      0.60000000      0.60000000      0.60000000
      0.60000000      0.60000000      0.60000000      0.60000000      0.60000000      0.60000000      0.60000000      0.60000000      0.60000000      0.60000000      0.60000000      0.60000000      0.60000000      0.60000000      0.60000000      0.60000000      0.60000000      0.60000000      0.60000000      0.60000000
      0.60000000      0.60000000      0.60000000      5.00000000      5.00000000      5.00000000      5.00000000      5.00000000      5.00000000      5.00000000      5.00000000      5.00000000      5.00000000      5.00000000      5.00000000      5.00000000      5.00000000      5.00000000      5.00000000      5.00000000
      5.00000000      5.00000000      5.00000000      5.00000000      5.00000000      5.00000000      5.00000000      5.00000000      5.00000000      5.00000000      5.00000000      5.00000000      5.00000000      5.00000000      5.00000000      5.00000000      5.00000000      5.00000000      5.00000000</v>
  <i type="logical" name="LREAL"> F  </i>
  <i type="int" name="ISMEAR">     0</i>
  <i name="SIGMA">      0.05000000</i>
  <i type="int" name="NWRITE">     1</i>
  <i type="int" name="LMAXMIX">     4</i>
  <i type="logical" name="LWAVE"> F  </i>
  <i type="logical" name="LASPH"> T  </i>
  <v type="int" name="KPOINT_BSE">    -1     0     0     0</v>
  <i type="int" name="NELM">   200</i>
  <i type="string" name="GGA"> pe</i>
  <i type="logical" name="LDAU"> T  </i>
  <v type="int" name="LDAUTYPE">     2</v>
  <v type="int" name="LDAUL">    -1    -1    -1     2</v>
  <v name="LDAUU">      0.00000000      0.00000000      0.00000000      4.00000000</v>
  <v name="LDAUJ">      0.00000000      0.00000000      0.00000000      0.00000000</v>
  <i type="logical" name="LASPH"> T  </i>
 </incar>
 <structure name="primitive_cell" >
  <crystal>
   <varray name="basis" >
    <v>      11.77726974       0.00848871       0.06923316 </v>
    <v>      -0.03028248      11.77723386       0.06923316 </v>
    <v>      -2.02000231      -2.02666320      10.18574622 </v>
   </varray>
   <i name="volume">   1416.10551572 </i>
   <varray name="rec_basis" >
    <v>       0.08481023       0.00011906       0.01684296 </v>
    <v>      -0.00016014       0.08481016       0.01684296 </v>
    <v>      -0.00057537      -0.00057727       0.09794744 </v>
   </varray>
  </crystal>
  <varray name="positions" >
   <v>       0.20224939       0.24206952      -0.16816581 </v>
   <v>       0.19734517       0.40355659      -0.19686089 </v>
   <v>       0.19734517       0.07022326      -0.19686089 </v>
   <v>       0.39684232       0.26982435       0.00000000 </v>
   <v>       0.06350899       0.26982435       0.00000000 </v>
   <v>       0.37094724       0.41064640      -0.15457223 </v>
   <v>       0.03761391       0.41064640      -0.15457223 </v>
   <v>       0.03761391       0.07731307      -0.15457223 </v>
   <v>       0.37094724       0.07731307      -0.15457223 </v>
   <v>       0.00253935       0.20657296      -0.37079665 </v>
   <v>       0.33587268       0.20657296      -0.37079665 </v>
   <v>       0.16118393       0.04306059      -0.39352170 </v>
   <v>       0.16118393       0.37639393      -0.39352170 </v>
   <v>       0.25602027       0.29571943       0.15457223 </v>
   <v>       0.20224939      -0.42459715      -0.16816581 </v>
   <v>       0.20224939      -0.09126381      -0.16816581 </v>
   <v>      -0.13108394       0.24206952      -0.16816581 </v>
   <v>      -0.46441728       0.24206952      -0.16816581 </v>
   <v>       0.26311007       0.46932149       0.19686089 </v>
   <v>       0.26311007       0.13598816       0.19686089 </v>
   <v>      -0.46932149       0.40355659      -0.19686089 </v>
   <v>      -0.13598816       0.07022326      -0.19686089 </v>
   <v>      -0.13598816       0.40355659      -0.19686089 </v>
   <v>      -0.46932149       0.07022326      -0.19686089 </v>
   <v>       0.42459715       0.46441728       0.16816581 </v>
   <v>       0.42459715       0.13108394       0.16816581 </v>
   <v>       0.09126381       0.46441728       0.16816581 </v>
   <v>       0.09126381       0.13108394       0.16816581 </v>
   <v>       0.39684232      -0.39684232       0.00000000 </v>
   <v>       0.06350899      -0.39684232       0.00000000 </v>
   <v>       0.06350899      -0.06350899       0.00000000 </v>
   <v>       0.39684232      -0.06350899       0.00000000 </v>
   <v>       0.00253935      -0.46009370      -0.37079665 </v>
   <v>       0.33587268      -0.46009370      -0.37079665 </v>
   <v>       0.00253935      -0.12676037      -0.37079665 </v>
   <v>       0.29027274       0.17214940       0.39257652 </v>
   <v>       0.33587268      -0.12676037      -0.37079665 </v>
   <v>       0.49451727       0.04306059      -0.39352170 </v>
   <v>      -0.04306059       0.17214940       0.39352170 </v>
   <v>       0.49451727       0.37639393      -0.39352170 </v>
   <v>      -0.17214940       0.04306059      -0.39352170 </v>
   <v>      -0.17214940       0.37639393      -0.39352170 </v>
   <v>       0.12676037       0.33079399       0.37079665 </v>
   <v>       0.12676037      -0.00253935       0.37079665 </v>
   <v>       0.25602027      -0.37094724       0.15457223 </v>
   <v>      -0.41064640       0.29571943       0.15457223 </v>
   <v>      -0.07731307       0.29571943       0.15457223 </v>
   <v>       0.25602027      -0.03761391       0.15457223 </v>
   <v>      -0.46441728      -0.42459715      -0.16816581 </v>
   <v>      -0.13108394      -0.09126381      -0.16816581 </v>
   <v>      -0.13108394      -0.42459715      -0.16816581 </v>
   <v>      -0.46441728      -0.09126381      -0.16816581 </v>
   <v>      -0.40355659       0.46932149       0.19686089 </v>
   <v>      -0.07022326       0.13598816       0.19686089 </v>
   <v>      -0.07022326       0.46932149       0.19686089 </v>
   <v>      -0.40355659       0.13598816       0.19686089 </v>
   <v>       0.46009370       0.33079399       0.37079665 </v>
   <v>       0.19734517      -0.26311007      -0.19686089 </v>
   <v>       0.29027274      -0.49451727       0.39352170 </v>
   <v>      -0.26982435       0.26982435       0.00000000 </v>
   <v>       0.37094724      -0.25602027      -0.15457223 </v>
   <v>      -0.29571943       0.41064640      -0.15457223 </v>
   <v>       0.03761391      -0.25602027      -0.15457223 </v>
   <v>      -0.29571943       0.07731307      -0.15457223 </v>
   <v>       0.29027274      -0.16118393       0.39352170 </v>
   <v>      -0.33079399       0.20657296      -0.37079665 </v>
   <v>      -0.04306059      -0.16118393       0.39352170 </v>
   <v>       0.16118393      -0.29027274      -0.39352170 </v>
   <v>      -0.04306059      -0.49451727       0.39352170 </v>
   <v>      -0.20657296       0.33079399       0.37079665 </v>
   <v>      -0.20657296      -0.00253935       0.37079665 </v>
   <v>      -0.41064640      -0.37094724       0.15457223 </v>
   <v>       0.46009370      -0.00253935       0.37079665 </v>
   <v>      -0.07731307      -0.03761391       0.15457223 </v>
   <v>      -0.07731307      -0.37094724       0.15457223 </v>
   <v>      -0.41064640      -0.03761391       0.15457223 </v>
   <v>       0.26311007      -0.19734517       0.19686089 </v>
   <v>       0.12676037      -0.33587268       0.37079665 </v>
   <v>       0.46009370      -0.33587268       0.37079665 </v>
   <v>      -0.46932149      -0.26311007      -0.19686089 </v>
   <v>      -0.13598816      -0.26311007      -0.19686089 </v>
   <v>       0.42459715      -0.20224939       0.16816581 </v>
   <v>      -0.24206952       0.46441728       0.16816581 </v>
   <v>       0.09126381      -0.20224939       0.16816581 </v>
   <v>      -0.24206952       0.13108394       0.16816581 </v>
   <v>      -0.37639393       0.17214940       0.39352170 </v>
   <v>      -0.37639393      -0.49451727       0.39352170 </v>
   <v>      -0.26982435      -0.39684232       0.00000000 </v>
   <v>      -0.26982435      -0.06350899       0.00000000 </v>
   <v>      -0.33079399      -0.46009370      -0.37079665 </v>
   <v>      -0.33079399      -0.12676037      -0.37079665 </v>
   <v>       0.49451727      -0.29027274      -0.39352170 </v>
   <v>      -0.17214940      -0.29027274      -0.39352170 </v>
   <v>      -0.07022326      -0.19734517       0.19686089 </v>
   <v>      -0.40355659      -0.19734517       0.19686089 </v>
   <v>      -0.37639393      -0.16118393       0.39352170 </v>
   <v>      -0.29571943      -0.25602027      -0.15457223 </v>
   <v>      -0.20657296      -0.33587268       0.37079665 </v>
   <v>      -0.24206952      -0.20224939       0.16816581 </v>
  </varray>
 </structure>
 <varray name="primitive_index" >
  <v type="int" >        1 </v>
  <v type="int" >       31 </v>
  <v type="int" >       28 </v>
  <v type="int" >       56 </v>
  <v type="int" >       55 </v>
  <v type="int" >       86 </v>
  <v type="int" >       85 </v>
  <v type="int" >       82 </v>
  <v type="int" >       83 </v>
  <v type="int" >       37 </v>
  <v type="int" >       38 </v>
  <v type="int" >       73 </v>
  <v type="int" >       76 </v>
  <v type="int" >       91 </v>
  <v type="int" >        4 </v>
  <v type="int" >        7 </v>
  <v type="int" >        3 </v>
  <v type="int" >        2 </v>
  <v type="int" >       22 </v>
  <v type="int" >       19 </v>
  <v type="int" >       32 </v>
  <v type="int" >       30 </v>
  <v type="int" >       33 </v>
  <v type="int" >       29 </v>
  <v type="int" >       14 </v>
  <v type="int" >       11 </v>
  <v type="int" >       13 </v>
  <v type="int" >       10 </v>
  <v type="int" >       59 </v>
  <v type="int" >       58 </v>
  <v type="int" >       61 </v>
  <v type="int" >       62 </v>
  <v type="int" >       40 </v>
  <v type="int" >       41 </v>
  <v type="int" >       43 </v>
  <v type="int" >       64 </v>
  <v type="int" >       44 </v>
  <v type="int" >       74 </v>
  <v type="int" >       66 </v>
  <v type="int" >       77 </v>
  <v type="int" >       75 </v>
  <v type="int" >       78 </v>
  <v type="int" >       46 </v>
  <v type="int" >       52 </v>
  <v type="int" >       94 </v>
  <v type="int" >       92 </v>
  <v type="int" >       93 </v>
  <v type="int" >       97 </v>
  <v type="int" >        5 </v>
  <v type="int" >        9 </v>
  <v type="int" >        6 </v>
  <v type="int" >        8 </v>
  <v type="int" >       23 </v>
  <v type="int" >       21 </v>
  <v type="int" >       24 </v>
  <v type="int" >       20 </v>
  <v type="int" >       47 </v>
  <v type="int" >       34 </v>
  <v type="int" >       67 </v>
  <v type="int" >       57 </v>
  <v type="int" >       89 </v>
  <v type="int" >       87 </v>
  <v type="int" >       88 </v>
  <v type="int" >       84 </v>
  <v type="int" >       70 </v>
  <v type="int" >       39 </v>
  <v type="int" >       72 </v>
  <v type="int" >       79 </v>
  <v type="int" >       69 </v>
  <v type="int" >       48 </v>
  <v type="int" >       54 </v>
  <v type="int" >       95 </v>
  <v type="int" >       53 </v>
  <v type="int" >       99 </v>
  <v type="int" >       96 </v>
  <v type="int" >       98 </v>
  <v type="int" >       25 </v>
  <v type="int" >       49 </v>
  <v type="int" >       50 </v>
  <v type="int" >       35 </v>
  <v type="int" >       36 </v>
  <v type="int" >       17 </v>
  <v type="int" >       15 </v>
  <v type="int" >       16 </v>
  <v type="int" >       12 </v>
  <v type="int" >       65 </v>
  <v type="int" >       68 </v>
  <v type="int" >       60 </v>
  <v type="int" >       63 </v>
  <v type="int" >       42 </v>
  <v type="int" >       45 </v>
  <v type="int" >       80 </v>
  <v type="int" >       81 </v>
  <v type="int" >       27 </v>
  <v type="int" >       26 </v>
  <v type="int" >       71 </v>
  <v type="int" >       90 </v>
  <v type="int" >       51 </v>
  <v type="int" >       18 </v>
 </varray>
 <kpoints>
  <generation param="Gamma">
   <v type="int" name="divisions">       3        3        3 </v>
   <v name="usershift">      0.00000000       0.00000000       0.00000000 </v>
   <v name="genvec1">      0.33333333       0.00000000       0.00000000 </v>
   <v name="genvec2">      0.00000000       0.33333333       0.00000000 </v>
   <v name="genvec3">      0.00000000       0.00000000       0.33333333 </v>
   <v name="shift">      0.00000000       0.00000000       0.00000000 </v>
  </generation>
  <varray name="kpointlist" >
   <v>       0.00000000       0.00000000       0.00000000 </v>
   <v>       0.33333333      -0.00000000      -0.00000000 </v>
   <v>       0.00000000       0.33333333       0.00000000 </v>
   <v>       0.33333333       0.33333333       0.00000000 </v>
   <v>      -0.33333333       0.33333333       0.00000000 </v>
   <v>      -0.00000000      -0.00000000       0.33333333 </v>
   <v>       0.33333333      -0.00000000       0.33333333 </v>
   <v>      -0.33333333      -0.00000000       0.33333333 </v>
   <v>      -0.00000000       0.33333333       0.33333333 </v>
   <v>       0.33333333       0.33333333       0.33333333 </v>
   <v>      -0.33333333       0.33333333       0.33333333 </v>
   <v>      -0.00000000      -0.33333333       0.33333333 </v>
   <v>       0.33333333      -0.33333333       0.33333333 </v>
   <v>      -0.33333333      -0.33333333       0.33333333 </v>
  </varray>
  <varray name="weights" >
   <v>       0.03703704 </v>
   <v>       0.07407407 </v>
   <v>       0.07407407 </v>
   <v>       0.07407407 </v>
   <v>       0.07407407 </v>
   <v>       0.07407407 </v>
   <v>       0.07407407 </v>
   <v>       0.07407407 </v>
   <v>       0.07407407 </v>
   <v>       0.07407407 </v>
   <v>       0.07407407 </v>
   <v>       0.07407407 </v>
   <v>       0.07407407 </v>
   <v>       0.07407407 </v>
  </varray>
 </kpoints>
 <parameters>
  <separator name="general" >
   <i type="string" name="SYSTEM">unknown system</i>
   <i type="logical" name="LCOMPAT"> F  </i>
  </separator>
  <separator name="electronic" >
   <i type="string" name="PREC">accura</i>
   <i name="ENMAX">    650.00000000</i>
   <i name="ENAUG">    628.94500000</i>
   <i name="EDIFF">      0.00000100</i>
   <i type="int" name="IALGO">    38</i>
   <i type="int" name="IWAVPR">    10</i>
   <i type="int" name="NBANDS">   606</i>
   <i name="NELECT">    828.00000000</i>
   <i type="int" name="TURBO">     0</i>
   <i type="int" name="IRESTART">     0</i>
   <i type="int" name="NREBOOT">     0</i>
   <i type="int" name="NMIN">     0</i>
   <i name="EREF">      0.00000000</i>
   <separator name="electronic smearing" >
    <i type="int" name="ISMEAR">     0</i>
    <i name="SIGMA">      0.05000000</i>
    <i name="KSPACING">      0.50000000</i>
    <i type="logical" name="KGAMMA"> T  </i>
   </separator>
   <separator name="electronic projectors" >
    <i type="logical" name="LREAL"> F  </i>
    <v name="ROPT">      0.00000000      0.00000000      0.00000000      0.00000000</v>
    <i type="int" name="LMAXPAW">  -100</i>
    <i type="int" name="LMAXMIX">     4</i>
    <i type="logical" name="NLSPLINE"> F  </i>
   </separator>
   <separator name="electronic startup" >
    <i type="int" name="ISTART">     0</i>
    <i type="int" name="ICHARG">     1</i>
    <i type="int" name="INIWAV">     1</i>
   </separator>
   <separator name="electronic spin" >
    <i type="int" name="ISPIN">     2</i>
    <i type="logical" name="LNONCOLLINEAR"> F  </i>
    <v name="MAGMOM">      0.60000000      0.60000000      0.60000000      0.60000000      0.60000000      0.60000000      0.60000000      0.60000000      0.60000000      0.60000000      0.60000000      0.60000000      0.60000000      0.60000000      0.60000000      0.60000000      0.60000000      0.60000000      0.60000000      0.60000000
      0.60000000      0.60000000      0.60000000      0.60000000      0.60000000      0.60000000      0.60000000      0.60000000      0.60000000      0.60000000      0.60000000      0.60000000      0.60000000      0.60000000      0.60000000      0.60000000      0.60000000      0.60000000      0.60000000      0.60000000
      0.60000000      0.60000000      0.60000000      0.60000000      0.60000000      0.60000000      0.60000000      0.60000000      0.60000000      0.60000000      0.60000000      0.60000000      0.60000000      0.60000000      0.60000000      0.60000000      0.60000000      0.60000000      0.60000000      0.60000000
      0.60000000      0.60000000      0.60000000      5.00000000      5.00000000      5.00000000      5.00000000      5.00000000      5.00000000      5.00000000      5.00000000      5.00000000      5.00000000      5.00000000      5.00000000      5.00000000      5.00000000      5.00000000      5.00000000      5.00000000
      5.00000000      5.00000000      5.00000000      5.00000000      5.00000000      5.00000000      5.00000000      5.00000000      5.00000000      5.00000000      5.00000000      5.00000000      5.00000000      5.00000000      5.00000000      5.00000000      5.00000000      5.00000000      5.00000000</v>
    <i name="NUPDOWN">     -1.00000000</i>
    <i type="logical" name="LSORBIT"> F  </i>
    <v name="SAXIS">      0.00000000      0.00000000      1.00000000</v>
    <i type="logical" name="LSPIRAL"> F  </i>
    <v name="QSPIRAL">      0.00000000      0.00000000      0.00000000</v>
    <i type="logical" name="LZEROZ"> F  </i>
   </separator>
   <separator name="electronic exchange-correlation" >
    <i type="logical" name="LASPH"> T  </i>
    <i type="logical" name="LMETAGGA"> F  </i>
   </separator>
   <separator name="electronic convergence" >
    <i type="int" name="NELM">   200</i>
    <i type="int" name="NELMDL">     0</i>
    <i type="int" name="NELMIN">     8</i>
    <i name="ENINI">    650.00000000</i>
    <separator name="electronic convergence detail" >
     <i type="logical" name="LDIAG"> T  </i>
     <i type="logical" name="LSUBROT"> F  </i>
     <i name="WEIMIN">      0.00000000</i>
     <i name="EBREAK">      0.00000000</i>
     <i name="DEPER">      0.30000000</i>
     <i type="int" name="NRMM">     4</i>
     <i name="TIME">      0.40000000</i>
    </separator>
   </separator>
   <separator name="electronic mixer" >
    <i name="AMIX">      0.40000000</i>
    <i name="BMIX">      1.00000000</i>
    <i name="AMIN">      0.10000000</i>
    <i name="AMIX_MAG">      1.60000000</i>
    <i name="BMIX_MAG">      1.00000000</i>
    <separator name="electronic mixer details" >
     <i type="int" name="IMIX">     4</i>
     <i type="logical" name="MIXFIRST"> F  </i>
     <i type="int" name="MAXMIX">   -45</i>
     <i name="WC">    100.00000000</i>
     <i type="int" name="INIMIX">     1</i>
     <i type="int" name="MIXPRE">     1</i>
     <i type="int" name="MREMOVE">     5</i>
    </separator>
   </separator>
   <separator name="electronic dipolcorrection" >
    <i type="logical" name="LDIPOL"> F  </i>
    <i type="logical" name="LMONO"> F  </i>
    <i type="int" name="IDIPOL">     0</i>
    <i name="EPSILON">      1.00000000</i>
    <v name="DIPOL">   -100.00000000   -100.00000000   -100.00000000</v>
    <i name="EFIELD">      0.00000000</i>
   </separator>
  </separator>
  <separator name="grids" >
   <i type="int" name="NGX">    98</i>
   <i type="int" name="NGY">    98</i>
   <i type="int" name="NGZ">    90</i>
   <i type="int" name="NGXF">   196</i>
   <i type="int" name="NGYF">   196</i>
   <i type="int" name="NGZF">   180</i>
   <i type="logical" name="ADDGRID"> T  </i>
  </separator>
  <separator name="ionic" >
   <i type="int" name="NSW">     0</i>
   <i type="int" name="IBRION">    -1</i>
   <i type="int" name="MDALGO">     0</i>
   <i type="int" name="ISIF">     2</i>
   <i name="PSTRESS">      0.00000000</i>
   <i name="EDIFFG">      0.00001000</i>
   <i type="int" name="NFREE">     0</i>
   <i name="POTIM">      0.50000000</i>
   <i name="SMASS">     -3.00000000</i>
   <i name="SCALEE">      1.00000000</i>
  </separator>
  <separator name="ionic md" >
   <i name="TEBEG">      0.00010000</i>
   <i name="TEEND">      0.00010000</i>
   <i type="int" name="NBLOCK">     1</i>
   <i type="int" name="KBLOCK">     1</i>
   <i type="int" name="NPACO">   256</i>
   <i name="APACO">     16.00000000</i>
  </separator>
  <separator name="symmetry" >
   <i type="int" name="ISYM">     0</i>
   <i name="SYMPREC">      0.00001000</i>
  </separator>
  <separator name="dos" >
   <i type="int" name="LORBIT">     0</i>
   <v name="RWIGS">     -1.00000000     -1.00000000     -1.00000000     -1.00000000</v>
   <i type="int" name="NEDOS">   301</i>
   <i name="EMIN">     10.00000000</i>
   <i name="EMAX">    -10.00000000</i>
   <i name="EFERMI">      0.00000000</i>
  </separator>
  <separator name="writing" >
   <i type="int" name="NWRITE">     1</i>
   <i type="logical" name="LWAVE"> F  </i>
   <i type="logical" name="LDOWNSAMPLE"> F  </i>
   <i type="logical" name="LCHARG"> T  </i>
   <i type="logical" name="LPARD"> F  </i>
   <i type="logical" name="LVTOT"> F  </i>
   <i type="logical" name="LVHAR"> F  </i>
   <i type="logical" name="LELF"> F  </i>
   <i type="logical" name="LOPTICS"> F  </i>
   <v name="STM">      0.00000000      0.00000000      0.00000000      0.00000000      0.00000000      0.00000000      0.00000000</v>
  </separator>
  <separator name="performance" >
   <i type="int" name="NPAR">     2</i>
   <i type="int" name="NSIM">     4</i>
   <i type="int" name="NBLK">    -1</i>
   <i type="logical" name="LPLANE"> T  </i>
   <i type="logical" name="LSCALAPACK"> T  </i>
   <i type="logical" name="LSCAAWARE"> F  </i>
   <i type="logical" name="LSCALU"> F  </i>
   <i type="logical" name="LASYNC"> F  </i>
   <i type="logical" name="LORBITALREAL"> F  </i>
  </separator>
  <separator name="miscellaneous" >
   <i type="int" name="IDIOT">     3</i>
   <i type="int" name="ISPECIAL">     0</i>
   <i type="logical" name="LMUSIC"> F  </i>
   <v name="POMASS">      7.01000000     16.00000000     32.06600000     55.84700000</v>
   <v name="DARWINR">      0.00000000      0.00000000      0.00000000      0.00000000</v>
   <v name="DARWINV">      1.00000000      1.00000000      1.00000000      1.00000000</v>
   <i type="logical" name="LCORR"> T  </i>
  </separator>
  <i type="logical" name="GGA_COMPAT"> T  </i>
  <i type="logical" name="LBERRY"> F  </i>
  <i type="int" name="ICORELEVEL">     0</i>
  <i type="logical" name="LDAU"> T  </i>
  <v type="int" name="LDAUTYPE">     2</v>
  <v type="int" name="LDAUL">    -1</v>
  <v name="LDAUU">      0.00000000</v>
  <v name="LDAUJ">      0.00000000</v>
  <i type="int" name="LDAUPRINT">     0</i>
  <i type="int" name="I_CONSTRAINED_M">     0</i>
  <separator name="electronic exchange-correlation" >
   <i type="string" name="GGA">PE</i>
   <i type="int" name="VOSKOWN">     0</i>
   <i type="logical" name="LHFCALC"> F  </i>
   <i type="string" name="PRECFOCK"></i>
   <i type="logical" name="LSYMGRAD"> F  </i>
   <i type="logical" name="LHFONE"> F  </i>
   <i type="logical" name="LRHFCALC"> F  </i>
   <i type="logical" name="LTHOMAS"> F  </i>
   <i type="logical" name="LMODELHF"> F  </i>
   <i name="ENCUT4O">     -1.00000000</i>
   <i type="int" name="EXXOEP">     0</i>
   <i type="int" name="FOURORBIT">     0</i>
   <i name="AEXX">      0.00000000</i>
   <i name="HFALPHA">      0.00000000</i>
   <i name="MCALPHA">      0.00000000</i>
   <i name="ALDAX">      1.00000000</i>
   <i name="AGGAX">      1.00000000</i>
   <i name="ALDAC">      1.00000000</i>
   <i name="AGGAC">      1.00000000</i>
   <i type="int" name="NKREDX">     1</i>
   <i type="int" name="NKREDY">     1</i>
   <i type="int" name="NKREDZ">     1</i>
   <i type="logical" name="SHIFTRED"> F  </i>
   <i type="logical" name="ODDONLY"> F  </i>
   <i type="logical" name="EVENONLY"> F  </i>
   <i type="int" name="LMAXFOCK">     0</i>
   <i type="int" name="NMAXFOCKAE">     0</i>
   <i type="logical" name="LFOCKAEDFT"> F  </i>
   <i name="HFSCREEN">      0.00000000</i>
   <i name="HFSCREENC">      0.00000000</i>
   <i type="int" name="NBANDSGWLOW">     0</i>
  </separator>
  <separator name="vdW DFT" >
   <i type="logical" name="LUSE_VDW"> F  </i>
   <i name="Zab_VDW">     -0.84910000</i>
   <i name="PARAM1">      0.12340000</i>
   <i name="PARAM2">      1.00000000</i>
   <i name="PARAM3">      0.00000000</i>
  </separator>
  <separator name="model GW" >
   <i type="int" name="MODEL_GW">     0</i>
   <i name="MODEL_EPS0">      8.58245767</i>
   <i name="MODEL_ALPHA">      1.00000000</i>
  </separator>
  <separator name="linear response parameters" >
   <i type="logical" name="LEPSILON"> F  </i>
   <i type="logical" name="LRPA"> F  </i>
   <i type="logical" name="LNABLA"> F  </i>
   <i type="logical" name="LVEL"> F  </i>
   <i type="int" name="KINTER">     0</i>
   <i name="CSHIFT">      0.10000000</i>
   <i name="OMEGAMAX">     -1.00000000</i>
   <i name="DEG_THRESHOLD">      0.00200000</i>
   <i name="RTIME">     -0.10000000</i>
   <i name="WPLASMAI">      0.00000000</i>
   <v name="DFIELD">      0.00000000      0.00000000      0.00000000</v>
   <v name="WPLASMA">      0.00000000      0.00000000      0.00000000      0.00000000      0.00000000      0.00000000      0.00000000      0.00000000      0.00000000</v>
  </separator>
  <separator name="orbital magnetization" >
   <i type="logical" name="NUCIND"> F  </i>
   <v name="MAGPOS">      0.00000000      0.00000000      0.00000000</v>
   <i type="logical" name="LNICSALL"> T  </i>
   <i type="logical" name="ORBITALMAG"> F  </i>
   <i type="logical" name="LMAGBLOCH"> F  </i>
   <i type="logical" name="LCHIMAG"> F  </i>
   <i type="logical" name="LGAUGE"> T  </i>
   <i type="int" name="MAGATOM">     0</i>
   <v name="MAGDIPOL">      0.00000000      0.00000000      0.00000000</v>
   <v name="AVECCONST">      0.00000000      0.00000000      0.00000000</v>
  </separator>
  <separator name="response functions" >
   <i type="logical" name="LADDER"> F  </i>
   <i type="logical" name="LRPAFORCE"> F  </i>
   <i type="logical" name="LFXC"> F  </i>
   <i type="logical" name="LHARTREE"> T  </i>
   <i type="int" name="IBSE">     0</i>
   <v type="int" name="KPOINT">    -1     0     0     0</v>
   <i type="logical" name="LTCTE"> F  </i>
   <i type="logical" name="LTETE"> F  </i>
   <i type="logical" name="LTRIPLET"> F  </i>
   <i type="logical" name="LFXCEPS"> F  </i>
   <i type="logical" name="LFXHEG"> F  </i>
   <i type="int" name="NATURALO">     2</i>
   <i type="logical" name="L2ORDER"> F  </i>
   <i type="logical" name="LMP2LT"> F  </i>
   <i type="logical" name="LUSEW"> F  </i>
   <i name="ENCUTGW">     -2.00000000</i>
   <i name="ENCUTGWSOFT">     -2.00000000</i>
   <i name="ENCUTLF">     -1.00000000</i>
   <i type="int" name="LMAXMP2">    -1</i>
   <i name="SCISSOR">      0.00000000</i>
   <i type="int" name="NOMEGA">     0</i>
   <i type="int" name="NOMEGAR">     0</i>
   <i type="int" name="NBANDSGW">    -1</i>
   <i type="int" name="NBANDSO">    -1</i>
   <i type="int" name="NBANDSV">    -1</i>
   <i type="int" name="NELM">   200</i>
   <i type="int" name="NELMHF">     1</i>
   <i type="int" name="DIM">     3</i>
   <i type="int" name="ANTIRES">     0</i>
   <i name="OMEGAMAX">    -30.00000000</i>
   <i name="OMEGAMIN">    -30.00000000</i>
   <i name="OMEGATL">   -200.00000000</i>
   <i type="int" name="OMEGAGRID">   140</i>
   <i name="CSHIFT">     -0.10000000</i>
   <i type="logical" name="SELFENERGY"> F  </i>
   <i type="logical" name="LSPECTRAL"> F  </i>
   <i type="logical" name="LSPECTRALGW"> F  </i>
   <i type="logical" name="LSINGLES"> F  </i>
   <i type="logical" name="LFERMIGW"> F  </i>
   <i type="logical" name="ODDONLYGW"> F  </i>
   <i type="logical" name="EVENONLYGW"> F  </i>
   <i type="int" name="NKREDLFX">     1</i>
   <i type="int" name="NKREDLFY">     1</i>
   <i type="int" name="NKREDLFZ">     1</i>
   <i type="int" name="MAXMEM">  2800</i>
   <i type="int" name="TELESCOPE">     0</i>
   <i type="int" name="TAUPAR">     1</i>
   <i type="int" name="OMEGAPAR">    -1</i>
   <i name="LAMBDA">      1.00000000</i>
  </separator>
  <separator name="External order field" >
   <i name="OFIELD_KAPPA">      0.00000000</i>
   <v name="OFIELD_K">      0.00000000      0.00000000      0.00000000</v>
   <i name="OFIELD_Q6_NEAR">      0.00000000</i>
   <i name="OFIELD_Q6_FAR">      0.00000000</i>
   <i name="OFIELD_A">      0.00000000</i>
  </separator>
 </parameters>
 <atominfo>
  <atoms>      99 </atoms>
  <types>       4 </types>
  <array name="atoms" >
   <dimension dim="1">ion</dimension>
   <field type="string">element</field>
   <field type="int">atomtype</field>
   <set>
    <rc><c>Li</c><c>   1</c></rc>
    <rc><c>Li</c><c>   1</c></rc>
    <rc><c>Li</c><c>   1</c></rc>
    <rc><c>Li</c><c>   1</c></rc>
    <rc><c>Li</c><c>   1</c></rc>
    <rc><c>Li</c><c>   1</c></rc>
    <rc><c>Li</c><c>   1</c></rc>
    <rc><c>Li</c><c>   1</c></rc>
    <rc><c>Li</c><c>   1</c></rc>
    <rc><c>Li</c><c>   1</c></rc>
    <rc><c>Li</c><c>   1</c></rc>
    <rc><c>Li</c><c>   1</c></rc>
    <rc><c>Li</c><c>   1</c></rc>
    <rc><c>Li</c><c>   1</c></rc>
    <rc><c>Li</c><c>   1</c></rc>
    <rc><c>Li</c><c>   1</c></rc>
    <rc><c>Li</c><c>   1</c></rc>
    <rc><c>Li</c><c>   1</c></rc>
    <rc><c>O </c><c>   2</c></rc>
    <rc><c>O </c><c>   2</c></rc>
    <rc><c>O </c><c>   2</c></rc>
    <rc><c>O </c><c>   2</c></rc>
    <rc><c>O </c><c>   2</c></rc>
    <rc><c>O </c><c>   2</c></rc>
    <rc><c>O </c><c>   2</c></rc>
    <rc><c>O </c><c>   2</c></rc>
    <rc><c>O </c><c>   2</c></rc>
    <rc><c>O </c><c>   2</c></rc>
    <rc><c>O </c><c>   2</c></rc>
    <rc><c>O </c><c>   2</c></rc>
    <rc><c>O </c><c>   2</c></rc>
    <rc><c>O </c><c>   2</c></rc>
    <rc><c>O </c><c>   2</c></rc>
    <rc><c>O </c><c>   2</c></rc>
    <rc><c>O </c><c>   2</c></rc>
    <rc><c>O </c><c>   2</c></rc>
    <rc><c>S </c><c>   3</c></rc>
    <rc><c>S </c><c>   3</c></rc>
    <rc><c>S </c><c>   3</c></rc>
    <rc><c>S </c><c>   3</c></rc>
    <rc><c>S </c><c>   3</c></rc>
    <rc><c>S </c><c>   3</c></rc>
    <rc><c>S </c><c>   3</c></rc>
    <rc><c>S </c><c>   3</c></rc>
    <rc><c>S </c><c>   3</c></rc>
    <rc><c>S </c><c>   3</c></rc>
    <rc><c>S </c><c>   3</c></rc>
    <rc><c>S </c><c>   3</c></rc>
    <rc><c>S </c><c>   3</c></rc>
    <rc><c>S </c><c>   3</c></rc>
    <rc><c>S </c><c>   3</c></rc>
    <rc><c>S </c><c>   3</c></rc>
    <rc><c>S </c><c>   3</c></rc>
    <rc><c>S </c><c>   3</c></rc>
    <rc><c>S </c><c>   3</c></rc>
    <rc><c>S </c><c>   3</c></rc>
    <rc><c>S </c><c>   3</c></rc>
    <rc><c>S </c><c>   3</c></rc>
    <rc><c>S </c><c>   3</c></rc>
    <rc><c>S </c><c>   3</c></rc>
    <rc><c>S </c><c>   3</c></rc>
    <rc><c>S </c><c>   3</c></rc>
    <rc><c>S </c><c>   3</c></rc>
    <rc><c>Fe</c><c>   4</c></rc>
    <rc><c>Fe</c><c>   4</c></rc>
    <rc><c>Fe</c><c>   4</c></rc>
    <rc><c>Fe</c><c>   4</c></rc>
    <rc><c>Fe</c><c>   4</c></rc>
    <rc><c>Fe</c><c>   4</c></rc>
    <rc><c>Fe</c><c>   4</c></rc>
    <rc><c>Fe</c><c>   4</c></rc>
    <rc><c>Fe</c><c>   4</c></rc>
    <rc><c>Fe</c><c>   4</c></rc>
    <rc><c>Fe</c><c>   4</c></rc>
    <rc><c>Fe</c><c>   4</c></rc>
    <rc><c>Fe</c><c>   4</c></rc>
    <rc><c>Fe</c><c>   4</c></rc>
    <rc><c>Fe</c><c>   4</c></rc>
    <rc><c>Fe</c><c>   4</c></rc>
    <rc><c>Fe</c><c>   4</c></rc>
    <rc><c>Fe</c><c>   4</c></rc>
    <rc><c>Fe</c><c>   4</c></rc>
    <rc><c>Fe</c><c>   4</c></rc>
    <rc><c>Fe</c><c>   4</c></rc>
    <rc><c>Fe</c><c>   4</c></rc>
    <rc><c>Fe</c><c>   4</c></rc>
    <rc><c>Fe</c><c>   4</c></rc>
    <rc><c>Fe</c><c>   4</c></rc>
    <rc><c>Fe</c><c>   4</c></rc>
    <rc><c>Fe</c><c>   4</c></rc>
    <rc><c>Fe</c><c>   4</c></rc>
    <rc><c>Fe</c><c>   4</c></rc>
    <rc><c>Fe</c><c>   4</c></rc>
    <rc><c>Fe</c><c>   4</c></rc>
    <rc><c>Fe</c><c>   4</c></rc>
    <rc><c>Fe</c><c>   4</c></rc>
    <rc><c>Fe</c><c>   4</c></rc>
    <rc><c>Fe</c><c>   4</c></rc>
    <rc><c>Fe</c><c>   4</c></rc>
   </set>
  </array>
  <array name="atomtypes" >
   <dimension dim="1">type</dimension>
   <field type="int">atomspertype</field>
   <field type="string">element</field>
   <field>mass</field>
   <field>valence</field>
   <field type="string">pseudopotential</field>
   <set>
    <rc><c>  18</c><c>Li</c><c>      7.01000000</c><c>      3.00000000</c><c>  PAW_PBE Li_sv 10Sep2004               </c></rc>
    <rc><c>  18</c><c>O </c><c>     16.00000000</c><c>      6.00000000</c><c>  PAW_PBE O 08Apr2002                   </c></rc>
    <rc><c>  27</c><c>S </c><c>     32.06600000</c><c>      6.00000000</c><c>  PAW_PBE S 06Sep2000                   </c></rc>
    <rc><c>  36</c><c>Fe</c><c>     55.84700000</c><c>     14.00000000</c><c>  PAW_PBE Fe_pv 02Aug2007               </c></rc>
   </set>
  </array>
 </atominfo>
 <structure name="initialpos" >
  <crystal>
   <varray name="basis" >
    <v>      11.77726974       0.00848871       0.06923316 </v>
    <v>      -0.03028248      11.77723386       0.06923316 </v>
    <v>      -2.02000231      -2.02666320      10.18574622 </v>
   </varray>
   <i name="volume">   1416.10551572 </i>
   <varray name="rec_basis" >
    <v>       0.08481023       0.00011906       0.01684296 </v>
    <v>      -0.00016014       0.08481016       0.01684296 </v>
    <v>      -0.00057537      -0.00057727       0.09794744 </v>
   </varray>
  </crystal>
  <varray name="positions" >
   <v>       0.20224939       0.24206952       0.83183419 </v>
   <v>       0.53558272       0.24206952       0.83183419 </v>
   <v>       0.86891606       0.24206952       0.83183419 </v>
   <v>       0.20224939       0.57540285       0.83183419 </v>
   <v>       0.53558272       0.57540285       0.83183419 </v>
   <v>       0.86891606       0.57540285       0.83183419 </v>
   <v>       0.20224939       0.90873619       0.83183419 </v>
   <v>       0.53558272       0.90873619       0.83183419 </v>
   <v>       0.86891606       0.90873619       0.83183419 </v>
   <v>       0.09126381       0.13108394       0.16816581 </v>
   <v>       0.42459715       0.13108394       0.16816581 </v>
   <v>       0.75793048       0.13108394       0.16816581 </v>
   <v>       0.09126381       0.46441728       0.16816581 </v>
   <v>       0.42459715       0.46441728       0.16816581 </v>
   <v>       0.75793048       0.46441728       0.16816581 </v>
   <v>       0.09126381       0.79775061       0.16816581 </v>
   <v>       0.42459715       0.79775061       0.16816581 </v>
   <v>       0.75793048       0.79775061       0.16816581 </v>
   <v>       0.26311007       0.13598816       0.19686089 </v>
   <v>       0.59644341       0.13598816       0.19686089 </v>
   <v>       0.92977674       0.13598816       0.19686089 </v>
   <v>       0.26311007       0.46932149       0.19686089 </v>
   <v>       0.59644341       0.46932149       0.19686089 </v>
   <v>       0.92977674       0.46932149       0.19686089 </v>
   <v>       0.26311007       0.80265483       0.19686089 </v>
   <v>       0.59644341       0.80265483       0.19686089 </v>
   <v>       0.92977674       0.80265483       0.19686089 </v>
   <v>       0.19734517       0.07022326       0.80313911 </v>
   <v>       0.53067851       0.07022326       0.80313911 </v>
   <v>       0.86401184       0.07022326       0.80313911 </v>
   <v>       0.19734517       0.40355659       0.80313911 </v>
   <v>       0.53067851       0.40355659       0.80313911 </v>
   <v>       0.86401184       0.40355659       0.80313911 </v>
   <v>       0.19734517       0.73688993       0.80313911 </v>
   <v>       0.53067851       0.73688993       0.80313911 </v>
   <v>       0.86401184       0.73688993       0.80313911 </v>
   <v>       0.00253935       0.20657296       0.62920335 </v>
   <v>       0.33587268       0.20657296       0.62920335 </v>
   <v>       0.66920601       0.20657296       0.62920335 </v>
   <v>       0.00253935       0.53990630       0.62920335 </v>
   <v>       0.33587268       0.53990630       0.62920335 </v>
   <v>       0.66920601       0.53990630       0.62920335 </v>
   <v>       0.00253935       0.87323963       0.62920335 </v>
   <v>       0.33587268       0.87323963       0.62920335 </v>
   <v>       0.66920601       0.87323963       0.62920335 </v>
   <v>       0.12676037       0.33079399       0.37079665 </v>
   <v>       0.46009370       0.33079399       0.37079665 </v>
   <v>       0.79342704       0.33079399       0.37079665 </v>
   <v>       0.12676037       0.66412732       0.37079665 </v>
   <v>       0.46009370       0.66412732       0.37079665 </v>
   <v>       0.79342704       0.66412732       0.37079665 </v>
   <v>       0.12676037       0.99746065       0.37079665 </v>
   <v>       0.46009370       0.99746065       0.37079665 </v>
   <v>       0.79342704       0.99746065       0.37079665 </v>
   <v>       0.06350899       0.26982435       0.00000000 </v>
   <v>       0.39684232       0.26982435       0.00000000 </v>
   <v>       0.73017565       0.26982435       0.00000000 </v>
   <v>       0.06350899       0.60315768       0.00000000 </v>
   <v>       0.39684232       0.60315768       0.00000000 </v>
   <v>       0.73017565       0.60315768       0.00000000 </v>
   <v>       0.06350899       0.93649101       0.00000000 </v>
   <v>       0.39684232       0.93649101       0.00000000 </v>
   <v>       0.73017565       0.93649101       0.00000000 </v>
   <v>       0.29027274       0.17214940       0.39257652 </v>
   <v>       0.62360607       0.17214940       0.39352170 </v>
   <v>       0.95693941       0.17214940       0.39352170 </v>
   <v>       0.29027274       0.50548273       0.39352170 </v>
   <v>       0.62360607       0.50548273       0.39352170 </v>
   <v>       0.95693941       0.50548273       0.39352170 </v>
   <v>       0.29027274       0.83881607       0.39352170 </v>
   <v>       0.62360607       0.83881607       0.39352170 </v>
   <v>       0.95693941       0.83881607       0.39352170 </v>
   <v>       0.16118393       0.04306059       0.60647830 </v>
   <v>       0.49451727       0.04306059       0.60647830 </v>
   <v>       0.82785060       0.04306059       0.60647830 </v>
   <v>       0.16118393       0.37639393       0.60647830 </v>
   <v>       0.49451727       0.37639393       0.60647830 </v>
   <v>       0.82785060       0.37639393       0.60647830 </v>
   <v>       0.16118393       0.70972726       0.60647830 </v>
   <v>       0.49451727       0.70972726       0.60647830 </v>
   <v>       0.82785060       0.70972726       0.60647830 </v>
   <v>       0.03761391       0.07731307       0.84542777 </v>
   <v>       0.37094724       0.07731307       0.84542777 </v>
   <v>       0.70428057       0.07731307       0.84542777 </v>
   <v>       0.03761391       0.41064640       0.84542777 </v>
   <v>       0.37094724       0.41064640       0.84542777 </v>
   <v>       0.70428057       0.41064640       0.84542777 </v>
   <v>       0.03761391       0.74397973       0.84542777 </v>
   <v>       0.37094724       0.74397973       0.84542777 </v>
   <v>       0.70428057       0.74397973       0.84542777 </v>
   <v>       0.25602027       0.29571943       0.15457223 </v>
   <v>       0.58935360       0.29571943       0.15457223 </v>
   <v>       0.92268693       0.29571943       0.15457223 </v>
   <v>       0.25602027       0.62905276       0.15457223 </v>
   <v>       0.58935360       0.62905276       0.15457223 </v>
   <v>       0.92268693       0.62905276       0.15457223 </v>
   <v>       0.25602027       0.96238609       0.15457223 </v>
   <v>       0.58935360       0.96238609       0.15457223 </v>
   <v>       0.92268693       0.96238609       0.15457223 </v>
  </varray>
 </structure>
 <calculation>
  <scstep>
   <time name="dav">  442.06  447.07</time>
   <time name="total">  445.76  450.83</time>
   <energy>
    <i name="alphaZ">   2606.24521607 </i>
    <i name="ewald"> -65005.90709136 </i>
    <i name="hartreedc"> -34083.64157854 </i>
    <i name="XCdc">   3632.84309775 </i>
    <i name="pawpsdc"> 104149.30743192 </i>
    <i name="pawaedc">-107360.85880398 </i>
    <i name="eentropy">     -0.01769841 </i>
    <i name="bandstr">    394.15033218 </i>
    <i name="atom"> 107373.91467324 </i>
    <i name="e_fr_energy">  11706.03557888 </i>
    <i name="e_wo_entrp">  11706.05327729 </i>
    <i name="e_0_energy">  11706.04442808 </i>
   </energy>
  </scstep>
  <scstep>
   <time name="dav">  433.09  437.84</time>
   <time name="total">  433.10  437.85</time>
   <energy>
    <i name="e_fr_energy">   1328.73283293 </i>
    <i name="e_wo_entrp">   1328.80005249 </i>
    <i name="e_0_energy">   1328.76644271 </i>
   </energy>
  </scstep>
  <scstep>
   <time name="dav">  457.17  461.81</time>
   <time name="total">  457.17  461.81</time>
   <energy>
    <i name="e_fr_energy">   -345.55561250 </i>
    <i name="e_wo_entrp">   -345.55561250 </i>
    <i name="e_0_energy">   -345.55561250 </i>
   </energy>
  </scstep>
  <scstep>
   <time name="dav">  490.61  495.83</time>
   <time name="total">  490.61  495.83</time>
   <energy>
    <i name="e_fr_energy">   -535.87317566 </i>
    <i name="e_wo_entrp">   -535.87317566 </i>
    <i name="e_0_energy">   -535.87317566 </i>
   </energy>
  </scstep>
  <scstep>
   <time name="dav">  643.28  649.83</time>
   <time name="total">  655.44  662.15</time>
   <energy>
    <i name="e_fr_energy">   -549.78911220 </i>
    <i name="e_wo_entrp">   -549.78911220 </i>
    <i name="e_0_energy">   -549.78911220 </i>
   </energy>
  </scstep>
  <scstep>
   <time name="dav">  573.99  579.62</time>
   <time name="total">  589.92  595.75</time>
   <energy>
    <i name="e_fr_energy">   -550.32202884 </i>
    <i name="e_wo_entrp">   -550.32202884 </i>
    <i name="e_0_energy">   -550.32202884 </i>
   </energy>
  </scstep>
  <scstep>
   <time name="dav">  602.20  608.91</time>
   <time name="total">  617.95  624.94</time>
   <energy>
    <i name="e_fr_energy">   -550.34077623 </i>
    <i name="e_wo_entrp">   -550.34077623 </i>
    <i name="e_0_energy">   -550.34077623 </i>
   </energy>
  </scstep>
  <scstep>
   <time name="dav">  577.74  583.80</time>
   <time name="total">  593.46  599.63</time>
   <energy>
    <i name="e_fr_energy">   -550.34029419 </i>
    <i name="e_wo_entrp">   -550.34029419 </i>
    <i name="e_0_energy">   -550.34029419 </i>
   </energy>
  </scstep>
  <scstep>
   <time name="dav">  641.00  647.52</time>
   <time name="total">  656.79  663.44</time>
   <energy>
    <i name="e_fr_energy">   -550.33966540 </i>
    <i name="e_wo_entrp">   -550.33966540 </i>
    <i name="e_0_energy">   -550.33966540 </i>
   </energy>
  </scstep>
  <scstep>
   <time name="dav">  631.44  638.36</time>
   <time name="total">  647.28  654.32</time>
   <energy>
    <i name="e_fr_energy">   -550.33856723 </i>
    <i name="e_wo_entrp">   -550.33856723 </i>
    <i name="e_0_energy">   -550.33856723 </i>
   </energy>
  </scstep>
  <scstep>
   <time name="dav">  509.29  513.96</time>
   <time name="total">  525.04  529.82</time>
   <energy>
    <i name="e_fr_energy">   -550.33864208 </i>
    <i name="e_wo_entrp">   -550.33864208 </i>
    <i name="e_0_energy">   -550.33864208 </i>
   </energy>
  </scstep>
  <scstep>
   <time name="dav">  554.19  559.72</time>
   <time name="total">  570.19  575.85</time>
   <energy>
    <i name="e_fr_energy">   -550.33863935 </i>
    <i name="e_wo_entrp">   -550.33863935 </i>
    <i name="e_0_energy">   -550.33863935 </i>
   </energy>
  </scstep>
  <scstep>
   <time name="dav">  485.74  491.01</time>
   <time name="total">  501.92  507.24</time>
   <energy>
    <i name="e_fr_energy">   -550.33862193 </i>
    <i name="e_wo_entrp">   -550.33862193 </i>
    <i name="e_0_energy">   -550.33862193 </i>
   </energy>
  </scstep>
  <scstep>
   <time name="dav">  449.58  454.28</time>
   <time name="total">  465.86  470.66</time>
   <energy>
    <i name="e_fr_energy">   -550.33862806 </i>
    <i name="e_wo_entrp">   -550.33862806 </i>
    <i name="e_0_energy">   -550.33862806 </i>
   </energy>
  </scstep>
  <scstep>
   <time name="dav">  429.19  433.54</time>
   <time name="total">  445.08  449.69</time>
   <energy>
    <i name="e_fr_energy">   -550.33862579 </i>
    <i name="e_wo_entrp">   -550.33862579 </i>
    <i name="e_0_energy">   -550.33862579 </i>
   </energy>
  </scstep>
  <scstep>
   <time name="dav">  323.68  327.51</time>
   <time name="total">  327.32  331.23</time>
   <energy>
    <i name="alphaZ">   2606.24521607 </i>
    <i name="ewald"> -65005.90709136 </i>
    <i name="hartreedc"> -34083.63442068 </i>
    <i name="XCdc">   3632.84582325 </i>
    <i name="pawpsdc"> 104149.56324812 </i>
    <i name="pawaedc">-107361.11881290 </i>
    <i name="eentropy">     -0.00000000 </i>
    <i name="bandstr"> -11862.24726147 </i>
    <i name="atom"> 107373.91467324 </i>
    <i name="e_fr_energy">   -550.33862573 </i>
    <i name="e_wo_entrp">   -550.33862573 </i>
    <i name="e_0_energy">   -550.33862573 </i>
   </energy>
  </scstep>
  <structure>
   <crystal>
    <varray name="basis" >
     <v>      11.77726974       0.00848871       0.06923316 </v>
     <v>      -0.03028248      11.77723386       0.06923316 </v>
     <v>      -2.02000231      -2.02666320      10.18574622 </v>
    </varray>
    <i name="volume">   1416.10551572 </i>
    <varray name="rec_basis" >
     <v>       0.08481023       0.00011906       0.01684296 </v>
     <v>      -0.00016014       0.08481016       0.01684296 </v>
     <v>      -0.00057537      -0.00057727       0.09794744 </v>
    </varray>
   </crystal>
   <varray name="positions" >
    <v>       0.20224939       0.24206952       0.83183419 </v>
    <v>       0.53558272       0.24206952       0.83183419 </v>
    <v>       0.86891606       0.24206952       0.83183419 </v>
    <v>       0.20224939       0.57540285       0.83183419 </v>
    <v>       0.53558272       0.57540285       0.83183419 </v>
    <v>       0.86891606       0.57540285       0.83183419 </v>
    <v>       0.20224939       0.90873619       0.83183419 </v>
    <v>       0.53558272       0.90873619       0.83183419 </v>
    <v>       0.86891606       0.90873619       0.83183419 </v>
    <v>       0.09126381       0.13108394       0.16816581 </v>
    <v>       0.42459715       0.13108394       0.16816581 </v>
    <v>       0.75793048       0.13108394       0.16816581 </v>
    <v>       0.09126381       0.46441728       0.16816581 </v>
    <v>       0.42459715       0.46441728       0.16816581 </v>
    <v>       0.75793048       0.46441728       0.16816581 </v>
    <v>       0.09126381       0.79775061       0.16816581 </v>
    <v>       0.42459715       0.79775061       0.16816581 </v>
    <v>       0.75793048       0.79775061       0.16816581 </v>
    <v>       0.26311007       0.13598816       0.19686089 </v>
    <v>       0.59644341       0.13598816       0.19686089 </v>
    <v>       0.92977674       0.13598816       0.19686089 </v>
    <v>       0.26311007       0.46932149       0.19686089 </v>
    <v>       0.59644341       0.46932149       0.19686089 </v>
    <v>       0.92977674       0.46932149       0.19686089 </v>
    <v>       0.26311007       0.80265483       0.19686089 </v>
    <v>       0.59644341       0.80265483       0.19686089 </v>
    <v>       0.92977674       0.80265483       0.19686089 </v>
    <v>       0.19734517       0.07022326       0.80313911 </v>
    <v>       0.53067851       0.07022326       0.80313911 </v>
    <v>       0.86401184       0.07022326       0.80313911 </v>
    <v>       0.19734517       0.40355659       0.80313911 </v>
    <v>       0.53067851       0.40355659       0.80313911 </v>
    <v>       0.86401184       0.40355659       0.80313911 </v>
    <v>       0.19734517       0.73688993       0.80313911 </v>
    <v>       0.53067851       0.73688993       0.80313911 </v>
    <v>       0.86401184       0.73688993       0.80313911 </v>
    <v>       0.00253935       0.20657296       0.62920335 </v>
    <v>       0.33587268       0.20657296       0.62920335 </v>
    <v>       0.66920601       0.20657296       0.62920335 </v>
    <v>       0.00253935       0.53990630       0.62920335 </v>
    <v>       0.33587268       0.53990630       0.62920335 </v>
    <v>       0.66920601       0.53990630       0.62920335 </v>
    <v>       0.00253935       0.87323963       0.62920335 </v>
    <v>       0.33587268       0.87323963       0.62920335 </v>
    <v>       0.66920601       0.87323963       0.62920335 </v>
    <v>       0.12676037       0.33079399       0.37079665 </v>
    <v>       0.46009370       0.33079399       0.37079665 </v>
    <v>       0.79342704       0.33079399       0.37079665 </v>
    <v>       0.12676037       0.66412732       0.37079665 </v>
    <v>       0.46009370       0.66412732       0.37079665 </v>
    <v>       0.79342704       0.66412732       0.37079665 </v>
    <v>       0.12676037       0.99746065       0.37079665 </v>
    <v>       0.46009370       0.99746065       0.37079665 </v>
    <v>       0.79342704       0.99746065       0.37079665 </v>
    <v>       0.06350899       0.26982435       0.00000000 </v>
    <v>       0.39684232       0.26982435       0.00000000 </v>
    <v>       0.73017565       0.26982435       0.00000000 </v>
    <v>       0.06350899       0.60315768       0.00000000 </v>
    <v>       0.39684232       0.60315768       0.00000000 </v>
    <v>       0.73017565       0.60315768       0.00000000 </v>
    <v>       0.06350899       0.93649101       0.00000000 </v>
    <v>       0.39684232       0.93649101       0.00000000 </v>
    <v>       0.73017565       0.93649101       0.00000000 </v>
    <v>       0.29027274       0.17214940       0.39257652 </v>
    <v>       0.62360607       0.17214940       0.39352170 </v>
    <v>       0.95693941       0.17214940       0.39352170 </v>
    <v>       0.29027274       0.50548273       0.39352170 </v>
    <v>       0.62360607       0.50548273       0.39352170 </v>
    <v>       0.95693941       0.50548273       0.39352170 </v>
    <v>       0.29027274       0.83881607       0.39352170 </v>
    <v>       0.62360607       0.83881607       0.39352170 </v>
    <v>       0.95693941       0.83881607       0.39352170 </v>
    <v>       0.16118393       0.04306059       0.60647830 </v>
    <v>       0.49451727       0.04306059       0.60647830 </v>
    <v>       0.82785060       0.04306059       0.60647830 </v>
    <v>       0.16118393       0.37639393       0.60647830 </v>
    <v>       0.49451727       0.37639393       0.60647830 </v>
    <v>       0.82785060       0.37639393       0.60647830 </v>
    <v>       0.16118393       0.70972726       0.60647830 </v>
    <v>       0.49451727       0.70972726       0.60647830 </v>
    <v>       0.82785060       0.70972726       0.60647830 </v>
    <v>       0.03761391       0.07731307       0.84542777 </v>
    <v>       0.37094724       0.07731307       0.84542777 </v>
    <v>       0.70428057       0.07731307       0.84542777 </v>
    <v>       0.03761391       0.41064640       0.84542777 </v>
    <v>       0.37094724       0.41064640       0.84542777 </v>
    <v>       0.70428057       0.41064640       0.84542777 </v>
    <v>       0.03761391       0.74397973       0.84542777 </v>
    <v>       0.37094724       0.74397973       0.84542777 </v>
    <v>       0.70428057       0.74397973       0.84542777 </v>
    <v>       0.25602027       0.29571943       0.15457223 </v>
    <v>       0.58935360       0.29571943       0.15457223 </v>
    <v>       0.92268693       0.29571943       0.15457223 </v>
    <v>       0.25602027       0.62905276       0.15457223 </v>
    <v>       0.58935360       0.62905276       0.15457223 </v>
    <v>       0.92268693       0.62905276       0.15457223 </v>
    <v>       0.25602027       0.96238609       0.15457223 </v>
    <v>       0.58935360       0.96238609       0.15457223 </v>
    <v>       0.92268693       0.96238609       0.15457223 </v>
   </varray>
  </structure>
  <varray name="forces" >
   <v>       0.00171065       0.00063756      -0.00205878 </v>
   <v>      -0.00145052       0.00048444      -0.00197598 </v>
   <v>      -0.00035216       0.00051631      -0.00037590 </v>
   <v>       0.00016478      -0.00095261      -0.00015118 </v>
   <v>       0.00000822      -0.00095644      -0.00011694 </v>
   <v>      -0.00012530      -0.00069426      -0.00000723 </v>
   <v>       0.00016347       0.00065866      -0.00051690 </v>
   <v>       0.00022400       0.00080195      -0.00029533 </v>
   <v>      -0.00034359       0.00050372      -0.00020450 </v>
   <v>      -0.00689303      -0.00031666      -0.00231936 </v>
   <v>       0.00734800      -0.00008532      -0.00349354 </v>
   <v>      -0.00044873       0.00005308      -0.00013095 </v>
   <v>      -0.00082868       0.00013014       0.00030033 </v>
   <v>       0.00096087       0.00022466      -0.00018856 </v>
   <v>      -0.00044531      -0.00002255      -0.00012416 </v>
   <v>      -0.00087463       0.00001399       0.00057511 </v>
   <v>       0.00096035      -0.00024953       0.00017585 </v>
   <v>      -0.00040201      -0.00006732      -0.00007846 </v>
   <v>       0.00327523       0.00027580      -0.06053935 </v>
   <v>      -0.00098491       0.00022497       0.00004180 </v>
   <v>       0.00020646       0.00036382      -0.00045410 </v>
   <v>      -0.00002049      -0.00265521      -0.00032995 </v>
   <v>      -0.00032883      -0.00026739       0.00038187 </v>
   <v>      -0.00048700       0.00004173      -0.00024998 </v>
   <v>       0.00004748       0.00193356      -0.00075629 </v>
   <v>      -0.00006163      -0.00015557      -0.00012018 </v>
   <v>      -0.00083137      -0.00062172      -0.00067869 </v>
   <v>      -0.00230418      -0.00132813       0.00247093 </v>
   <v>       0.00220293      -0.00146909       0.00188173 </v>
   <v>       0.00038393       0.00022871       0.00054363 </v>
   <v>      -0.00230371       0.00167404       0.00162878 </v>
   <v>       0.00224964       0.00188014       0.00151533 </v>
   <v>       0.00032827       0.00023759       0.00043223 </v>
   <v>      -0.00022271       0.00032161       0.00049968 </v>
   <v>       0.00004995       0.00031675       0.00042509 </v>
   <v>       0.00027759       0.00028622       0.00028961 </v>
   <v>      -0.00109366       0.00029733      -0.00006242 </v>
   <v>      -0.00041566       0.00135245      -0.03759805 </v>
   <v>       0.00088619       0.00032021      -0.00064747 </v>
   <v>      -0.00004094       0.00014702      -0.00038853 </v>
   <v>       0.00013432       0.00097612      -0.00071412 </v>
   <v>      -0.00012074       0.00000318      -0.00077586 </v>
   <v>      -0.00026199      -0.00025532       0.00015480 </v>
   <v>       0.00012505      -0.00111341      -0.00016280 </v>
   <v>       0.00009303      -0.00008525      -0.00038293 </v>
   <v>      -0.00006643       0.00076624      -0.00480020 </v>
   <v>      -0.00034807      -0.00072424      -0.00431874 </v>
   <v>      -0.00022099       0.00022328      -0.00019735 </v>
   <v>       0.00018088      -0.00024907      -0.00033750 </v>
   <v>       0.00006244      -0.00025444      -0.00032749 </v>
   <v>      -0.00016107      -0.00017767      -0.00001882 </v>
   <v>      -0.00044334      -0.00022472      -0.00442632 </v>
   <v>       0.00021115       0.00065034      -0.00413802 </v>
   <v>      -0.00023939       0.00007130      -0.00016444 </v>
   <v>       0.00112388      -0.00103966       0.00183281 </v>
   <v>      -0.00129562      -0.00104500       0.00364469 </v>
   <v>       0.00018897      -0.00003503       0.00037580 </v>
   <v>       0.00006605       0.00006863       0.00020549 </v>
   <v>      -0.00012838       0.00028598       0.00056566 </v>
   <v>       0.00008625       0.00008152       0.00006654 </v>
   <v>       0.00119294       0.00095191       0.00139426 </v>
   <v>      -0.00122502       0.00070236       0.00186361 </v>
   <v>       0.00008001      -0.00008791       0.00010235 </v>
   <v>      -0.00414357      -0.00487652       0.13130253 </v>
   <v>       0.00110264      -0.00070229       0.00091429 </v>
   <v>       0.00037931      -0.00069294       0.00075488 </v>
   <v>      -0.00046114       0.00091523       0.00134468 </v>
   <v>       0.00131020       0.00120421      -0.00029361 </v>
   <v>      -0.00028073       0.00038383      -0.00044858 </v>
   <v>      -0.00048458       0.00048822       0.00123061 </v>
   <v>       0.00061434      -0.00009649      -0.00033944 </v>
   <v>       0.00055084       0.00065864      -0.00057495 </v>
   <v>       0.00501227       0.00505141      -0.00107835 </v>
   <v>      -0.00497111       0.00461227       0.00103298 </v>
   <v>       0.00008273       0.00034465       0.00005569 </v>
   <v>       0.00399323      -0.00478090       0.00090834 </v>
   <v>      -0.00413734      -0.00455254       0.00263956 </v>
   <v>       0.00010869      -0.00085801       0.00024591 </v>
   <v>       0.00029047      -0.00010687       0.00003554 </v>
   <v>      -0.00056780      -0.00010891       0.00028737 </v>
   <v>       0.00013697      -0.00007770      -0.00008585 </v>
   <v>       0.00085800      -0.00006379      -0.00134905 </v>
   <v>       0.00048204       0.00285133      -0.00391033 </v>
   <v>      -0.00083209      -0.00002848      -0.00027990 </v>
   <v>       0.00108161       0.00035507      -0.00088687 </v>
   <v>       0.00017850      -0.00260841      -0.00356938 </v>
   <v>      -0.00072838      -0.00011151      -0.00016009 </v>
   <v>       0.00032809      -0.00047491      -0.00059773 </v>
   <v>       0.00006852      -0.00048838      -0.00077562 </v>
   <v>       0.00005566      -0.00003959       0.00012807 </v>
   <v>       0.00008243       0.01725118      -0.00863172 </v>
   <v>       0.00040987       0.00004548      -0.00044834 </v>
   <v>      -0.00021659       0.00010758       0.00031504 </v>
   <v>       0.00013858       0.00018513      -0.00042419 </v>
   <v>       0.00010543       0.00009634      -0.00024343 </v>
   <v>      -0.00005797       0.00015827      -0.00003848 </v>
   <v>      -0.00019847      -0.01628206      -0.00520806 </v>
   <v>       0.00028290      -0.00060539       0.00038548 </v>
   <v>       0.00020359      -0.00072697       0.00102238 </v>
  </varray>
  <varray name="stress" >
   <v>      -0.16457419      -0.00294454      -0.01427609 </v>
   <v>      -0.00247197      -0.10699063      -0.00212104 </v>
   <v>      -0.00464829       0.00780705      -0.08060976 </v>
  </varray>
  <energy>
   <i name="e_fr_energy">   -550.33862573 </i>
   <i name="e_wo_entrp">   -550.33862573 </i>
   <i name="e_0_energy">     -0.00000000 </i>
  </energy>
  <time name="totalsc"> 9173.57 9267.74</time>
  <eigenvalues>
   <array>
    <dimension dim="1">band</dimension>
    <dimension dim="2">kpoint</dimension>
    <dimension dim="3">spin</dimension>
    <field>eigene</field>
    <field>occ</field>
    <set>
     <set comment="spin 1">
      <set comment="kpoint 1">
       <r>  -51.0505    1.0000 </r>
       <r>  -51.0503    1.0000 </r>
       <r>  -51.0502    1.0000 </r>
       <r>  -51.0500    1.0000 </r>
       <r>  -51.0499    1.0000 </r>
       <r>  -51.0497    1.0000 </r>
       <r>  -51.0495    1.0000 </r>
       <r>  -51.0494    1.0000 </r>
       <r>  -51.0492    1.0000 </r>
       <r>  -51.0490    1.0000 </r>
       <r>  -51.0487    1.0000 </r>
       <r>  -51.0481    1.0000 </r>
       <r>  -51.0479    1.0000 </r>
       <r>  -51.0473    1.0000 </r>
       <r>  -51.0469    1.0000 </r>
       <r>  -51.0464    1.0000 </r>
       <r>  -51.0459    1.0000 </r>
       <r>  -51.0451    1.0000 </r>
       <r>  -51.0420    1.0000 </r>
       <r>  -51.0384    1.0000 </r>
       <r>  -51.0373    1.0000 </r>
       <r>  -51.0373    1.0000 </r>
       <r>  -51.0371    1.0000 </r>
       <r>  -51.0368    1.0000 </r>
       <r>  -51.0366    1.0000 </r>
       <r>  -51.0365    1.0000 </r>
       <r>  -51.0362    1.0000 </r>
       <r>  -51.0361    1.0000 </r>
       <r>  -51.0361    1.0000 </r>
       <r>  -51.0360    1.0000 </r>
       <r>  -51.0359    1.0000 </r>
       <r>  -51.0358    1.0000 </r>
       <r>  -51.0355    1.0000 </r>
       <r>  -51.0355    1.0000 </r>
       <r>  -51.0347    1.0000 </r>
       <r>  -51.0346    1.0000 </r>
       <r>  -49.6954    1.0000 </r>
       <r>  -49.6945    1.0000 </r>
       <r>  -49.6899    1.0000 </r>
       <r>  -49.6897    1.0000 </r>
       <r>  -49.6897    1.0000 </r>
       <r>  -49.6895    1.0000 </r>
       <r>  -49.6894    1.0000 </r>
       <r>  -49.6894    1.0000 </r>
       <r>  -49.6893    1.0000 </r>
       <r>  -49.6892    1.0000 </r>
       <r>  -49.6892    1.0000 </r>
       <r>  -49.6889    1.0000 </r>
       <r>  -49.6889    1.0000 </r>
       <r>  -49.6888    1.0000 </r>
       <r>  -49.6887    1.0000 </r>
       <r>  -49.6883    1.0000 </r>
       <r>  -49.6876    1.0000 </r>
       <r>  -49.6871    1.0000 </r>
       <r>  -49.5910    1.0000 </r>
       <r>  -49.5907    1.0000 </r>
       <r>  -49.5907    1.0000 </r>
       <r>  -49.5903    1.0000 </r>
       <r>  -49.5898    1.0000 </r>
       <r>  -49.5898    1.0000 </r>
       <r>  -49.5895    1.0000 </r>
       <r>  -49.5893    1.0000 </r>
       <r>  -49.5889    1.0000 </r>
       <r>  -49.5889    1.0000 </r>
       <r>  -49.5888    1.0000 </r>
       <r>  -49.5886    1.0000 </r>
       <r>  -49.5886    1.0000 </r>
       <r>  -49.5883    1.0000 </r>
       <r>  -49.5882    1.0000 </r>
       <r>  -49.5879    1.0000 </r>
       <r>  -49.5877    1.0000 </r>
       <r>  -49.5852    1.0000 </r>
       <r>  -49.5619    1.0000 </r>
       <r>  -49.5617    1.0000 </r>
       <r>  -49.5616    1.0000 </r>
       <r>  -49.5614    1.0000 </r>
       <r>  -49.5611    1.0000 </r>
       <r>  -49.5608    1.0000 </r>
       <r>  -49.5596    1.0000 </r>
       <r>  -49.5593    1.0000 </r>
       <r>  -49.5592    1.0000 </r>
       <r>  -49.5589    1.0000 </r>
       <r>  -49.5589    1.0000 </r>
       <r>  -49.5586    1.0000 </r>
       <r>  -49.5581    1.0000 </r>
       <r>  -49.5575    1.0000 </r>
       <r>  -49.5572    1.0000 </r>
       <r>  -49.5570    1.0000 </r>
       <r>  -49.5563    1.0000 </r>
       <r>  -49.5556    1.0000 </r>
       <r>  -49.5522    1.0000 </r>
       <r>  -49.5499    1.0000 </r>
       <r>  -49.5487    1.0000 </r>
       <r>  -49.5486    1.0000 </r>
       <r>  -49.5485    1.0000 </r>
       <r>  -49.5481    1.0000 </r>
       <r>  -49.5479    1.0000 </r>
       <r>  -49.5478    1.0000 </r>
       <r>  -49.5473    1.0000 </r>
       <r>  -49.5471    1.0000 </r>
       <r>  -49.5471    1.0000 </r>
       <r>  -49.5470    1.0000 </r>
       <r>  -49.5469    1.0000 </r>
       <r>  -49.5468    1.0000 </r>
       <r>  -49.5465    1.0000 </r>
       <r>  -49.5465    1.0000 </r>
       <r>  -49.5456    1.0000 </r>
       <r>  -49.5455    1.0000 </r>
       <r>  -39.8687    1.0000 </r>
       <r>  -39.8681    1.0000 </r>
       <r>  -39.8632    1.0000 </r>
       <r>  -39.8630    1.0000 </r>
       <r>  -39.8628    1.0000 </r>
       <r>  -39.8625    1.0000 </r>
       <r>  -39.8625    1.0000 </r>
       <r>  -39.8624    1.0000 </r>
       <r>  -39.8623    1.0000 </r>
       <r>  -39.8622    1.0000 </r>
       <r>  -39.8621    1.0000 </r>
       <r>  -39.8621    1.0000 </r>
       <r>  -39.8620    1.0000 </r>
       <r>  -39.8617    1.0000 </r>
       <r>  -39.8617    1.0000 </r>
       <r>  -39.8616    1.0000 </r>
       <r>  -39.8606    1.0000 </r>
       <r>  -39.8602    1.0000 </r>
       <r>  -13.2440    1.0000 </r>
       <r>  -13.2349    1.0000 </r>
       <r>  -13.2346    1.0000 </r>
       <r>  -13.2338    1.0000 </r>
       <r>  -13.2267    1.0000 </r>
       <r>  -13.1999    1.0000 </r>
       <r>  -13.0657    1.0000 </r>
       <r>  -13.0554    1.0000 </r>
       <r>  -13.0546    1.0000 </r>
       <r>  -13.0541    1.0000 </r>
       <r>  -13.0453    1.0000 </r>
       <r>  -13.0420    1.0000 </r>
       <r>  -13.0413    1.0000 </r>
       <r>  -13.0411    1.0000 </r>
       <r>  -13.0230    1.0000 </r>
       <r>  -13.0189    1.0000 </r>
       <r>  -13.0182    1.0000 </r>
       <r>  -13.0176    1.0000 </r>
       <r>   -7.6142    1.0000 </r>
       <r>   -7.4116    1.0000 </r>
       <r>   -7.3757    1.0000 </r>
       <r>   -7.3755    1.0000 </r>
       <r>   -7.3750    1.0000 </r>
       <r>   -7.3744    1.0000 </r>
       <r>   -7.1816    1.0000 </r>
       <r>   -7.1814    1.0000 </r>
       <r>   -7.1722    1.0000 </r>
       <r>   -7.1717    1.0000 </r>
       <r>   -7.1517    1.0000 </r>
       <r>   -7.1514    1.0000 </r>
       <r>   -7.1510    1.0000 </r>
       <r>   -7.1482    1.0000 </r>
       <r>   -6.9838    1.0000 </r>
       <r>   -6.9648    1.0000 </r>
       <r>   -6.9635    1.0000 </r>
       <r>   -6.9303    1.0000 </r>
       <r>   -6.9289    1.0000 </r>
       <r>   -6.8716    1.0000 </r>
       <r>   -6.8715    1.0000 </r>
       <r>   -6.8710    1.0000 </r>
       <r>   -6.8676    1.0000 </r>
       <r>   -6.8071    1.0000 </r>
       <r>   -6.8054    1.0000 </r>
       <r>   -6.7803    1.0000 </r>
       <r>   -6.7785    1.0000 </r>
       <r>   -1.8416    1.0000 </r>
       <r>   -1.8381    1.0000 </r>
       <r>   -1.8363    1.0000 </r>
       <r>   -1.8359    1.0000 </r>
       <r>   -1.8179    1.0000 </r>
       <r>   -1.8167    1.0000 </r>
       <r>   -1.8050    1.0000 </r>
       <r>   -1.8040    1.0000 </r>
       <r>   -1.7679    1.0000 </r>
       <r>   -1.7667    1.0000 </r>
       <r>   -1.7548    1.0000 </r>
       <r>   -1.7539    1.0000 </r>
       <r>   -1.2812    1.0000 </r>
       <r>   -1.1997    1.0000 </r>
       <r>   -1.1972    1.0000 </r>
       <r>   -1.1971    1.0000 </r>
       <r>   -1.1969    1.0000 </r>
       <r>   -1.0060    1.0000 </r>
       <r>   -1.0048    1.0000 </r>
       <r>   -0.9754    1.0000 </r>
       <r>   -0.9739    1.0000 </r>
       <r>   -0.9598    1.0000 </r>
       <r>   -0.9589    1.0000 </r>
       <r>   -0.9483    1.0000 </r>
       <r>   -0.9396    1.0000 </r>
       <r>   -0.9321    1.0000 </r>
       <r>   -0.9296    1.0000 </r>
       <r>   -0.9281    1.0000 </r>
       <r>   -0.8894    1.0000 </r>
       <r>   -0.8846    1.0000 </r>
       <r>   -0.8840    1.0000 </r>
       <r>   -0.8834    1.0000 </r>
       <r>   -0.8724    1.0000 </r>
       <r>   -0.8718    1.0000 </r>
       <r>   -0.8690    1.0000 </r>
       <r>   -0.8676    1.0000 </r>
       <r>   -0.8673    1.0000 </r>
       <r>   -0.8670    1.0000 </r>
       <r>   -0.8599    1.0000 </r>
       <r>   -0.8598    1.0000 </r>
       <r>   -0.7041    1.0000 </r>
       <r>   -0.7006    1.0000 </r>
       <r>   -0.7000    1.0000 </r>
       <r>   -0.6993    1.0000 </r>
       <r>   -0.6723    1.0000 </r>
       <r>   -0.6718    1.0000 </r>
       <r>   -0.6239    1.0000 </r>
       <r>   -0.6236    1.0000 </r>
       <r>   -0.6225    1.0000 </r>
       <r>   -0.6223    1.0000 </r>
       <r>   -0.6221    1.0000 </r>
       <r>   -0.6216    1.0000 </r>
       <r>   -0.3527    1.0000 </r>
       <r>   -0.3525    1.0000 </r>
       <r>   -0.3523    1.0000 </r>
       <r>   -0.3520    1.0000 </r>
       <r>   -0.3218    1.0000 </r>
       <r>   -0.3214    1.0000 </r>
       <r>   -0.2916    1.0000 </r>
       <r>   -0.2909    1.0000 </r>
       <r>   -0.2643    1.0000 </r>
       <r>   -0.2639    1.0000 </r>
       <r>   -0.2637    1.0000 </r>
       <r>   -0.2633    1.0000 </r>
       <r>   -0.2604    1.0000 </r>
       <r>   -0.2597    1.0000 </r>
       <r>   -0.2583    1.0000 </r>
       <r>   -0.2485    1.0000 </r>
       <r>   -0.2474    1.0000 </r>
       <r>   -0.2430    1.0000 </r>
       <r>   -0.2209    1.0000 </r>
       <r>   -0.1404    1.0000 </r>
       <r>   -0.1401    1.0000 </r>
       <r>   -0.1400    1.0000 </r>
       <r>   -0.1394    1.0000 </r>
       <r>   -0.1393    1.0000 </r>
       <r>   -0.1389    1.0000 </r>
       <r>   -0.1241    1.0000 </r>
       <r>   -0.1231    1.0000 </r>
       <r>   -0.1228    1.0000 </r>
       <r>   -0.1227    1.0000 </r>
       <r>   -0.1199    1.0000 </r>
       <r>   -0.1197    1.0000 </r>
       <r>   -0.0775    1.0000 </r>
       <r>   -0.0771    1.0000 </r>
       <r>   -0.0590    1.0000 </r>
       <r>   -0.0117    1.0000 </r>
       <r>   -0.0112    1.0000 </r>
       <r>    0.0156    1.0000 </r>
       <r>    0.0160    1.0000 </r>
       <r>    0.0262    1.0000 </r>
       <r>    0.0264    1.0000 </r>
       <r>    0.0431    1.0000 </r>
       <r>    0.0434    1.0000 </r>
       <r>    0.0438    1.0000 </r>
       <r>    0.0438    1.0000 </r>
       <r>    0.0607    1.0000 </r>
       <r>    0.0614    1.0000 </r>
       <r>    0.1501    1.0000 </r>
       <r>    0.1503    1.0000 </r>
       <r>    0.1507    1.0000 </r>
       <r>    0.1511    1.0000 </r>
       <r>    0.1579    1.0000 </r>
       <r>    0.1635    1.0000 </r>
       <r>    0.1654    1.0000 </r>
       <r>    0.1822    1.0000 </r>
       <r>    0.1823    1.0000 </r>
       <r>    0.1919    1.0000 </r>
       <r>    0.1967    1.0000 </r>
       <r>    0.1974    1.0000 </r>
       <r>    0.2081    1.0000 </r>
       <r>    0.2084    1.0000 </r>
       <r>    0.2578    1.0000 </r>
       <r>    0.2581    1.0000 </r>
       <r>    0.2585    1.0000 </r>
       <r>    0.2587    1.0000 </r>
       <r>    0.2784    1.0000 </r>
       <r>    0.2790    1.0000 </r>
       <r>    0.3391    1.0000 </r>
       <r>    0.3393    1.0000 </r>
       <r>    0.3597    1.0000 </r>
       <r>    0.3600    1.0000 </r>
       <r>    0.3602    1.0000 </r>
       <r>    0.3606    1.0000 </r>
       <r>    0.3808    1.0000 </r>
       <r>    0.3839    1.0000 </r>
       <r>    0.4893    1.0000 </r>
       <r>    0.4896    1.0000 </r>
       <r>    0.4897    1.0000 </r>
       <r>    0.4901    1.0000 </r>
       <r>    0.5170    1.0000 </r>
       <r>    0.5172    1.0000 </r>
       <r>    0.5173    1.0000 </r>
       <r>    0.5175    1.0000 </r>
       <r>    0.5585    1.0000 </r>
       <r>    0.5590    1.0000 </r>
       <r>    0.6085    1.0000 </r>
       <r>    0.6087    1.0000 </r>
       <r>    0.6156    1.0000 </r>
       <r>    0.6311    1.0000 </r>
       <r>    0.6311    1.0000 </r>
       <r>    0.6314    1.0000 </r>
       <r>    0.6316    1.0000 </r>
       <r>    0.7526    1.0000 </r>
       <r>    0.7527    1.0000 </r>
       <r>    0.7617    1.0000 </r>
       <r>    0.7618    1.0000 </r>
       <r>    0.7623    1.0000 </r>
       <r>    0.7629    1.0000 </r>
       <r>    0.7909    1.0000 </r>
       <r>    0.7909    1.0000 </r>
       <r>    0.7936    1.0000 </r>
       <r>    0.8458    1.0000 </r>
       <r>    0.8460    1.0000 </r>
       <r>    0.8550    1.0000 </r>
       <r>    0.8553    1.0000 </r>
       <r>    0.9680    1.0000 </r>
       <r>    0.9693    1.0000 </r>
       <r>    0.9695    1.0000 </r>
       <r>    0.9697    1.0000 </r>
       <r>    0.9797    1.0000 </r>
       <r>    1.2393    1.0000 </r>
       <r>    1.2400    1.0000 </r>
       <r>    1.2402    1.0000 </r>
       <r>    1.2404    1.0000 </r>
       <r>    1.2641    1.0000 </r>
       <r>    1.2926    1.0000 </r>
       <r>    1.2928    1.0000 </r>
       <r>    1.3306    1.0000 </r>
       <r>    1.3308    1.0000 </r>
       <r>    1.3586    1.0000 </r>
       <r>    1.3589    1.0000 </r>
       <r>    1.3591    1.0000 </r>
       <r>    1.3593    1.0000 </r>
       <r>    1.4370    1.0000 </r>
       <r>    1.4372    1.0000 </r>
       <r>    1.4643    1.0000 </r>
       <r>    1.4756    1.0000 </r>
       <r>    1.4878    1.0000 </r>
       <r>    1.4880    1.0000 </r>
       <r>    1.5480    1.0000 </r>
       <r>    1.6791    1.0000 </r>
       <r>    1.6799    1.0000 </r>
       <r>    1.6801    1.0000 </r>
       <r>    1.7231    1.0000 </r>
       <r>    1.7235    1.0000 </r>
       <r>    1.7242    1.0000 </r>
       <r>    1.7244    1.0000 </r>
       <r>    1.7653    1.0000 </r>
       <r>    1.7656    1.0000 </r>
       <r>    1.8144    1.0000 </r>
       <r>    1.8147    1.0000 </r>
       <r>    1.8150    1.0000 </r>
       <r>    1.8152    1.0000 </r>
       <r>    1.8270    1.0000 </r>
       <r>    1.8273    1.0000 </r>
       <r>    1.8279    1.0000 </r>
       <r>    1.8281    1.0000 </r>
       <r>    1.8398    1.0000 </r>
       <r>    1.8756    1.0000 </r>
       <r>    1.8864    1.0000 </r>
       <r>    1.9028    1.0000 </r>
       <r>    1.9030    1.0000 </r>
       <r>    1.9174    1.0000 </r>
       <r>    1.9177    1.0000 </r>
       <r>    1.9634    1.0000 </r>
       <r>    1.9635    1.0000 </r>
       <r>    1.9899    1.0000 </r>
       <r>    1.9900    1.0000 </r>
       <r>    1.9989    1.0000 </r>
       <r>    1.9991    1.0000 </r>
       <r>    1.9996    1.0000 </r>
       <r>    1.9998    1.0000 </r>
       <r>    2.0715    1.0000 </r>
       <r>    2.0719    1.0000 </r>
       <r>    2.0792    1.0000 </r>
       <r>    2.0815    1.0000 </r>
       <r>    2.0818    1.0000 </r>
       <r>    2.0823    1.0000 </r>
       <r>    2.0947    1.0000 </r>
       <r>    2.0954    1.0000 </r>
       <r>    2.1160    1.0000 </r>
       <r>    2.1168    1.0000 </r>
       <r>    2.1169    1.0000 </r>
       <r>    2.1173    1.0000 </r>
       <r>    2.1956    1.0000 </r>
       <r>    2.1959    1.0000 </r>
       <r>    2.2882    1.0000 </r>
       <r>    2.2885    1.0000 </r>
       <r>    2.4164    1.0000 </r>
       <r>    2.4166    1.0000 </r>
       <r>    2.4388    1.0000 </r>
       <r>    2.4406    1.0000 </r>
       <r>    2.4412    1.0000 </r>
       <r>    2.4415    1.0000 </r>
       <r>    2.4996    1.0000 </r>
       <r>    2.5158    1.0000 </r>
       <r>    2.5162    1.0000 </r>
       <r>    2.5167    1.0000 </r>
       <r>    2.5172    1.0000 </r>
       <r>    2.5593    1.0000 </r>
       <r>    2.5596    1.0000 </r>
       <r>    2.5655    1.0000 </r>
       <r>    2.7181    1.0000 </r>
       <r>    2.7185    1.0000 </r>
       <r>    2.7190    1.0000 </r>
       <r>    2.7193    1.0000 </r>
       <r>    2.7331    1.0000 </r>
       <r>    2.7333    1.0000 </r>
       <r>    2.7997    1.0000 </r>
       <r>    2.8006    1.0000 </r>
       <r>    3.0024    1.0000 </r>
       <r>    3.0028    1.0000 </r>
       <r>    3.0066    1.0000 </r>
       <r>    3.0068    1.0000 </r>
       <r>    3.1698    1.0000 </r>
       <r>    3.2185    1.0000 </r>
       <r>    3.2194    1.0000 </r>
       <r>    3.2215    1.0000 </r>
       <r>    3.2223    1.0000 </r>
       <r>    3.3592    1.0000 </r>
       <r>    3.3597    1.0000 </r>
       <r>    3.3599    1.0000 </r>
       <r>    3.3601    1.0000 </r>
       <r>    3.3937    1.0000 </r>
       <r>    3.4025    1.0000 </r>
       <r>    3.5016    1.0000 </r>
       <r>    3.5020    1.0000 </r>
       <r>    3.5873    1.0000 </r>
       <r>    3.5874    1.0000 </r>
       <r>    3.8160    1.0000 </r>
       <r>    3.8161    1.0000 </r>
       <r>    3.8302    1.0000 </r>
       <r>    3.8303    1.0000 </r>
       <r>    4.0026    1.0000 </r>
       <r>    4.0028    1.0000 </r>
       <r>    4.0031    1.0000 </r>
       <r>    4.0033    1.0000 </r>
       <r>    4.0312    1.0000 </r>
       <r>    4.0314    1.0000 </r>
       <r>    4.0316    1.0000 </r>
       <r>    4.0321    1.0000 </r>
       <r>    4.1061    1.0000 </r>
       <r>    4.1168    1.0000 </r>
       <r>    4.1220    1.0000 </r>
       <r>    4.1600    1.0000 </r>
       <r>    4.1601    1.0000 </r>
       <r>    4.2589    1.0000 </r>
       <r>    4.2594    1.0000 </r>
       <r>    4.2765    1.0000 </r>
       <r>    4.2770    1.0000 </r>
       <r>    4.3303    1.0000 </r>
       <r>    4.3311    1.0000 </r>
       <r>    4.3585    1.0000 </r>
       <r>    4.3588    1.0000 </r>
       <r>    4.3592    1.0000 </r>
       <r>    4.3605    1.0000 </r>
       <r>    4.4114    1.0000 </r>
       <r>    4.4121    1.0000 </r>
       <r>    4.4333    1.0000 </r>
       <r>    4.4340    1.0000 </r>
       <r>    4.5234    1.0000 </r>
       <r>    4.5238    1.0000 </r>
       <r>    4.5240    1.0000 </r>
       <r>    4.5249    1.0000 </r>
       <r>    4.5512    1.0000 </r>
       <r>    4.5515    1.0000 </r>
       <r>    4.8118    1.0000 </r>
       <r>    4.8122    1.0000 </r>
       <r>    4.8125    1.0000 </r>
       <r>    4.8131    1.0000 </r>
       <r>    4.8747    1.0000 </r>
       <r>    4.8751    1.0000 </r>
       <r>    4.8753    1.0000 </r>
       <r>    4.8759    1.0000 </r>
       <r>    7.3645    0.0000 </r>
       <r>    8.4306    0.0000 </r>
       <r>    8.6653    0.0000 </r>
       <r>    8.6654    0.0000 </r>
       <r>    8.8409    0.0000 </r>
       <r>    8.8420    0.0000 </r>
       <r>    8.8423    0.0000 </r>
       <r>    8.8428    0.0000 </r>
       <r>    8.9865    0.0000 </r>
       <r>    8.9868    0.0000 </r>
       <r>    9.3107    0.0000 </r>
       <r>    9.3109    0.0000 </r>
       <r>    9.3117    0.0000 </r>
       <r>    9.3124    0.0000 </r>
       <r>    9.3215    0.0000 </r>
       <r>    9.3220    0.0000 </r>
       <r>    9.4449    0.0000 </r>
       <r>    9.4453    0.0000 </r>
       <r>    9.5153    0.0000 </r>
       <r>    9.5158    0.0000 </r>
       <r>    9.5159    0.0000 </r>
       <r>    9.5161    0.0000 </r>
       <r>    9.8727    0.0000 </r>
       <r>    9.8783    0.0000 </r>
       <r>    9.9184    0.0000 </r>
       <r>    9.9185    0.0000 </r>
       <r>    9.9188    0.0000 </r>
       <r>    9.9191    0.0000 </r>
       <r>    9.9666    0.0000 </r>
       <r>    9.9673    0.0000 </r>
       <r>   10.0692    0.0000 </r>
       <r>   10.0703    0.0000 </r>
       <r>   10.4893    0.0000 </r>
       <r>   10.5019    0.0000 </r>
       <r>   10.5023    0.0000 </r>
       <r>   10.5192    0.0000 </r>
       <r>   10.5196    0.0000 </r>
       <r>   10.8009    0.0000 </r>
       <r>   10.8013    0.0000 </r>
       <r>   10.8016    0.0000 </r>
       <r>   10.8020    0.0000 </r>
       <r>   10.8757    0.0000 </r>
       <r>   10.8758    0.0000 </r>
       <r>   11.0182    0.0000 </r>
       <r>   11.0187    0.0000 </r>
       <r>   11.0512    0.0000 </r>
       <r>   11.2662    0.0000 </r>
       <r>   11.2668    0.0000 </r>
       <r>   11.3732    0.0000 </r>
       <r>   11.3733    0.0000 </r>
       <r>   11.3737    0.0000 </r>
       <r>   11.3743    0.0000 </r>
       <r>   11.3875    0.0000 </r>
       <r>   11.3883    0.0000 </r>
       <r>   11.3941    0.0000 </r>
       <r>   11.3946    0.0000 </r>
       <r>   11.3947    0.0000 </r>
       <r>   11.3952    0.0000 </r>
       <r>   11.4487    0.0000 </r>
       <r>   11.6174    0.0000 </r>
       <r>   11.6182    0.0000 </r>
       <r>   11.8015    0.0000 </r>
       <r>   11.8020    0.0000 </r>
[...]
       <r>   -45.9053    68.4649    52.4826 </r>
       <r>   -45.6644   230.4915   108.0000 </r>
       <r>   -45.4235     0.0000   108.0000 </r>
       <r>   -45.1827     0.0000   108.0000 </r>
       <r>   -44.9418     0.0000   108.0000 </r>
       <r>   -44.7009     0.0000   108.0000 </r>
       <r>   -44.4601     0.0000   108.0000 </r>
       <r>   -44.2192     0.0000   108.0000 </r>
       <r>   -43.9783     0.0000   108.0000 </r>
       <r>   -43.7375     0.0000   108.0000 </r>
       <r>   -43.4966     0.0000   108.0000 </r>
       <r>   -43.2557     0.0000   108.0000 </r>
       <r>   -43.0149     0.0000   108.0000 </r>
       <r>   -42.7740     0.0000   108.0000 </r>
       <r>   -42.5331     0.0000   108.0000 </r>
       <r>   -42.2923     0.0000   108.0000 </r>
       <r>   -42.0514     0.0000   108.0000 </r>
       <r>   -41.8106     0.0000   108.0000 </r>
       <r>   -41.5697     0.0000   108.0000 </r>
       <r>   -41.3288     0.0000   108.0000 </r>
       <r>   -41.0880     0.0000   108.0000 </r>
       <r>   -40.8471     0.0000   108.0000 </r>
       <r>   -40.6062     0.0000   108.0000 </r>
       <r>   -40.3654     0.0000   108.0000 </r>
       <r>   -40.1245     0.0000   108.0000 </r>
       <r>   -39.8836    19.3270   112.6552 </r>
       <r>   -39.6428    55.4036   126.0000 </r>
       <r>   -39.4019     0.0000   126.0000 </r>
       <r>   -39.1610     0.0000   126.0000 </r>
       <r>   -38.9202     0.0000   126.0000 </r>
       <r>   -38.6793     0.0000   126.0000 </r>
       <r>   -38.4384     0.0000   126.0000 </r>
       <r>   -38.1976     0.0000   126.0000 </r>
       <r>   -37.9567     0.0000   126.0000 </r>
       <r>   -37.7158     0.0000   126.0000 </r>
       <r>   -37.4750     0.0000   126.0000 </r>
       <r>   -37.2341     0.0000   126.0000 </r>
       <r>   -36.9933     0.0000   126.0000 </r>
       <r>   -36.7524     0.0000   126.0000 </r>
       <r>   -36.5115     0.0000   126.0000 </r>
       <r>   -36.2707     0.0000   126.0000 </r>
       <r>   -36.0298     0.0000   126.0000 </r>
       <r>   -35.7889     0.0000   126.0000 </r>
       <r>   -35.5481     0.0000   126.0000 </r>
       <r>   -35.3072     0.0000   126.0000 </r>
       <r>   -35.0663     0.0000   126.0000 </r>
       <r>   -34.8255     0.0000   126.0000 </r>
       <r>   -34.5846     0.0000   126.0000 </r>
       <r>   -34.3437     0.0000   126.0000 </r>
       <r>   -34.1029     0.0000   126.0000 </r>
       <r>   -33.8620     0.0000   126.0000 </r>
       <r>   -33.6211     0.0000   126.0000 </r>
       <r>   -33.3803     0.0000   126.0000 </r>
       <r>   -33.1394     0.0000   126.0000 </r>
       <r>   -32.8985     0.0000   126.0000 </r>
       <r>   -32.6577     0.0000   126.0000 </r>
       <r>   -32.4168     0.0000   126.0000 </r>
       <r>   -32.1760     0.0000   126.0000 </r>
       <r>   -31.9351     0.0000   126.0000 </r>
       <r>   -31.6942     0.0000   126.0000 </r>
       <r>   -31.4534     0.0000   126.0000 </r>
       <r>   -31.2125     0.0000   126.0000 </r>
       <r>   -30.9716     0.0000   126.0000 </r>
       <r>   -30.7308     0.0000   126.0000 </r>
       <r>   -30.4899     0.0000   126.0000 </r>
       <r>   -30.2490     0.0000   126.0000 </r>
       <r>   -30.0082     0.0000   126.0000 </r>
       <r>   -29.7673     0.0000   126.0000 </r>
       <r>   -29.5264     0.0000   126.0000 </r>
       <r>   -29.2856     0.0000   126.0000 </r>
       <r>   -29.0447     0.0000   126.0000 </r>
       <r>   -28.8038     0.0000   126.0000 </r>
       <r>   -28.5630     0.0000   126.0000 </r>
       <r>   -28.3221     0.0000   126.0000 </r>
       <r>   -28.0812     0.0000   126.0000 </r>
       <r>   -27.8404     0.0000   126.0000 </r>
       <r>   -27.5995     0.0000   126.0000 </r>
       <r>   -27.3587     0.0000   126.0000 </r>
       <r>   -27.1178     0.0000   126.0000 </r>
       <r>   -26.8769     0.0000   126.0000 </r>
       <r>   -26.6361     0.0000   126.0000 </r>
       <r>   -26.3952     0.0000   126.0000 </r>
       <r>   -26.1543     0.0000   126.0000 </r>
       <r>   -25.9135     0.0000   126.0000 </r>
       <r>   -25.6726     0.0000   126.0000 </r>
       <r>   -25.4317     0.0000   126.0000 </r>
       <r>   -25.1909     0.0000   126.0000 </r>
       <r>   -24.9500     0.0000   126.0000 </r>
       <r>   -24.7091     0.0000   126.0000 </r>
       <r>   -24.4683     0.0000   126.0000 </r>
       <r>   -24.2274     0.0000   126.0000 </r>
       <r>   -23.9865     0.0000   126.0000 </r>
       <r>   -23.7457     0.0000   126.0000 </r>
       <r>   -23.5048     0.0000   126.0000 </r>
       <r>   -23.2639     0.0000   126.0000 </r>
       <r>   -23.0231     0.0000   126.0000 </r>
       <r>   -22.7822     0.0000   126.0000 </r>
       <r>   -22.5414     0.0000   126.0000 </r>
       <r>   -22.3005     0.0000   126.0000 </r>
       <r>   -22.0596     0.0000   126.0000 </r>
       <r>   -21.8188     0.0000   126.0000 </r>
       <r>   -21.5779     0.0000   126.0000 </r>
       <r>   -21.3370     0.0000   126.0000 </r>
       <r>   -21.0962     0.0000   126.0000 </r>
       <r>   -20.8553     0.0000   126.0000 </r>
       <r>   -20.6144     0.0000   126.0000 </r>
       <r>   -20.3736     0.0000   126.0000 </r>
       <r>   -20.1327     0.0000   126.0000 </r>
       <r>   -19.8918     0.0000   126.0000 </r>
       <r>   -19.6510     0.0000   126.0000 </r>
       <r>   -19.4101     0.0000   126.0000 </r>
       <r>   -19.1692     0.0000   126.0000 </r>
       <r>   -18.9284     0.0000   126.0000 </r>
       <r>   -18.6875     0.0000   126.0000 </r>
       <r>   -18.4466     0.0000   126.0000 </r>
       <r>   -18.2058     0.0000   126.0000 </r>
       <r>   -17.9649     0.0000   126.0000 </r>
       <r>   -17.7241     0.0000   126.0000 </r>
       <r>   -17.4832     0.0000   126.0000 </r>
       <r>   -17.2423     0.0000   126.0000 </r>
       <r>   -17.0015     0.0000   126.0000 </r>
       <r>   -16.7606     0.0000   126.0000 </r>
       <r>   -16.5197     0.0000   126.0000 </r>
       <r>   -16.2789     0.0000   126.0000 </r>
       <r>   -16.0380     0.0000   126.0000 </r>
       <r>   -15.7971     0.0000   126.0000 </r>
       <r>   -15.5563     0.0000   126.0000 </r>
       <r>   -15.3154     0.0000   126.0000 </r>
       <r>   -15.0745     0.0000   126.0000 </r>
       <r>   -14.8337     0.0000   126.0000 </r>
       <r>   -14.5928     0.0000   126.0000 </r>
       <r>   -14.3519     0.0000   126.0000 </r>
       <r>   -14.1111     0.0000   126.0000 </r>
       <r>   -13.8702     0.0000   126.0000 </r>
       <r>   -13.6293     0.0000   126.0000 </r>
       <r>   -13.3885     0.0000   126.0000 </r>
       <r>   -13.1476     0.0000   126.0000 </r>
       <r>   -12.9068     0.1199   126.0289 </r>
       <r>   -12.6659    55.5050   139.3981 </r>
       <r>   -12.4250    19.1058   144.0000 </r>
       <r>   -12.1842     0.0000   144.0000 </r>
       <r>   -11.9433     0.0000   144.0000 </r>
       <r>   -11.7024     0.0000   144.0000 </r>
       <r>   -11.4616     0.0000   144.0000 </r>
       <r>   -11.2207     0.0000   144.0000 </r>
       <r>   -10.9798     0.0000   144.0000 </r>
       <r>   -10.7390     0.0000   144.0000 </r>
       <r>   -10.4981     0.0000   144.0000 </r>
       <r>   -10.2572     0.0000   144.0000 </r>
       <r>   -10.0164     0.0000   144.0000 </r>
       <r>    -9.7755     0.0000   144.0000 </r>
       <r>    -9.5346     0.0000   144.0000 </r>
       <r>    -9.2938     0.0000   144.0000 </r>
       <r>    -9.0529     0.0000   144.0000 </r>
       <r>    -8.8120     0.0000   144.0000 </r>
       <r>    -8.5712     0.0000   144.0000 </r>
       <r>    -8.3303     0.0000   144.0000 </r>
       <r>    -8.0895     0.0000   144.0000 </r>
       <r>    -7.8486     0.0000   144.0000 </r>
       <r>    -7.6077     0.0000   144.0000 </r>
       <r>    -7.3669     0.2737   144.0659 </r>
       <r>    -7.1260    17.1421   148.1949 </r>
       <r>    -6.8851    31.7355   155.8388 </r>
       <r>    -6.6443    23.3275   161.4576 </r>
       <r>    -6.4034    39.3535   170.9365 </r>
       <r>    -6.1625     0.2637   171.0000 </r>
       <r>    -5.9217     0.0000   171.0000 </r>
       <r>    -5.6808     0.0000   171.0000 </r>
       <r>    -5.4399     0.0000   171.0000 </r>
       <r>    -5.1991     0.0000   171.0000 </r>
       <r>    -4.9582     0.0000   171.0000 </r>
       <r>    -4.7173     0.0000   171.0000 </r>
       <r>    -4.4765     0.0000   171.0000 </r>
       <r>    -4.2356     0.0000   171.0000 </r>
       <r>    -3.9947     0.0000   171.0000 </r>
       <r>    -3.7539     0.0000   171.0000 </r>
       <r>    -3.5130     0.0000   171.0000 </r>
       <r>    -3.2722     0.0000   171.0000 </r>
       <r>    -3.0313     0.0000   171.0000 </r>
       <r>    -2.7904     0.0000   171.0000 </r>
       <r>    -2.5496     0.0000   171.0000 </r>
       <r>    -2.3087     0.0000   171.0000 </r>
       <r>    -2.0678     0.0000   171.0000 </r>
       <r>    -1.8270     0.0000   171.0000 </r>
       <r>    -1.5861     0.0000   171.0000 </r>
       <r>    -1.3452     0.0000   171.0000 </r>
       <r>    -1.1044     0.0000   171.0000 </r>
       <r>    -0.8635     0.0000   171.0000 </r>
       <r>    -0.6226     0.0000   171.0000 </r>
       <r>    -0.3818     7.3224   172.7637 </r>
       <r>    -0.1409    22.1631   178.1020 </r>
       <r>     0.1000    12.9008   181.2094 </r>
       <r>     0.3408    23.0045   186.7504 </r>
       <r>     0.5817    29.2774   193.8023 </r>
       <r>     0.8226    48.6852   205.5288 </r>
       <r>     1.0634    40.7142   215.3354 </r>
       <r>     1.3043    34.3826   223.6170 </r>
       <r>     1.5451    23.0811   229.1764 </r>
       <r>     1.7860    33.1406   237.1588 </r>
       <r>     2.0269    40.5929   246.9363 </r>
       <r>     2.2677    30.4317   254.2662 </r>
       <r>     2.5086    28.9110   261.2299 </r>
       <r>     2.7495    35.7366   269.8376 </r>
       <r>     2.9903    45.9980   280.9169 </r>
       <r>     3.2312    49.6170   292.8679 </r>
       <r>     3.4721    43.5557   303.3589 </r>
       <r>     3.7129     8.5886   305.4276 </r>
       <r>     3.9538    18.9036   309.9808 </r>
       <r>     4.1947    69.3326   326.6806 </r>
       <r>     4.4355    50.7506   338.9047 </r>
       <r>     4.6764    12.8508   342.0000 </r>
       <r>     4.9173     0.0001   342.0000 </r>
       <r>     5.1581     0.0000   342.0000 </r>
       <r>     5.3990     0.0000   342.0000 </r>
       <r>     5.6399     0.0000   342.0000 </r>
       <r>     5.8807     0.0000   342.0000 </r>
       <r>     6.1216     0.0000   342.0000 </r>
       <r>     6.3624     0.8420   342.2028 </r>
       <r>     6.6033     5.1209   343.4362 </r>
       <r>     6.8442     8.2089   345.4135 </r>
       <r>     7.0850    19.4760   350.1045 </r>
       <r>     7.3259    57.6477   363.9899 </r>
       <r>     7.5668    59.7889   378.3909 </r>
       <r>     7.8076    63.9414   393.7922 </r>
       <r>     8.0485    73.6483   411.5315 </r>
       <r>     8.2894    77.8109   430.2734 </r>
       <r>     8.5302    71.8287   447.5744 </r>
       <r>     8.7711    67.4829   463.8287 </r>
       <r>     9.0120    49.4236   475.7331 </r>
       <r>     9.2528    34.2655   483.9865 </r>
       <r>     9.4937     9.7225   486.3283 </r>
       <r>     9.7346     5.2370   487.5897 </r>
       <r>     9.9754    11.0651   490.2549 </r>
       <r>    10.2163    15.2232   493.9216 </r>
       <r>    10.4572    25.2149   499.9950 </r>
       <r>    10.6980    21.1956   505.1003 </r>
       <r>    10.9389    21.0759   510.1767 </r>
       <r>    11.1797    32.5892   518.0263 </r>
       <r>    11.4206    20.4040   522.9409 </r>
       <r>    11.6615    19.1305   527.5488 </r>
       <r>    11.9023    12.0656   530.4550 </r>
       <r>    12.1432    22.1440   535.7887 </r>
       <r>    12.3841    43.8225   546.3440 </r>
       <r>    12.6249    36.3838   555.1076 </r>
       <r>    12.8658    34.4055   563.3947 </r>
       <r>    13.1067    20.4804   568.3277 </r>
       <r>    13.3475    22.9743   573.8614 </r>
       <r>    13.5884    33.0908   581.8318 </r>
       <r>    13.8293    26.8537   588.3000 </r>
       <r>    14.0701    27.5253   594.9298 </r>
       <r>    14.3110    21.4325   600.0922 </r>
       <r>    14.5519    21.2501   605.2106 </r>
       <r>    14.7927     3.2774   606.0000 </r>
       <r>    15.0336     0.0000   606.0000 </r>
       <r>    15.2745     0.0000   606.0000 </r>
       <r>    15.5153     0.0000   606.0000 </r>
       <r>    15.7562     0.0000   606.0000 </r>
       <r>    15.9970     0.0000   606.0000 </r>
       <r>    16.2379     0.0000   606.0000 </r>
       <r>    16.4788     0.0000   606.0000 </r>
       <r>    16.7196     0.0000   606.0000 </r>
       <r>    16.9605     0.0000   606.0000 </r>
       <r>    17.2014     0.0000   606.0000 </r>
       <r>    17.4422     0.0000   606.0000 </r>
       <r>    17.6831     0.0000   606.0000 </r>
       <r>    17.9240     0.0000   606.0000 </r>
      </set>
     </set>
    </array>
   </total>
  </dos>
 </calculation>
 <structure name="finalpos" >
  <crystal>
   <varray name="basis" >
    <v>      11.77726974       0.00848871       0.06923316 </v>
    <v>      -0.03028248      11.77723386       0.06923316 </v>
    <v>      -2.02000231      -2.02666320      10.18574622 </v>
   </varray>
   <i name="volume">   1416.10551572 </i>
   <varray name="rec_basis" >
    <v>       0.08481023       0.00011906       0.01684296 </v>
    <v>      -0.00016014       0.08481016       0.01684296 </v>
    <v>      -0.00057537      -0.00057727       0.09794744 </v>
   </varray>
  </crystal>
  <varray name="positions" >
   <v>       0.20224939       0.24206952       0.83183419 </v>
   <v>       0.53558272       0.24206952       0.83183419 </v>
   <v>       0.86891606       0.24206952       0.83183419 </v>
   <v>       0.20224939       0.57540285       0.83183419 </v>
   <v>       0.53558272       0.57540285       0.83183419 </v>
   <v>       0.86891606       0.57540285       0.83183419 </v>
   <v>       0.20224939       0.90873619       0.83183419 </v>
   <v>       0.53558272       0.90873619       0.83183419 </v>
   <v>       0.86891606       0.90873619       0.83183419 </v>
   <v>       0.09126381       0.13108394       0.16816581 </v>
   <v>       0.42459715       0.13108394       0.16816581 </v>
   <v>       0.75793048       0.13108394       0.16816581 </v>
   <v>       0.09126381       0.46441728       0.16816581 </v>
   <v>       0.42459715       0.46441728       0.16816581 </v>
   <v>       0.75793048       0.46441728       0.16816581 </v>
   <v>       0.09126381       0.79775061       0.16816581 </v>
   <v>       0.42459715       0.79775061       0.16816581 </v>
   <v>       0.75793048       0.79775061       0.16816581 </v>
   <v>       0.26311007       0.13598816       0.19686089 </v>
   <v>       0.59644341       0.13598816       0.19686089 </v>
   <v>       0.92977674       0.13598816       0.19686089 </v>
   <v>       0.26311007       0.46932149       0.19686089 </v>
   <v>       0.59644341       0.46932149       0.19686089 </v>
   <v>       0.92977674       0.46932149       0.19686089 </v>
   <v>       0.26311007       0.80265483       0.19686089 </v>
   <v>       0.59644341       0.80265483       0.19686089 </v>
   <v>       0.92977674       0.80265483       0.19686089 </v>
   <v>       0.19734517       0.07022326       0.80313911 </v>
   <v>       0.53067851       0.07022326       0.80313911 </v>
   <v>       0.86401184       0.07022326       0.80313911 </v>
   <v>       0.19734517       0.40355659       0.80313911 </v>
   <v>       0.53067851       0.40355659       0.80313911 </v>
   <v>       0.86401184       0.40355659       0.80313911 </v>
   <v>       0.19734517       0.73688993       0.80313911 </v>
   <v>       0.53067851       0.73688993       0.80313911 </v>
   <v>       0.86401184       0.73688993       0.80313911 </v>
   <v>       0.00253935       0.20657296       0.62920335 </v>
   <v>       0.33587268       0.20657296       0.62920335 </v>
   <v>       0.66920601       0.20657296       0.62920335 </v>
   <v>       0.00253935       0.53990630       0.62920335 </v>
   <v>       0.33587268       0.53990630       0.62920335 </v>
   <v>       0.66920601       0.53990630       0.62920335 </v>
   <v>       0.00253935       0.87323963       0.62920335 </v>
   <v>       0.33587268       0.87323963       0.62920335 </v>
   <v>       0.66920601       0.87323963       0.62920335 </v>
   <v>       0.12676037       0.33079399       0.37079665 </v>
   <v>       0.46009370       0.33079399       0.37079665 </v>
   <v>       0.79342704       0.33079399       0.37079665 </v>
   <v>       0.12676037       0.66412732       0.37079665 </v>
   <v>       0.46009370       0.66412732       0.37079665 </v>
   <v>       0.79342704       0.66412732       0.37079665 </v>
   <v>       0.12676037       0.99746065       0.37079665 </v>
   <v>       0.46009370       0.99746065       0.37079665 </v>
   <v>       0.79342704       0.99746065       0.37079665 </v>
   <v>       0.06350899       0.26982435       0.00000000 </v>
   <v>       0.39684232       0.26982435       0.00000000 </v>
   <v>       0.73017565       0.26982435       0.00000000 </v>
   <v>       0.06350899       0.60315768       0.00000000 </v>
   <v>       0.39684232       0.60315768       0.00000000 </v>
   <v>       0.73017565       0.60315768       0.00000000 </v>
   <v>       0.06350899       0.93649101       0.00000000 </v>
   <v>       0.39684232       0.93649101       0.00000000 </v>
   <v>       0.73017565       0.93649101       0.00000000 </v>
   <v>       0.29027274       0.17214940       0.39257652 </v>
   <v>       0.62360607       0.17214940       0.39352170 </v>
   <v>       0.95693941       0.17214940       0.39352170 </v>
   <v>       0.29027274       0.50548273       0.39352170 </v>
   <v>       0.62360607       0.50548273       0.39352170 </v>
   <v>       0.95693941       0.50548273       0.39352170 </v>
   <v>       0.29027274       0.83881607       0.39352170 </v>
   <v>       0.62360607       0.83881607       0.39352170 </v>
   <v>       0.95693941       0.83881607       0.39352170 </v>
   <v>       0.16118393       0.04306059       0.60647830 </v>
   <v>       0.49451727       0.04306059       0.60647830 </v>
   <v>       0.82785060       0.04306059       0.60647830 </v>
   <v>       0.16118393       0.37639393       0.60647830 </v>
   <v>       0.49451727       0.37639393       0.60647830 </v>
   <v>       0.82785060       0.37639393       0.60647830 </v>
   <v>       0.16118393       0.70972726       0.60647830 </v>
   <v>       0.49451727       0.70972726       0.60647830 </v>
   <v>       0.82785060       0.70972726       0.60647830 </v>
   <v>       0.03761391       0.07731307       0.84542777 </v>
   <v>       0.37094724       0.07731307       0.84542777 </v>
   <v>       0.70428057       0.07731307       0.84542777 </v>
   <v>       0.03761391       0.41064640       0.84542777 </v>
   <v>       0.37094724       0.41064640       0.84542777 </v>
   <v>       0.70428057       0.41064640       0.84542777 </v>
   <v>       0.03761391       0.74397973       0.84542777 </v>
   <v>       0.37094724       0.74397973       0.84542777 </v>
   <v>       0.70428057       0.74397973       0.84542777 </v>
   <v>       0.25602027       0.29571943       0.15457223 </v>
   <v>       0.58935360       0.29571943       0.15457223 </v>
   <v>       0.92268693       0.29571943       0.15457223 </v>
   <v>       0.25602027       0.62905276       0.15457223 </v>
   <v>       0.58935360       0.62905276       0.15457223 </v>
   <v>       0.92268693       0.62905276       0.15457223 </v>
   <v>       0.25602027       0.96238609       0.15457223 </v>
   <v>       0.58935360       0.96238609       0.15457223 </v>
   <v>       0.92268693       0.96238609       0.15457223 </v>
  </varray>
 </structure>
</modeling>
