 320 320   0   0
  0.1216366E+02  0.1589065E-08  0.1589065E-08  0.1541455E-08  0.5000000E-15
  1.000000000000000E-004
  CAR 
 unknown system                          
     16.93404354    -54.73250516  301      5.01947982      1.00000000
    -54.733  0.0000E+00  0.0000E+00  0.0000E+00  0.0000E+00
    -54.494  0.0000E+00  0.0000E+00  0.0000E+00  0.0000E+00
    -54.255  0.0000E+00  0.0000E+00  0.0000E+00  0.0000E+00
    -54.016  0.0000E+00  0.0000E+00  0.0000E+00  0.0000E+00
    -53.777  0.0000E+00  0.0000E+00  0.0000E+00  0.0000E+00
    -53.538  0.0000E+00  0.0000E+00  0.0000E+00  0.0000E+00
    -53.299  0.0000E+00  0.0000E+00  0.0000E+00  0.0000E+00
    -53.060  0.0000E+00  0.0000E+00  0.0000E+00  0.0000E+00
    -52.821  0.0000E+00  0.0000E+00  0.0000E+00  0.0000E+00
    -52.583  0.0000E+00  0.0000E+00  0.0000E+00  0.0000E+00
    -52.344  0.0000E+00  0.0000E+00  0.0000E+00  0.0000E+00
    -52.105  0.0000E+00  0.0000E+00  0.0000E+00  0.0000E+00
    -51.866  0.0000E+00  0.0000E+00  0.0000E+00  0.0000E+00
    -51.627  0.9242E-03  0.0000E+00  0.2208E-03  0.0000E+00
    -51.388  0.2647E+03  0.0000E+00  0.6323E+02  0.0000E+00
    -51.149  0.3233E+01  0.0000E+00  0.6400E+02  0.0000E+00
    -50.910  0.0000E+00  0.0000E+00  0.6400E+02  0.0000E+00
    -50.671  0.0000E+00  0.0000E+00  0.6400E+02  0.0000E+00
    -50.433  0.0000E+00  0.0000E+00  0.6400E+02  0.0000E+00
    -50.194  0.2335E-01  0.0000E+00  0.6401E+02  0.0000E+00
    -49.955  0.5320E+03  0.0000E+00  0.1911E+03  0.0000E+00
    -49.716  0.3829E+01  0.0000E+00  0.1920E+03  0.0000E+00
    -49.477  0.0000E+00  0.0000E+00  0.1920E+03  0.0000E+00
    -49.238  0.0000E+00  0.0000E+00  0.1920E+03  0.0000E+00
    -48.999  0.0000E+00  0.0000E+00  0.1920E+03  0.0000E+00
    -48.760  0.0000E+00  0.0000E+00  0.1920E+03  0.0000E+00
    -48.521  0.0000E+00  0.0000E+00  0.1920E+03  0.0000E+00
    -48.283  0.0000E+00  0.0000E+00  0.1920E+03  0.0000E+00
    -48.044  0.0000E+00  0.0000E+00  0.1920E+03  0.0000E+00
    -47.805  0.0000E+00  0.0000E+00  0.1920E+03  0.0000E+00
    -47.566  0.0000E+00  0.0000E+00  0.1920E+03  0.0000E+00
    -47.327  0.0000E+00  0.0000E+00  0.1920E+03  0.0000E+00
    -47.088  0.0000E+00  0.0000E+00  0.1920E+03  0.0000E+00
    -46.849  0.0000E+00  0.6512E-01  0.1920E+03  0.1556E-01
    -46.610  0.0000E+00  0.2677E+03  0.1920E+03  0.6396E+02
    -46.371  0.0000E+00  0.9686E+02  0.1920E+03  0.8710E+02
    -46.133  0.0000E+00  0.4391E+03  0.1920E+03  0.1920E+03
    -45.894  0.0000E+00  0.0000E+00  0.1920E+03  0.1920E+03
    -45.655  0.0000E+00  0.0000E+00  0.1920E+03  0.1920E+03
    -45.416  0.0000E+00  0.0000E+00  0.1920E+03  0.1920E+03
    -45.177  0.0000E+00  0.0000E+00  0.1920E+03  0.1920E+03
    -44.938  0.0000E+00  0.0000E+00  0.1920E+03  0.1920E+03
    -44.699  0.0000E+00  0.0000E+00  0.1920E+03  0.1920E+03
    -44.460  0.0000E+00  0.0000E+00  0.1920E+03  0.1920E+03
    -44.221  0.0000E+00  0.0000E+00  0.1920E+03  0.1920E+03
    -43.983  0.0000E+00  0.0000E+00  0.1920E+03  0.1920E+03
    -43.744  0.0000E+00  0.0000E+00  0.1920E+03  0.1920E+03
    -43.505  0.0000E+00  0.0000E+00  0.1920E+03  0.1920E+03
    -43.266  0.0000E+00  0.0000E+00  0.1920E+03  0.1920E+03
    -43.027  0.0000E+00  0.0000E+00  0.1920E+03  0.1920E+03
    -42.788  0.0000E+00  0.0000E+00  0.1920E+03  0.1920E+03
    -42.549  0.0000E+00  0.0000E+00  0.1920E+03  0.1920E+03
    -42.310  0.0000E+00  0.0000E+00  0.1920E+03  0.1920E+03
    -42.071  0.0000E+00  0.0000E+00  0.1920E+03  0.1920E+03
    -41.833  0.0000E+00  0.0000E+00  0.1920E+03  0.1920E+03
    -41.594  0.0000E+00  0.0000E+00  0.1920E+03  0.1920E+03
    -41.355  0.0000E+00  0.0000E+00  0.1920E+03  0.1920E+03
    -41.116  0.0000E+00  0.0000E+00  0.1920E+03  0.1920E+03
    -40.877  0.0000E+00  0.0000E+00  0.1920E+03  0.1920E+03
    -40.638  0.2623E-10  0.1721E-10  0.1920E+03  0.1920E+03
    -40.399  0.7329E+02  0.6836E+02  0.2095E+03  0.2083E+03
    -40.160  0.4592E+03  0.4647E+03  0.3192E+03  0.3193E+03
    -39.921  0.3367E+01  0.2798E+01  0.3200E+03  0.3200E+03
    -39.683  0.0000E+00  0.0000E+00  0.3200E+03  0.3200E+03
    -39.444  0.0000E+00  0.0000E+00  0.3200E+03  0.3200E+03
    -39.205  0.0000E+00  0.0000E+00  0.3200E+03  0.3200E+03
    -38.966  0.0000E+00  0.0000E+00  0.3200E+03  0.3200E+03
    -38.727  0.0000E+00  0.0000E+00  0.3200E+03  0.3200E+03
    -38.488  0.0000E+00  0.0000E+00  0.3200E+03  0.3200E+03
    -38.249  0.0000E+00  0.0000E+00  0.3200E+03  0.3200E+03
    -38.010  0.0000E+00  0.0000E+00  0.3200E+03  0.3200E+03
    -37.771  0.0000E+00  0.0000E+00  0.3200E+03  0.3200E+03
    -37.533  0.0000E+00  0.0000E+00  0.3200E+03  0.3200E+03
    -37.294  0.0000E+00  0.0000E+00  0.3200E+03  0.3200E+03
    -37.055  0.0000E+00  0.0000E+00  0.3200E+03  0.3200E+03
    -36.816  0.0000E+00  0.0000E+00  0.3200E+03  0.3200E+03
    -36.577  0.0000E+00  0.0000E+00  0.3200E+03  0.3200E+03
    -36.338  0.0000E+00  0.0000E+00  0.3200E+03  0.3200E+03
    -36.099  0.0000E+00  0.0000E+00  0.3200E+03  0.3200E+03
    -35.860  0.0000E+00  0.0000E+00  0.3200E+03  0.3200E+03
    -35.621  0.0000E+00  0.0000E+00  0.3200E+03  0.3200E+03
    -35.383  0.0000E+00  0.0000E+00  0.3200E+03  0.3200E+03
    -35.144  0.0000E+00  0.0000E+00  0.3200E+03  0.3200E+03
    -34.905  0.0000E+00  0.0000E+00  0.3200E+03  0.3200E+03
    -34.666  0.0000E+00  0.0000E+00  0.3200E+03  0.3200E+03
    -34.427  0.0000E+00  0.0000E+00  0.3200E+03  0.3200E+03
    -34.188  0.0000E+00  0.0000E+00  0.3200E+03  0.3200E+03
    -33.949  0.0000E+00  0.0000E+00  0.3200E+03  0.3200E+03
    -33.710  0.0000E+00  0.0000E+00  0.3200E+03  0.3200E+03
    -33.471  0.0000E+00  0.0000E+00  0.3200E+03  0.3200E+03
    -33.233  0.0000E+00  0.0000E+00  0.3200E+03  0.3200E+03
    -32.994  0.0000E+00  0.0000E+00  0.3200E+03  0.3200E+03
    -32.755  0.0000E+00  0.0000E+00  0.3200E+03  0.3200E+03
    -32.516  0.0000E+00  0.0000E+00  0.3200E+03  0.3200E+03
    -32.277  0.0000E+00  0.0000E+00  0.3200E+03  0.3200E+03
    -32.038  0.0000E+00  0.0000E+00  0.3200E+03  0.3200E+03
    -31.799  0.0000E+00  0.0000E+00  0.3200E+03  0.3200E+03
    -31.560  0.0000E+00  0.0000E+00  0.3200E+03  0.3200E+03
    -31.321  0.0000E+00  0.0000E+00  0.3200E+03  0.3200E+03
    -31.083  0.0000E+00  0.0000E+00  0.3200E+03  0.3200E+03
    -30.844  0.0000E+00  0.0000E+00  0.3200E+03  0.3200E+03
    -30.605  0.0000E+00  0.0000E+00  0.3200E+03  0.3200E+03
    -30.366  0.0000E+00  0.0000E+00  0.3200E+03  0.3200E+03
    -30.127  0.0000E+00  0.0000E+00  0.3200E+03  0.3200E+03
    -29.888  0.0000E+00  0.0000E+00  0.3200E+03  0.3200E+03
    -29.649  0.0000E+00  0.0000E+00  0.3200E+03  0.3200E+03
    -29.410  0.0000E+00  0.0000E+00  0.3200E+03  0.3200E+03
    -29.171  0.0000E+00  0.0000E+00  0.3200E+03  0.3200E+03
    -28.933  0.0000E+00  0.0000E+00  0.3200E+03  0.3200E+03
    -28.694  0.0000E+00  0.0000E+00  0.3200E+03  0.3200E+03
    -28.455  0.0000E+00  0.0000E+00  0.3200E+03  0.3200E+03
    -28.216  0.0000E+00  0.0000E+00  0.3200E+03  0.3200E+03
    -27.977  0.0000E+00  0.0000E+00  0.3200E+03  0.3200E+03
    -27.738  0.0000E+00  0.0000E+00  0.3200E+03  0.3200E+03
    -27.499  0.0000E+00  0.0000E+00  0.3200E+03  0.3200E+03
    -27.260  0.0000E+00  0.0000E+00  0.3200E+03  0.3200E+03
    -27.021  0.0000E+00  0.0000E+00  0.3200E+03  0.3200E+03
    -26.783  0.0000E+00  0.0000E+00  0.3200E+03  0.3200E+03
    -26.544  0.0000E+00  0.0000E+00  0.3200E+03  0.3200E+03
    -26.305  0.0000E+00  0.0000E+00  0.3200E+03  0.3200E+03
    -26.066  0.0000E+00  0.0000E+00  0.3200E+03  0.3200E+03
    -25.827  0.0000E+00  0.0000E+00  0.3200E+03  0.3200E+03
    -25.588  0.0000E+00  0.0000E+00  0.3200E+03  0.3200E+03
    -25.349  0.0000E+00  0.0000E+00  0.3200E+03  0.3200E+03
    -25.110  0.0000E+00  0.0000E+00  0.3200E+03  0.3200E+03
    -24.871  0.0000E+00  0.0000E+00  0.3200E+03  0.3200E+03
    -24.633  0.0000E+00  0.0000E+00  0.3200E+03  0.3200E+03
    -24.394  0.0000E+00  0.0000E+00  0.3200E+03  0.3200E+03
    -24.155  0.0000E+00  0.0000E+00  0.3200E+03  0.3200E+03
    -23.916  0.0000E+00  0.0000E+00  0.3200E+03  0.3200E+03
    -23.677  0.0000E+00  0.0000E+00  0.3200E+03  0.3200E+03
    -23.438  0.0000E+00  0.0000E+00  0.3200E+03  0.3200E+03
    -23.199  0.0000E+00  0.0000E+00  0.3200E+03  0.3200E+03
    -22.960  0.0000E+00  0.0000E+00  0.3200E+03  0.3200E+03
    -22.721  0.0000E+00  0.0000E+00  0.3200E+03  0.3200E+03
    -22.483  0.0000E+00  0.0000E+00  0.3200E+03  0.3200E+03
    -22.244  0.0000E+00  0.0000E+00  0.3200E+03  0.3200E+03
    -22.005  0.0000E+00  0.0000E+00  0.3200E+03  0.3200E+03
    -21.766  0.0000E+00  0.0000E+00  0.3200E+03  0.3200E+03
    -21.527  0.0000E+00  0.0000E+00  0.3200E+03  0.3200E+03
    -21.288  0.0000E+00  0.0000E+00  0.3200E+03  0.3200E+03
    -21.049  0.0000E+00  0.0000E+00  0.3200E+03  0.3200E+03
    -20.810  0.0000E+00  0.0000E+00  0.3200E+03  0.3200E+03
    -20.571  0.0000E+00  0.0000E+00  0.3200E+03  0.3200E+03
    -20.333  0.0000E+00  0.0000E+00  0.3200E+03  0.3200E+03
    -20.094  0.0000E+00  0.0000E+00  0.3200E+03  0.3200E+03
    -19.855  0.0000E+00  0.0000E+00  0.3200E+03  0.3200E+03
    -19.616  0.0000E+00  0.0000E+00  0.3200E+03  0.3200E+03
    -19.377  0.0000E+00  0.0000E+00  0.3200E+03  0.3200E+03
    -19.138  0.0000E+00  0.0000E+00  0.3200E+03  0.3200E+03
    -18.899  0.0000E+00  0.0000E+00  0.3200E+03  0.3200E+03
    -18.660  0.0000E+00  0.0000E+00  0.3200E+03  0.3200E+03
    -18.421  0.0000E+00  0.0000E+00  0.3200E+03  0.3200E+03
    -18.183  0.0000E+00  0.0000E+00  0.3200E+03  0.3200E+03
    -17.944  0.0000E+00  0.0000E+00  0.3200E+03  0.3200E+03
    -17.705  0.0000E+00  0.0000E+00  0.3200E+03  0.3200E+03
    -17.466  0.0000E+00  0.0000E+00  0.3200E+03  0.3200E+03
    -17.227  0.0000E+00  0.0000E+00  0.3200E+03  0.3200E+03
    -16.988  0.0000E+00  0.0000E+00  0.3200E+03  0.3200E+03
    -16.749  0.0000E+00  0.0000E+00  0.3200E+03  0.3200E+03
    -16.510  0.0000E+00  0.0000E+00  0.3200E+03  0.3200E+03
    -16.271  0.0000E+00  0.0000E+00  0.3200E+03  0.3200E+03
    -16.033  0.0000E+00  0.0000E+00  0.3200E+03  0.3200E+03
    -15.794  0.0000E+00  0.0000E+00  0.3200E+03  0.3200E+03
    -15.555  0.0000E+00  0.0000E+00  0.3200E+03  0.3200E+03
    -15.316  0.0000E+00  0.0000E+00  0.3200E+03  0.3200E+03
    -15.077  0.0000E+00  0.0000E+00  0.3200E+03  0.3200E+03
    -14.838  0.0000E+00  0.0000E+00  0.3200E+03  0.3200E+03
    -14.599  0.0000E+00  0.0000E+00  0.3200E+03  0.3200E+03
    -14.360  0.0000E+00  0.0000E+00  0.3200E+03  0.3200E+03
    -14.121  0.0000E+00  0.0000E+00  0.3200E+03  0.3200E+03
    -13.883  0.3572E-08  0.0000E+00  0.3200E+03  0.3200E+03
    -13.644  0.2629E+02  0.0000E+00  0.3263E+03  0.3200E+03
    -13.405  0.1449E+03  0.4626E+00  0.3609E+03  0.3201E+03
    -13.166  0.9666E+02  0.1628E+03  0.3840E+03  0.3590E+03
    -12.927  0.2066E-01  0.1046E+03  0.3840E+03  0.3840E+03
    -12.688  0.0000E+00  0.1549E-02  0.3840E+03  0.3840E+03
    -12.449  0.0000E+00  0.0000E+00  0.3840E+03  0.3840E+03
    -12.210  0.0000E+00  0.0000E+00  0.3840E+03  0.3840E+03
    -11.971  0.0000E+00  0.0000E+00  0.3840E+03  0.3840E+03
    -11.733  0.0000E+00  0.0000E+00  0.3840E+03  0.3840E+03
    -11.494  0.0000E+00  0.0000E+00  0.3840E+03  0.3840E+03
    -11.255  0.0000E+00  0.0000E+00  0.3840E+03  0.3840E+03
    -11.016  0.0000E+00  0.0000E+00  0.3840E+03  0.3840E+03
    -10.777  0.0000E+00  0.0000E+00  0.3840E+03  0.3840E+03
    -10.538  0.0000E+00  0.0000E+00  0.3840E+03  0.3840E+03
    -10.299  0.0000E+00  0.0000E+00  0.3840E+03  0.3840E+03
    -10.060  0.0000E+00  0.0000E+00  0.3840E+03  0.3840E+03
     -9.821  0.0000E+00  0.0000E+00  0.3840E+03  0.3840E+03
     -9.583  0.0000E+00  0.0000E+00  0.3840E+03  0.3840E+03
     -9.344  0.0000E+00  0.0000E+00  0.3840E+03  0.3840E+03
     -9.105  0.0000E+00  0.0000E+00  0.3840E+03  0.3840E+03
     -8.866  0.0000E+00  0.0000E+00  0.3840E+03  0.3840E+03
     -8.627  0.0000E+00  0.0000E+00  0.3840E+03  0.3840E+03
     -8.388  0.0000E+00  0.0000E+00  0.3840E+03  0.3840E+03
     -8.149  0.0000E+00  0.0000E+00  0.3840E+03  0.3840E+03
     -7.910  0.0000E+00  0.0000E+00  0.3840E+03  0.3840E+03
     -7.671  0.6163E-04  0.0000E+00  0.3840E+03  0.3840E+03
     -7.433  0.2190E+02  0.3059E-02  0.3892E+03  0.3840E+03
     -7.194  0.1137E+03  0.5082E+02  0.4164E+03  0.3961E+03
     -6.955  0.1156E+03  0.1234E+03  0.4440E+03  0.4256E+03
     -6.716  0.1670E+02  0.8333E+02  0.4480E+03  0.4455E+03
     -6.477  0.8222E-04  0.1033E+02  0.4480E+03  0.4480E+03
     -6.238  0.0000E+00  0.5328E-04  0.4480E+03  0.4480E+03
     -5.999  0.0000E+00  0.0000E+00  0.4480E+03  0.4480E+03
     -5.760  0.0000E+00  0.0000E+00  0.4480E+03  0.4480E+03
     -5.521  0.0000E+00  0.0000E+00  0.4480E+03  0.4480E+03
     -5.283  0.0000E+00  0.0000E+00  0.4480E+03  0.4480E+03
     -5.044  0.0000E+00  0.0000E+00  0.4480E+03  0.4480E+03
     -4.805  0.0000E+00  0.0000E+00  0.4480E+03  0.4480E+03
     -4.566  0.0000E+00  0.0000E+00  0.4480E+03  0.4480E+03
     -4.327  0.0000E+00  0.0000E+00  0.4480E+03  0.4480E+03
     -4.088  0.0000E+00  0.0000E+00  0.4480E+03  0.4480E+03
     -3.849  0.0000E+00  0.0000E+00  0.4480E+03  0.4480E+03
     -3.610  0.0000E+00  0.0000E+00  0.4480E+03  0.4480E+03
     -3.371  0.0000E+00  0.0000E+00  0.4480E+03  0.4480E+03
     -3.133  0.0000E+00  0.0000E+00  0.4480E+03  0.4480E+03
     -2.894  0.1119E-06  0.0000E+00  0.4480E+03  0.4480E+03
     -2.655  0.2770E+02  0.0000E+00  0.4546E+03  0.4480E+03
     -2.416  0.4907E+02  0.0000E+00  0.4663E+03  0.4480E+03
     -2.177  0.2369E+02  0.0000E+00  0.4720E+03  0.4480E+03
     -1.938  0.4678E-06  0.0000E+00  0.4720E+03  0.4480E+03
     -1.699  0.4609E+02  0.0000E+00  0.4830E+03  0.4480E+03
     -1.460  0.2268E+02  0.0000E+00  0.4884E+03  0.4480E+03
     -1.221  0.1099E+03  0.3426E-03  0.5147E+03  0.4480E+03
     -0.983  0.1359E+03  0.1725E+02  0.5472E+03  0.4521E+03
     -0.744  0.1513E+03  0.7428E+02  0.5833E+03  0.4699E+03
     -0.505  0.1388E+03  0.1534E+02  0.6164E+03  0.4735E+03
     -0.266  0.1677E+03  0.5108E+02  0.6565E+03  0.4857E+03
     -0.027  0.1888E+03  0.1236E+02  0.7016E+03  0.4887E+03
      0.212  0.1129E+03  0.5530E+02  0.7286E+03  0.5019E+03
      0.451  0.1054E+03  0.1622E+03  0.7538E+03  0.5407E+03
      0.690  0.9898E+02  0.1500E+03  0.7774E+03  0.5765E+03
      0.929  0.9492E+02  0.2053E+03  0.8001E+03  0.6255E+03
      1.167  0.1212E+03  0.6205E+02  0.8290E+03  0.6404E+03
      1.406  0.1897E+03  0.2915E+02  0.8743E+03  0.6473E+03
      1.645  0.1691E+03  0.9413E+02  0.9147E+03  0.6698E+03
      1.884  0.5532E+02  0.8623E+02  0.9280E+03  0.6904E+03
      2.123  0.9717E+02  0.7658E+02  0.9512E+03  0.7087E+03
      2.362  0.6706E+02  0.5056E+02  0.9672E+03  0.7208E+03
      2.601  0.9358E+02  0.9596E+02  0.9895E+03  0.7437E+03
      2.840  0.1013E+03  0.1175E+03  0.1014E+04  0.7718E+03
      3.079  0.1066E+03  0.1514E+03  0.1039E+04  0.8079E+03
      3.317  0.1065E+03  0.7680E+02  0.1065E+04  0.8263E+03
      3.556  0.1002E+03  0.7168E+02  0.1089E+04  0.8434E+03
      3.795  0.9683E+02  0.1583E+03  0.1112E+04  0.8812E+03
      4.034  0.8445E+02  0.6187E+02  0.1132E+04  0.8960E+03
      4.273  0.4502E+02  0.8236E-02  0.1143E+04  0.8960E+03
      4.512  0.3558E+02  0.0000E+00  0.1151E+04  0.8960E+03
      4.751  0.3546E+01  0.0000E+00  0.1152E+04  0.8960E+03
      4.990  0.3724E-03  0.0000E+00  0.1152E+04  0.8960E+03
      5.229  0.0000E+00  0.0000E+00  0.1152E+04  0.8960E+03
      5.467  0.0000E+00  0.0000E+00  0.1152E+04  0.8960E+03
      5.706  0.0000E+00  0.0000E+00  0.1152E+04  0.8960E+03
      5.945  0.0000E+00  0.0000E+00  0.1152E+04  0.8960E+03
      6.184  0.0000E+00  0.0000E+00  0.1152E+04  0.8960E+03
      6.423  0.0000E+00  0.5119E-06  0.1152E+04  0.8960E+03
      6.662  0.0000E+00  0.1584E+02  0.1152E+04  0.8998E+03
      6.901  0.2643E-14  0.1340E+03  0.1152E+04  0.9318E+03
      7.140  0.8540E-01  0.1326E+03  0.1152E+04  0.9635E+03
      7.379  0.4379E+00  0.1346E+03  0.1152E+04  0.9956E+03
      7.617  0.2174E+01  0.1080E+03  0.1153E+04  0.1021E+04
      7.856  0.2086E+01  0.1608E+03  0.1153E+04  0.1060E+04
      8.095  0.7036E+01  0.1567E+03  0.1155E+04  0.1097E+04
      8.334  0.2002E+02  0.1382E+03  0.1160E+04  0.1130E+04
      8.573  0.3312E+02  0.7884E+02  0.1168E+04  0.1149E+04
      8.812  0.3321E+02  0.1948E+02  0.1175E+04  0.1154E+04
      9.051  0.4749E+02  0.1505E+02  0.1187E+04  0.1157E+04
      9.290  0.7534E+02  0.2019E+02  0.1205E+04  0.1162E+04
      9.529  0.5473E+02  0.3463E+02  0.1218E+04  0.1170E+04
      9.767  0.5004E+02  0.5722E+02  0.1230E+04  0.1184E+04
     10.006  0.3578E+02  0.8297E+02  0.1238E+04  0.1204E+04
     10.245  0.3832E+02  0.7186E+02  0.1248E+04  0.1221E+04
     10.484  0.7279E+02  0.6597E+02  0.1265E+04  0.1237E+04
     10.723  0.6595E+02  0.4179E+02  0.1281E+04  0.1247E+04
     10.962  0.6457E+02  0.8185E+02  0.1296E+04  0.1266E+04
     11.201  0.9859E+02  0.4497E+02  0.1320E+04  0.1277E+04
     11.440  0.1287E+03  0.4956E+02  0.1350E+04  0.1289E+04
     11.678  0.1176E+03  0.8969E+02  0.1378E+04  0.1310E+04
     11.917  0.8194E+02  0.1400E+03  0.1398E+04  0.1344E+04
     12.156  0.3536E+02  0.1495E+03  0.1407E+04  0.1380E+04
     12.395  0.6939E+02  0.6923E+02  0.1423E+04  0.1396E+04
     12.634  0.6345E+02  0.5111E+02  0.1438E+04  0.1408E+04
     12.873  0.6360E+02  0.5424E+02  0.1453E+04  0.1421E+04
     13.112  0.4836E+02  0.7925E+02  0.1465E+04  0.1440E+04
     13.351  0.1234E+02  0.5793E+02  0.1468E+04  0.1454E+04
     13.590  0.2147E+00  0.5349E+02  0.1468E+04  0.1467E+04
     13.828  0.0000E+00  0.4710E+01  0.1468E+04  0.1468E+04
     14.067  0.0000E+00  0.4473E-05  0.1468E+04  0.1468E+04
     14.306  0.0000E+00  0.0000E+00  0.1468E+04  0.1468E+04
     14.545  0.0000E+00  0.0000E+00  0.1468E+04  0.1468E+04
     14.784  0.0000E+00  0.0000E+00  0.1468E+04  0.1468E+04
     15.023  0.0000E+00  0.0000E+00  0.1468E+04  0.1468E+04
     15.262  0.0000E+00  0.0000E+00  0.1468E+04  0.1468E+04
     15.501  0.0000E+00  0.0000E+00  0.1468E+04  0.1468E+04
     15.740  0.0000E+00  0.0000E+00  0.1468E+04  0.1468E+04
     15.978  0.0000E+00  0.0000E+00  0.1468E+04  0.1468E+04
     16.217  0.0000E+00  0.0000E+00  0.1468E+04  0.1468E+04
     16.456  0.0000E+00  0.0000E+00  0.1468E+04  0.1468E+04
     16.695  0.0000E+00  0.0000E+00  0.1468E+04  0.1468E+04
     16.934  0.0000E+00  0.0000E+00  0.1468E+04  0.1468E+04
