  320  320    1    2
  0.1216366E+02  0.1589065E-08  0.1589065E-08  0.1541455E-08  0.5000000E-15
  1.000000000000000E-004
  CAR 
 unknown system                          
   2048      8   1468
 
  0.0000000E+00  0.0000000E+00  0.0000000E+00  0.1250000E+00
    1      -51.474932    -46.732954   1.000000   1.000000
    2      -51.469566    -46.727628   1.000000   1.000000
    3      -51.469422    -46.727551   1.000000   1.000000
    4      -51.469182    -46.727503   1.000000   1.000000
    5      -51.469103    -46.727434   1.000000   1.000000
    6      -51.469073    -46.727265   1.000000   1.000000
    7      -51.468770    -46.727188   1.000000   1.000000
    8      -51.468740    -46.727122   1.000000   1.000000
    9      -51.468603    -46.727006   1.000000   1.000000
   10      -51.468583    -46.727002   1.000000   1.000000
   11      -51.468515    -46.726929   1.000000   1.000000
   12      -51.468487    -46.726864   1.000000   1.000000
   13      -51.468444    -46.726775   1.000000   1.000000
   14      -51.468415    -46.726741   1.000000   1.000000
   15      -51.468389    -46.726701   1.000000   1.000000
   16      -51.468371    -46.726682   1.000000   1.000000
   17      -51.468371    -46.726612   1.000000   1.000000
   18      -51.468345    -46.726500   1.000000   1.000000
   19      -51.468337    -46.726295   1.000000   1.000000
   20      -51.468286    -46.726245   1.000000   1.000000
   21      -51.468260    -46.726194   1.000000   1.000000
   22      -51.468147    -46.726146   1.000000   1.000000
   23      -51.468123    -46.726073   1.000000   1.000000
   24      -51.468117    -46.726024   1.000000   1.000000
   25      -51.468022    -46.725914   1.000000   1.000000
   26      -51.467996    -46.725895   1.000000   1.000000
   27      -51.467994    -46.725862   1.000000   1.000000
   28      -51.467977    -46.725842   1.000000   1.000000
   29      -51.467965    -46.725741   1.000000   1.000000
   30      -51.467876    -46.725739   1.000000   1.000000
   31      -51.467851    -46.725737   1.000000   1.000000
   32      -51.467846    -46.725734   1.000000   1.000000
   33      -51.467846    -46.725647   1.000000   1.000000
   34      -51.467756    -46.725599   1.000000   1.000000
   35      -51.467730    -46.725597   1.000000   1.000000
   36      -51.467689    -46.725555   1.000000   1.000000
   37      -51.467663    -46.725548   1.000000   1.000000
   38      -51.467662    -46.725545   1.000000   1.000000
   39      -51.467622    -46.725513   1.000000   1.000000
   40      -51.467583    -46.725454   1.000000   1.000000
   41      -51.467579    -46.725432   1.000000   1.000000
   42      -51.467558    -46.725427   1.000000   1.000000
   43      -51.467542    -46.725398   1.000000   1.000000
   44      -51.467535    -46.725367   1.000000   1.000000
   45      -51.467530    -46.725321   1.000000   1.000000
   46      -51.467520    -46.725255   1.000000   1.000000
   47      -51.467414    -46.725161   1.000000   1.000000
   48      -51.467391    -46.724930   1.000000   1.000000
   49      -51.467370    -46.724828   1.000000   1.000000
   50      -51.467289    -46.724796   1.000000   1.000000
   51      -51.467253    -46.724635   1.000000   1.000000
   52      -51.467229    -46.724603   1.000000   1.000000
   53      -51.467130    -46.724490   1.000000   1.000000
   54      -51.467116    -46.724489   1.000000   1.000000
   55      -51.466943    -46.724336   1.000000   1.000000
   56      -51.466919    -46.724304   1.000000   1.000000
   57      -51.466856    -46.724239   1.000000   1.000000
   58      -51.466799    -46.724179   1.000000   1.000000
   59      -51.466786    -46.724176   1.000000   1.000000
   60      -51.466514    -46.723915   1.000000   1.000000
   61      -51.465933    -46.723872   1.000000   1.000000
   62      -51.465907    -46.723821   1.000000   1.000000
   63      -51.464173    -46.721882   1.000000   1.000000
   64      -51.464148    -46.721841   1.000000   1.000000
   65      -50.067710    -46.354156   1.000000   1.000000
   66      -50.061875    -46.348296   1.000000   1.000000
   67      -50.061872    -46.348296   1.000000   1.000000
   68      -50.061485    -46.347950   1.000000   1.000000
   69      -50.061408    -46.347764   1.000000   1.000000
   70      -50.061307    -46.347719   1.000000   1.000000
   71      -50.061277    -46.347627   1.000000   1.000000
   72      -50.061179    -46.347584   1.000000   1.000000
   73      -50.061148    -46.347409   1.000000   1.000000
   74      -50.060944    -46.347381   1.000000   1.000000
   75      -50.060937    -46.347377   1.000000   1.000000
   76      -50.060926    -46.347344   1.000000   1.000000
   77      -50.060898    -46.347324   1.000000   1.000000
   78      -50.060853    -46.347274   1.000000   1.000000
   79      -50.060810    -46.347240   1.000000   1.000000
   80      -50.060806    -46.347237   1.000000   1.000000
   81      -50.060712    -46.347169   1.000000   1.000000
   82      -50.060699    -46.347148   1.000000   1.000000
   83      -50.060669    -46.347129   1.000000   1.000000
   84      -50.060668    -46.347119   1.000000   1.000000
   85      -50.060655    -46.347116   1.000000   1.000000
   86      -50.060633    -46.347092   1.000000   1.000000
   87      -50.060624    -46.347082   1.000000   1.000000
   88      -50.060596    -46.347057   1.000000   1.000000
   89      -50.060577    -46.347031   1.000000   1.000000
   90      -50.060551    -46.346999   1.000000   1.000000
   91      -50.060547    -46.346996   1.000000   1.000000
   92      -50.060535    -46.346964   1.000000   1.000000
   93      -50.060535    -46.346962   1.000000   1.000000
   94      -50.060519    -46.346952   1.000000   1.000000
   95      -50.060481    -46.346940   1.000000   1.000000
   96      -50.060478    -46.346928   1.000000   1.000000
   97      -50.060472    -46.346904   1.000000   1.000000
   98      -50.060461    -46.346891   1.000000   1.000000
   99      -50.060452    -46.346884   1.000000   1.000000
  100      -50.060445    -46.346883   1.000000   1.000000
  101      -50.060435    -46.346870   1.000000   1.000000
  102      -50.060432    -46.346863   1.000000   1.000000
  103      -50.060414    -46.346861   1.000000   1.000000
  104      -50.060399    -46.346832   1.000000   1.000000
  105      -50.060369    -46.346824   1.000000   1.000000
  106      -50.060363    -46.346803   1.000000   1.000000
  107      -50.060349    -46.346784   1.000000   1.000000
  108      -50.060332    -46.346766   1.000000   1.000000
  109      -50.060328    -46.346755   1.000000   1.000000
  110      -50.060321    -46.346750   1.000000   1.000000
  111      -50.060309    -46.346748   1.000000   1.000000
  112      -50.060303    -46.346728   1.000000   1.000000
  113      -50.060250    -46.346693   1.000000   1.000000
  114      -50.060228    -46.346674   1.000000   1.000000
  115      -50.060219    -46.346647   1.000000   1.000000
  116      -50.060217    -46.346646   1.000000   1.000000
  117      -50.060090    -46.346530   1.000000   1.000000
  118      -50.060079    -46.346498   1.000000   1.000000
  119      -50.060068    -46.346495   1.000000   1.000000
  120      -50.060053    -46.346478   1.000000   1.000000
  121      -50.060052    -46.346475   1.000000   1.000000
  122      -50.060037    -46.346439   1.000000   1.000000
  123      -50.059874    -46.346316   1.000000   1.000000
  124      -50.059555    -46.346000   1.000000   1.000000
  125      -50.058721    -46.345186   1.000000   1.000000
  126      -50.058689    -46.345143   1.000000   1.000000
  127      -50.056483    -46.343253   1.000000   1.000000
  128      -50.056451    -46.343208   1.000000   1.000000
  129      -50.040900    -46.336382   1.000000   1.000000
  130      -50.034993    -46.330626   1.000000   1.000000
  131      -50.034990    -46.330626   1.000000   1.000000
  132      -50.034662    -46.330350   1.000000   1.000000
  133      -50.034606    -46.330238   1.000000   1.000000
  134      -50.034531    -46.330228   1.000000   1.000000
  135      -50.034312    -46.330041   1.000000   1.000000
  136      -50.034253    -46.329841   1.000000   1.000000
  137      -50.034180    -46.329832   1.000000   1.000000
  138      -50.034101    -46.329810   1.000000   1.000000
  139      -50.034084    -46.329742   1.000000   1.000000
  140      -50.034072    -46.329681   1.000000   1.000000
  141      -50.034007    -46.329660   1.000000   1.000000
  142      -50.033998    -46.329619   1.000000   1.000000
  143      -50.033967    -46.329618   1.000000   1.000000
  144      -50.033959    -46.329616   1.000000   1.000000
  145      -50.033940    -46.329603   1.000000   1.000000
  146      -50.033891    -46.329553   1.000000   1.000000
  147      -50.033868    -46.329538   1.000000   1.000000
  148      -50.033850    -46.329485   1.000000   1.000000
  149      -50.033759    -46.329480   1.000000   1.000000
  150      -50.033753    -46.329469   1.000000   1.000000
  151      -50.033746    -46.329337   1.000000   1.000000
  152      -50.033738    -46.329326   1.000000   1.000000
  153      -50.033725    -46.329325   1.000000   1.000000
  154      -50.033713    -46.329319   1.000000   1.000000
  155      -50.033684    -46.329292   1.000000   1.000000
  156      -50.033665    -46.329286   1.000000   1.000000
  157      -50.033654    -46.329219   1.000000   1.000000
  158      -50.033617    -46.329196   1.000000   1.000000
  159      -50.033601    -46.329187   1.000000   1.000000
  160      -50.033590    -46.329163   1.000000   1.000000
  161      -50.033590    -46.329157   1.000000   1.000000
  162      -50.033540    -46.329110   1.000000   1.000000
  163      -50.033528    -46.329108   1.000000   1.000000
  164      -50.033521    -46.329089   1.000000   1.000000
  165      -50.033518    -46.329068   1.000000   1.000000
  166      -50.033482    -46.329066   1.000000   1.000000
  167      -50.033453    -46.329052   1.000000   1.000000
  168      -50.033393    -46.329016   1.000000   1.000000
  169      -50.033391    -46.328983   1.000000   1.000000
  170      -50.033356    -46.328951   1.000000   1.000000
  171      -50.033343    -46.328931   1.000000   1.000000
  172      -50.033307    -46.328904   1.000000   1.000000
  173      -50.033302    -46.328894   1.000000   1.000000
  174      -50.033295    -46.328830   1.000000   1.000000
  175      -50.033267    -46.328801   1.000000   1.000000
  176      -50.033246    -46.328761   1.000000   1.000000
  177      -50.033232    -46.328720   1.000000   1.000000
  178      -50.033177    -46.328711   1.000000   1.000000
  179      -50.033174    -46.328702   1.000000   1.000000
  180      -50.033131    -46.328675   1.000000   1.000000
  181      -50.033112    -46.328620   1.000000   1.000000
  182      -50.033098    -46.328589   1.000000   1.000000
  183      -50.033043    -46.328566   1.000000   1.000000
  184      -50.033010    -46.328566   1.000000   1.000000
  185      -50.032919    -46.328473   1.000000   1.000000
  186      -50.032910    -46.328391   1.000000   1.000000
  187      -50.032586    -46.328379   1.000000   1.000000
  188      -50.032541    -46.328007   1.000000   1.000000
  189      -50.031980    -46.327629   1.000000   1.000000
  190      -50.031631    -46.327137   1.000000   1.000000
  191      -50.030576    -46.325959   1.000000   1.000000
  192      -50.030226    -46.325465   1.000000   1.000000
  193      -40.382309    -40.380365   1.000000   1.000000
  194      -40.381864    -40.379873   1.000000   1.000000
  195      -40.380951    -40.379022   1.000000   1.000000
  196      -40.380304    -40.378348   1.000000   1.000000
  197      -40.379983    -40.378022   1.000000   1.000000
  198      -40.379982    -40.378011   1.000000   1.000000
  199      -40.379758    -40.377802   1.000000   1.000000
  200      -40.379590    -40.377627   1.000000   1.000000
  201      -40.379561    -40.377575   1.000000   1.000000
  202      -40.379504    -40.377542   1.000000   1.000000
  203      -40.379354    -40.377359   1.000000   1.000000
  204      -40.379259    -40.377284   1.000000   1.000000
  205      -40.379180    -40.377178   1.000000   1.000000
  206      -40.379127    -40.377132   1.000000   1.000000
  207      -40.378972    -40.376994   1.000000   1.000000
  208      -40.378809    -40.376832   1.000000   1.000000
  209      -40.378773    -40.376799   1.000000   1.000000
  210      -40.378730    -40.376744   1.000000   1.000000
  211      -40.378713    -40.376695   1.000000   1.000000
  212      -40.378566    -40.376583   1.000000   1.000000
  213      -40.378362    -40.376375   1.000000   1.000000
  214      -40.378299    -40.376314   1.000000   1.000000
  215      -40.378238    -40.376244   1.000000   1.000000
  216      -40.378219    -40.376239   1.000000   1.000000
  217      -40.378111    -40.376117   1.000000   1.000000
  218      -40.378109    -40.376107   1.000000   1.000000
  219      -40.378006    -40.376003   1.000000   1.000000
  220      -40.378000    -40.376003   1.000000   1.000000
  221      -40.377956    -40.375965   1.000000   1.000000
  222      -40.377925    -40.375938   1.000000   1.000000
  223      -40.377887    -40.375889   1.000000   1.000000
  224      -40.377852    -40.375846   1.000000   1.000000
  225      -40.377808    -40.375815   1.000000   1.000000
  226      -40.377741    -40.375749   1.000000   1.000000
  227      -40.377707    -40.375719   1.000000   1.000000
  228      -40.377602    -40.375608   1.000000   1.000000
  229      -40.377511    -40.375501   1.000000   1.000000
  230      -40.377447    -40.375441   1.000000   1.000000
  231      -40.377404    -40.375397   1.000000   1.000000
  232      -40.377323    -40.375329   1.000000   1.000000
  233      -40.377298    -40.375294   1.000000   1.000000
  234      -40.377241    -40.375239   1.000000   1.000000
  235      -40.377163    -40.375158   1.000000   1.000000
  236      -40.377092    -40.375084   1.000000   1.000000
  237      -40.377016    -40.375008   1.000000   1.000000
  238      -40.376960    -40.374958   1.000000   1.000000
  239      -40.376943    -40.374941   1.000000   1.000000
  240      -40.376887    -40.374887   1.000000   1.000000
  241      -40.376870    -40.374864   1.000000   1.000000
  242      -40.376858    -40.374863   1.000000   1.000000
  243      -40.376797    -40.374791   1.000000   1.000000
  244      -40.376789    -40.374784   1.000000   1.000000
  245      -40.376670    -40.374658   1.000000   1.000000
  246      -40.376600    -40.374599   1.000000   1.000000
  247      -40.376575    -40.374575   1.000000   1.000000
  248      -40.376557    -40.374552   1.000000   1.000000
  249      -40.376433    -40.374419   1.000000   1.000000
  250      -40.376354    -40.374351   1.000000   1.000000
  251      -40.376222    -40.374216   1.000000   1.000000
  252      -40.376159    -40.374151   1.000000   1.000000
  253      -40.376078    -40.374081   1.000000   1.000000
  254      -40.376054    -40.374048   1.000000   1.000000
  255      -40.375936    -40.373933   1.000000   1.000000
  256      -40.370032    -40.368036   1.000000   1.000000
  257      -40.243244    -40.245757   1.000000   1.000000
  258      -40.242954    -40.245466   1.000000   1.000000
  259      -40.241825    -40.244318   1.000000   1.000000
  260      -40.241559    -40.244063   1.000000   1.000000
  261      -40.240691    -40.243220   1.000000   1.000000
  262      -40.240638    -40.243108   1.000000   1.000000
  263      -40.240473    -40.243011   1.000000   1.000000
  264      -40.240389    -40.242909   1.000000   1.000000
  265      -40.240371    -40.242867   1.000000   1.000000
  266      -40.240284    -40.242804   1.000000   1.000000
  267      -40.240235    -40.242751   1.000000   1.000000
  268      -40.240212    -40.242730   1.000000   1.000000
  269      -40.240144    -40.242664   1.000000   1.000000
  270      -40.240113    -40.242618   1.000000   1.000000
  271      -40.240043    -40.242559   1.000000   1.000000
  272      -40.240039    -40.242554   1.000000   1.000000
  273      -40.240011    -40.242529   1.000000   1.000000
  274      -40.239998    -40.242482   1.000000   1.000000
  275      -40.239965    -40.242450   1.000000   1.000000
  276      -40.239889    -40.242411   1.000000   1.000000
  277      -40.239836    -40.242353   1.000000   1.000000
  278      -40.239815    -40.242337   1.000000   1.000000
  279      -40.239764    -40.242283   1.000000   1.000000
  280      -40.239748    -40.242258   1.000000   1.000000
  281      -40.239726    -40.242238   1.000000   1.000000
  282      -40.239716    -40.242233   1.000000   1.000000
  283      -40.239695    -40.242202   1.000000   1.000000
  284      -40.239674    -40.242193   1.000000   1.000000
  285      -40.239670    -40.242166   1.000000   1.000000
  286      -40.239599    -40.242123   1.000000   1.000000
  287      -40.239584    -40.242097   1.000000   1.000000
  288      -40.239557    -40.242070   1.000000   1.000000
  289      -40.239544    -40.242053   1.000000   1.000000
  290      -40.239516    -40.242027   1.000000   1.000000
  291      -40.239508    -40.242019   1.000000   1.000000
  292      -40.239484    -40.242005   1.000000   1.000000
  293      -40.239454    -40.241952   1.000000   1.000000
  294      -40.239445    -40.241950   1.000000   1.000000
  295      -40.239415    -40.241928   1.000000   1.000000
  296      -40.239377    -40.241856   1.000000   1.000000
  297      -40.239337    -40.241832   1.000000   1.000000
  298      -40.239297    -40.241793   1.000000   1.000000
  299      -40.239295    -40.241788   1.000000   1.000000
  300      -40.239278    -40.241777   1.000000   1.000000
  301      -40.239108    -40.241598   1.000000   1.000000
  302      -40.239086    -40.241568   1.000000   1.000000
  303      -40.239045    -40.241529   1.000000   1.000000
  304      -40.238971    -40.241465   1.000000   1.000000
  305      -40.238953    -40.241454   1.000000   1.000000
  306      -40.238900    -40.241384   1.000000   1.000000
  307      -40.238898    -40.241381   1.000000   1.000000
  308      -40.238822    -40.241301   1.000000   1.000000
  309      -40.238789    -40.241271   1.000000   1.000000
  310      -40.238782    -40.241267   1.000000   1.000000
  311      -40.238651    -40.241136   1.000000   1.000000
  312      -40.238623    -40.241098   1.000000   1.000000
  313      -40.238573    -40.241040   1.000000   1.000000
  314      -40.238508    -40.240990   1.000000   1.000000
  315      -40.238363    -40.240838   1.000000   1.000000
  316      -40.238031    -40.240502   1.000000   1.000000
  317      -40.237563    -40.240056   1.000000   1.000000
  318      -40.237329    -40.239831   1.000000   1.000000
  319      -40.236101    -40.238595   1.000000   1.000000
  320      -40.235733    -40.238214   1.000000   1.000000
  321      -13.667851    -13.340197   1.000000   1.000000
  322      -13.667387    -13.339721   1.000000   1.000000
  323      -13.665014    -13.336219   1.000000   1.000000
  324      -13.664572    -13.335753   1.000000   1.000000
  325      -13.650210    -13.322709   1.000000   1.000000
  326      -13.649276    -13.322130   1.000000   1.000000
  327      -13.648957    -13.321927   1.000000   1.000000
  328      -13.648786    -13.321922   1.000000   1.000000
  329      -13.648745    -13.320859   1.000000   1.000000
  330      -13.644913    -13.316640   1.000000   1.000000
  331      -13.644598    -13.316287   1.000000   1.000000
  332      -13.644340    -13.316030   1.000000   1.000000
  333      -13.644337    -13.316029   1.000000   1.000000
  334      -13.624583    -13.296827   1.000000   1.000000
  335      -13.624171    -13.296398   1.000000   1.000000
  336      -13.598845    -13.272356   1.000000   1.000000
  337      -13.507881    -13.233883   1.000000   1.000000
  338      -13.507876    -13.233861   1.000000   1.000000
  339      -13.507464    -13.233395   1.000000   1.000000
  340      -13.507439    -13.233346   1.000000   1.000000
  341      -13.504243    -13.232453   1.000000   1.000000
  342      -13.504210    -13.232372   1.000000   1.000000
  343      -13.503971    -13.232243   1.000000   1.000000
  344      -13.503682    -13.231886   1.000000   1.000000
  345      -13.498589    -13.224458   1.000000   1.000000
  346      -13.498587    -13.224452   1.000000   1.000000
  347      -13.498350    -13.224203   1.000000   1.000000
  348      -13.497930    -13.223775   1.000000   1.000000
  349      -13.476227    -13.202113   1.000000   1.000000
  350      -13.476221    -13.202096   1.000000   1.000000
  351      -13.475797    -13.201654   1.000000   1.000000
  352      -13.475797    -13.201654   1.000000   1.000000
  353      -13.475752    -13.201614   1.000000   1.000000
  354      -13.475751    -13.201612   1.000000   1.000000
  355      -13.475419    -13.201258   1.000000   1.000000
  356      -13.475382    -13.201221   1.000000   1.000000
  357      -13.453349    -13.179232   1.000000   1.000000
  358      -13.453345    -13.179223   1.000000   1.000000
  359      -13.453062    -13.178942   1.000000   1.000000
  360      -13.452796    -13.178640   1.000000   1.000000
  361      -13.448828    -13.173316   1.000000   1.000000
  362      -13.448816    -13.173296   1.000000   1.000000
  363      -13.448577    -13.173032   1.000000   1.000000
  364      -13.448169    -13.172635   1.000000   1.000000
  365      -13.443929    -13.169766   1.000000   1.000000
  366      -13.443924    -13.169757   1.000000   1.000000
  367      -13.443566    -13.169386   1.000000   1.000000
  368      -13.443537    -13.169343   1.000000   1.000000
  369      -13.355961    -13.144110   1.000000   1.000000
  370      -13.320148    -13.107907   1.000000   1.000000
  371      -13.319694    -13.107436   1.000000   1.000000
  372      -13.294834    -13.082225   1.000000   1.000000
  373      -13.294321    -13.081711   1.000000   1.000000
  374      -13.294128    -13.081502   1.000000   1.000000
  375      -13.294125    -13.081501   1.000000   1.000000
  376      -13.288716    -13.073719   1.000000   1.000000
  377      -13.288354    -13.073314   1.000000   1.000000
  378      -13.288107    -13.073068   1.000000   1.000000
  379      -13.288076    -13.073025   1.000000   1.000000
  380      -13.283372    -13.070676   1.000000   1.000000
  381      -13.268785    -13.055806   1.000000   1.000000
  382      -13.268372    -13.055375   1.000000   1.000000
  383      -13.265656    -13.051503   1.000000   1.000000
  384      -13.265229    -13.051066   1.000000   1.000000
  385       -7.538683     -7.332727   1.000000   1.000000
  386       -7.469758     -7.287480   1.000000   1.000000
  387       -7.469568     -7.287287   1.000000   1.000000
  388       -7.469542     -7.287266   1.000000   1.000000
  389       -7.469387     -7.287098   1.000000   1.000000
  390       -7.404746     -7.245242   1.000000   1.000000
  391       -7.404694     -7.245201   1.000000   1.000000
  392       -7.395475     -7.218992   1.000000   1.000000
  393       -7.395351     -7.218884   1.000000   1.000000
  394       -7.356065     -7.188273   1.000000   1.000000
  395       -7.355941     -7.188162   1.000000   1.000000
  396       -7.355899     -7.188129   1.000000   1.000000
  397       -7.355878     -7.188091   1.000000   1.000000
  398       -7.351595     -7.166296   1.000000   1.000000
  399       -7.351500     -7.166187   1.000000   1.000000
  400       -7.351454     -7.166155   1.000000   1.000000
  401       -7.351344     -7.166042   1.000000   1.000000
  402       -7.315343     -7.117932   1.000000   1.000000
  403       -7.315207     -7.117776   1.000000   1.000000
  404       -7.277409     -7.116646   1.000000   1.000000
  405       -7.277288     -7.116517   1.000000   1.000000
  406       -7.277227     -7.116481   1.000000   1.000000
  407       -7.277092     -7.116352   1.000000   1.000000
  408       -7.238005     -7.092074   1.000000   1.000000
  409       -7.237654     -7.085406   1.000000   1.000000
  410       -7.237631     -7.085070   1.000000   1.000000
  411       -7.237426     -7.085051   1.000000   1.000000
  412       -7.233088     -7.084831   1.000000   1.000000
  413       -7.209515     -7.034500   1.000000   1.000000
  414       -7.209232     -7.034197   1.000000   1.000000
  415       -7.209195     -7.034175   1.000000   1.000000
  416       -7.209183     -7.034161   1.000000   1.000000
  417       -7.209178     -7.034155   1.000000   1.000000
  418       -7.209147     -7.034132   1.000000   1.000000
  419       -7.209127     -7.034116   1.000000   1.000000
  420       -7.208876     -7.033842   1.000000   1.000000
  421       -7.147494     -7.005189   1.000000   1.000000
  422       -7.147368     -7.005059   1.000000   1.000000
  423       -7.143232     -6.978811   1.000000   1.000000
  424       -7.142952     -6.978598   1.000000   1.000000
  425       -7.142943     -6.978587   1.000000   1.000000
  426       -7.142808     -6.978456   1.000000   1.000000
  427       -7.140805     -6.950850   1.000000   1.000000
  428       -7.140592     -6.950578   1.000000   1.000000
  429       -7.140528     -6.950554   1.000000   1.000000
  430       -7.140440     -6.950413   1.000000   1.000000
  431       -7.052202     -6.907019   1.000000   1.000000
  432       -7.052187     -6.889519   1.000000   1.000000
  433       -7.052040     -6.889432   1.000000   1.000000
  434       -7.051907     -6.889355   1.000000   1.000000
  435       -7.050827     -6.889179   1.000000   1.000000
  436       -7.046309     -6.862445   1.000000   1.000000
  437       -7.046197     -6.862323   1.000000   1.000000
  438       -7.046150     -6.862288   1.000000   1.000000
  439       -7.046104     -6.862233   1.000000   1.000000
  440       -7.042292     -6.856025   1.000000   1.000000
  441       -7.042241     -6.855998   1.000000   1.000000
  442       -6.950670     -6.764406   1.000000   1.000000
  443       -6.950565     -6.764282   1.000000   1.000000
  444       -6.946365     -6.737100   1.000000   1.000000
  445       -6.946092     -6.736806   1.000000   1.000000
  446       -6.946086     -6.736800   1.000000   1.000000
  447       -6.945834     -6.736546   1.000000   1.000000
  448       -6.844527     -6.608355   1.000000   1.000000
  449       -2.694061     -1.100116   1.000000   1.000000
  450       -2.693492     -1.099872   1.000000   1.000000
  451       -2.690878     -1.046811   1.000000   1.000000
  452       -2.690185     -1.046531   1.000000   1.000000
  453       -2.690118     -1.040451   1.000000   1.000000
  454       -2.689783     -1.040054   1.000000   1.000000
  455       -2.687790     -0.973365   1.000000   1.000000
  456       -2.687222     -0.973020   1.000000   1.000000
  457       -2.687103     -0.972835   1.000000   1.000000
  458       -2.686965     -0.972714   1.000000   1.000000
  459       -2.686927     -0.914761   1.000000   1.000000
  460       -2.686650     -0.914378   1.000000   1.000000
  461       -2.685505     -0.914203   1.000000   1.000000
  462       -2.685359     -0.914102   1.000000   1.000000
  463       -2.685032     -0.898520   1.000000   1.000000
  464       -2.684993     -0.898088   1.000000   1.000000
  465       -1.748849     -0.599495   1.000000   1.000000
  466       -1.748677     -0.599480   1.000000   1.000000
  467       -1.748384     -0.599438   1.000000   1.000000
  468       -1.748286     -0.599416   1.000000   1.000000
  469       -1.746569     -0.494320   1.000000   1.000000
  470       -1.746514     -0.494232   1.000000   1.000000
  471       -1.746266     -0.494052   1.000000   1.000000
  472       -1.745992     -0.493867   1.000000   1.000000
  473       -1.725359     -0.416991   1.000000   1.000000
  474       -1.725241     -0.416914   1.000000   1.000000
  475       -1.725115     -0.416817   1.000000   1.000000
  476       -1.725105     -0.416676   1.000000   1.000000
  477       -1.720083     -0.391615   1.000000   1.000000
  478       -1.719871     -0.391538   1.000000   1.000000
  479       -1.719526     -0.391453   1.000000   1.000000
  480       -1.719512     -0.391288   1.000000   1.000000
  481       -1.719402     -0.376214   1.000000   1.000000
  482       -1.719401     -0.376181   1.000000   1.000000
  483       -1.719262     -0.376029   1.000000   1.000000
  484       -1.719249     -0.375771   1.000000   1.000000
  485       -1.717670     -0.285537   1.000000   1.000000
  486       -1.717661     -0.285517   1.000000   1.000000
  487       -1.717575     -0.285225   1.000000   1.000000
  488       -1.717566     -0.285197   1.000000   1.000000
  489       -1.691129     -0.285146   1.000000   1.000000
  490       -1.691000     -0.285146   1.000000   1.000000
  491       -1.690720     -0.284932   1.000000   1.000000
  492       -1.690619     -0.284821   1.000000   1.000000
  493       -1.688918     -0.028074   1.000000   1.000000
  494       -1.688879     -0.028069   1.000000   1.000000
  495       -1.688622     -0.027998   1.000000   1.000000
  496       -1.688326     -0.027982   1.000000   1.000000
  497       -1.449154      0.029435   1.000000   1.000000
  498       -1.448858      0.029490   1.000000   1.000000
  499       -1.438579      0.046138   1.000000   1.000000
  500       -1.438336      0.046280   1.000000   1.000000
  501       -1.398316      0.186495   1.000000   1.000000
  502       -1.397992      0.186570   1.000000   1.000000
  503       -1.382674      0.186607   1.000000   1.000000
  504       -1.382399      0.186616   1.000000   1.000000
  505       -1.326626      0.212020   1.000000   1.000000
  506       -1.326300      0.212095   1.000000   1.000000
  507       -1.326186      0.262311   1.000000   1.000000
  508       -1.326142      0.262362   1.000000   1.000000
  509       -1.321151      0.262407   1.000000   1.000000
  510       -1.320836      0.262426   1.000000   1.000000
  511       -1.320655      0.284930   1.000000   1.000000
  512       -1.320633      0.285035   1.000000   1.000000