 vasp.5.4.4.18Apr17-6-g9f103f2a35 (build Oct 25 2017 14:42:18) complex          
  
 executed on             LinuxIFC date 2021.06.12  19:31:55
 running on   48 total cores
 distrk:  each k-point on   24 cores,    2 groups
 distr:  one band on NCORES_PER_BAND=   6 cores,    4 groups


--------------------------------------------------------------------------------------------------------


 INCAR:
 POTCAR:    PAW_PBE Li_sv 10Sep2004               
 POTCAR:    PAW_PBE Fe_pv 02Aug2007               
 POTCAR:    PAW_PBE S 06Sep2000                   
 POTCAR:    PAW_PBE O 08Apr2002                   

 ----------------------------------------------------------------------------- 
|                                                                             |
|           W    W    AA    RRRRR   N    N  II  N    N   GGGG   !!!           |
|           W    W   A  A   R    R  NN   N  II  NN   N  G    G  !!!           |
|           W    W  A    A  R    R  N N  N  II  N N  N  G       !!!           |
|           W WW W  AAAAAA  RRRRR   N  N N  II  N  N N  G  GGG   !            |
|           WW  WW  A    A  R   R   N   NN  II  N   NN  G    G                |
|           W    W  A    A  R    R  N    N  II  N    N   GGGG   !!!           |
|                                                                             |
|      You have enabled k-point parallelism (KPAR>1).                         |
|      This developmental code was originally  written by Paul Kent at ORNL,  |
|      and carefully double checked in Vienna.                                |
|      GW as well as linear response parallelism added by Martijn Marsman     |
|      and Georg Kresse.                                                      |
|      Carefully verify results versus KPAR=1.                                |
|      Report problems to Paul Kent and Vienna.                               |
|                                                                             |
 ----------------------------------------------------------------------------- 

 POTCAR:    PAW_PBE Li_sv 10Sep2004               
  local pseudopotential read in
  atomic valenz-charges read in
  non local Contribution for L=           0  read in
    real space projection operators read in
  non local Contribution for L=           0  read in
    real space projection operators read in
  non local Contribution for L=           1  read in
    real space projection operators read in
    PAW grid and wavefunctions read in
 
   number of l-projection  operators is LMAX  =           3
   number of lm-projection operators is LMMAX =           5
 
 POTCAR:    PAW_PBE Fe_pv 02Aug2007               
  local pseudopotential read in
  partial core-charges read in
  partial kinetic energy density read in
  atomic valenz-charges read in
  non local Contribution for L=           1  read in
    real space projection operators read in
  non local Contribution for L=           1  read in
    real space projection operators read in
  non local Contribution for L=           2  read in
    real space projection operators read in
  non local Contribution for L=           2  read in
    real space projection operators read in
  non local Contribution for L=           0  read in
    real space projection operators read in
  non local Contribution for L=           0  read in
    real space projection operators read in
    PAW grid and wavefunctions read in
 
   number of l-projection  operators is LMAX  =           6
   number of lm-projection operators is LMMAX =          18
 
 POTCAR:    PAW_PBE S 06Sep2000                   
  local pseudopotential read in
  partial core-charges read in
  partial kinetic energy density read in
  atomic valenz-charges read in
  non local Contribution for L=           0  read in
    real space projection operators read in
  non local Contribution for L=           0  read in
    real space projection operators read in
  non local Contribution for L=           1  read in
    real space projection operators read in
  non local Contribution for L=           1  read in
    real space projection operators read in
    PAW grid and wavefunctions read in
 
   number of l-projection  operators is LMAX  =           4
   number of lm-projection operators is LMMAX =           8
 
 POTCAR:    PAW_PBE O 08Apr2002                   
  local pseudopotential read in
  partial core-charges read in
  partial kinetic energy density read in
  kinetic energy density of atom read in
  atomic valenz-charges read in
  non local Contribution for L=           0  read in
    real space projection operators read in
  non local Contribution for L=           0  read in
    real space projection operators read in
  non local Contribution for L=           1  read in
    real space projection operators read in
  non local Contribution for L=           1  read in
    real space projection operators read in
    PAW grid and wavefunctions read in
 
   number of l-projection  operators is LMAX  =           4
   number of lm-projection operators is LMMAX =           8
 

 ----------------------------------------------------------------------------- 
|                                                                             |
|  ADVICE TO THIS USER RUNNING 'VASP/VAMP'   (HEAR YOUR MASTER'S VOICE ...):  |
|                                                                             |
|      You have a (more or less) 'large supercell' and for larger cells       |
|      it might be more efficient to use real space projection opertators     |
|      So try LREAL= Auto  in the INCAR   file.                               |
|      Mind:          For very  accurate calculation you might also keep the  |
|      reciprocal projection scheme          (i.e. LREAL=.FALSE.)             |
|                                                                             |
 ----------------------------------------------------------------------------- 

  PAW_PBE Li_sv 10Sep2004               :
 energy of atom  1       EATOM= -202.7858
 kinetic energy error for atom=    0.0072 (will be added to EATOM!!)
  PAW_PBE Fe_pv 02Aug2007               :
 energy of atom  2       EATOM=-2457.4239
 kinetic energy error for atom=    0.0041 (will be added to EATOM!!)
  PAW_PBE S 06Sep2000                   :
 energy of atom  3       EATOM= -276.8230
 kinetic energy error for atom=    0.0008 (will be added to EATOM!!)
  PAW_PBE O 08Apr2002                   :
 energy of atom  4       EATOM= -432.3788
 kinetic energy error for atom=    0.0129 (will be added to EATOM!!)
 
 
 POSCAR: # Compound: Li128Fe64S64O64. Old comment
  positions in direct lattice
  No initial velocities read in
 exchange correlation table for  LEXCH =        8
   RHO(1)=    0.500       N(1)  =     2000
   RHO(2)=  100.500       N(2)  =     4000
 


--------------------------------------------------------------------------------------------------------


 ion  position               nearest neighbor table
   1  0.125  0.125  0.375- 273 1.93 289 1.93
   2  0.375  0.125  0.375- 274 1.93 290 1.93
   3  0.625  0.125  0.375- 275 1.93 291 1.93
   4  0.875  0.125  0.375- 276 1.93 292 1.93
   5  0.125  0.375  0.375- 277 1.93 293 1.93
   6  0.375  0.375  0.375- 278 1.93 294 1.93
   7  0.625  0.375  0.375- 279 1.93 295 1.93
   8  0.875  0.375  0.375- 280 1.93 296 1.93
   9  0.125  0.625  0.375- 281 1.93 297 1.93
  10  0.375  0.625  0.375- 282 1.93 298 1.93
  11  0.625  0.625  0.375- 283 1.93 299 1.93
  12  0.875  0.625  0.375- 284 1.93 300 1.93
  13  0.125  0.875  0.375- 285 1.93 301 1.93
  14  0.375  0.875  0.375- 286 1.93 302 1.93
  15  0.625  0.875  0.375- 287 1.93 303 1.93
  16  0.875  0.875  0.375- 288 1.93 304 1.93
  17  0.125  0.125  0.875- 257 1.93 305 1.93
  18  0.375  0.125  0.875- 258 1.93 306 1.93
  19  0.625  0.125  0.875- 259 1.93 307 1.93
  20  0.875  0.125  0.875- 260 1.93 308 1.93
  21  0.125  0.375  0.875- 261 1.93 309 1.93
  22  0.375  0.375  0.875- 262 1.93 310 1.93
  23  0.625  0.375  0.875- 263 1.93 311 1.93
  24  0.875  0.375  0.875- 264 1.93 312 1.93
  25  0.125  0.625  0.875- 265 1.93 313 1.93
  26  0.375  0.625  0.875- 266 1.93 314 1.93
  27  0.625  0.625  0.875- 267 1.93 315 1.93
  28  0.875  0.625  0.875- 268 1.93 316 1.93
  29  0.125  0.875  0.875- 269 1.93 317 1.93
  30  0.375  0.875  0.875- 270 1.93 318 1.93
  31  0.625  0.875  0.875- 271 1.93 319 1.93
  32  0.875  0.875  0.875- 272 1.93 320 1.93
  33  0.125  0.125  0.125- 257 1.93 289 1.93
  34  0.375  0.125  0.125- 258 1.93 290 1.93
  35  0.625  0.125  0.125- 259 1.93 291 1.93
  36  0.875  0.125  0.125- 260 1.93 292 1.93
  37  0.125  0.375  0.125- 261 1.93 293 1.93
  38  0.375  0.375  0.125- 262 1.93 294 1.93
  39  0.625  0.375  0.125- 263 1.93 295 1.93
  40  0.875  0.375  0.125- 264 1.93 296 1.93
  41  0.125  0.625  0.125- 265 1.93 297 1.93
  42  0.375  0.625  0.125- 266 1.93 298 1.93
  43  0.625  0.625  0.125- 267 1.93 299 1.93
  44  0.875  0.625  0.125- 268 1.93 300 1.93
  45  0.125  0.875  0.125- 269 1.93 301 1.93
  46  0.375  0.875  0.125- 270 1.93 302 1.93
  47  0.625  0.875  0.125- 271 1.93 303 1.93
  48  0.875  0.875  0.125- 272 1.93 304 1.93
  49  0.125  0.125  0.625- 273 1.93 305 1.93
  50  0.375  0.125  0.625- 274 1.93 306 1.93
  51  0.625  0.125  0.625- 275 1.93 307 1.93
  52  0.875  0.125  0.625- 276 1.93 308 1.93
  53  0.125  0.375  0.625- 277 1.93 309 1.93
  54  0.375  0.375  0.625- 278 1.93 310 1.93
  55  0.625  0.375  0.625- 279 1.93 311 1.93
  56  0.875  0.375  0.625- 280 1.93 312 1.93
  57  0.125  0.625  0.625- 281 1.93 313 1.93
  58  0.375  0.625  0.625- 282 1.93 314 1.93
  59  0.625  0.625  0.625- 283 1.93 315 1.93
  60  0.875  0.625  0.625- 284 1.93 316 1.93
  61  0.125  0.875  0.625- 285 1.93 317 1.93
  62  0.375  0.875  0.625- 286 1.93 318 1.93
  63  0.625  0.875  0.625- 287 1.93 319 1.93
  64  0.875  0.875  0.625- 288 1.93 320 1.93
  65  0.125  0.000  0.250- 289 1.99 301 1.99
  66  0.375  0.000  0.250- 290 1.99 302 1.99
  67  0.625  0.000  0.250- 291 1.99 303 1.99
  68  0.875  0.000  0.250- 292 1.99 304 1.99
  69  0.125  0.250  0.250- 289 1.99 293 1.99
  70  0.375  0.250  0.250- 290 1.99 294 1.99
  71  0.625  0.250  0.250- 291 1.99 295 1.99
  72  0.875  0.250  0.250- 292 1.99 296 1.99
  73  0.125  0.500  0.250- 293 1.99 297 1.99
  74  0.375  0.500  0.250- 294 1.99 298 1.99
  75  0.625  0.500  0.250- 295 1.99 299 1.99
  76  0.875  0.500  0.250- 296 1.99 300 1.99
  77  0.125  0.750  0.250- 297 1.99 301 1.99
  78  0.375  0.750  0.250- 298 1.99 302 1.99
  79  0.625  0.750  0.250- 299 1.99 303 1.99
  80  0.875  0.750  0.250- 300 1.99 304 1.99
  81  0.125  0.000  0.750- 305 1.99 317 1.99
  82  0.375  0.000  0.750- 306 1.99 318 1.99
  83  0.625  0.000  0.750- 307 1.99 319 1.99
  84  0.875  0.000  0.750- 308 1.99 320 1.99
  85  0.125  0.250  0.750- 305 1.99 309 1.99
  86  0.375  0.250  0.750- 306 1.99 310 1.99
  87  0.625  0.250  0.750- 307 1.99 311 1.99
  88  0.875  0.250  0.750- 308 1.99 312 1.99
  89  0.125  0.500  0.750- 309 1.99 313 1.99
  90  0.375  0.500  0.750- 310 1.99 314 1.99
  91  0.625  0.500  0.750- 311 1.99 315 1.99
  92  0.875  0.500  0.750- 312 1.99 316 1.99
  93  0.125  0.750  0.750- 313 1.99 317 1.99
  94  0.375  0.750  0.750- 314 1.99 318 1.99
  95  0.625  0.750  0.750- 315 1.99 319 1.99
  96  0.875  0.750  0.750- 316 1.99 320 1.99
  97  0.000  0.125  0.000- 257 1.99 260 1.99
  98  0.250  0.125  0.000- 257 1.99 258 1.99
  99  0.500  0.125  0.000- 258 1.99 259 1.99
 100  0.750  0.125  0.000- 259 1.99 260 1.99
 101  0.000  0.375  0.000- 261 1.99 264 1.99
 102  0.250  0.375  0.000- 261 1.99 262 1.99
 103  0.500  0.375  0.000- 262 1.99 263 1.99
 104  0.750  0.375  0.000- 263 1.99 264 1.99
 105  0.000  0.625  0.000- 265 1.99 268 1.99
 106  0.250  0.625  0.000- 265 1.99 266 1.99
 107  0.500  0.625  0.000- 266 1.99 267 1.99
 108  0.750  0.625  0.000- 267 1.99 268 1.99
 109  0.000  0.875  0.000- 269 1.99 272 1.99
 110  0.250  0.875  0.000- 269 1.99 270 1.99
 111  0.500  0.875  0.000- 270 1.99 271 1.99
 112  0.750  0.875  0.000- 271 1.99 272 1.99
 113  0.000  0.125  0.500- 273 1.99 276 1.99
 114  0.250  0.125  0.500- 273 1.99 274 1.99
 115  0.500  0.125  0.500- 274 1.99 275 1.99
 116  0.750  0.125  0.500- 275 1.99 276 1.99
 117  0.000  0.375  0.500- 277 1.99 280 1.99
 118  0.250  0.375  0.500- 277 1.99 278 1.99
 119  0.500  0.375  0.500- 278 1.99 279 1.99
 120  0.750  0.375  0.500- 279 1.99 280 1.99
 121  0.000  0.625  0.500- 281 1.99 284 1.99
 122  0.250  0.625  0.500- 281 1.99 282 1.99
 123  0.500  0.625  0.500- 282 1.99 283 1.99
 124  0.750  0.625  0.500- 283 1.99 284 1.99
 125  0.000  0.875  0.500- 285 1.99 288 1.99
 126  0.250  0.875  0.500- 285 1.99 286 1.99
 127  0.500  0.875  0.500- 286 1.99 287 1.99
 128  0.750  0.875  0.500- 287 1.99 288 1.99
 129  0.125  0.000  0.000- 257 1.99 269 1.99 225 2.77 226 2.77 209 2.77 210 2.77
 130  0.375  0.000  0.000- 258 1.99 270 1.99 226 2.77 227 2.77 210 2.77 211 2.77
 131  0.625  0.000  0.000- 259 1.99 271 1.99 227 2.77 228 2.77 211 2.77 212 2.77
 132  0.875  0.000  0.000- 260 1.99 272 1.99 225 2.77 228 2.77 209 2.77 212 2.77
 133  0.125  0.250  0.000- 257 1.99 261 1.99 229 2.77 230 2.77 213 2.77 214 2.77
 134  0.375  0.250  0.000- 258 1.99 262 1.99 230 2.77 231 2.77 214 2.77 215 2.77
 135  0.625  0.250  0.000- 259 1.99 263 1.99 231 2.77 232 2.77 215 2.77 216 2.77
 136  0.875  0.250  0.000- 260 1.99 264 1.99 229 2.77 232 2.77 213 2.77 216 2.77
 137  0.125  0.500  0.000- 261 1.99 265 1.99 233 2.77 234 2.77 217 2.77 218 2.77
 138  0.375  0.500  0.000- 262 1.99 266 1.99 234 2.77 235 2.77 218 2.77 219 2.77
 139  0.625  0.500  0.000- 263 1.99 267 1.99 235 2.77 236 2.77 219 2.77 220 2.77
 140  0.875  0.500  0.000- 264 1.99 268 1.99 233 2.77 236 2.77 217 2.77 220 2.77
 141  0.125  0.750  0.000- 265 1.99 269 1.99 237 2.77 238 2.77 221 2.77 222 2.77
 142  0.375  0.750  0.000- 266 1.99 270 1.99 238 2.77 239 2.77 222 2.77 223 2.77
 143  0.625  0.750  0.000- 267 1.99 271 1.99 239 2.77 240 2.77 223 2.77 224 2.77
 144  0.875  0.750  0.000- 268 1.99 272 1.99 237 2.77 240 2.77 221 2.77 224 2.77
 145  0.125  0.000  0.500- 273 1.99 285 1.99 242 2.77 194 2.77 241 2.77 193 2.78
 146  0.375  0.000  0.500- 274 1.99 286 1.99 242 2.77 243 2.77 194 2.77 195 2.77
 147  0.625  0.000  0.500- 275 1.99 287 1.99 243 2.77 244 2.77 195 2.77 196 2.77
 148  0.875  0.000  0.500- 276 1.99 288 1.99 193 2.77 244 2.77 196 2.77 241 2.77
 149  0.125  0.250  0.500- 273 1.99 277 1.99 245 2.77 246 2.77 197 2.77 198 2.77
 150  0.375  0.250  0.500- 274 1.99 278 1.99 246 2.77 247 2.77 198 2.77 199 2.77
 151  0.625  0.250  0.500- 275 1.99 279 1.99 247 2.77 248 2.77 199 2.77 200 2.77
 152  0.875  0.250  0.500- 276 1.99 280 1.99 245 2.77 248 2.77 197 2.77 200 2.77
 153  0.125  0.500  0.500- 277 1.99 281 1.99 249 2.77 250 2.77 201 2.77 202 2.77
 154  0.375  0.500  0.500- 278 1.99 282 1.99 250 2.77 251 2.77 202 2.77 203 2.77
 155  0.625  0.500  0.500- 279 1.99 283 1.99 251 2.77 252 2.77 203 2.77 204 2.77
 156  0.875  0.500  0.500- 280 1.99 284 1.99 249 2.77 252 2.77 201 2.77 204 2.77
 157  0.125  0.750  0.500- 281 1.99 285 1.99 253 2.77 254 2.77 205 2.77 206 2.77
 158  0.375  0.750  0.500- 282 1.99 286 1.99 254 2.77 255 2.77 206 2.77 207 2.77
 159  0.625  0.750  0.500- 283 1.99 287 1.99 255 2.77 256 2.77 207 2.77 208 2.77
 160  0.875  0.750  0.500- 284 1.99 288 1.99 253 2.77 256 2.77 205 2.77 208 2.77
 161  0.000  0.125  0.250- 289 1.99 292 1.99 193 2.76 229 2.77 197 2.77 225 2.77
 162  0.250  0.125  0.250- 289 1.99 290 1.99 226 2.77 230 2.77 194 2.77 198 2.77
 163  0.500  0.125  0.250- 290 1.99 291 1.99 227 2.77 231 2.77 195 2.77 199 2.77
 164  0.750  0.125  0.250- 291 1.99 292 1.99 228 2.77 232 2.77 196 2.77 200 2.77
 165  0.000  0.375  0.250- 293 1.99 296 1.99 229 2.77 233 2.77 197 2.77 201 2.77
 166  0.250  0.375  0.250- 293 1.99 294 1.99 230 2.77 234 2.77 198 2.77 202 2.77
 167  0.500  0.375  0.250- 294 1.99 295 1.99 231 2.77 235 2.77 199 2.77 203 2.77
 168  0.750  0.375  0.250- 295 1.99 296 1.99 232 2.77 236 2.77 200 2.77 204 2.77
 169  0.000  0.625  0.250- 297 1.99 300 1.99 233 2.77 237 2.77 201 2.77 205 2.77
 170  0.250  0.625  0.250- 297 1.99 298 1.99 234 2.77 238 2.77 202 2.77 206 2.77
 171  0.500  0.625  0.250- 298 1.99 299 1.99 235 2.77 239 2.77 203 2.77 207 2.77
 172  0.750  0.625  0.250- 299 1.99 300 1.99 236 2.77 240 2.77 204 2.77 208 2.77
 173  0.000  0.875  0.250- 301 1.99 304 1.99 193 2.76 237 2.77 205 2.77 225 2.77
 174  0.250  0.875  0.250- 301 1.99 302 1.99 226 2.77 238 2.77 194 2.77 206 2.77
 175  0.500  0.875  0.250- 302 1.99 303 1.99 227 2.77 239 2.77 195 2.77 207 2.77
 176  0.750  0.875  0.250- 303 1.99 304 1.99 228 2.77 240 2.77 196 2.77 208 2.77
 177  0.000  0.125  0.750- 305 1.99 308 1.99 241 2.77 245 2.77 209 2.77 213 2.77
 178  0.250  0.125  0.750- 305 1.99 306 1.99 242 2.77 246 2.77 210 2.77 214 2.77
 179  0.500  0.125  0.750- 306 1.99 307 1.99 243 2.77 247 2.77 211 2.77 215 2.77
 180  0.750  0.125  0.750- 307 1.99 308 1.99 244 2.77 248 2.77 212 2.77 216 2.77
 181  0.000  0.375  0.750- 309 1.99 312 1.99 245 2.77 249 2.77 213 2.77 217 2.77
 182  0.250  0.375  0.750- 309 1.99 310 1.99 246 2.77 250 2.77 214 2.77 218 2.77
 183  0.500  0.375  0.750- 310 1.99 311 1.99 247 2.77 251 2.77 215 2.77 219 2.77
 184  0.750  0.375  0.750- 311 1.99 312 1.99 248 2.77 252 2.77 216 2.77 220 2.77
 185  0.000  0.625  0.750- 313 1.99 316 1.99 249 2.77 253 2.77 217 2.77 221 2.77
 186  0.250  0.625  0.750- 313 1.99 314 1.99 250 2.77 254 2.77 218 2.77 222 2.77
 187  0.500  0.625  0.750- 314 1.99 315 1.99 251 2.77 255 2.77 219 2.77 223 2.77
 188  0.750  0.625  0.750- 315 1.99 316 1.99 252 2.77 256 2.77 220 2.77 224 2.77
 189  0.000  0.875  0.750- 317 1.99 320 1.99 241 2.77 253 2.77 209 2.77 221 2.77
 190  0.250  0.875  0.750- 317 1.99 318 1.99 242 2.77 254 2.77 210 2.77 222 2.77
 191  0.500  0.875  0.750- 318 1.99 319 1.99 243 2.77 255 2.77 211 2.77 223 2.77
 192  0.750  0.875  0.750- 319 1.99 320 1.99 244 2.77 256 2.77 212 2.77 224 2.77
 193  1.000  0.000  0.375- 161 2.76 173 2.76 148 2.77 145 2.78
 194  0.250  0.000  0.375- 145 2.77 146 2.77 162 2.77 174 2.77
 195  0.500  0.000  0.375- 146 2.77 147 2.77 163 2.77 175 2.77
 196  0.750  0.000  0.375- 147 2.77 148 2.77 164 2.77 176 2.77
 197  0.000  0.250  0.375- 149 2.77 152 2.77 161 2.77 165 2.77
 198  0.250  0.250  0.375- 149 2.77 150 2.77 162 2.77 166 2.77
 199  0.500  0.250  0.375- 150 2.77 151 2.77 163 2.77 167 2.77
 200  0.750  0.250  0.375- 151 2.77 152 2.77 164 2.77 168 2.77
 201  0.000  0.500  0.375- 153 2.77 156 2.77 165 2.77 169 2.77
 202  0.250  0.500  0.375- 153 2.77 154 2.77 166 2.77 170 2.77
 203  0.500  0.500  0.375- 154 2.77 155 2.77 167 2.77 171 2.77
 204  0.750  0.500  0.375- 155 2.77 156 2.77 168 2.77 172 2.77
 205  0.000  0.750  0.375- 157 2.77 160 2.77 169 2.77 173 2.77
 206  0.250  0.750  0.375- 157 2.77 158 2.77 170 2.77 174 2.77
 207  0.500  0.750  0.375- 158 2.77 159 2.77 171 2.77 175 2.77
 208  0.750  0.750  0.375- 159 2.77 160 2.77 172 2.77 176 2.77
 209  0.000  0.000  0.875- 129 2.77 132 2.77 177 2.77 189 2.77
 210  0.250  0.000  0.875- 129 2.77 130 2.77 178 2.77 190 2.77
 211  0.500  0.000  0.875- 130 2.77 131 2.77 179 2.77 191 2.77
 212  0.750  0.000  0.875- 131 2.77 132 2.77 180 2.77 192 2.77
 213  0.000  0.250  0.875- 133 2.77 136 2.77 177 2.77 181 2.77
 214  0.250  0.250  0.875- 133 2.77 134 2.77 178 2.77 182 2.77
 215  0.500  0.250  0.875- 134 2.77 135 2.77 179 2.77 183 2.77
 216  0.750  0.250  0.875- 135 2.77 136 2.77 180 2.77 184 2.77
 217  0.000  0.500  0.875- 137 2.77 140 2.77 181 2.77 185 2.77
 218  0.250  0.500  0.875- 137 2.77 138 2.77 182 2.77 186 2.77
 219  0.500  0.500  0.875- 138 2.77 139 2.77 183 2.77 187 2.77
 220  0.750  0.500  0.875- 139 2.77 140 2.77 184 2.77 188 2.77
 221  0.000  0.750  0.875- 141 2.77 144 2.77 185 2.77 189 2.77
 222  0.250  0.750  0.875- 141 2.77 142 2.77 186 2.77 190 2.77
 223  0.500  0.750  0.875- 142 2.77 143 2.77 187 2.77 191 2.77
 224  0.750  0.750  0.875- 143 2.77 144 2.77 188 2.77 192 2.77
 225  0.000  0.000  0.125- 129 2.77 132 2.77 161 2.77 173 2.77
 226  0.250  0.000  0.125- 129 2.77 130 2.77 162 2.77 174 2.77
 227  0.500  0.000  0.125- 130 2.77 131 2.77 163 2.77 175 2.77
 228  0.750  0.000  0.125- 131 2.77 132 2.77 164 2.77 176 2.77
 229  0.000  0.250  0.125- 133 2.77 136 2.77 161 2.77 165 2.77
 230  0.250  0.250  0.125- 133 2.77 134 2.77 162 2.77 166 2.77
 231  0.500  0.250  0.125- 134 2.77 135 2.77 163 2.77 167 2.77
 232  0.750  0.250  0.125- 135 2.77 136 2.77 164 2.77 168 2.77
 233  0.000  0.500  0.125- 137 2.77 140 2.77 165 2.77 169 2.77
 234  0.250  0.500  0.125- 137 2.77 138 2.77 166 2.77 170 2.77
 235  0.500  0.500  0.125- 138 2.77 139 2.77 167 2.77 171 2.77
 236  0.750  0.500  0.125- 139 2.77 140 2.77 168 2.77 172 2.77
 237  0.000  0.750  0.125- 141 2.77 144 2.77 169 2.77 173 2.77
 238  0.250  0.750  0.125- 141 2.77 142 2.77 170 2.77 174 2.77
 239  0.500  0.750  0.125- 142 2.77 143 2.77 171 2.77 175 2.77
 240  0.750  0.750  0.125- 143 2.77 144 2.77 172 2.77 176 2.77
 241  0.000  0.000  0.625- 145 2.77 148 2.77 177 2.77 189 2.77
 242  0.250  0.000  0.625- 145 2.77 146 2.77 178 2.77 190 2.77
 243  0.500  0.000  0.625- 146 2.77 147 2.77 179 2.77 191 2.77
 244  0.750  0.000  0.625- 147 2.77 148 2.77 180 2.77 192 2.77
 245  0.000  0.250  0.625- 149 2.77 152 2.77 177 2.77 181 2.77
 246  0.250  0.250  0.625- 149 2.77 150 2.77 178 2.77 182 2.77
 247  0.500  0.250  0.625- 150 2.77 151 2.77 179 2.77 183 2.77
 248  0.750  0.250  0.625- 151 2.77 152 2.77 180 2.77 184 2.77
 249  0.000  0.500  0.625- 153 2.77 156 2.77 181 2.77 185 2.77
 250  0.250  0.500  0.625- 153 2.77 154 2.77 182 2.77 186 2.77
 251  0.500  0.500  0.625- 154 2.77 155 2.77 183 2.77 187 2.77
 252  0.750  0.500  0.625- 155 2.77 156 2.77 184 2.77 188 2.77
 253  0.000  0.750  0.625- 157 2.77 160 2.77 185 2.77 189 2.77
 254  0.250  0.750  0.625- 157 2.77 158 2.77 186 2.77 190 2.77
 255  0.500  0.750  0.625- 158 2.77 159 2.77 187 2.77 191 2.77
 256  0.750  0.750  0.625- 159 2.77 160 2.77 188 2.77 192 2.77
 257  0.125  0.125  0.000-  17 1.93  33 1.93  97 1.99  98 1.99 129 1.99 133 1.99
 258  0.375  0.125  0.000-  18 1.93  34 1.93  98 1.99  99 1.99 130 1.99 134 1.99
 259  0.625  0.125  0.000-  19 1.93  35 1.93  99 1.99 100 1.99 131 1.99 135 1.99
 260  0.875  0.125  0.000-  20 1.93  36 1.93  97 1.99 100 1.99 132 1.99 136 1.99
 261  0.125  0.375  0.000-  21 1.93  37 1.93 101 1.99 102 1.99 133 1.99 137 1.99
 262  0.375  0.375  0.000-  22 1.93  38 1.93 102 1.99 103 1.99 134 1.99 138 1.99
 263  0.625  0.375  0.000-  23 1.93  39 1.93 103 1.99 104 1.99 135 1.99 139 1.99
 264  0.875  0.375  0.000-  24 1.93  40 1.93 101 1.99 104 1.99 136 1.99 140 1.99
 265  0.125  0.625  0.000-  25 1.93  41 1.93 105 1.99 106 1.99 137 1.99 141 1.99
 266  0.375  0.625  0.000-  26 1.93  42 1.93 106 1.99 107 1.99 138 1.99 142 1.99
 267  0.625  0.625  0.000-  27 1.93  43 1.93 107 1.99 108 1.99 139 1.99 143 1.99
 268  0.875  0.625  0.000-  28 1.93  44 1.93 105 1.99 108 1.99 140 1.99 144 1.99
 269  0.125  0.875  0.000-  29 1.93  45 1.93 109 1.99 110 1.99 129 1.99 141 1.99
 270  0.375  0.875  0.000-  30 1.93  46 1.93 110 1.99 111 1.99 130 1.99 142 1.99
 271  0.625  0.875  0.000-  31 1.93  47 1.93 111 1.99 112 1.99 131 1.99 143 1.99
 272  0.875  0.875  0.000-  32 1.93  48 1.93 109 1.99 112 1.99 132 1.99 144 1.99
 273  0.125  0.125  0.500-   1 1.93  49 1.93 113 1.99 114 1.99 145 1.99 149 1.99
 274  0.375  0.125  0.500-   2 1.93  50 1.93 114 1.99 115 1.99 146 1.99 150 1.99
 275  0.625  0.125  0.500-   3 1.93  51 1.93 115 1.99 116 1.99 147 1.99 151 1.99
 276  0.875  0.125  0.500-   4 1.93  52 1.93 113 1.99 116 1.99 148 1.99 152 1.99
 277  0.125  0.375  0.500-   5 1.93  53 1.93 117 1.99 118 1.99 149 1.99 153 1.99
 278  0.375  0.375  0.500-   6 1.93  54 1.93 118 1.99 119 1.99 150 1.99 154 1.99
 279  0.625  0.375  0.500-   7 1.93  55 1.93 119 1.99 120 1.99 151 1.99 155 1.99
 280  0.875  0.375  0.500-   8 1.93  56 1.93 117 1.99 120 1.99 152 1.99 156 1.99
 281  0.125  0.625  0.500-   9 1.93  57 1.93 121 1.99 122 1.99 153 1.99 157 1.99
 282  0.375  0.625  0.500-  10 1.93  58 1.93 122 1.99 123 1.99 154 1.99 158 1.99
 283  0.625  0.625  0.500-  11 1.93  59 1.93 123 1.99 124 1.99 155 1.99 159 1.99
 284  0.875  0.625  0.500-  12 1.93  60 1.93 121 1.99 124 1.99 156 1.99 160 1.99
 285  0.125  0.875  0.500-  13 1.93  61 1.93 125 1.99 126 1.99 145 1.99 157 1.99
 286  0.375  0.875  0.500-  14 1.93  62 1.93 126 1.99 127 1.99 146 1.99 158 1.99
 287  0.625  0.875  0.500-  15 1.93  63 1.93 127 1.99 128 1.99 147 1.99 159 1.99
 288  0.875  0.875  0.500-  16 1.93  64 1.93 125 1.99 128 1.99 148 1.99 160 1.99
 289  0.125  0.125  0.250-   1 1.93  33 1.93  65 1.99  69 1.99 161 1.99 162 1.99
 290  0.375  0.125  0.250-   2 1.93  34 1.93  66 1.99  70 1.99 162 1.99 163 1.99
 291  0.625  0.125  0.250-   3 1.93  35 1.93  67 1.99  71 1.99 163 1.99 164 1.99
 292  0.875  0.125  0.250-   4 1.93  36 1.93  68 1.99  72 1.99 161 1.99 164 1.99
 293  0.125  0.375  0.250-   5 1.93  37 1.93  69 1.99  73 1.99 165 1.99 166 1.99
 294  0.375  0.375  0.250-   6 1.93  38 1.93  70 1.99  74 1.99 166 1.99 167 1.99
 295  0.625  0.375  0.250-   7 1.93  39 1.93  71 1.99  75 1.99 167 1.99 168 1.99
 296  0.875  0.375  0.250-   8 1.93  40 1.93  72 1.99  76 1.99 165 1.99 168 1.99
 297  0.125  0.625  0.250-   9 1.93  41 1.93  73 1.99  77 1.99 169 1.99 170 1.99
 298  0.375  0.625  0.250-  10 1.93  42 1.93  74 1.99  78 1.99 170 1.99 171 1.99
 299  0.625  0.625  0.250-  11 1.93  43 1.93  75 1.99  79 1.99 171 1.99 172 1.99
 300  0.875  0.625  0.250-  12 1.93  44 1.93  76 1.99  80 1.99 169 1.99 172 1.99
 301  0.125  0.875  0.250-  13 1.93  45 1.93  65 1.99  77 1.99 173 1.99 174 1.99
 302  0.375  0.875  0.250-  14 1.93  46 1.93  66 1.99  78 1.99 174 1.99 175 1.99
 303  0.625  0.875  0.250-  15 1.93  47 1.93  67 1.99  79 1.99 175 1.99 176 1.99
 304  0.875  0.875  0.250-  16 1.93  48 1.93  68 1.99  80 1.99 173 1.99 176 1.99
 305  0.125  0.125  0.750-  17 1.93  49 1.93  81 1.99  85 1.99 177 1.99 178 1.99
 306  0.375  0.125  0.750-  18 1.93  50 1.93  82 1.99  86 1.99 178 1.99 179 1.99
 307  0.625  0.125  0.750-  19 1.93  51 1.93  83 1.99  87 1.99 179 1.99 180 1.99
 308  0.875  0.125  0.750-  20 1.93  52 1.93  84 1.99  88 1.99 177 1.99 180 1.99
 309  0.125  0.375  0.750-  21 1.93  53 1.93  85 1.99  89 1.99 181 1.99 182 1.99
 310  0.375  0.375  0.750-  22 1.93  54 1.93  86 1.99  90 1.99 182 1.99 183 1.99
 311  0.625  0.375  0.750-  23 1.93  55 1.93  87 1.99  91 1.99 183 1.99 184 1.99
 312  0.875  0.375  0.750-  24 1.93  56 1.93  88 1.99  92 1.99 181 1.99 184 1.99
 313  0.125  0.625  0.750-  25 1.93  57 1.93  89 1.99  93 1.99 185 1.99 186 1.99
 314  0.375  0.625  0.750-  26 1.93  58 1.93  90 1.99  94 1.99 186 1.99 187 1.99
 315  0.625  0.625  0.750-  27 1.93  59 1.93  91 1.99  95 1.99 187 1.99 188 1.99
 316  0.875  0.625  0.750-  28 1.93  60 1.93  92 1.99  96 1.99 185 1.99 188 1.99
 317  0.125  0.875  0.750-  29 1.93  61 1.93  81 1.99  93 1.99 189 1.99 190 1.99
 318  0.375  0.875  0.750-  30 1.93  62 1.93  82 1.99  94 1.99 190 1.99 191 1.99
 319  0.625  0.875  0.750-  31 1.93  63 1.93  83 1.99  95 1.99 191 1.99 192 1.99
 320  0.875  0.875  0.750-  32 1.93  64 1.93  84 1.99  96 1.99 189 1.99 192 1.99
 
  LATTYP: Found a simple tetragonal cell.
 ALAT       =    15.8906492000
 C/A-ratio  =     0.9700393021
  
  Lattice vectors:
  
 A1 = (  15.8906492000,   0.0000000000,   0.0000000000)
 A2 = (   0.0000000000,  15.8906492000,   0.0000000000)
 A3 = (   0.0000000000,   0.0000000000,  15.4145542600)


Analysis of symmetry for initial positions (statically):
=====================================================================
 Subroutine PRICEL returns:
 Original cell was already a primitive cell.
 

 Routine SETGRP: Setting up the symmetry group for a 
 simple tetragonal supercell.


 Subroutine GETGRP returns: Found  2 space group operations
 (whereof  2 operations were pure point group operations)
 out of a pool of 16 trial point group operations.


The static configuration has the point symmetry C_1h.


Analysis of symmetry for dynamics (positions and initial velocities):
=====================================================================
 Subroutine PRICEL returns:
 Original cell was already a primitive cell.
 

 Routine SETGRP: Setting up the symmetry group for a 
 simple tetragonal supercell.


 Subroutine GETGRP returns: Found  2 space group operations
 (whereof  2 operations were pure point group operations)
 out of a pool of 16 trial point group operations.


The dynamic configuration has the point symmetry C_1h.


Analysis of structural, dynamic, and magnetic symmetry:
=====================================================================
 Subroutine PRICEL returns:
 Original cell was already a primitive cell.
 

 Routine SETGRP: Setting up the symmetry group for a 
 simple tetragonal supercell.


 Subroutine GETGRP returns: Found  2 space group operations
 (whereof  2 operations were pure point group operations)
 out of a pool of 16 trial point group operations.


The magnetic configuration has the point symmetry C_1h.


 Subroutine INISYM returns: Found  2 space group operations
 (whereof  2 operations are pure point group operations),
 and found     1 'primitive' translations

 
 
 KPOINTS: # No comment                            

Automatic generation of k-mesh.
Space group operators:
 irot       det(A)        alpha          n_x          n_y          n_z        tau_x        tau_y        tau_z
    1     1.000000     0.000000     1.000000     0.000000     0.000000     0.000000     0.000000     0.000000
    2    -1.000000   179.999999     0.000000     1.000000     0.000000     0.000000     0.000000     0.000000
 
 Subroutine IBZKPT returns following result:
 ===========================================
 
 Found      8 irreducible k-points:
 
 Following reciprocal coordinates:
            Coordinates               Weight
  0.000000  0.000000  0.000000      1.000000
  0.500000  0.000000  0.000000      1.000000
  0.000000  0.500000  0.000000      1.000000
  0.500000  0.500000  0.000000      1.000000
  0.000000  0.000000  0.500000      1.000000
  0.500000  0.000000  0.500000      1.000000
  0.000000  0.500000  0.500000      1.000000
  0.500000  0.500000  0.500000      1.000000
 
 Following cartesian coordinates:
            Coordinates               Weight
  0.000000  0.000000  0.000000      1.000000
  0.031465  0.000000  0.000000      1.000000
  0.000000  0.031465  0.000000      1.000000
  0.031465  0.031465  0.000000      1.000000
  0.000000  0.000000  0.032437      1.000000
  0.031465  0.000000  0.032437      1.000000
  0.000000  0.031465  0.032437      1.000000
  0.031465  0.031465  0.032437      1.000000
 


--------------------------------------------------------------------------------------------------------




 Dimension of arrays:
   k-points           NKPTS =      8   k-points in BZ     NKDIM =      8   number of bands    NBANDS=   1468
   number of dos      NEDOS =    301   number of ions     NIONS =    320
   non local maximal  LDIM  =      6   non local SUM 2l+1 LMDIM =     18
   total plane-waves  NPLWV = ******
   max r-space proj   IRMAX =      1   max aug-charges    IRDMAX= 162631
   dimension x,y,z NGX =   140 NGY =  140 NGZ =  128
   dimension x,y,z NGXF=   280 NGYF=  280 NGZF=  256
   support grid    NGXF=   560 NGYF=  560 NGZF=  512
   ions per type =             128  64  64  64
   NGX,Y,Z   is equivalent  to a cutoff of  14.65, 14.65, 13.80 a.u.
   NGXF,Y,Z  is equivalent  to a cutoff of  29.29, 29.29, 27.61 a.u.

 SYSTEM =  unknown system                          
 POSCAR =  # Compound: Li128Fe64S64O64. Old comment

 Startparameter for this run:
   NWRITE =      1    write-flag & timer
   PREC   = accura    normal or accurate (medium, high low for compatibility)
   ISTART =      0    job   : 0-new  1-cont  2-samecut
   ICHARG =      1    charge: 1-file 2-atom 10-const
   ISPIN  =      2    spin polarized calculation?
   LNONCOLLINEAR =      F non collinear calculations
   LSORBIT =      F    spin-orbit coupling
   INIWAV =      1    electr: 0-lowe 1-rand  2-diag
   LASPH  =      T    aspherical Exc in radial PAW
   METAGGA=      F    non-selfconsistent MetaGGA calc.

 Electronic Relaxation 1
   ENCUT  =  650.0 eV  47.77 Ry    6.91 a.u.  33.03 33.03 32.04*2*pi/ulx,y,z
   ENINI  =  650.0     initial cutoff
   ENAUG  =  628.9 eV  augmentation charge cutoff
   NELM   =    200;   NELMIN=  8; NELMDL=  0     # of ELM steps 
   EDIFF  = 0.1E-05   stopping-criterion for ELM
   LREAL  =      F    real-space projection
   NLSPLINE    = F    spline interpolate recip. space projectors
   LCOMPAT=      F    compatible to vasp.4.4
   GGA_COMPAT  = T    GGA compatible to vasp.4.4-vasp.4.6
   LMAXPAW     = -100 max onsite density
   LMAXMIX     =    4 max onsite mixed and CHGCAR
   VOSKOWN=      0    Vosko Wilk Nusair interpolation
   ROPT   =    0.00000   0.00000   0.00000   0.00000
 Ionic relaxation
   EDIFFG = 0.1E-04   stopping-criterion for IOM
   NSW    =      0    number of steps for IOM
   NBLOCK =      1;   KBLOCK =      1    inner block; outer block 
   IBRION =     -1    ionic relax: 0-MD 1-quasi-New 2-CG
   NFREE  =      0    steps in history (QN), initial steepest desc. (CG)
   ISIF   =      2    stress and relaxation
   IWAVPR =     10    prediction:  0-non 1-charg 2-wave 3-comb
   ISYM   =      2    0-nonsym 1-usesym 2-fastsym
   LCORR  =      T    Harris-Foulkes like correction to forces

   POTIM  = 0.5000    time-step for ionic-motion
   TEIN   =    0.0    initial temperature
   TEBEG  =    0.0;   TEEND  =   0.0 temperature during run
   SMASS  =  -3.00    Nose mass-parameter (am)
   estimated Nose-frequenzy (Omega)   =  0.10E-29 period in steps =****** mass=  -0.577E-26a.u.
   SCALEE = 1.0000    scale energy and forces
   NPACO  =    256;   APACO  = 16.0  distance and # of slots for P.C.
   PSTRESS=    0.0 pullay stress

  Mass of Ions in am
   POMASS =   7.01 55.85 32.07 16.00
  Ionic Valenz
   ZVAL   =   3.00 14.00  6.00  6.00
  Atomic Wigner-Seitz radii
   RWIGS  =  -1.00 -1.00 -1.00 -1.00
  virtual crystal weights 
   VCA    =   1.00  1.00  1.00  1.00
   NELECT =    2048.0000    total number of electrons
   NUPDOWN=      -1.0000    fix difference up-down

 DOS related values:
   EMIN   =  10.00;   EMAX   =-10.00  energy-range for DOS
   EFERMI =   0.00
   ISMEAR =     0;   SIGMA  =   0.05  broadening in eV -4-tet -1-fermi 0-gaus

 Electronic relaxation 2 (details)
   IALGO  =     38    algorithm
   LDIAG  =      T    sub-space diagonalisation (order eigenvalues)
   LSUBROT=      F    optimize rotation matrix (better conditioning)
   TURBO    =      0    0=normal 1=particle mesh
   IRESTART =      0    0=no restart 2=restart with 2 vectors
   NREBOOT  =      0    no. of reboots
   NMIN     =      0    reboot dimension
   EREF     =   0.00    reference energy to select bands
   IMIX   =      4    mixing-type and parameters
     AMIX     =   0.40;   BMIX     =  1.00
     AMIX_MAG =   1.60;   BMIX_MAG =  1.00
     AMIN     =   0.10
     WC   =   100.;   INIMIX=   1;  MIXPRE=   1;  MAXMIX= -45

 Intra band minimization:
   WEIMIN = 0.0000     energy-eigenvalue tresh-hold
   EBREAK =  0.17E-09  absolut break condition
   DEPER  =   0.30     relativ break condition  

   TIME   =   0.40     timestep for ELM

  volume/ion in A,a.u.               =      12.16        82.08
  Fermi-wavevector in a.u.,A,eV,Ry     =   1.321641  2.497539 23.765760  1.746734
  Thomas-Fermi vector in A             =   2.451380
 
 Write flags
   LWAVE        =      F    write WAVECAR
   LDOWNSAMPLE  =      F    k-point downsampling of WAVECAR
   LCHARG       =      T    write CHGCAR
   LVTOT        =      F    write LOCPOT, total local potential
   LVHAR        =      F    write LOCPOT, Hartree potential only
   LELF         =      F    write electronic localiz. function (ELF)
   LORBIT       =      0    0 simple, 1 ext, 2 COOP (PROOUT), +10 PAW based schemes


 Dipole corrections
   LMONO  =      F    monopole corrections only (constant potential shift)
   LDIPOL =      F    correct potential (dipole corrections)
   IDIPOL =      0    1-x, 2-y, 3-z, 4-all directions 
   EPSILON=  1.0000000 bulk dielectric constant

 LDA+U is selected, type is set to LDAUTYPE =  2
   angular momentum for each species LDAUL =    -1    2   -1   -1
   U (eV)           for each species LDAUU =   0.0  4.0  0.0  0.0
   J (eV)           for each species LDAUJ =   0.0  0.0  0.0  0.0
 Exchange correlation treatment:
   GGA     =    PE    GGA type
   LEXCH   =     8    internal setting for exchange type
   VOSKOWN=      0    Vosko Wilk Nusair interpolation
   LHFCALC =     F    Hartree Fock is set to
   LHFONE  =     F    Hartree Fock one center treatment
   AEXX    =    0.0000 exact exchange contribution

 Linear response parameters
   LEPSILON=     F    determine dielectric tensor
   LRPA    =     F    only Hartree local field effects (RPA)
   LNABLA  =     F    use nabla operator in PAW spheres
   LVEL    =     F    velocity operator in full k-point grid
   LINTERFAST=   F  fast interpolation
   KINTER  =     0    interpolate to denser k-point grid
   CSHIFT  =0.1000    complex shift for real part using Kramers Kronig
   OMEGAMAX=  -1.0    maximum frequency
   DEG_THRESHOLD= 0.2000000E-02 threshold for treating states as degnerate
   RTIME   =   -0.100 relaxation time in fs
  (WPLASMAI=    0.000 imaginary part of plasma frequency in eV, 0.658/RTIME)
   DFIELD  = 0.0000000 0.0000000 0.0000000 field for delta impulse in time
 
 Orbital magnetization related:
   ORBITALMAG=     F  switch on orbital magnetization
   LCHIMAG   =     F  perturbation theory with respect to B field
   DQ        =  0.001000  dq finite difference perturbation B field
   LLRAUG    =     F  two centre corrections for induced B field



--------------------------------------------------------------------------------------------------------


 Static calculation
 charge density and potential will be updated during run
 spin polarized calculation
 Variant of blocked Davidson
 Davidson routine will perform the subspace rotation
 perform sub-space diagonalisation
    after iterative eigenvector-optimisation
 modified Broyden-mixing scheme, WC =      100.0
 initial mixing is a Kerker type mixing with AMIX =  0.4000 and BMIX =      1.0000
 Hartree-type preconditioning will be used
 using additional bands          444
 reciprocal scheme for non local part
 use partial core corrections
 calculate Harris-corrections to forces 
   (improved forces if not selfconsistent)
 use gradient corrections 
 use of overlap-Matrix (Vanderbilt PP)
 Gauss-broadening in eV      SIGMA  =   0.05


--------------------------------------------------------------------------------------------------------


  energy-cutoff  :      650.00
  volume of cell :     3892.37
      direct lattice vectors                 reciprocal lattice vectors
    15.890649200  0.000000000  0.000000000     0.062930091  0.000000000  0.000000000
     0.000000000 15.890649200  0.000000000     0.000000000  0.062930091  0.000000000
     0.000000000  0.000000000 15.414554260     0.000000000  0.000000000  0.064873754

  length of vectors
    15.890649200 15.890649200 15.414554260     0.062930091  0.062930091  0.064873754


 
 k-points in units of 2pi/SCALE and weight: # No comment                            
   0.00000000  0.00000000  0.00000000       0.125
   0.03146505  0.00000000  0.00000000       0.125
   0.00000000  0.03146505  0.00000000       0.125
   0.03146505  0.03146505  0.00000000       0.125
   0.00000000  0.00000000  0.03243688       0.125
   0.03146505  0.00000000  0.03243688       0.125
   0.00000000  0.03146505  0.03243688       0.125
   0.03146505  0.03146505  0.03243688       0.125
 
 k-points in reciprocal lattice and weights: # No comment                            
   0.00000000  0.00000000  0.00000000       0.125
   0.50000000  0.00000000  0.00000000       0.125
   0.00000000  0.50000000  0.00000000       0.125
   0.50000000  0.50000000  0.00000000       0.125
   0.00000000  0.00000000  0.50000000       0.125
   0.50000000  0.00000000  0.50000000       0.125
   0.00000000  0.50000000  0.50000000       0.125
   0.50000000  0.50000000  0.50000000       0.125
 
 position of ions in fractional coordinates (direct lattice) 
   0.12500000  0.12500000  0.37500000
   0.37500000  0.12500000  0.37500000
   0.62500000  0.12500000  0.37500000
   0.87500000  0.12500000  0.37500000
   0.12500000  0.37500000  0.37500000
   0.37500000  0.37500000  0.37500000
   0.62500000  0.37500000  0.37500000
   0.87500000  0.37500000  0.37500000
   0.12500000  0.62500000  0.37500000
   0.37500000  0.62500000  0.37500000
   0.62500000  0.62500000  0.37500000
   0.87500000  0.62500000  0.37500000
   0.12500000  0.87500000  0.37500000
   0.37500000  0.87500000  0.37500000
   0.62500000  0.87500000  0.37500000
   0.87500000  0.87500000  0.37500000
   0.12500000  0.12500000  0.87500000
   0.37500000  0.12500000  0.87500000
   0.62500000  0.12500000  0.87500000
   0.87500000  0.12500000  0.87500000
   0.12500000  0.37500000  0.87500000
   0.37500000  0.37500000  0.87500000
   0.62500000  0.37500000  0.87500000
   0.87500000  0.37500000  0.87500000
   0.12500000  0.62500000  0.87500000
   0.37500000  0.62500000  0.87500000
   0.62500000  0.62500000  0.87500000
   0.87500000  0.62500000  0.87500000
   0.12500000  0.87500000  0.87500000
   0.37500000  0.87500000  0.87500000
   0.62500000  0.87500000  0.87500000
   0.87500000  0.87500000  0.87500000
   0.12500000  0.12500000  0.12500000
   0.37500000  0.12500000  0.12500000
   0.62500000  0.12500000  0.12500000
   0.87500000  0.12500000  0.12500000
   0.12500000  0.37500000  0.12500000
   0.37500000  0.37500000  0.12500000
   0.62500000  0.37500000  0.12500000
   0.87500000  0.37500000  0.12500000
   0.12500000  0.62500000  0.12500000
   0.37500000  0.62500000  0.12500000
   0.62500000  0.62500000  0.12500000
   0.87500000  0.62500000  0.12500000
   0.12500000  0.87500000  0.12500000
   0.37500000  0.87500000  0.12500000
   0.62500000  0.87500000  0.12500000
   0.87500000  0.87500000  0.12500000
   0.12500000  0.12500000  0.62500000
   0.37500000  0.12500000  0.62500000
   0.62500000  0.12500000  0.62500000
   0.87500000  0.12500000  0.62500000
   0.12500000  0.37500000  0.62500000
   0.37500000  0.37500000  0.62500000
   0.62500000  0.37500000  0.62500000
   0.87500000  0.37500000  0.62500000
   0.12500000  0.62500000  0.62500000
   0.37500000  0.62500000  0.62500000
   0.62500000  0.62500000  0.62500000
   0.87500000  0.62500000  0.62500000
   0.12500000  0.87500000  0.62500000
   0.37500000  0.87500000  0.62500000
   0.62500000  0.87500000  0.62500000
   0.87500000  0.87500000  0.62500000
   0.12500000  0.00000000  0.25000000
   0.37500000  0.00000000  0.25000000
   0.62500000  0.00000000  0.25000000
   0.87500000  0.00000000  0.25000000
   0.12500000  0.25000000  0.25000000
   0.37500000  0.25000000  0.25000000
   0.62500000  0.25000000  0.25000000
   0.87500000  0.25000000  0.25000000
   0.12500000  0.50000000  0.25000000
   0.37500000  0.50000000  0.25000000
   0.62500000  0.50000000  0.25000000
   0.87500000  0.50000000  0.25000000
   0.12500000  0.75000000  0.25000000
   0.37500000  0.75000000  0.25000000
   0.62500000  0.75000000  0.25000000
   0.87500000  0.75000000  0.25000000
   0.12500000  0.00000000  0.75000000
   0.37500000  0.00000000  0.75000000
   0.62500000  0.00000000  0.75000000
   0.87500000  0.00000000  0.75000000
   0.12500000  0.25000000  0.75000000
   0.37500000  0.25000000  0.75000000
   0.62500000  0.25000000  0.75000000
   0.87500000  0.25000000  0.75000000
   0.12500000  0.50000000  0.75000000
   0.37500000  0.50000000  0.75000000
   0.62500000  0.50000000  0.75000000
   0.87500000  0.50000000  0.75000000
   0.12500000  0.75000000  0.75000000
   0.37500000  0.75000000  0.75000000
   0.62500000  0.75000000  0.75000000
   0.87500000  0.75000000  0.75000000
   0.00000000  0.12500000  0.00000000
   0.25000000  0.12500000  0.00000000
   0.50000000  0.12500000  0.00000000
   0.75000000  0.12500000  0.00000000
   0.00000000  0.37500000  0.00000000
   0.25000000  0.37500000  0.00000000
   0.50000000  0.37500000  0.00000000
   0.75000000  0.37500000  0.00000000
   0.00000000  0.62500000  0.00000000
   0.25000000  0.62500000  0.00000000
   0.50000000  0.62500000  0.00000000
   0.75000000  0.62500000  0.00000000
   0.00000000  0.87500000  0.00000000
   0.25000000  0.87500000  0.00000000
   0.50000000  0.87500000  0.00000000
   0.75000000  0.87500000  0.00000000
   0.00000000  0.12500000  0.50000000
   0.25000000  0.12500000  0.50000000
   0.50000000  0.12500000  0.50000000
   0.75000000  0.12500000  0.50000000
   0.00000000  0.37500000  0.50000000
   0.25000000  0.37500000  0.50000000
   0.50000000  0.37500000  0.50000000
   0.75000000  0.37500000  0.50000000
   0.00000000  0.62500000  0.50000000
   0.25000000  0.62500000  0.50000000
   0.50000000  0.62500000  0.50000000
   0.75000000  0.62500000  0.50000000
   0.00000000  0.87500000  0.50000000
   0.25000000  0.87500000  0.50000000
   0.50000000  0.87500000  0.50000000
   0.75000000  0.87500000  0.50000000
   0.12500000  0.00000000  0.00000000
   0.37500000  0.00000000  0.00000000
   0.62500000  0.00000000  0.00000000
   0.87500000  0.00000000  0.00000000
   0.12500000  0.25000000  0.00000000
   0.37500000  0.25000000  0.00000000
   0.62500000  0.25000000  0.00000000
   0.87500000  0.25000000  0.00000000
   0.12500000  0.50000000  0.00000000
   0.37500000  0.50000000  0.00000000
   0.62500000  0.50000000  0.00000000
   0.87500000  0.50000000  0.00000000
   0.12500000  0.75000000  0.00000000
   0.37500000  0.75000000  0.00000000
   0.62500000  0.75000000  0.00000000
   0.87500000  0.75000000  0.00000000
   0.12500000  0.00000000  0.50000000
   0.37500000  0.00000000  0.50000000
   0.62500000  0.00000000  0.50000000
   0.87500000  0.00000000  0.50000000
   0.12500000  0.25000000  0.50000000
   0.37500000  0.25000000  0.50000000
   0.62500000  0.25000000  0.50000000
   0.87500000  0.25000000  0.50000000
   0.12500000  0.50000000  0.50000000
   0.37500000  0.50000000  0.50000000
   0.62500000  0.50000000  0.50000000
   0.87500000  0.50000000  0.50000000
   0.12500000  0.75000000  0.50000000
   0.37500000  0.75000000  0.50000000
   0.62500000  0.75000000  0.50000000
   0.87500000  0.75000000  0.50000000
   0.00000000  0.12500000  0.25000000
   0.25000000  0.12500000  0.25000000
   0.50000000  0.12500000  0.25000000
   0.75000000  0.12500000  0.25000000
   0.00000000  0.37500000  0.25000000
   0.25000000  0.37500000  0.25000000
   0.50000000  0.37500000  0.25000000
   0.75000000  0.37500000  0.25000000
   0.00000000  0.62500000  0.25000000
   0.25000000  0.62500000  0.25000000
   0.50000000  0.62500000  0.25000000
   0.75000000  0.62500000  0.25000000
   0.00000000  0.87500000  0.25000000
   0.25000000  0.87500000  0.25000000
   0.50000000  0.87500000  0.25000000
   0.75000000  0.87500000  0.25000000
   0.00000000  0.12500000  0.75000000
   0.25000000  0.12500000  0.75000000
   0.50000000  0.12500000  0.75000000
   0.75000000  0.12500000  0.75000000
   0.00000000  0.37500000  0.75000000
   0.25000000  0.37500000  0.75000000
   0.50000000  0.37500000  0.75000000
   0.75000000  0.37500000  0.75000000
   0.00000000  0.62500000  0.75000000
   0.25000000  0.62500000  0.75000000
   0.50000000  0.62500000  0.75000000
   0.75000000  0.62500000  0.75000000
   0.00000000  0.87500000  0.75000000
   0.25000000  0.87500000  0.75000000
   0.50000000  0.87500000  0.75000000
   0.75000000  0.87500000  0.75000000
   0.99954830  0.00000000  0.37454830
   0.25000000  0.00000000  0.37500000
   0.50000000  0.00000000  0.37500000
   0.75000000  0.00000000  0.37500000
   0.00000000  0.25000000  0.37500000
   0.25000000  0.25000000  0.37500000
   0.50000000  0.25000000  0.37500000
   0.75000000  0.25000000  0.37500000
   0.00000000  0.50000000  0.37500000
   0.25000000  0.50000000  0.37500000
   0.50000000  0.50000000  0.37500000
   0.75000000  0.50000000  0.37500000
   0.00000000  0.75000000  0.37500000
   0.25000000  0.75000000  0.37500000
   0.50000000  0.75000000  0.37500000
   0.75000000  0.75000000  0.37500000
   0.00000000  0.00000000  0.87500000
   0.25000000  0.00000000  0.87500000
   0.50000000  0.00000000  0.87500000
   0.75000000  0.00000000  0.87500000
   0.00000000  0.25000000  0.87500000
   0.25000000  0.25000000  0.87500000
   0.50000000  0.25000000  0.87500000
   0.75000000  0.25000000  0.87500000
   0.00000000  0.50000000  0.87500000
   0.25000000  0.50000000  0.87500000
   0.50000000  0.50000000  0.87500000
   0.75000000  0.50000000  0.87500000
   0.00000000  0.75000000  0.87500000
   0.25000000  0.75000000  0.87500000
   0.50000000  0.75000000  0.87500000
   0.75000000  0.75000000  0.87500000
   0.00000000  0.00000000  0.12500000
   0.25000000  0.00000000  0.12500000
   0.50000000  0.00000000  0.12500000
   0.75000000  0.00000000  0.12500000
   0.00000000  0.25000000  0.12500000
   0.25000000  0.25000000  0.12500000
   0.50000000  0.25000000  0.12500000
   0.75000000  0.25000000  0.12500000
   0.00000000  0.50000000  0.12500000
   0.25000000  0.50000000  0.12500000
   0.50000000  0.50000000  0.12500000
   0.75000000  0.50000000  0.12500000
   0.00000000  0.75000000  0.12500000
   0.25000000  0.75000000  0.12500000
   0.50000000  0.75000000  0.12500000
   0.75000000  0.75000000  0.12500000
   0.00000000  0.00000000  0.62500000
   0.25000000  0.00000000  0.62500000
   0.50000000  0.00000000  0.62500000
   0.75000000  0.00000000  0.62500000
   0.00000000  0.25000000  0.62500000
   0.25000000  0.25000000  0.62500000
   0.50000000  0.25000000  0.62500000
   0.75000000  0.25000000  0.62500000
   0.00000000  0.50000000  0.62500000
   0.25000000  0.50000000  0.62500000
   0.50000000  0.50000000  0.62500000
   0.75000000  0.50000000  0.62500000
   0.00000000  0.75000000  0.62500000
   0.25000000  0.75000000  0.62500000
   0.50000000  0.75000000  0.62500000
   0.75000000  0.75000000  0.62500000
   0.12500000  0.12500000  0.00000000
   0.37500000  0.12500000  0.00000000
   0.62500000  0.12500000  0.00000000
   0.87500000  0.12500000  0.00000000
   0.12500000  0.37500000  0.00000000
   0.37500000  0.37500000  0.00000000
   0.62500000  0.37500000  0.00000000
   0.87500000  0.37500000  0.00000000
   0.12500000  0.62500000  0.00000000
   0.37500000  0.62500000  0.00000000
   0.62500000  0.62500000  0.00000000
   0.87500000  0.62500000  0.00000000
   0.12500000  0.87500000  0.00000000
   0.37500000  0.87500000  0.00000000
   0.62500000  0.87500000  0.00000000
   0.87500000  0.87500000  0.00000000
   0.12500000  0.12500000  0.50000000
   0.37500000  0.12500000  0.50000000
   0.62500000  0.12500000  0.50000000
   0.87500000  0.12500000  0.50000000
   0.12500000  0.37500000  0.50000000
   0.37500000  0.37500000  0.50000000
   0.62500000  0.37500000  0.50000000
   0.87500000  0.37500000  0.50000000
   0.12500000  0.62500000  0.50000000
   0.37500000  0.62500000  0.50000000
   0.62500000  0.62500000  0.50000000
   0.87500000  0.62500000  0.50000000
   0.12500000  0.87500000  0.50000000
   0.37500000  0.87500000  0.50000000
   0.62500000  0.87500000  0.50000000
   0.87500000  0.87500000  0.50000000
   0.12500000  0.12500000  0.25000000
   0.37500000  0.12500000  0.25000000
   0.62500000  0.12500000  0.25000000
   0.87500000  0.12500000  0.25000000
   0.12500000  0.37500000  0.25000000
   0.37500000  0.37500000  0.25000000
   0.62500000  0.37500000  0.25000000
   0.87500000  0.37500000  0.25000000
   0.12500000  0.62500000  0.25000000
   0.37500000  0.62500000  0.25000000
   0.62500000  0.62500000  0.25000000
   0.87500000  0.62500000  0.25000000
   0.12500000  0.87500000  0.25000000
   0.37500000  0.87500000  0.25000000
   0.62500000  0.87500000  0.25000000
   0.87500000  0.87500000  0.25000000
   0.12500000  0.12500000  0.75000000
   0.37500000  0.12500000  0.75000000
   0.62500000  0.12500000  0.75000000
   0.87500000  0.12500000  0.75000000
   0.12500000  0.37500000  0.75000000
   0.37500000  0.37500000  0.75000000
   0.62500000  0.37500000  0.75000000
   0.87500000  0.37500000  0.75000000
   0.12500000  0.62500000  0.75000000
   0.37500000  0.62500000  0.75000000
   0.62500000  0.62500000  0.75000000
   0.87500000  0.62500000  0.75000000
   0.12500000  0.87500000  0.75000000
   0.37500000  0.87500000  0.75000000
   0.62500000  0.87500000  0.75000000
   0.87500000  0.87500000  0.75000000
 
 position of ions in cartesian coordinates  (Angst):
   1.98633115  1.98633115  5.78045785
   5.95899345  1.98633115  5.78045785
   9.93165575  1.98633115  5.78045785
  13.90431805  1.98633115  5.78045785
   1.98633115  5.95899345  5.78045785
   5.95899345  5.95899345  5.78045785
   9.93165575  5.95899345  5.78045785
  13.90431805  5.95899345  5.78045785
   1.98633115  9.93165575  5.78045785
   5.95899345  9.93165575  5.78045785
   9.93165575  9.93165575  5.78045785
  13.90431805  9.93165575  5.78045785
   1.98633115 13.90431805  5.78045785
   5.95899345 13.90431805  5.78045785
   9.93165575 13.90431805  5.78045785
  13.90431805 13.90431805  5.78045785
   1.98633115  1.98633115 13.48773498
   5.95899345  1.98633115 13.48773498
   9.93165575  1.98633115 13.48773498
  13.90431805  1.98633115 13.48773498
   1.98633115  5.95899345 13.48773498
   5.95899345  5.95899345 13.48773498
   9.93165575  5.95899345 13.48773498
  13.90431805  5.95899345 13.48773498
   1.98633115  9.93165575 13.48773498
   5.95899345  9.93165575 13.48773498
   9.93165575  9.93165575 13.48773498
  13.90431805  9.93165575 13.48773498
   1.98633115 13.90431805 13.48773498
   5.95899345 13.90431805 13.48773498
   9.93165575 13.90431805 13.48773498
  13.90431805 13.90431805 13.48773498
   1.98633115  1.98633115  1.92681928
   5.95899345  1.98633115  1.92681928
   9.93165575  1.98633115  1.92681928
  13.90431805  1.98633115  1.92681928
   1.98633115  5.95899345  1.92681928
   5.95899345  5.95899345  1.92681928
   9.93165575  5.95899345  1.92681928
  13.90431805  5.95899345  1.92681928
   1.98633115  9.93165575  1.92681928
   5.95899345  9.93165575  1.92681928
   9.93165575  9.93165575  1.92681928
  13.90431805  9.93165575  1.92681928
   1.98633115 13.90431805  1.92681928
   5.95899345 13.90431805  1.92681928
   9.93165575 13.90431805  1.92681928
  13.90431805 13.90431805  1.92681928
   1.98633115  1.98633115  9.63409641
   5.95899345  1.98633115  9.63409641
   9.93165575  1.98633115  9.63409641
  13.90431805  1.98633115  9.63409641
   1.98633115  5.95899345  9.63409641
   5.95899345  5.95899345  9.63409641
   9.93165575  5.95899345  9.63409641
  13.90431805  5.95899345  9.63409641
   1.98633115  9.93165575  9.63409641
   5.95899345  9.93165575  9.63409641
   9.93165575  9.93165575  9.63409641
  13.90431805  9.93165575  9.63409641
   1.98633115 13.90431805  9.63409641
   5.95899345 13.90431805  9.63409641
   9.93165575 13.90431805  9.63409641
  13.90431805 13.90431805  9.63409641
   1.98633115  0.00000000  3.85363856
   5.95899345  0.00000000  3.85363856
   9.93165575  0.00000000  3.85363856
  13.90431805  0.00000000  3.85363856
   1.98633115  3.97266230  3.85363856
   5.95899345  3.97266230  3.85363856
   9.93165575  3.97266230  3.85363856
  13.90431805  3.97266230  3.85363856
   1.98633115  7.94532460  3.85363856
   5.95899345  7.94532460  3.85363856
   9.93165575  7.94532460  3.85363856
  13.90431805  7.94532460  3.85363856
   1.98633115 11.91798690  3.85363856
   5.95899345 11.91798690  3.85363856
   9.93165575 11.91798690  3.85363856
  13.90431805 11.91798690  3.85363856
   1.98633115  0.00000000 11.56091569
   5.95899345  0.00000000 11.56091569
   9.93165575  0.00000000 11.56091569
  13.90431805  0.00000000 11.56091569
   1.98633115  3.97266230 11.56091569
   5.95899345  3.97266230 11.56091569
   9.93165575  3.97266230 11.56091569
  13.90431805  3.97266230 11.56091569
   1.98633115  7.94532460 11.56091569
   5.95899345  7.94532460 11.56091569
   9.93165575  7.94532460 11.56091569
  13.90431805  7.94532460 11.56091569
   1.98633115 11.91798690 11.56091569
   5.95899345 11.91798690 11.56091569
   9.93165575 11.91798690 11.56091569
  13.90431805 11.91798690 11.56091569
   0.00000000  1.98633115  0.00000000
   3.97266230  1.98633115  0.00000000
   7.94532460  1.98633115  0.00000000
  11.91798690  1.98633115  0.00000000
   0.00000000  5.95899345  0.00000000
   3.97266230  5.95899345  0.00000000
   7.94532460  5.95899345  0.00000000
  11.91798690  5.95899345  0.00000000
   0.00000000  9.93165575  0.00000000
   3.97266230  9.93165575  0.00000000
   7.94532460  9.93165575  0.00000000
  11.91798690  9.93165575  0.00000000
   0.00000000 13.90431805  0.00000000
   3.97266230 13.90431805  0.00000000
   7.94532460 13.90431805  0.00000000
  11.91798690 13.90431805  0.00000000
   0.00000000  1.98633115  7.70727713
   3.97266230  1.98633115  7.70727713
   7.94532460  1.98633115  7.70727713
  11.91798690  1.98633115  7.70727713
   0.00000000  5.95899345  7.70727713
   3.97266230  5.95899345  7.70727713
   7.94532460  5.95899345  7.70727713
  11.91798690  5.95899345  7.70727713
   0.00000000  9.93165575  7.70727713
   3.97266230  9.93165575  7.70727713
   7.94532460  9.93165575  7.70727713
  11.91798690  9.93165575  7.70727713
   0.00000000 13.90431805  7.70727713
   3.97266230 13.90431805  7.70727713
   7.94532460 13.90431805  7.70727713
  11.91798690 13.90431805  7.70727713
   1.98633115  0.00000000  0.00000000
   5.95899345  0.00000000  0.00000000
   9.93165575  0.00000000  0.00000000
  13.90431805  0.00000000  0.00000000
   1.98633115  3.97266230  0.00000000
   5.95899345  3.97266230  0.00000000
   9.93165575  3.97266230  0.00000000
  13.90431805  3.97266230  0.00000000
   1.98633115  7.94532460  0.00000000
   5.95899345  7.94532460  0.00000000
   9.93165575  7.94532460  0.00000000
  13.90431805  7.94532460  0.00000000
   1.98633115 11.91798690  0.00000000
   5.95899345 11.91798690  0.00000000
   9.93165575 11.91798690  0.00000000
  13.90431805 11.91798690  0.00000000
   1.98633115  0.00000000  7.70727713
   5.95899345  0.00000000  7.70727713
   9.93165575  0.00000000  7.70727713
  13.90431805  0.00000000  7.70727713
   1.98633115  3.97266230  7.70727713
   5.95899345  3.97266230  7.70727713
   9.93165575  3.97266230  7.70727713
  13.90431805  3.97266230  7.70727713
   1.98633115  7.94532460  7.70727713
   5.95899345  7.94532460  7.70727713
   9.93165575  7.94532460  7.70727713
  13.90431805  7.94532460  7.70727713
   1.98633115 11.91798690  7.70727713
   5.95899345 11.91798690  7.70727713
   9.93165575 11.91798690  7.70727713
  13.90431805 11.91798690  7.70727713
   0.00000000  1.98633115  3.85363856
   3.97266230  1.98633115  3.85363856
   7.94532460  1.98633115  3.85363856
  11.91798690  1.98633115  3.85363856
   0.00000000  5.95899345  3.85363856
   3.97266230  5.95899345  3.85363856
   7.94532460  5.95899345  3.85363856
  11.91798690  5.95899345  3.85363856
   0.00000000  9.93165575  3.85363856
   3.97266230  9.93165575  3.85363856
   7.94532460  9.93165575  3.85363856
  11.91798690  9.93165575  3.85363856
   0.00000000 13.90431805  3.85363856
   3.97266230 13.90431805  3.85363856
   7.94532460 13.90431805  3.85363856
  11.91798690 13.90431805  3.85363856
   0.00000000  1.98633115 11.56091569
   3.97266230  1.98633115 11.56091569
   7.94532460  1.98633115 11.56091569
  11.91798690  1.98633115 11.56091569
   0.00000000  5.95899345 11.56091569
   3.97266230  5.95899345 11.56091569
   7.94532460  5.95899345 11.56091569
  11.91798690  5.95899345 11.56091569
   0.00000000  9.93165575 11.56091569
   3.97266230  9.93165575 11.56091569
   7.94532460  9.93165575 11.56091569
  11.91798690  9.93165575 11.56091569
   0.00000000 13.90431805 11.56091569
   3.97266230 13.90431805 11.56091569
   7.94532460 13.90431805 11.56091569
  11.91798690 13.90431805 11.56091569
  15.88347142  0.00000000  5.77349512
   3.97266230  0.00000000  5.78045785
   7.94532460  0.00000000  5.78045785
  11.91798690  0.00000000  5.78045785
   0.00000000  3.97266230  5.78045785
   3.97266230  3.97266230  5.78045785
   7.94532460  3.97266230  5.78045785
  11.91798690  3.97266230  5.78045785
   0.00000000  7.94532460  5.78045785
   3.97266230  7.94532460  5.78045785
   7.94532460  7.94532460  5.78045785
  11.91798690  7.94532460  5.78045785
   0.00000000 11.91798690  5.78045785
   3.97266230 11.91798690  5.78045785
   7.94532460 11.91798690  5.78045785
  11.91798690 11.91798690  5.78045785
   0.00000000  0.00000000 13.48773498
   3.97266230  0.00000000 13.48773498
   7.94532460  0.00000000 13.48773498
  11.91798690  0.00000000 13.48773498
   0.00000000  3.97266230 13.48773498
   3.97266230  3.97266230 13.48773498
   7.94532460  3.97266230 13.48773498
  11.91798690  3.97266230 13.48773498
   0.00000000  7.94532460 13.48773498
   3.97266230  7.94532460 13.48773498
   7.94532460  7.94532460 13.48773498
  11.91798690  7.94532460 13.48773498
   0.00000000 11.91798690 13.48773498
   3.97266230 11.91798690 13.48773498
   7.94532460 11.91798690 13.48773498
  11.91798690 11.91798690 13.48773498
   0.00000000  0.00000000  1.92681928
   3.97266230  0.00000000  1.92681928
   7.94532460  0.00000000  1.92681928
  11.91798690  0.00000000  1.92681928
   0.00000000  3.97266230  1.92681928
   3.97266230  3.97266230  1.92681928
   7.94532460  3.97266230  1.92681928
  11.91798690  3.97266230  1.92681928
   0.00000000  7.94532460  1.92681928
   3.97266230  7.94532460  1.92681928
   7.94532460  7.94532460  1.92681928
  11.91798690  7.94532460  1.92681928
   0.00000000 11.91798690  1.92681928
   3.97266230 11.91798690  1.92681928
   7.94532460 11.91798690  1.92681928
  11.91798690 11.91798690  1.92681928
   0.00000000  0.00000000  9.63409641
   3.97266230  0.00000000  9.63409641
   7.94532460  0.00000000  9.63409641
  11.91798690  0.00000000  9.63409641
   0.00000000  3.97266230  9.63409641
   3.97266230  3.97266230  9.63409641
   7.94532460  3.97266230  9.63409641
  11.91798690  3.97266230  9.63409641
   0.00000000  7.94532460  9.63409641
   3.97266230  7.94532460  9.63409641
   7.94532460  7.94532460  9.63409641
  11.91798690  7.94532460  9.63409641
   0.00000000 11.91798690  9.63409641
   3.97266230 11.91798690  9.63409641
   7.94532460 11.91798690  9.63409641
  11.91798690 11.91798690  9.63409641
   1.98633115  1.98633115  0.00000000
   5.95899345  1.98633115  0.00000000
   9.93165575  1.98633115  0.00000000
  13.90431805  1.98633115  0.00000000
   1.98633115  5.95899345  0.00000000
   5.95899345  5.95899345  0.00000000
   9.93165575  5.95899345  0.00000000
  13.90431805  5.95899345  0.00000000
   1.98633115  9.93165575  0.00000000
   5.95899345  9.93165575  0.00000000
   9.93165575  9.93165575  0.00000000
  13.90431805  9.93165575  0.00000000
   1.98633115 13.90431805  0.00000000
   5.95899345 13.90431805  0.00000000
   9.93165575 13.90431805  0.00000000
  13.90431805 13.90431805  0.00000000
   1.98633115  1.98633115  7.70727713
   5.95899345  1.98633115  7.70727713
   9.93165575  1.98633115  7.70727713
  13.90431805  1.98633115  7.70727713
   1.98633115  5.95899345  7.70727713
   5.95899345  5.95899345  7.70727713
   9.93165575  5.95899345  7.70727713
  13.90431805  5.95899345  7.70727713
   1.98633115  9.93165575  7.70727713
   5.95899345  9.93165575  7.70727713
   9.93165575  9.93165575  7.70727713
  13.90431805  9.93165575  7.70727713
   1.98633115 13.90431805  7.70727713
   5.95899345 13.90431805  7.70727713
   9.93165575 13.90431805  7.70727713
  13.90431805 13.90431805  7.70727713
   1.98633115  1.98633115  3.85363856
   5.95899345  1.98633115  3.85363856
   9.93165575  1.98633115  3.85363856
  13.90431805  1.98633115  3.85363856
   1.98633115  5.95899345  3.85363856
   5.95899345  5.95899345  3.85363856
   9.93165575  5.95899345  3.85363856
  13.90431805  5.95899345  3.85363856
   1.98633115  9.93165575  3.85363856
   5.95899345  9.93165575  3.85363856
   9.93165575  9.93165575  3.85363856
  13.90431805  9.93165575  3.85363856
   1.98633115 13.90431805  3.85363856
   5.95899345 13.90431805  3.85363856
   9.93165575 13.90431805  3.85363856
  13.90431805 13.90431805  3.85363856
   1.98633115  1.98633115 11.56091569
   5.95899345  1.98633115 11.56091569
   9.93165575  1.98633115 11.56091569
  13.90431805  1.98633115 11.56091569
   1.98633115  5.95899345 11.56091569
   5.95899345  5.95899345 11.56091569
   9.93165575  5.95899345 11.56091569
  13.90431805  5.95899345 11.56091569
   1.98633115  9.93165575 11.56091569
   5.95899345  9.93165575 11.56091569
   9.93165575  9.93165575 11.56091569
  13.90431805  9.93165575 11.56091569
   1.98633115 13.90431805 11.56091569
   5.95899345 13.90431805 11.56091569
   9.93165575 13.90431805 11.56091569
  13.90431805 13.90431805 11.56091569
 


--------------------------------------------------------------------------------------------------------


 k-point  1 :   0.0000 0.0000 0.0000  plane waves:  146281
 k-point  2 :   0.5000 0.0000 0.0000  plane waves:  146286
 k-point  3 :   0.0000 0.5000 0.0000  plane waves:  146286
 k-point  4 :   0.5000 0.5000 0.0000  plane waves:  146676
 k-point  5 :   0.0000 0.0000 0.5000  plane waves:  146400
 k-point  6 :   0.5000 0.0000 0.5000  plane waves:  146444
 k-point  7 :   0.0000 0.5000 0.5000  plane waves:  146444
 k-point  8 :   0.5000 0.5000 0.5000  plane waves:  146656

 maximum and minimum number of plane-waves per node :     24478    24333

 maximum number of plane-waves:    146676
 maximum index in each direction: 
   IXMAX=   33   IYMAX=   33   IZMAX=   32
   IXMIN=  -33   IYMIN=  -33   IZMIN=  -32


 parallel 3D FFT for wavefunctions:
    minimum data exchange during FFTs selected (reduces bandwidth)
 parallel 3D FFT for charge:
    minimum data exchange during FFTs selected (reduces bandwidth)


 total amount of memory used by VASP MPI-rank0  2869263. kBytes
=======================================================================

   base      :      30000. kBytes
   nonl-proj :     238141. kBytes
   fftplans  :     137527. kBytes
   grid      :     117626. kBytes
   one-center:       1679. kBytes
   wavefun   :    2344290. kBytes
 
     INWAV:  cpu time    0.0001: real time    0.0004
 Broyden mixing: mesh for mixing (old mesh)
   NGX = 67   NGY = 67   NGZ = 65
  (NGX  =280   NGY  =280   NGZ  =256)
  gives a total of 291785 points

 initial charge density was supplied:
 number of electron    2048.0000035 magnetization     255.9998543
 keeping initial charge density in first step


--------------------------------------------------------------------------------------------------------


 Maximum index for augmentation-charges         8936 (set IRDMAX)


--------------------------------------------------------------------------------------------------------


 First call to EWALD:  gamma=   0.113
 Maximum number of real-space cells 3x 3x 3
 Maximum number of reciprocal cells 3x 3x 3

    FEWALD:  cpu time    0.0700: real time    0.0780


--------------------------------------- Iteration      1(   1)  ---------------------------------------


    POTLOK:  cpu time    1.6385: real time    1.6789
    SETDIJ:  cpu time    3.4349: real time    3.4991
     EDDAV:  cpu time 3240.7755: real time 3292.1274
       DOS:  cpu time    0.0105: real time    0.0106
    --------------------------------------------
      LOOP:  cpu time 3245.8595: real time 3297.3160

 eigenvalue-minimisations  : 49360
 total energy-change (2. order) : 0.2700565E+05  (-0.1099979E+06)
 number of electron    2048.0000035 magnetization     255.9998543
 augmentation part     2048.0000035 magnetization     255.9998543

 Free energy of the ion-electron system (eV)
  ---------------------------------------------------
  alpha Z        PSCENC =      5158.70835121
  Ewald energy   TEWEN  =   -134470.91694750
  -Hartree energ DENC   =    -72393.22624549
  -exchange      EXHF   =         0.00000000
  -V(xc)+E(xc)   XCENC  =      8795.81863570
  PAW double counting   =    216662.01131297  -223893.40524139
  entropy T*S    EENTRO =        -0.05057521
  eigenvalues    EBANDS =     -1471.85570823
  atomic energy  EATOM  =    228618.57010452
  Solvation  Ediel_sol  =         0.00000000
  ---------------------------------------------------
  free energy    TOTEN  =     27005.65368657 eV

  energy without entropy =    27005.70426179  energy(sigma->0) =    27005.67897418


--------------------------------------------------------------------------------------------------------




--------------------------------------- Iteration      1(   2)  ---------------------------------------


     EDDAV:  cpu time 3111.5254: real time 3161.1361
       DOS:  cpu time    0.0138: real time    0.0138
    --------------------------------------------
      LOOP:  cpu time 3111.5392: real time 3161.1499

 eigenvalue-minimisations  : 46976
 total energy-change (2. order) :-0.2414778E+05  (-0.2242938E+05)
 number of electron    2048.0000035 magnetization     255.9998543
 augmentation part     2048.0000035 magnetization     255.9998543

 Free energy of the ion-electron system (eV)
  ---------------------------------------------------
  alpha Z        PSCENC =      5158.70835121
  Ewald energy   TEWEN  =   -134470.91694750
  -Hartree energ DENC   =    -72393.22624549
  -exchange      EXHF   =         0.00000000
  -V(xc)+E(xc)   XCENC  =      8795.81863570
  PAW double counting   =    216662.01131297  -223893.40524139
  entropy T*S    EENTRO =        -0.13761689
  eigenvalues    EBANDS =    -25619.55144745
  atomic energy  EATOM  =    228618.57010452
  Solvation  Ediel_sol  =         0.00000000
  ---------------------------------------------------
  free energy    TOTEN  =      2857.87090567 eV

  energy without entropy =     2858.00852256  energy(sigma->0) =     2857.93971411


--------------------------------------------------------------------------------------------------------




--------------------------------------- Iteration      1(   3)  ---------------------------------------


     EDDAV:  cpu time 3388.8234: real time 3441.4033
       DOS:  cpu time    0.0077: real time    0.0084
    --------------------------------------------
      LOOP:  cpu time 3388.8311: real time 3441.4118

 eigenvalue-minimisations  : 52288
 total energy-change (2. order) :-0.3901323E+04  (-0.3502762E+04)
 number of electron    2048.0000035 magnetization     255.9998543
 augmentation part     2048.0000035 magnetization     255.9998543

 Free energy of the ion-electron system (eV)
  ---------------------------------------------------
  alpha Z        PSCENC =      5158.70835121
  Ewald energy   TEWEN  =   -134470.91694750
  -Hartree energ DENC   =    -72393.22624549
  -exchange      EXHF   =         0.00000000
  -V(xc)+E(xc)   XCENC  =      8795.81863570
  PAW double counting   =    216662.01131297  -223893.40524139
  entropy T*S    EENTRO =        -0.00000000
  eigenvalues    EBANDS =    -29521.01239295
  atomic energy  EATOM  =    228618.57010452
  Solvation  Ediel_sol  =         0.00000000
  ---------------------------------------------------
  free energy    TOTEN  =     -1043.45242294 eV

  energy without entropy =    -1043.45242294  energy(sigma->0) =    -1043.45242294


--------------------------------------------------------------------------------------------------------




--------------------------------------- Iteration      1(   4)  ---------------------------------------


     EDDAV:  cpu time 3915.7607: real time 3978.4399
       DOS:  cpu time    0.0029: real time    0.0147
    --------------------------------------------
      LOOP:  cpu time 3915.7636: real time 3978.4546

 eigenvalue-minimisations  : 62392
 total energy-change (2. order) :-0.5311978E+03  (-0.5251614E+03)
 number of electron    2048.0000035 magnetization     255.9998543
 augmentation part     2048.0000035 magnetization     255.9998543

 Free energy of the ion-electron system (eV)
  ---------------------------------------------------
  alpha Z        PSCENC =      5158.70835121
  Ewald energy   TEWEN  =   -134470.91694750
  -Hartree energ DENC   =    -72393.22624549
  -exchange      EXHF   =         0.00000000
  -V(xc)+E(xc)   XCENC  =      8795.81863570
  PAW double counting   =    216662.01131297  -223893.40524139
  entropy T*S    EENTRO =        -0.00000000
  eigenvalues    EBANDS =    -30052.21020270
  atomic energy  EATOM  =    228618.57010452
  Solvation  Ediel_sol  =         0.00000000
  ---------------------------------------------------
  free energy    TOTEN  =     -1574.65023268 eV

  energy without entropy =    -1574.65023268  energy(sigma->0) =    -1574.65023268


--------------------------------------------------------------------------------------------------------




--------------------------------------- Iteration      1(   5)  ---------------------------------------


     EDDAV:  cpu time 4874.3952: real time 4952.4313
       DOS:  cpu time    0.0033: real time    0.0086
    CHARGE:  cpu time   35.0817: real time   35.7454
    MIXING:  cpu time    0.0616: real time    0.0619
    --------------------------------------------
      LOOP:  cpu time 4909.5418: real time 4988.2473

 eigenvalue-minimisations  : 80848
 total energy-change (2. order) :-0.6401100E+02  (-0.6346836E+02)
 number of electron    2048.0000036 magnetization     255.9998860
 augmentation part      658.7559696 magnetization     168.3704774

 Broyden mixing:
  rms(total) = 0.45350E+00    rms(broyden)= 0.45330E+00
  rms(prec ) = 0.45853E+00
  weight for this iteration     100.00

 Free energy of the ion-electron system (eV)
  ---------------------------------------------------
  alpha Z        PSCENC =      5158.70835121
  Ewald energy   TEWEN  =   -134470.91694750
  -Hartree energ DENC   =    -72393.22624549
  -exchange      EXHF   =         0.00000000
  -V(xc)+E(xc)   XCENC  =      8795.81863570
  PAW double counting   =    216662.01131297  -223893.40524139
  entropy T*S    EENTRO =        -0.00000000
  eigenvalues    EBANDS =    -30116.22120356
  atomic energy  EATOM  =    228618.57010452
  Solvation  Ediel_sol  =         0.00000000
  ---------------------------------------------------
  free energy    TOTEN  =     -1638.66123355 eV

  energy without entropy =    -1638.66123355  energy(sigma->0) =    -1638.66123355


--------------------------------------------------------------------------------------------------------




--------------------------------------- Iteration      1(   6)  ---------------------------------------


    POTLOK:  cpu time    1.5762: real time    1.6023
    SETDIJ:  cpu time    3.4954: real time    3.5562
     EDDAV:  cpu time 4129.8617: real time 4196.3634
       DOS:  cpu time    0.0056: real time    0.0063
    CHARGE:  cpu time   34.7151: real time   35.5909
    MIXING:  cpu time    0.0774: real time    0.1086
    --------------------------------------------
      LOOP:  cpu time 4169.7314: real time 4237.2278

 eigenvalue-minimisations  : 66568
 total energy-change (2. order) :-0.3029993E+01  (-0.3130469E+01)
 number of electron    2048.0000035 magnetization     255.9999036
 augmentation part      655.2644521 magnetization     168.6298822

 Broyden mixing:
  rms(total) = 0.19851E+00    rms(broyden)= 0.19833E+00
  rms(prec ) = 0.19974E+00
  weight for this iteration     100.00

 eigenvalues of (default mixing * dielectric matrix)
  average eigenvalue GAMMA=   0.6625
  0.6625

 Free energy of the ion-electron system (eV)
  ---------------------------------------------------
  alpha Z        PSCENC =      5158.70835121
  Ewald energy   TEWEN  =   -134470.91694750
  -Hartree energ DENC   =    -72376.11200781
  -exchange      EXHF   =         0.00000000
  -V(xc)+E(xc)   XCENC  =      8793.27195284
  PAW double counting   =    216260.66328182  -223480.55731292
  entropy T*S    EENTRO =        -0.00000000
  eigenvalues    EBANDS =    -30145.31864837
  atomic energy  EATOM  =    228618.57010452
  Solvation  Ediel_sol  =         0.00000000
  ---------------------------------------------------
  free energy    TOTEN  =     -1641.69122621 eV

  energy without entropy =    -1641.69122621  energy(sigma->0) =    -1641.69122621


--------------------------------------------------------------------------------------------------------




--------------------------------------- Iteration      1(   7)  ---------------------------------------


    POTLOK:  cpu time    1.5614: real time    1.5804
    SETDIJ:  cpu time    3.5061: real time    3.5244
     EDDAV:  cpu time 4581.2892: real time 4653.5342
       DOS:  cpu time    0.0057: real time    0.0069
    CHARGE:  cpu time   35.1783: real time   35.5970
    MIXING:  cpu time    0.0567: real time    0.0884
    --------------------------------------------
      LOOP:  cpu time 4621.5974: real time 4694.3313

 eigenvalue-minimisations  : 75096
 total energy-change (2. order) :-0.1522552E+00  (-0.1553819E+00)
 number of electron    2048.0000035 magnetization     255.9999119
 augmentation part      654.6318106 magnetization     168.4717191

 Broyden mixing:
  rms(total) = 0.13546E+00    rms(broyden)= 0.13539E+00
  rms(prec ) = 0.13747E+00
  weight for this iteration     100.00

 eigenvalues of (default mixing * dielectric matrix)
  average eigenvalue GAMMA=   0.5923
  0.5923  0.5923

 Free energy of the ion-electron system (eV)
  ---------------------------------------------------
  alpha Z        PSCENC =      5158.70835121
  Ewald energy   TEWEN  =   -134470.91694750
  -Hartree energ DENC   =    -72381.49576786
  -exchange      EXHF   =         0.00000000
  -V(xc)+E(xc)   XCENC  =      8793.95041281
  PAW double counting   =    216374.06022799  -223596.79068378
  entropy T*S    EENTRO =        -0.00000000
  eigenvalues    EBANDS =    -30137.92917880
  atomic energy  EATOM  =    228618.57010452
  Solvation  Ediel_sol  =         0.00000000
  ---------------------------------------------------
  free energy    TOTEN  =     -1641.84348140 eV

  energy without entropy =    -1641.84348140  energy(sigma->0) =    -1641.84348140


--------------------------------------------------------------------------------------------------------




--------------------------------------- Iteration      1(   8)  ---------------------------------------


    POTLOK:  cpu time    1.5845: real time    1.6166
    SETDIJ:  cpu time    3.5341: real time    3.5729
     EDDAV:  cpu time 4321.8772: real time 4390.2648
       DOS:  cpu time    0.0035: real time    0.0072
    CHARGE:  cpu time   35.3253: real time   35.9019
    MIXING:  cpu time    0.0615: real time    0.0710
    --------------------------------------------
      LOOP:  cpu time 4362.3861: real time 4431.4343

 eigenvalue-minimisations  : 70216
 total energy-change (2. order) :-0.2994807E-03  (-0.6001937E-02)
 number of electron    2048.0000035 magnetization     255.9999148
 augmentation part      654.5220115 magnetization     168.4444686

 Broyden mixing:
  rms(total) = 0.12070E+00    rms(broyden)= 0.12069E+00
  rms(prec ) = 0.12253E+00
  weight for this iteration     100.00

 eigenvalues of (default mixing * dielectric matrix)
  average eigenvalue GAMMA=   0.5152
  0.5952  0.5952  0.3553

 Free energy of the ion-electron system (eV)
  ---------------------------------------------------
  alpha Z        PSCENC =      5158.70835121
  Ewald energy   TEWEN  =   -134470.91694750
  -Hartree energ DENC   =    -72383.19819338
  -exchange      EXHF   =         0.00000000
  -V(xc)+E(xc)   XCENC  =      8794.24877163
  PAW double counting   =    216420.24529194  -223644.51264281
  entropy T*S    EENTRO =        -0.00000000
  eigenvalues    EBANDS =    -30134.98851649
  atomic energy  EATOM  =    228618.57010452
  Solvation  Ediel_sol  =         0.00000000
  ---------------------------------------------------
  free energy    TOTEN  =     -1641.84378088 eV

  energy without entropy =    -1641.84378088  energy(sigma->0) =    -1641.84378088


--------------------------------------------------------------------------------------------------------




--------------------------------------- Iteration      1(   9)  ---------------------------------------


    POTLOK:  cpu time    1.5638: real time    1.6021
[...]
     11.91799      9.93166      0.00000         0.000014      0.000111      0.000170
      0.00000     13.90432      0.00000        -0.000068      0.000379      0.000587
      3.97266     13.90432      0.00000        -0.000100     -0.000020      0.000068
      7.94532     13.90432      0.00000         0.000090      0.000009      0.000057
     11.91799     13.90432      0.00000         0.000086      0.000106      0.000279
      0.00000      1.98633      7.70728        -0.001939      0.001461      0.000147
      3.97266      1.98633      7.70728         0.001043      0.000393      0.000040
      7.94532      1.98633      7.70728         0.000260      0.000022     -0.000059
     11.91799      1.98633      7.70728        -0.000079     -0.000260     -0.000454
      0.00000      5.95899      7.70728        -0.000120      0.000020     -0.000225
      3.97266      5.95899      7.70728         0.000064      0.000151     -0.000049
      7.94532      5.95899      7.70728         0.000095      0.000010     -0.000040
     11.91799      5.95899      7.70728        -0.000027     -0.000078     -0.000160
      0.00000      9.93166      7.70728        -0.000120     -0.000020     -0.000225
      3.97266      9.93166      7.70728         0.000064     -0.000151     -0.000049
      7.94532      9.93166      7.70728         0.000095     -0.000010     -0.000040
     11.91799      9.93166      7.70728        -0.000027      0.000078     -0.000160
      0.00000     13.90432      7.70728        -0.001939     -0.001461      0.000147
      3.97266     13.90432      7.70728         0.001043     -0.000393      0.000040
      7.94532     13.90432      7.70728         0.000260     -0.000022     -0.000059
     11.91799     13.90432      7.70728        -0.000079      0.000260     -0.000454
      1.98633      0.00000      0.00000        -0.001094      0.000000      0.000853
      5.95899      0.00000      0.00000         0.000167      0.000000      0.000174
      9.93166      0.00000      0.00000         0.000440      0.000000      0.000422
     13.90432      0.00000      0.00000         0.000386      0.000000      0.000938
      1.98633      3.97266      0.00000        -0.000326     -0.000162      0.000321
      5.95899      3.97266      0.00000         0.000108      0.000000      0.000117
      9.93166      3.97266      0.00000         0.000282     -0.000071      0.000274
     13.90432      3.97266      0.00000        -0.000050     -0.000275      0.000421
      1.98633      7.94532      0.00000        -0.000114      0.000000      0.000105
      5.95899      7.94532      0.00000         0.000068      0.000000      0.000060
      9.93166      7.94532      0.00000         0.000098      0.000000      0.000083
     13.90432      7.94532      0.00000        -0.000053      0.000000      0.000130
      1.98633     11.91799      0.00000        -0.000326      0.000162      0.000321
      5.95899     11.91799      0.00000         0.000108     -0.000000      0.000117
      9.93166     11.91799      0.00000         0.000282      0.000071      0.000274
     13.90432     11.91799      0.00000        -0.000050      0.000275      0.000421
      1.98633      0.00000      7.70728         0.001138      0.000000      0.001772
      5.95899      0.00000      7.70728         0.000909      0.000000      0.000294
      9.93166      0.00000      7.70728         0.000788      0.000000     -0.000940
     13.90432      0.00000      7.70728        -0.003687      0.000000     -0.002355
      1.98633      3.97266      7.70728        -0.000391      0.003047     -0.000385
      5.95899      3.97266      7.70728         0.000341      0.000310     -0.000120
      9.93166      3.97266      7.70728         0.000248     -0.000133     -0.000243
     13.90432      3.97266      7.70728        -0.000306      0.000119     -0.000398
      1.98633      7.94532      7.70728        -0.000104      0.000000     -0.000097
      5.95899      7.94532      7.70728         0.000125      0.000000     -0.000060
      9.93166      7.94532      7.70728         0.000097      0.000000     -0.000084
     13.90432      7.94532      7.70728        -0.000115      0.000000     -0.000122
      1.98633     11.91799      7.70728        -0.000391     -0.003047     -0.000385
      5.95899     11.91799      7.70728         0.000341     -0.000310     -0.000120
      9.93166     11.91799      7.70728         0.000248      0.000133     -0.000243
     13.90432     11.91799      7.70728        -0.000306     -0.000119     -0.000398
      0.00000      1.98633      3.85364        -0.004422     -0.002307     -0.000410
      3.97266      1.98633      3.85364        -0.000415      0.000574     -0.000921
      7.94532      1.98633      3.85364         0.000769     -0.000005     -0.000110
     11.91799      1.98633      3.85364         0.002756     -0.000486      0.000134
      0.00000      5.95899      3.85364        -0.000183     -0.000060     -0.000324
      3.97266      5.95899      3.85364        -0.000104      0.000137     -0.000287
      7.94532      5.95899      3.85364         0.000221     -0.000014     -0.000073
     11.91799      5.95899      3.85364         0.000073     -0.000229     -0.000077
      0.00000      9.93166      3.85364        -0.000183      0.000060     -0.000324
      3.97266      9.93166      3.85364        -0.000104     -0.000137     -0.000287
      7.94532      9.93166      3.85364         0.000221      0.000014     -0.000073
     11.91799      9.93166      3.85364         0.000073      0.000229     -0.000077
      0.00000     13.90432      3.85364        -0.004422      0.002307     -0.000410
      3.97266     13.90432      3.85364        -0.000415     -0.000574     -0.000921
      7.94532     13.90432      3.85364         0.000769      0.000005     -0.000110
     11.91799     13.90432      3.85364         0.002756      0.000486      0.000134
      0.00000      1.98633     11.56092        -0.000197      0.000738      0.000895
      3.97266      1.98633     11.56092         0.000177      0.000324      0.000611
      7.94532      1.98633     11.56092         0.000271      0.000030      0.000117
     11.91799      1.98633     11.56092        -0.000259     -0.000049      0.000133
      0.00000      5.95899     11.56092        -0.000098      0.000136      0.000298
      3.97266      5.95899     11.56092         0.000008      0.000198      0.000311
      7.94532      5.95899     11.56092         0.000144      0.000015      0.000071
     11.91799      5.95899     11.56092        -0.000062     -0.000024      0.000080
      0.00000      9.93166     11.56092        -0.000098     -0.000136      0.000298
      3.97266      9.93166     11.56092         0.000008     -0.000198      0.000311
      7.94532      9.93166     11.56092         0.000144     -0.000015      0.000071
     11.91799      9.93166     11.56092        -0.000062      0.000024      0.000080
      0.00000     13.90432     11.56092        -0.000197     -0.000738      0.000895
      3.97266     13.90432     11.56092         0.000177     -0.000324      0.000611
      7.94532     13.90432     11.56092         0.000271     -0.000030      0.000117
     11.91799     13.90432     11.56092        -0.000259      0.000049      0.000133
     15.88347      0.00000      5.77350         0.030132      0.000000      0.028973
      3.97266      0.00000      5.78046        -0.004385      0.000000      0.001531
      7.94532      0.00000      5.78046        -0.001126      0.000000      0.000202
     11.91799      0.00000      5.78046        -0.004086      0.000000      0.001209
      0.00000      3.97266      5.78046         0.001054      0.000151      0.001369
      3.97266      3.97266      5.78046        -0.000266     -0.000497      0.000589
      7.94532      3.97266      5.78046        -0.000337      0.000001      0.000140
     11.91799      3.97266      5.78046        -0.000226      0.000539      0.000548
      0.00000      7.94532      5.78046         0.000156      0.000000      0.000203
      3.97266      7.94532      5.78046        -0.000007      0.000000      0.000143
      7.94532      7.94532      5.78046        -0.000151      0.000000      0.000083
     11.91799      7.94532      5.78046        -0.000003      0.000000      0.000138
      0.00000     11.91799      5.78046         0.001054     -0.000151      0.001369
      3.97266     11.91799      5.78046        -0.000266      0.000497      0.000589
      7.94532     11.91799      5.78046        -0.000337     -0.000001      0.000140
     11.91799     11.91799      5.78046        -0.000226     -0.000539      0.000548
      0.00000      0.00000     13.48773         0.000131      0.000000     -0.001450
      3.97266      0.00000     13.48773         0.000077      0.000000     -0.000527
      7.94532      0.00000     13.48773        -0.000180      0.000000     -0.000214
     11.91799      0.00000     13.48773        -0.000037      0.000000     -0.000411
      0.00000      3.97266     13.48773         0.000118     -0.000058     -0.000467
      3.97266      3.97266     13.48773         0.000032     -0.000058     -0.000341
      7.94532      3.97266     13.48773        -0.000141     -0.000014     -0.000166
     11.91799      3.97266     13.48773        -0.000005      0.000020     -0.000300
      0.00000      7.94532     13.48773         0.000086      0.000000     -0.000215
      3.97266      7.94532     13.48773         0.000021      0.000000     -0.000182
      7.94532      7.94532     13.48773        -0.000104      0.000000     -0.000118
     11.91799      7.94532     13.48773        -0.000005      0.000000     -0.000152
      0.00000     11.91799     13.48773         0.000118      0.000058     -0.000467
      3.97266     11.91799     13.48773         0.000032      0.000058     -0.000341
      7.94532     11.91799     13.48773        -0.000141      0.000014     -0.000166
     11.91799     11.91799     13.48773        -0.000005     -0.000020     -0.000300
      0.00000      0.00000      1.92682         0.001224      0.000000     -0.004879
      3.97266      0.00000      1.92682         0.000359      0.000000      0.000318
      7.94532      0.00000      1.92682        -0.000345      0.000000      0.000003
     11.91799      0.00000      1.92682        -0.000788      0.000000     -0.000867
      0.00000      3.97266      1.92682         0.000407      0.000857     -0.000448
      3.97266      3.97266      1.92682         0.000160      0.000017      0.000118
      7.94532      3.97266      1.92682        -0.000248      0.000034      0.000009
     11.91799      3.97266      1.92682        -0.000499      0.000632     -0.000565
      0.00000      7.94532      1.92682         0.000110      0.000000     -0.000009
      3.97266      7.94532      1.92682         0.000050      0.000000      0.000063
      7.94532      7.94532      1.92682        -0.000123      0.000000      0.000015
     11.91799      7.94532      1.92682        -0.000037      0.000000     -0.000032
      0.00000     11.91799      1.92682         0.000407     -0.000857     -0.000448
      3.97266     11.91799      1.92682         0.000160     -0.000017      0.000118
      7.94532     11.91799      1.92682        -0.000248     -0.000034      0.000009
     11.91799     11.91799      1.92682        -0.000499     -0.000632     -0.000565
      0.00000      0.00000      9.63410         0.001463      0.000000     -0.004843
      3.97266      0.00000      9.63410        -0.001168      0.000000     -0.001333
      7.94532      0.00000      9.63410        -0.000432      0.000000     -0.000010
     11.91799      0.00000      9.63410         0.000547      0.000000      0.000434
      0.00000      3.97266      9.63410         0.000518     -0.000572     -0.000276
      3.97266      3.97266      9.63410        -0.000537     -0.000635     -0.000557
      7.94532      3.97266      9.63410        -0.000262     -0.000045      0.000015
     11.91799      3.97266      9.63410         0.000110     -0.000025      0.000110
      0.00000      7.94532      9.63410         0.000140      0.000000      0.000003
      3.97266      7.94532      9.63410        -0.000038      0.000000     -0.000027
      7.94532      7.94532      9.63410        -0.000132      0.000000      0.000016
     11.91799      7.94532      9.63410         0.000029      0.000000      0.000045
      0.00000     11.91799      9.63410         0.000518      0.000572     -0.000276
      3.97266     11.91799      9.63410        -0.000537      0.000635     -0.000557
      7.94532     11.91799      9.63410        -0.000262      0.000045      0.000015
     11.91799     11.91799      9.63410         0.000110      0.000025      0.000110
      1.98633      1.98633      0.00000         0.000505      0.000432     -0.000485
      5.95899      1.98633      0.00000        -0.000098     -0.000005     -0.000105
      9.93166      1.98633      0.00000        -0.000275      0.000147     -0.000267
     13.90432      1.98633      0.00000        -0.000110      0.000466     -0.000655
      1.98633      5.95899      0.00000         0.000217      0.000149     -0.000217
      5.95899      5.95899      0.00000        -0.000075      0.000006     -0.000080
      9.93166      5.95899      0.00000        -0.000194      0.000166     -0.000179
     13.90432      5.95899      0.00000         0.000035      0.000229     -0.000259
      1.98633      9.93166      0.00000         0.000217     -0.000149     -0.000217
      5.95899      9.93166      0.00000        -0.000075     -0.000006     -0.000080
      9.93166      9.93166      0.00000        -0.000194     -0.000166     -0.000179
     13.90432      9.93166      0.00000         0.000035     -0.000229     -0.000259
      1.98633     13.90432      0.00000         0.000505     -0.000432     -0.000485
      5.95899     13.90432      0.00000        -0.000098      0.000005     -0.000105
      9.93166     13.90432      0.00000        -0.000275     -0.000147     -0.000267
     13.90432     13.90432      0.00000        -0.000110     -0.000466     -0.000655
      1.98633      1.98633      7.70728        -0.004745     -0.009581     -0.004648
      5.95899      1.98633      7.70728        -0.000602     -0.000532     -0.000034
      9.93166      1.98633      7.70728        -0.000403      0.000364      0.000434
     13.90432      1.98633      7.70728         0.001395     -0.000087      0.001184
      1.98633      5.95899      7.70728         0.000212     -0.000549      0.000211
      5.95899      5.95899      7.70728        -0.000205     -0.000184      0.000080
      9.93166      5.95899      7.70728        -0.000169      0.000101      0.000160
     13.90432      5.95899      7.70728         0.000180      0.000008      0.000242
      1.98633      9.93166      7.70728         0.000212      0.000549      0.000211
      5.95899      9.93166      7.70728        -0.000205      0.000184      0.000080
      9.93166      9.93166      7.70728        -0.000169     -0.000101      0.000160
     13.90432      9.93166      7.70728         0.000180     -0.000008      0.000242
      1.98633     13.90432      7.70728        -0.004745      0.009581     -0.004648
      5.95899     13.90432      7.70728        -0.000602      0.000532     -0.000034
      9.93166     13.90432      7.70728        -0.000403     -0.000364      0.000434
     13.90432     13.90432      7.70728         0.001395      0.000087      0.001184
      1.98633      1.98633      3.85364         0.002861     -0.000217      0.001471
      5.95899      1.98633      3.85364        -0.000696     -0.000301      0.000511
      9.93166      1.98633      3.85364        -0.001238      0.000269     -0.000059
     13.90432      1.98633      3.85364        -0.006855      0.006408     -0.004966
      1.98633      5.95899      3.85364         0.000385      0.000025      0.000209
      5.95899      5.95899      3.85364        -0.000258     -0.000062      0.000162
      9.93166      5.95899      3.85364        -0.000336      0.000101      0.000075
     13.90432      5.95899      3.85364         0.000221      0.000175      0.000190
      1.98633      9.93166      3.85364         0.000385     -0.000025      0.000209
      5.95899      9.93166      3.85364        -0.000258      0.000062      0.000162
      9.93166      9.93166      3.85364        -0.000336     -0.000101      0.000075
     13.90432      9.93166      3.85364         0.000221     -0.000175      0.000190
      1.98633     13.90432      3.85364         0.002861      0.000217      0.001471
      5.95899     13.90432      3.85364        -0.000696      0.000301      0.000511
      9.93166     13.90432      3.85364        -0.001238     -0.000269     -0.000059
     13.90432     13.90432      3.85364        -0.006855     -0.006408     -0.004966
      1.98633      1.98633     11.56092        -0.000076     -0.000314     -0.000654
      5.95899      1.98633     11.56092        -0.000554     -0.000168     -0.000354
      9.93166      1.98633     11.56092        -0.000178     -0.000017     -0.000124
     13.90432      1.98633     11.56092         0.000820     -0.000293     -0.000485
      1.98633      5.95899     11.56092         0.000132     -0.000105     -0.000205
      5.95899      5.95899     11.56092        -0.000302     -0.000113     -0.000183
      9.93166      5.95899     11.56092        -0.000127     -0.000006     -0.000074
     13.90432      5.95899     11.56092         0.000275     -0.000071     -0.000171
      1.98633      9.93166     11.56092         0.000132      0.000105     -0.000205
      5.95899      9.93166     11.56092        -0.000302      0.000113     -0.000183
      9.93166      9.93166     11.56092        -0.000127      0.000006     -0.000074
     13.90432      9.93166     11.56092         0.000275      0.000071     -0.000171
      1.98633     13.90432     11.56092        -0.000076      0.000314     -0.000654
      5.95899     13.90432     11.56092        -0.000554      0.000168     -0.000354
      9.93166     13.90432     11.56092        -0.000178      0.000017     -0.000124
     13.90432     13.90432     11.56092         0.000820      0.000293     -0.000485
 -----------------------------------------------------------------------------------
    total drift:                                0.000005      0.000000     -0.000003


--------------------------------------------------------------------------------------------------------



  FREE ENERGIE OF THE ION-ELECTRON SYSTEM (eV)
  ---------------------------------------------------
  free  energy   TOTEN  =     -1641.83199518 eV

  energy  without entropy=    -1641.83199518  energy(sigma->0) =    -1641.83199518
 


--------------------------------------------------------------------------------------------------------


    POTLOK:  cpu time    4.9977: real time    5.1029


--------------------------------------------------------------------------------------------------------


     LOOP+:  cpu time94254.2479: real time95745.5893
    4ORBIT:  cpu time    0.0000: real time    0.0000

 total amount of memory used by VASP MPI-rank0  2869263. kBytes
=======================================================================

   base      :      30000. kBytes
   nonl-proj :     238141. kBytes
   fftplans  :     137527. kBytes
   grid      :     117626. kBytes
   one-center:       1679. kBytes
   wavefun   :    2344290. kBytes
 
  
  
 General timing and accounting informations for this job:
 ========================================================
  
                  Total CPU time used (sec):    95061.070
                            User time (sec):    94764.217
                          System time (sec):      296.856
                         Elapsed time (sec):    96575.562
  
                   Maximum memory used (kb):     3101288.
                   Average memory used (kb):           0.
  
                          Minor page faults:     10708779
                          Major page faults:           39
                 Voluntary context switches:       785839
