   28   28    1    2
  0.1322499E+02  0.7638529E-09  0.7638540E-09  0.6897437E-09  0.5000000E-15
   1.0000000000000000E-004
  CAR 
 unknown system                          
    208     14    160

  0.1262379E-14  0.1262379E-14  0.1262379E-14  0.2777778E-01
    1      -55.858836    -49.199926   1.000000   1.000000
    2      -55.857704    -49.197348   1.000000   1.000000
    3      -55.857704    -49.197345   1.000000   1.000000
    4      -55.857486    -49.197268   1.000000   1.000000
    5      -55.857206    -49.197265   1.000000   1.000000
    6      -55.857206    -49.196918   1.000000   1.000000
    7      -55.857032    -49.196862   1.000000   1.000000
    8      -55.856230    -49.194776   1.000000   1.000000
    9      -54.304390    -49.160920   1.000000   1.000000
   10      -54.304228    -49.160635   1.000000   1.000000
   11      -54.303600    -49.159838   1.000000   1.000000
   12      -54.303530    -49.159078   1.000000   1.000000
   13      -54.303484    -49.158981   1.000000   1.000000
   14      -54.303414    -49.158597   1.000000   1.000000
   15      -54.303151    -49.158160   1.000000   1.000000
   16      -54.302791    -49.157775   1.000000   1.000000
   17      -54.302263    -49.156899   1.000000   1.000000
   18      -54.302050    -49.156814   1.000000   1.000000
   19      -54.301978    -49.156528   1.000000   1.000000
   20      -54.301893    -49.156293   1.000000   1.000000
   21      -54.301831    -49.156127   1.000000   1.000000
   22      -54.301821    -49.156074   1.000000   1.000000
   23      -54.301316    -49.155703   1.000000   1.000000
   24      -54.301114    -49.155345   1.000000   1.000000
   25      -43.074902    -43.075661   1.000000   1.000000
   26      -43.047137    -43.048213   1.000000   1.000000
   27      -43.047134    -43.048211   1.000000   1.000000
   28      -43.045922    -43.047001   1.000000   1.000000
   29      -43.045916    -43.046995   1.000000   1.000000
   30      -43.045002    -43.046118   1.000000   1.000000
   31      -43.044960    -43.046068   1.000000   1.000000
   32      -43.021077    -43.022403   1.000000   1.000000
   33      -15.390459    -14.983947   1.000000   1.000000
   34      -15.330414    -14.923224   1.000000   1.000000
   35      -15.330413    -14.923223   1.000000   1.000000
   36      -15.290323    -14.884116   1.000000   1.000000
   37       -9.569204     -9.272862   1.000000   1.000000
   38       -8.804536     -8.511542   1.000000   1.000000
   39       -8.804532     -8.511539   1.000000   1.000000
   40       -8.720327     -8.376299   1.000000   1.000000
   41       -8.648734     -8.354980   1.000000   1.000000
   42       -8.648730     -8.354977   1.000000   1.000000
   43       -8.574894     -8.217150   1.000000   1.000000
   44       -8.430417     -8.062542   1.000000   1.000000
   45       -2.495515     -1.522070   1.000000   1.000000
   46       -2.472570     -1.522035   1.000000   1.000000
   47       -2.472563     -0.901390   1.000000   1.000000
   48       -2.153616     -0.522874   1.000000   1.000000
   49       -1.620562     -0.449942   1.000000   1.000000
   50       -1.620558     -0.289232   1.000000   1.000000
   51       -1.484074     -0.289209   1.000000   1.000000
   52       -1.484065     -0.174473   1.000000   1.000000
   53       -1.393028     -0.043413   1.000000   1.000000
   54       -1.286544     -0.043407   1.000000   1.000000
   55       -1.118186      0.167789   1.000000   1.000000
   56       -1.092664      0.177984   1.000000   1.000000
   57       -1.073854      0.259551   1.000000   1.000000
   58       -1.073841      0.325920   1.000000   1.000000
   59       -1.033508      0.598113   1.000000   1.000000
   60       -0.984893      0.598126   1.000000   1.000000
   61       -0.984889      0.941772   1.000000   1.000000
   62       -0.812657      0.941848   1.000000   1.000000
   63       -0.812648      1.151071   1.000000   1.000000
   64       -0.783028      1.554061   1.000000   1.000000
   65       -0.716396      1.574450   1.000000   1.000000
   66       -0.716386      2.094249   1.000000   1.000000
   67       -0.637782      2.094317   1.000000   1.000000
   68       -0.575195      2.419235   1.000000   1.000000
   69       -0.476049      2.532048   1.000000   1.000000
   70       -0.476045      2.534583   1.000000   1.000000
   71       -0.443129      2.534588   1.000000   1.000000
   72       -0.424576      2.538037   1.000000   1.000000
   73       -0.424543      2.553630   1.000000   1.000000
   74       -0.088208      2.553658   1.000000   1.000000
   75       -0.088187      2.699021   1.000000   1.000000
   76        0.118551      2.699027   1.000000   1.000000
   77        0.143659      2.906879   1.000000   1.000000
   78        0.278083      2.985566   1.000000   1.000000
   79        0.638649      3.382598   1.000000   1.000000
   80        0.638683      3.499415   1.000000   1.000000
   81        0.642010      3.920064   1.000000   1.000000
   82        0.670968      3.923430   1.000000   1.000000
   83        0.838235      4.098826   1.000000   1.000000
   84        0.862594      4.107048   1.000000   1.000000
   85        1.133336      4.165606   1.000000   1.000000
   86        1.175028      4.165720   1.000000   1.000000
   87        1.194906      4.191884   1.000000   1.000000
   88        1.194921      4.192032   1.000000   1.000000
   89        1.285218      6.688915   1.000000   0.000000
   90        1.293284      7.102133   1.000000   0.000000
   91        1.310750      7.366233   1.000000   0.000000
   92        1.310757      7.477051   1.000000   0.000000
   93        1.355328      7.681181   1.000000   0.000000
   94        1.513346      7.682574   1.000000   0.000000
   95        1.513378      7.818518   1.000000   0.000000
   96        1.529983      8.137343   1.000000   0.000000
   97        1.583381      8.147276   1.000000   0.000000
   98        1.588118      8.147438   1.000000   0.000000
   99        1.726501      8.160190   1.000000   0.000000
  100        1.726506      8.174999   1.000000   0.000000
  101        1.784744      8.175194   1.000000   0.000000
  102        1.892990      8.574087   1.000000   0.000000
  103        1.892999      8.581399   1.000000   0.000000
  104        2.021832      8.581586   1.000000   0.000000
  105        2.323228      8.660218   1.000000   0.000000
  106        2.330593      8.717633   1.000000   0.000000
  107        2.368882      8.717837   1.000000   0.000000
  108        2.370917      9.058592   1.000000   0.000000
  109        2.600035      9.065772   1.000000   0.000000
  110        3.251489      9.069720   1.000000   0.000000
  111        3.593406      9.103392   1.000000   0.000000
  112        3.594555      9.108548   1.000000   0.000000
  113        3.794498      9.108583   1.000000   0.000000
  114        3.794512      9.314421   1.000000   0.000000
  115        4.455472      9.676239   1.000000   0.000000
  116        4.455473      9.676308   1.000000   0.000000
  117        4.588112      9.696322   1.000000   0.000000
  118        4.588127      9.858415   1.000000   0.000000
  119        4.658588      9.951202   1.000000   0.000000
  120        4.658596      9.951221   1.000000   0.000000
  121        8.234383     10.497164   0.000000   0.000000
  122        8.771992     10.497168   0.000000   0.000000
  123        9.570658     10.572944   0.000000   0.000000
  124        9.570665     10.572949   0.000000   0.000000
  125        9.851838     10.798441   0.000000   0.000000
  126       10.351956     10.798454   0.000000   0.000000
  127       10.351962     11.601854   0.000000   0.000000
  128       10.580235     12.225831   0.000000   0.000000
  129       11.439172     12.225846   0.000000   0.000000
  130       11.439174     12.233418   0.000000   0.000000
  131       11.641017     12.249402   0.000000   0.000000
  132       11.731196     12.249410   0.000000   0.000000
  133       11.731214     12.432396   0.000000   0.000000
  134       11.941565     12.616866   0.000000   0.000000
  135       12.131581     12.833186   0.000000   0.000000
  136       12.251814     12.833196   0.000000   0.000000
  137       12.276510     13.315459   0.000000   0.000000
  138       12.276519     13.315495   0.000000   0.000000
  139       12.619305     13.676873   0.000000   0.000000
  140       12.619331     13.757349   0.000000   0.000000
  141       12.936767     13.948375   0.000000   0.000000
  142       13.376435     14.030885   0.000000   0.000000
  143       13.376435     14.373931   0.000000   0.000000
  144       13.456242     14.373933   0.000000   0.000000
  145       13.990157     14.457809   0.000000   0.000000
  146       14.364838     14.728502   0.000000   0.000000
  147       14.364840     14.746098   0.000000   0.000000
  148       14.430654     14.746107   0.000000   0.000000
  149       14.430672     14.887823   0.000000   0.000000
  150       14.508018     14.887828   0.000000   0.000000
  151       15.076497     15.297492   0.000000   0.000000
  152       15.356835     16.006340   0.000000   0.000000
  153       15.408726     16.282744   0.000000   0.000000
  154       15.754866     16.376337   0.000000   0.000000
  155       15.776568     16.421426   0.000000   0.000000
  156       16.106498     16.576665   0.000000   0.000000
  157       16.119340     16.581207   0.000000   0.000000
  158       16.119341     16.869007   0.000000   0.000000
  159       16.241440     16.869190   0.000000   0.000000
  160       16.843727     17.243524   0.000000   0.000000

  0.3333333E+00  0.1262315E-14  0.1290843E-14  0.1111111E+00
    1      -55.858648    -49.199565   1.000000   1.000000
    2      -55.858158    -49.198595   1.000000   1.000000
    3      -55.857638    -49.197212   1.000000   1.000000
    4      -55.857526    -49.197181   1.000000   1.000000
    5      -55.857160    -49.197000   1.000000   1.000000
    6      -55.857063    -49.196975   1.000000   1.000000
    7      -55.856784    -49.196043   1.000000   1.000000
    8      -55.856364    -49.195113   1.000000   1.000000
    9      -54.304193    -49.160295   1.000000   1.000000
   10      -54.304030    -49.160107   1.000000   1.000000
   11      -54.303829    -49.159647   1.000000   1.000000
   12      -54.303670    -49.159498   1.000000   1.000000
   13      -54.303458    -49.158905   1.000000   1.000000
   14      -54.303217    -49.158658   1.000000   1.000000
   15      -54.302846    -49.158507   1.000000   1.000000
   16      -54.302748    -49.157709   1.000000   1.000000
   17      -54.302420    -49.157205   1.000000   1.000000
   18      -54.302351    -49.156881   1.000000   1.000000
   19      -54.301941    -49.156613   1.000000   1.000000
   20      -54.301866    -49.156427   1.000000   1.000000
   21      -54.301848    -49.156371   1.000000   1.000000
   22      -54.301545    -49.156297   1.000000   1.000000
   23      -54.301537    -49.155283   1.000000   1.000000
   24      -54.301271    -49.155264   1.000000   1.000000
   25      -43.070929    -43.071735   1.000000   1.000000
   26      -43.060377    -43.061304   1.000000   1.000000
   27      -43.046543    -43.047628   1.000000   1.000000
   28      -43.045695    -43.046783   1.000000   1.000000
   29      -43.045488    -43.046592   1.000000   1.000000
   30      -43.045195    -43.046299   1.000000   1.000000
   31      -43.033355    -43.034565   1.000000   1.000000
   32      -43.024253    -43.025549   1.000000   1.000000
   33      -15.375508    -14.968827   1.000000   1.000000
   34      -15.345455    -14.938434   1.000000   1.000000
   35      -15.320192    -14.913219   1.000000   1.000000
   36      -15.300094    -14.893611   1.000000   1.000000
   37       -9.442116     -9.149306   1.000000   1.000000
   38       -9.107837     -8.820256   1.000000   1.000000
   39       -8.749348     -8.442118   1.000000   1.000000
   40       -8.650550     -8.312767   1.000000   1.000000
   41       -8.634616     -8.295197   1.000000   1.000000
   42       -8.596430     -8.286299   1.000000   1.000000
   43       -8.566833     -8.250088   1.000000   1.000000
   44       -8.487360     -8.140363   1.000000   1.000000
   45       -2.461973     -1.302859   1.000000   1.000000
   46       -2.436969     -1.298343   1.000000   1.000000
   47       -2.362957     -0.985876   1.000000   1.000000
   48       -2.202849     -0.780907   1.000000   1.000000
   49       -1.648128     -0.562403   1.000000   1.000000
   50       -1.566902     -0.418505   1.000000   1.000000
   51       -1.514548     -0.390968   1.000000   1.000000
   52       -1.404573     -0.372876   1.000000   1.000000
   53       -1.364819     -0.087000   1.000000   1.000000
   54       -1.281849      0.058023   1.000000   1.000000
   55       -1.133368      0.321485   1.000000   1.000000
   56       -1.118991      0.488034   1.000000   1.000000
   57       -1.110508      0.509887   1.000000   1.000000
   58       -1.091824      0.734761   1.000000   1.000000
   59       -1.006341      0.784179   1.000000   1.000000
   60       -0.927894      0.840007   1.000000   1.000000
   61       -0.911626      0.895232   1.000000   1.000000
   62       -0.844265      1.003345   1.000000   1.000000
   63       -0.829329      1.214550   1.000000   1.000000
   64       -0.691355      1.555311   1.000000   1.000000
   65       -0.608285      1.648110   1.000000   1.000000
   66       -0.565925      1.807068   1.000000   1.000000
   67       -0.562765      1.968737   1.000000   1.000000
   68       -0.536834      1.975261   1.000000   1.000000
   69       -0.450217      2.025591   1.000000   1.000000
   70       -0.439812      2.395559   1.000000   1.000000
   71       -0.428939      2.457108   1.000000   1.000000
   72       -0.395898      2.535938   1.000000   1.000000
   73       -0.335262      2.537932   1.000000   1.000000
   74       -0.207884      2.570296   1.000000   1.000000
   75       -0.083367      2.707230   1.000000   1.000000
   76       -0.036836      2.732100   1.000000   1.000000
   77       -0.008460      2.767032   1.000000   1.000000
   78        0.059701      2.983070   1.000000   1.000000
   79        0.355436      3.179631   1.000000   1.000000
   80        0.381481      3.565500   1.000000   1.000000
   81        0.585177      3.580830   1.000000   1.000000
   82        0.605407      3.840282   1.000000   1.000000
   83        0.677042      3.968398   1.000000   1.000000
   84        0.804872      4.071233   1.000000   1.000000
   85        1.142887      4.149994   1.000000   1.000000
   86        1.205013      4.152478   1.000000   1.000000
   87        1.235192      4.172683   1.000000   1.000000
   88        1.261673      4.188506   1.000000   1.000000
   89        1.272888      7.048245   1.000000   0.000000
   90        1.291661      7.650745   1.000000   0.000000
   91        1.293484      7.732767   1.000000   0.000000
   92        1.367551      7.761212   1.000000   0.000000
   93        1.390729      7.774550   1.000000   0.000000
   94        1.427373      7.782282   1.000000   0.000000
   95        1.462469      7.913780   1.000000   0.000000
   96        1.516608      7.921850   1.000000   0.000000
   97        1.542965      7.983661   1.000000   0.000000
   98        1.584200      8.013971   1.000000   0.000000
   99        1.634951      8.035819   1.000000   0.000000
  100        1.709614      8.554873   1.000000   0.000000
  101        1.813761      8.589035   1.000000   0.000000
  102        1.830732      8.647912   1.000000   0.000000
  103        1.963831      8.691218   1.000000   0.000000
  104        2.132728      8.695722   1.000000   0.000000
  105        2.596907      8.746092   1.000000   0.000000
  106        2.801262      8.759931   1.000000   0.000000
  107        2.810887      8.829927   1.000000   0.000000
  108        2.879714      8.841921   1.000000   0.000000
  109        3.214311      8.959428   1.000000   0.000000
  110        3.388063      9.006719   1.000000   0.000000
  111        3.445588      9.022484   1.000000   0.000000
  112        3.632762      9.047373   1.000000   0.000000
  113        3.668815      9.243192   1.000000   0.000000
  114        3.740119      9.336424   1.000000   0.000000
  115        3.764525      9.413655   1.000000   0.000000
  116        3.866290      9.444263   1.000000   0.000000
  117        3.891133      9.686889   1.000000   0.000000
  118        4.218259      9.771065   1.000000   0.000000
  119        4.379217      9.825901   1.000000   0.000000
  120        4.397383      9.831520   1.000000   0.000000
  121        8.914734     10.065111   0.000000   0.000000
  122        9.617658     10.453908   0.000000   0.000000
  123        9.828175     10.564211   0.000000   0.000000
  124       10.005092     11.050192   0.000000   0.000000
  125       10.375318     11.323688   0.000000   0.000000
  126       10.386283     11.376112   0.000000   0.000000
  127       10.550177     11.518390   0.000000   0.000000
  128       10.691976     11.792366   0.000000   0.000000
  129       10.976155     11.841565   0.000000   0.000000
  130       11.360048     12.205199   0.000000   0.000000
  131       11.506468     12.469768   0.000000   0.000000
  132       11.714932     12.575580   0.000000   0.000000
  133       12.062150     12.711349   0.000000   0.000000
  134       12.120198     12.757744   0.000000   0.000000
  135       12.333892     13.109110   0.000000   0.000000
  136       12.474721     13.397605   0.000000   0.000000
  137       12.681252     13.425061   0.000000   0.000000
  138       12.766837     13.519645   0.000000   0.000000
  139       12.880616     13.663355   0.000000   0.000000
  140       12.968700     13.693207   0.000000   0.000000
  141       12.976101     13.762478   0.000000   0.000000
  142       13.273562     14.189813   0.000000   0.000000
  143       13.406097     14.268551   0.000000   0.000000
  144       13.662759     14.315577   0.000000   0.000000
  145       13.692563     14.480643   0.000000   0.000000
  146       13.956763     14.515655   0.000000   0.000000
  147       14.085821     14.623858   0.000000   0.000000
  148       14.194372     14.722019   0.000000   0.000000
  149       14.490033     14.977059   0.000000   0.000000
  150       14.616393     15.113453   0.000000   0.000000
  151       14.757071     15.294873   0.000000   0.000000
  152       14.807043     15.345980   0.000000   0.000000
  153       14.881706     15.701656   0.000000   0.000000
  154       15.262056     15.846881   0.000000   0.000000
  155       15.282680     15.871233   0.000000   0.000000
  156       15.393630     16.022763   0.000000   0.000000
  157       15.625079     16.170951   0.000000   0.000000
  158       15.854620     16.619434   0.000000   0.000000
  159       15.923782     16.621502   0.000000   0.000000
  160       16.187277     16.876589   0.000000   0.000000

  0.3333333E+00  0.3333333E+00  0.1215042E-14  0.5555556E-01
    1      -55.858413    -49.199217   1.000000   1.000000
    2      -55.858112    -49.198341   1.000000   1.000000
    3      -55.858112    -49.198339   1.000000   1.000000
    4      -55.857594    -49.197718   1.000000   1.000000
    5      -55.857103    -49.196446   1.000000   1.000000
    6      -55.856749    -49.196122   1.000000   1.000000
    7      -55.856749    -49.196120   1.000000   1.000000
    8      -55.856536    -49.195392   1.000000   1.000000
    9      -54.304017    -49.160563   1.000000   1.000000
   10      -54.303891    -49.159955   1.000000   1.000000
   11      -54.303790    -49.159898   1.000000   1.000000
   12      -54.303734    -49.159535   1.000000   1.000000
   13      -54.303123    -49.158807   1.000000   1.000000
   14      -54.303070    -49.158115   1.000000   1.000000
   15      -54.302977    -49.158114   1.000000   1.000000
   16      -54.302918    -49.157624   1.000000   1.000000
   17      -54.302518    -49.157111   1.000000   1.000000
   18      -54.302346    -49.156906   1.000000   1.000000
   19      -54.302289    -49.156764   1.000000   1.000000
   20      -54.302029    -49.156550   1.000000   1.000000
   21      -54.301684    -49.156276   1.000000   1.000000
   22      -54.301619    -49.156110   1.000000   1.000000
   23      -54.301565    -49.155763   1.000000   1.000000
   24      -54.301297    -49.155627   1.000000   1.000000
   25      -43.067445    -43.068293   1.000000   1.000000
   26      -43.058198    -43.059152   1.000000   1.000000
   27      -43.058191    -43.059145   1.000000   1.000000
   28      -43.052495    -43.053523   1.000000   1.000000
   29      -43.038967    -43.040130   1.000000   1.000000
   30      -43.034789    -43.035990   1.000000   1.000000
   31      -43.034782    -43.035983   1.000000   1.000000
   32      -43.027017    -43.028288   1.000000   1.000000
   33      -15.360909    -14.954144   1.000000   1.000000
   34      -15.334928    -14.928032   1.000000   1.000000
   35      -15.334927    -14.928032   1.000000   1.000000
   36      -15.310459    -14.903805   1.000000   1.000000
   37       -9.321679     -9.028348   1.000000   1.000000
   38       -9.026623     -8.731680   1.000000   1.000000
   39       -9.026621     -8.731679   1.000000   1.000000
   40       -8.755737     -8.431885   1.000000   1.000000
   41       -8.607275     -8.270694   1.000000   1.000000
   42       -8.528420     -8.188553   1.000000   1.000000
   43       -8.501091     -8.174772   1.000000   1.000000
   44       -8.501089     -8.174770   1.000000   1.000000
   45       -2.399018     -1.195737   1.000000   1.000000
   46       -2.398284     -1.195711   1.000000   1.000000
   47       -2.398281     -0.941030   1.000000   1.000000
   48       -2.233951     -0.823376   1.000000   1.000000
   49       -1.650598     -0.504161   1.000000   1.000000
   50       -1.650589     -0.504145   1.000000   1.000000
   51       -1.441487     -0.344523   1.000000   1.000000
   52       -1.400343     -0.158671   1.000000   1.000000
   53       -1.210498     -0.057763   1.000000   1.000000
   54       -1.199750      0.164952   1.000000   1.000000
   55       -1.199738      0.264430   1.000000   1.000000
   56       -1.193928      0.264445   1.000000   1.000000
   57       -1.087729      0.690767   1.000000   1.000000
   58       -1.052350      0.876309   1.000000   1.000000
   59       -1.052346      0.876363   1.000000   1.000000
   60       -1.027716      0.972629   1.000000   1.000000
   61       -1.027710      0.972634   1.000000   1.000000
   62       -0.822891      1.132213   1.000000   1.000000
   63       -0.700226      1.297164   1.000000   1.000000
   64       -0.621782      1.486260   1.000000   1.000000
   65       -0.613922      1.562434   1.000000   1.000000
   66       -0.613912      1.772693   1.000000   1.000000
   67       -0.592351      1.929263   1.000000   1.000000
   68       -0.530522      1.929303   1.000000   1.000000
   69       -0.473754      1.975419   1.000000   1.000000
   70       -0.340577      1.975428   1.000000   1.000000
   71       -0.340576      2.041235   1.000000   1.000000
   72       -0.271297      2.232841   1.000000   1.000000
   73       -0.157344      2.268566   1.000000   1.000000
   74       -0.101145      2.335514   1.000000   1.000000
   75       -0.101143      2.769560   1.000000   1.000000
   76       -0.031139      2.769575   1.000000   1.000000
   77       -0.031126      2.866561   1.000000   1.000000
   78        0.018983      2.924558   1.000000   1.000000
   79        0.257856      2.924570   1.000000   1.000000
   80        0.476253      3.095717   1.000000   1.000000
   81        0.728352      3.809823   1.000000   1.000000
   82        0.728364      4.067496   1.000000   1.000000
   83        0.812573      4.067593   1.000000   1.000000
   84        0.827557      4.124959   1.000000   1.000000
   85        1.074963      4.251243   1.000000   1.000000
   86        1.158593      4.272743   1.000000   1.000000
   87        1.210060      4.272808   1.000000   1.000000
   88        1.222940      4.304948   1.000000   1.000000
   89        1.222955      7.403676   1.000000   0.000000
   90        1.285877      7.403692   1.000000   0.000000
   91        1.314346      7.556024   1.000000   0.000000
   92        1.372726      7.605596   1.000000   0.000000
   93        1.372756      7.617226   1.000000   0.000000
   94        1.416336      7.760370   1.000000   0.000000
   95        1.416342      7.899608   1.000000   0.000000
   96        1.431655      8.116636   1.000000   0.000000
   97        1.439394      8.116716   1.000000   0.000000
   98        1.497010      8.133250   1.000000   0.000000
   99        1.538580      8.296616   1.000000   0.000000
  100        1.538582      8.296633   1.000000   0.000000
  101        1.836488      8.331527   1.000000   0.000000
  102        2.213473      8.534582   1.000000   0.000000
  103        2.236480      8.534606   1.000000   0.000000
  104        2.236489      8.550910   1.000000   0.000000
  105        2.301933      8.777256   1.000000   0.000000
  106        2.366591      8.800450   1.000000   0.000000
  107        2.728892      8.886814   1.000000   0.000000
  108        2.728900      8.886884   1.000000   0.000000
  109        2.748915      8.893031   1.000000   0.000000
  110        3.224272      9.012030   1.000000   0.000000
  111        3.224290      9.028865   1.000000   0.000000
  112        3.363730      9.028899   1.000000   0.000000
  113        3.430820      9.146930   1.000000   0.000000
  114        3.600415      9.226962   1.000000   0.000000
  115        3.860651      9.595145   1.000000   0.000000
  116        3.860656      9.595192   1.000000   0.000000
  117        3.877526      9.729215   1.000000   0.000000
  118        4.377041      9.796935   1.000000   0.000000
  119        4.706914     10.119006   1.000000   0.000000
  120        4.706921     10.119049   1.000000   0.000000
  121        9.833271     10.994359   0.000000   0.000000
  122       10.274223     11.092944   0.000000   0.000000
  123       10.307096     11.348720   0.000000   0.000000
  124       10.443057     11.348724   0.000000   0.000000
  125       10.523396     11.481064   0.000000   0.000000
  126       10.523401     11.485656   0.000000   0.000000
  127       10.902026     11.521417   0.000000   0.000000
  128       10.902034     11.521425   0.000000   0.000000
  129       11.238369     11.972593   0.000000   0.000000
  130       11.238378     11.972604   0.000000   0.000000
  131       11.628607     12.738415   0.000000   0.000000
  132       11.628610     12.817517   0.000000   0.000000
  133       12.059452     12.822191   0.000000   0.000000
  134       12.089804     12.822245   0.000000   0.000000
  135       12.412199     12.861718   0.000000   0.000000
  136       12.463107     13.222962   0.000000   0.000000
  137       12.543179     13.222997   0.000000   0.000000
  138       12.543182     13.515856   0.000000   0.000000
  139       12.941591     13.710975   0.000000   0.000000
  140       13.078050     13.867483   0.000000   0.000000
  141       13.078055     13.885867   0.000000   0.000000
  142       13.094667     14.077456   0.000000   0.000000
  143       13.147923     14.077473   0.000000   0.000000
  144       13.180137     14.109051   0.000000   0.000000
  145       13.522652     14.207121   0.000000   0.000000
  146       13.828186     14.303350   0.000000   0.000000
  147       13.849760     14.480108   0.000000   0.000000
  148       13.897978     14.480115   0.000000   0.000000
  149       13.897982     14.628186   0.000000   0.000000
  150       14.153795     14.628237   0.000000   0.000000
  151       14.153804     14.763292   0.000000   0.000000
  152       14.556699     15.347232   0.000000   0.000000
  153       14.903523     15.495829   0.000000   0.000000
  154       14.931617     15.505605   0.000000   0.000000
  155       14.931622     15.505645   0.000000   0.000000
  156       15.142531     15.878863   0.000000   0.000000
  157       15.341314     15.897645   0.000000   0.000000
  158       15.657431     16.100119   0.000000   0.000000
  159       15.676625     16.128606   0.000000   0.000000
  160       15.901505     16.539023   0.000000   0.000000

 -0.3333333E+00  0.3333333E+00  0.1238631E-14  0.5555556E-01
    1      -55.858527    -49.199228   1.000000   1.000000
    2      -55.857953    -49.198355   1.000000   1.000000
    3      -55.857921    -49.198306   1.000000   1.000000
    4      -55.857839    -49.197688   1.000000   1.000000
    5      -55.856921    -49.196435   1.000000   1.000000
    6      -55.856888    -49.196161   1.000000   1.000000
    7      -55.856844    -49.196113   1.000000   1.000000
    8      -55.856430    -49.195366   1.000000   1.000000
    9      -54.304075    -49.160339   1.000000   1.000000
   10      -54.303814    -49.160009   1.000000   1.000000
   11      -54.303751    -49.159816   1.000000   1.000000
   12      -54.303638    -49.159705   1.000000   1.000000
   13      -54.303460    -49.159153   1.000000   1.000000
   14      -54.303014    -49.157951   1.000000   1.000000
   15      -54.302921    -49.157922   1.000000   1.000000
   16      -54.302609    -49.157536   1.000000   1.000000
   17      -54.302493    -49.157138   1.000000   1.000000
   18      -54.302470    -49.157047   1.000000   1.000000
   19      -54.302378    -49.156876   1.000000   1.000000
   20      -54.302116    -49.156442   1.000000   1.000000
   21      -54.301628    -49.156309   1.000000   1.000000
   22      -54.301497    -49.156053   1.000000   1.000000
   23      -54.301481    -49.155716   1.000000   1.000000
   24      -54.301414    -49.155608   1.000000   1.000000
   25      -43.067450    -43.068297   1.000000   1.000000
   26      -43.058384    -43.059344   1.000000   1.000000
   27      -43.057990    -43.058943   1.000000   1.000000
   28      -43.052477    -43.053500   1.000000   1.000000
   29      -43.038944    -43.040111   1.000000   1.000000