# energy dos(up) dos(down)
-6.437090000000000600e+01 0.000000000000000000e+00 -0.000000000000000000e+00
-6.433060000000000400e+01 0.000000000000000000e+00 -0.000000000000000000e+00
-6.429030000000000200e+01 0.000000000000000000e+00 -0.000000000000000000e+00
-6.425000000000000000e+01 0.000000000000000000e+00 -0.000000000000000000e+00
-6.420969999999999800e+01 0.000000000000000000e+00 -0.000000000000000000e+00
-6.416939999999999600e+01 0.000000000000000000e+00 -0.000000000000000000e+00
-6.412909999999999400e+01 0.000000000000000000e+00 -0.000000000000000000e+00
-6.408870000000000289e+01 0.000000000000000000e+00 -0.000000000000000000e+00
-6.404840000000000089e+01 0.000000000000000000e+00 -0.000000000000000000e+00
-6.400809999999999889e+01 0.000000000000000000e+00 -0.000000000000000000e+00
-6.396779999999999688e+01 0.000000000000000000e+00 -0.000000000000000000e+00
-6.392749999999999488e+01 0.000000000000000000e+00 -0.000000000000000000e+00
-6.388719999999999288e+01 0.000000000000000000e+00 -0.000000000000000000e+00
-6.384689999999999799e+01 0.000000000000000000e+00 -0.000000000000000000e+00
-6.380659999999999599e+01 0.000000000000000000e+00 -0.000000000000000000e+00
-6.376619999999999777e+01 0.000000000000000000e+00 -0.000000000000000000e+00
-6.372589999999999577e+01 0.000000000000000000e+00 -0.000000000000000000e+00
-6.368559999999999377e+01 0.000000000000000000e+00 -0.000000000000000000e+00
-6.364529999999999887e+01 0.000000000000000000e+00 -0.000000000000000000e+00
-6.360499999999999687e+01 0.000000000000000000e+00 -0.000000000000000000e+00
-6.356469999999999487e+01 0.000000000000000000e+00 -0.000000000000000000e+00
-6.352439999999999287e+01 0.000000000000000000e+00 -0.000000000000000000e+00
-6.348409999999999798e+01 0.000000000000000000e+00 -0.000000000000000000e+00
-6.344379999999999598e+01 0.000000000000000000e+00 -0.000000000000000000e+00
-6.340339999999999776e+01 0.000000000000000000e+00 -0.000000000000000000e+00
-6.336309999999999576e+01 0.000000000000000000e+00 -0.000000000000000000e+00
-6.332279999999999376e+01 0.000000000000000000e+00 -0.000000000000000000e+00
-6.328249999999999886e+01 0.000000000000000000e+00 -0.000000000000000000e+00
-6.324219999999999686e+01 0.000000000000000000e+00 -0.000000000000000000e+00
-6.320189999999999486e+01 0.000000000000000000e+00 -0.000000000000000000e+00
-6.316159999999999286e+01 0.000000000000000000e+00 -0.000000000000000000e+00
-6.312129999999999797e+01 0.000000000000000000e+00 -0.000000000000000000e+00
-6.308089999999999264e+01 0.000000000000000000e+00 -0.000000000000000000e+00
-6.304059999999999775e+01 0.000000000000000000e+00 -0.000000000000000000e+00
-6.300029999999999575e+01 0.000000000000000000e+00 -0.000000000000000000e+00
-6.295999999999999375e+01 0.000000000000000000e+00 -0.000000000000000000e+00
-6.291969999999999885e+01 0.000000000000000000e+00 -0.000000000000000000e+00
-6.287939999999999685e+01 0.000000000000000000e+00 -0.000000000000000000e+00
-6.283909999999999485e+01 0.000000000000000000e+00 -0.000000000000000000e+00
-6.279879999999999285e+01 0.000000000000000000e+00 -0.000000000000000000e+00
-6.275839999999999463e+01 0.000000000000000000e+00 -0.000000000000000000e+00
-6.271809999999999263e+01 0.000000000000000000e+00 -0.000000000000000000e+00
-6.267779999999999774e+01 0.000000000000000000e+00 -0.000000000000000000e+00
-6.263749999999999574e+01 0.000000000000000000e+00 -0.000000000000000000e+00
-6.259719999999999374e+01 0.000000000000000000e+00 -0.000000000000000000e+00
-6.255689999999999884e+01 0.000000000000000000e+00 -0.000000000000000000e+00
-6.251659999999999684e+01 0.000000000000000000e+00 -0.000000000000000000e+00
-6.247629999999999484e+01 0.000000000000000000e+00 -0.000000000000000000e+00
-6.243599999999999284e+01 0.000000000000000000e+00 -0.000000000000000000e+00
-6.239559999999999462e+01 0.000000000000000000e+00 -0.000000000000000000e+00
-6.235529999999999973e+01 0.000000000000000000e+00 -0.000000000000000000e+00
-6.231499999999999773e+01 0.000000000000000000e+00 -0.000000000000000000e+00
-6.227469999999999573e+01 0.000000000000000000e+00 -0.000000000000000000e+00
-6.223439999999999372e+01 0.000000000000000000e+00 -0.000000000000000000e+00
-6.219409999999999883e+01 0.000000000000000000e+00 -0.000000000000000000e+00
-6.215379999999999683e+01 0.000000000000000000e+00 -0.000000000000000000e+00
-6.211349999999999483e+01 0.000000000000000000e+00 -0.000000000000000000e+00
-6.207309999999999661e+01 0.000000000000000000e+00 -0.000000000000000000e+00
-6.203279999999999461e+01 0.000000000000000000e+00 -0.000000000000000000e+00
-6.199249999999999972e+01 0.000000000000000000e+00 -0.000000000000000000e+00
-6.195219999999999771e+01 0.000000000000000000e+00 -0.000000000000000000e+00
-6.191189999999999571e+01 0.000000000000000000e+00 -0.000000000000000000e+00
-6.187159999999999371e+01 0.000000000000000000e+00 -0.000000000000000000e+00
-6.183129999999999882e+01 0.000000000000000000e+00 -0.000000000000000000e+00
-6.179099999999999682e+01 0.000000000000000000e+00 -0.000000000000000000e+00
-6.175059999999999860e+01 0.000000000000000000e+00 -0.000000000000000000e+00
-6.171029999999999660e+01 0.000000000000000000e+00 -0.000000000000000000e+00
-6.166999999999999460e+01 0.000000000000000000e+00 -0.000000000000000000e+00
-6.162969999999999970e+01 0.000000000000000000e+00 -0.000000000000000000e+00
-6.158939999999999770e+01 0.000000000000000000e+00 -0.000000000000000000e+00
-6.154909999999999570e+01 0.000000000000000000e+00 -0.000000000000000000e+00
-6.150879999999999370e+01 0.000000000000000000e+00 -0.000000000000000000e+00
-6.146849999999999881e+01 0.000000000000000000e+00 -0.000000000000000000e+00
-6.142819999999999681e+01 0.000000000000000000e+00 -0.000000000000000000e+00
-6.138779999999999859e+01 0.000000000000000000e+00 -0.000000000000000000e+00
-6.134749999999999659e+01 0.000000000000000000e+00 -0.000000000000000000e+00
-6.130719999999999459e+01 0.000000000000000000e+00 -0.000000000000000000e+00
-6.126689999999999969e+01 0.000000000000000000e+00 -0.000000000000000000e+00
-6.122659999999999769e+01 0.000000000000000000e+00 -0.000000000000000000e+00
-6.118629999999999569e+01 0.000000000000000000e+00 -0.000000000000000000e+00
-6.114599999999999369e+01 0.000000000000000000e+00 -0.000000000000000000e+00
-6.110569999999999879e+01 0.000000000000000000e+00 -0.000000000000000000e+00
-6.106529999999999347e+01 0.000000000000000000e+00 -0.000000000000000000e+00
-6.102499999999999858e+01 0.000000000000000000e+00 -0.000000000000000000e+00
-6.098469999999999658e+01 0.000000000000000000e+00 -0.000000000000000000e+00
-6.094439999999999458e+01 0.000000000000000000e+00 -0.000000000000000000e+00
-6.090409999999999968e+01 0.000000000000000000e+00 -0.000000000000000000e+00
-6.086379999999999768e+01 8.999999999999999754e-04 -0.000000000000000000e+00
-6.082349999999999568e+01 9.339999999999999691e-02 -0.000000000000000000e+00
-6.078319999999999368e+01 2.922899999999999832e+00 -0.000000000000000000e+00
-6.074289999999999878e+01 2.729670000000000130e+01 -0.000000000000000000e+00
-6.070249999999999346e+01 7.802330000000000609e+01 -0.000000000000000000e+00
-6.066219999999999857e+01 6.934279999999999688e+01 -0.000000000000000000e+00
-6.062189999999999657e+01 1.912500000000000000e+01 -0.000000000000000000e+00
-6.058159999999999457e+01 1.606899999999999995e+00 -0.000000000000000000e+00
-6.054129999999999967e+01 4.009999999999999676e-02 -0.000000000000000000e+00
-6.050099999999999767e+01 2.999999999999999737e-04 -0.000000000000000000e+00
-6.046069999999999567e+01 0.000000000000000000e+00 -0.000000000000000000e+00
-6.042039999999999367e+01 0.000000000000000000e+00 -0.000000000000000000e+00
-6.037999999999999545e+01 0.000000000000000000e+00 -0.000000000000000000e+00
-6.033969999999999345e+01 0.000000000000000000e+00 -0.000000000000000000e+00
-6.029939999999999856e+01 0.000000000000000000e+00 -0.000000000000000000e+00
-6.025909999999999656e+01 0.000000000000000000e+00 -0.000000000000000000e+00
-6.021879999999999455e+01 0.000000000000000000e+00 -0.000000000000000000e+00
-6.017849999999999966e+01 0.000000000000000000e+00 -0.000000000000000000e+00
-6.013819999999999766e+01 0.000000000000000000e+00 -0.000000000000000000e+00
-6.009789999999999566e+01 0.000000000000000000e+00 -0.000000000000000000e+00
-6.005749999999999744e+01 0.000000000000000000e+00 -0.000000000000000000e+00
-6.001719999999999544e+01 0.000000000000000000e+00 -0.000000000000000000e+00
-5.997689999999999344e+01 0.000000000000000000e+00 -0.000000000000000000e+00
-5.993659999999999854e+01 0.000000000000000000e+00 -0.000000000000000000e+00
-5.989629999999999654e+01 0.000000000000000000e+00 -0.000000000000000000e+00
-5.985599999999999454e+01 0.000000000000000000e+00 -0.000000000000000000e+00
-5.981569999999999965e+01 0.000000000000000000e+00 -0.000000000000000000e+00
-5.977539999999999765e+01 0.000000000000000000e+00 -0.000000000000000000e+00
-5.973509999999999565e+01 0.000000000000000000e+00 -0.000000000000000000e+00
-5.969469999999999743e+01 0.000000000000000000e+00 -0.000000000000000000e+00
-5.965439999999999543e+01 0.000000000000000000e+00 -0.000000000000000000e+00
-5.961409999999999343e+01 0.000000000000000000e+00 -0.000000000000000000e+00
-5.957379999999999853e+01 0.000000000000000000e+00 -0.000000000000000000e+00
-5.953349999999999653e+01 0.000000000000000000e+00 -0.000000000000000000e+00
-5.949319999999999453e+01 0.000000000000000000e+00 -0.000000000000000000e+00
-5.945289999999999964e+01 0.000000000000000000e+00 -0.000000000000000000e+00
-5.941259999999999764e+01 0.000000000000000000e+00 -0.000000000000000000e+00
-5.937219999999999942e+01 0.000000000000000000e+00 -0.000000000000000000e+00
-5.933189999999999742e+01 1.000000000000000048e-04 -0.000000000000000000e+00
-5.929159999999999542e+01 1.540000000000000049e-02 -0.000000000000000000e+00
-5.925129999999999342e+01 9.631999999999999451e-01 -0.000000000000000000e+00
-5.921099999999999852e+01 1.779309999999999903e+01 -0.000000000000000000e+00
-5.917069999999999652e+01 9.927389999999999759e+01 -0.000000000000000000e+00
-5.913039999999999452e+01 1.710580999999999960e+02 -0.000000000000000000e+00
-5.909009999999999962e+01 9.182540000000000191e+01 -0.000000000000000000e+00
-5.904969999999999430e+01 1.520529999999999937e+01 -0.000000000000000000e+00
-5.900939999999999941e+01 7.591999999999999860e-01 -0.000000000000000000e+00
-5.896909999999999741e+01 1.110000000000000049e-02 -0.000000000000000000e+00
-5.892879999999999541e+01 0.000000000000000000e+00 -0.000000000000000000e+00
-5.888849999999999341e+01 0.000000000000000000e+00 -0.000000000000000000e+00
-5.884819999999999851e+01 0.000000000000000000e+00 -0.000000000000000000e+00
-5.880789999999999651e+01 0.000000000000000000e+00 -0.000000000000000000e+00
-5.876759999999999451e+01 0.000000000000000000e+00 -0.000000000000000000e+00
-5.872729999999999961e+01 0.000000000000000000e+00 -0.000000000000000000e+00
-5.868689999999999429e+01 0.000000000000000000e+00 -0.000000000000000000e+00
-5.864659999999999940e+01 0.000000000000000000e+00 -0.000000000000000000e+00
-5.860629999999999740e+01 0.000000000000000000e+00 -0.000000000000000000e+00
-5.856599999999999540e+01 0.000000000000000000e+00 -0.000000000000000000e+00
-5.852569999999999339e+01 0.000000000000000000e+00 -0.000000000000000000e+00
-5.848539999999999850e+01 0.000000000000000000e+00 -0.000000000000000000e+00
-5.844509999999999650e+01 0.000000000000000000e+00 -0.000000000000000000e+00
-5.840479999999999450e+01 0.000000000000000000e+00 -0.000000000000000000e+00
-5.836439999999999628e+01 0.000000000000000000e+00 -0.000000000000000000e+00
-5.832409999999999428e+01 0.000000000000000000e+00 -0.000000000000000000e+00
-5.828379999999999939e+01 0.000000000000000000e+00 -0.000000000000000000e+00
-5.824349999999999739e+01 0.000000000000000000e+00 -0.000000000000000000e+00
-5.820319999999999538e+01 0.000000000000000000e+00 -0.000000000000000000e+00
-5.816289999999999338e+01 0.000000000000000000e+00 -0.000000000000000000e+00
-5.812259999999999849e+01 0.000000000000000000e+00 -0.000000000000000000e+00
-5.808229999999999649e+01 0.000000000000000000e+00 -0.000000000000000000e+00
-5.804199999999999449e+01 0.000000000000000000e+00 -0.000000000000000000e+00
-5.800159999999999627e+01 0.000000000000000000e+00 -0.000000000000000000e+00
-5.796129999999999427e+01 0.000000000000000000e+00 -0.000000000000000000e+00
-5.792099999999999937e+01 0.000000000000000000e+00 -0.000000000000000000e+00
-5.788069999999999737e+01 0.000000000000000000e+00 -0.000000000000000000e+00
-5.784039999999999537e+01 0.000000000000000000e+00 -0.000000000000000000e+00
-5.780009999999999337e+01 0.000000000000000000e+00 -0.000000000000000000e+00
-5.775979999999999848e+01 0.000000000000000000e+00 -0.000000000000000000e+00
-5.771949999999999648e+01 0.000000000000000000e+00 -0.000000000000000000e+00
-5.767909999999999826e+01 0.000000000000000000e+00 -0.000000000000000000e+00
-5.763879999999999626e+01 0.000000000000000000e+00 -0.000000000000000000e+00
-5.759849999999999426e+01 0.000000000000000000e+00 -0.000000000000000000e+00
-5.755819999999999936e+01 0.000000000000000000e+00 -0.000000000000000000e+00
-5.751789999999999736e+01 0.000000000000000000e+00 -0.000000000000000000e+00
-5.747759999999999536e+01 0.000000000000000000e+00 -0.000000000000000000e+00
-5.743729999999999336e+01 0.000000000000000000e+00 -0.000000000000000000e+00
-5.739699999999999847e+01 0.000000000000000000e+00 -0.000000000000000000e+00
-5.735659999999999314e+01 0.000000000000000000e+00 -0.000000000000000000e+00
-5.731629999999999825e+01 0.000000000000000000e+00 -0.000000000000000000e+00
-5.727599999999999625e+01 0.000000000000000000e+00 -0.000000000000000000e+00
-5.723569999999999425e+01 0.000000000000000000e+00 -0.000000000000000000e+00
-5.719539999999999935e+01 0.000000000000000000e+00 -0.000000000000000000e+00
-5.715509999999999735e+01 0.000000000000000000e+00 -0.000000000000000000e+00
-5.711479999999999535e+01 0.000000000000000000e+00 -0.000000000000000000e+00
-5.707449999999999335e+01 0.000000000000000000e+00 -0.000000000000000000e+00
-5.703419999999999845e+01 0.000000000000000000e+00 -0.000000000000000000e+00
-5.699379999999999313e+01 0.000000000000000000e+00 -0.000000000000000000e+00
-5.695349999999999824e+01 0.000000000000000000e+00 -0.000000000000000000e+00
-5.691319999999999624e+01 0.000000000000000000e+00 -0.000000000000000000e+00
-5.687289999999999424e+01 0.000000000000000000e+00 -0.000000000000000000e+00
-5.683259999999999934e+01 0.000000000000000000e+00 -0.000000000000000000e+00
-5.679229999999999734e+01 0.000000000000000000e+00 -0.000000000000000000e+00
-5.675199999999999534e+01 0.000000000000000000e+00 -0.000000000000000000e+00
-5.671169999999999334e+01 0.000000000000000000e+00 -0.000000000000000000e+00
-5.667129999999999512e+01 0.000000000000000000e+00 -0.000000000000000000e+00
-5.663099999999999312e+01 0.000000000000000000e+00 -0.000000000000000000e+00
-5.659069999999999823e+01 0.000000000000000000e+00 -0.000000000000000000e+00
-5.655039999999999623e+01 0.000000000000000000e+00 -0.000000000000000000e+00
-5.651009999999999422e+01 0.000000000000000000e+00 -0.000000000000000000e+00
-5.646979999999999933e+01 0.000000000000000000e+00 -0.000000000000000000e+00
-5.642949999999999733e+01 0.000000000000000000e+00 -0.000000000000000000e+00
-5.638919999999999533e+01 0.000000000000000000e+00 -0.000000000000000000e+00
-5.634879999999999711e+01 0.000000000000000000e+00 -0.000000000000000000e+00
-5.630849999999999511e+01 0.000000000000000000e+00 -0.000000000000000000e+00
-5.626819999999999311e+01 0.000000000000000000e+00 -0.000000000000000000e+00
-5.622789999999999822e+01 0.000000000000000000e+00 -0.000000000000000000e+00
-5.618759999999999621e+01 0.000000000000000000e+00 -0.000000000000000000e+00
-5.614729999999999421e+01 0.000000000000000000e+00 -0.000000000000000000e+00
-5.610699999999999932e+01 0.000000000000000000e+00 -0.000000000000000000e+00
-5.606669999999999732e+01 0.000000000000000000e+00 -0.000000000000000000e+00
-5.602639999999999532e+01 0.000000000000000000e+00 -0.000000000000000000e+00
-5.598599999999999710e+01 0.000000000000000000e+00 -0.000000000000000000e+00
-5.594569999999999510e+01 0.000000000000000000e+00 -0.000000000000000000e+00
-5.590539999999999310e+01 0.000000000000000000e+00 -0.000000000000000000e+00
-5.586509999999999820e+01 0.000000000000000000e+00 -0.000000000000000000e+00
-5.582479999999999620e+01 0.000000000000000000e+00 -0.000000000000000000e+00
-5.578449999999999420e+01 0.000000000000000000e+00 -0.000000000000000000e+00
-5.574419999999999931e+01 0.000000000000000000e+00 -0.000000000000000000e+00
-5.570389999999999731e+01 0.000000000000000000e+00 -0.000000000000000000e+00
-5.566349999999999909e+01 0.000000000000000000e+00 -0.000000000000000000e+00
-5.562319999999999709e+01 0.000000000000000000e+00 -0.000000000000000000e+00
-5.558289999999999509e+01 0.000000000000000000e+00 -0.000000000000000000e+00
-5.554259999999999309e+01 0.000000000000000000e+00 -0.000000000000000000e+00
-5.550229999999999819e+01 0.000000000000000000e+00 -0.000000000000000000e+00
-5.546199999999999619e+01 0.000000000000000000e+00 -0.000000000000000000e+00
-5.542169999999999419e+01 0.000000000000000000e+00 -0.000000000000000000e+00
-5.538139999999999930e+01 0.000000000000000000e+00 -0.000000000000000000e+00
-5.534109999999999729e+01 0.000000000000000000e+00 -0.000000000000000000e+00
-5.530069999999999908e+01 0.000000000000000000e+00 -0.000000000000000000e+00
-5.526039999999999708e+01 0.000000000000000000e+00 -0.000000000000000000e+00
-5.522009999999999508e+01 0.000000000000000000e+00 -0.000000000000000000e+00
-5.517979999999999308e+01 0.000000000000000000e+00 -0.000000000000000000e+00
-5.513949999999999818e+01 0.000000000000000000e+00 -0.000000000000000000e+00
-5.509919999999999618e+01 0.000000000000000000e+00 -0.000000000000000000e+00
-5.505889999999999418e+01 0.000000000000000000e+00 -0.000000000000000000e+00
-5.501859999999999928e+01 0.000000000000000000e+00 -0.000000000000000000e+00
-5.497819999999999396e+01 0.000000000000000000e+00 -0.000000000000000000e+00
-5.493789999999999907e+01 0.000000000000000000e+00 -0.000000000000000000e+00
-5.489759999999999707e+01 0.000000000000000000e+00 -0.000000000000000000e+00
-5.485729999999999507e+01 0.000000000000000000e+00 -0.000000000000000000e+00
-5.481699999999999307e+01 0.000000000000000000e+00 -0.000000000000000000e+00
-5.477669999999999817e+01 0.000000000000000000e+00 -0.000000000000000000e+00
-5.473639999999999617e+01 0.000000000000000000e+00 -0.000000000000000000e+00
-5.469609999999999417e+01 0.000000000000000000e+00 -0.000000000000000000e+00
-5.465569999999999595e+01 0.000000000000000000e+00 -0.000000000000000000e+00
-5.461539999999999395e+01 0.000000000000000000e+00 -0.000000000000000000e+00
-5.457509999999999906e+01 0.000000000000000000e+00 -0.000000000000000000e+00
-5.453479999999999706e+01 0.000000000000000000e+00 -0.000000000000000000e+00
-5.449449999999999505e+01 0.000000000000000000e+00 -0.000000000000000000e+00
-5.445419999999999305e+01 0.000000000000000000e+00 -0.000000000000000000e+00
-5.441389999999999816e+01 0.000000000000000000e+00 -0.000000000000000000e+00
-5.437359999999999616e+01 0.000000000000000000e+00 -0.000000000000000000e+00
-5.433329999999999416e+01 0.000000000000000000e+00 -0.000000000000000000e+00
-5.429289999999999594e+01 0.000000000000000000e+00 -0.000000000000000000e+00
-5.425259999999999394e+01 0.000000000000000000e+00 -0.000000000000000000e+00
-5.421229999999999905e+01 0.000000000000000000e+00 -2.999999999999999737e-04
-5.417199999999999704e+01 0.000000000000000000e+00 -3.860000000000000236e-02
-5.413169999999999504e+01 0.000000000000000000e+00 -1.626300000000000079e+00
-5.409139999999999304e+01 0.000000000000000000e+00 -2.193130000000000024e+01
-5.405109999999999815e+01 0.000000000000000000e+00 -1.073918000000000035e+02
-5.401079999999999615e+01 0.000000000000000000e+00 -2.177197999999999922e+02
-5.397039999999999793e+01 0.000000000000000000e+00 -1.834394000000000062e+02
-5.393009999999999593e+01 0.000000000000000000e+00 -5.715070000000000050e+01
-5.388979999999999393e+01 0.000000000000000000e+00 -5.871999999999999886e+00
-5.384949999999999903e+01 0.000000000000000000e+00 -1.852000000000000035e-01
-5.380919999999999703e+01 0.000000000000000000e+00 -1.699999999999999905e-03
-5.376889999999999503e+01 0.000000000000000000e+00 -0.000000000000000000e+00
-5.372859999999999303e+01 0.000000000000000000e+00 -0.000000000000000000e+00
-5.368829999999999814e+01 0.000000000000000000e+00 -0.000000000000000000e+00
-5.364789999999999281e+01 0.000000000000000000e+00 -0.000000000000000000e+00
-5.360759999999999792e+01 0.000000000000000000e+00 -0.000000000000000000e+00
-5.356729999999999592e+01 0.000000000000000000e+00 -0.000000000000000000e+00
-5.352699999999999392e+01 0.000000000000000000e+00 -0.000000000000000000e+00
-5.348669999999999902e+01 0.000000000000000000e+00 -0.000000000000000000e+00
-5.344639999999999702e+01 0.000000000000000000e+00 -0.000000000000000000e+00
-5.340609999999999502e+01 0.000000000000000000e+00 -0.000000000000000000e+00
-5.336579999999999302e+01 0.000000000000000000e+00 -0.000000000000000000e+00
-5.332549999999999812e+01 0.000000000000000000e+00 -0.000000000000000000e+00
-5.328509999999999280e+01 0.000000000000000000e+00 -0.000000000000000000e+00
-5.324479999999999791e+01 0.000000000000000000e+00 -0.000000000000000000e+00
-5.320449999999999591e+01 0.000000000000000000e+00 -0.000000000000000000e+00
-5.316419999999999391e+01 0.000000000000000000e+00 -0.000000000000000000e+00
-5.312389999999999901e+01 0.000000000000000000e+00 -0.000000000000000000e+00
-5.308359999999999701e+01 0.000000000000000000e+00 -0.000000000000000000e+00
-5.304329999999999501e+01 0.000000000000000000e+00 -0.000000000000000000e+00
-5.300299999999999301e+01 0.000000000000000000e+00 -0.000000000000000000e+00
-5.296259999999999479e+01 0.000000000000000000e+00 -0.000000000000000000e+00
-5.292229999999999279e+01 0.000000000000000000e+00 -0.000000000000000000e+00
-5.288199999999999790e+01 0.000000000000000000e+00 -0.000000000000000000e+00
-5.284169999999999590e+01 0.000000000000000000e+00 -0.000000000000000000e+00
-5.280139999999999390e+01 0.000000000000000000e+00 -0.000000000000000000e+00
-5.276109999999999900e+01 0.000000000000000000e+00 -0.000000000000000000e+00
-5.272079999999999700e+01 0.000000000000000000e+00 -0.000000000000000000e+00
-5.268049999999999500e+01 0.000000000000000000e+00 -0.000000000000000000e+00
-5.264019999999999300e+01 0.000000000000000000e+00 -0.000000000000000000e+00
-5.259979999999999478e+01 0.000000000000000000e+00 -0.000000000000000000e+00
-5.255949999999999278e+01 0.000000000000000000e+00 -0.000000000000000000e+00
-5.251919999999999789e+01 0.000000000000000000e+00 -0.000000000000000000e+00
-5.247889999999999588e+01 0.000000000000000000e+00 -0.000000000000000000e+00
-5.243859999999999388e+01 0.000000000000000000e+00 -0.000000000000000000e+00
-5.239829999999999899e+01 0.000000000000000000e+00 -0.000000000000000000e+00
-5.235799999999999699e+01 0.000000000000000000e+00 -0.000000000000000000e+00
-5.231769999999999499e+01 0.000000000000000000e+00 -0.000000000000000000e+00
-5.227729999999999677e+01 0.000000000000000000e+00 -0.000000000000000000e+00
-5.223699999999999477e+01 0.000000000000000000e+00 -0.000000000000000000e+00
-5.219669999999999277e+01 0.000000000000000000e+00 -0.000000000000000000e+00
-5.215639999999999787e+01 0.000000000000000000e+00 -0.000000000000000000e+00
-5.211609999999999587e+01 0.000000000000000000e+00 -0.000000000000000000e+00
-5.207579999999999387e+01 0.000000000000000000e+00 -0.000000000000000000e+00
-5.203549999999999898e+01 0.000000000000000000e+00 -0.000000000000000000e+00
-5.199519999999999698e+01 0.000000000000000000e+00 -0.000000000000000000e+00
-5.195479999999999876e+01 0.000000000000000000e+00 -0.000000000000000000e+00
-5.191449999999999676e+01 0.000000000000000000e+00 -0.000000000000000000e+00
-5.187419999999999476e+01 0.000000000000000000e+00 -0.000000000000000000e+00
-5.183389999999999276e+01 0.000000000000000000e+00 -0.000000000000000000e+00
-5.179359999999999786e+01 0.000000000000000000e+00 -0.000000000000000000e+00
-5.175329999999999586e+01 0.000000000000000000e+00 -0.000000000000000000e+00
-5.171299999999999386e+01 0.000000000000000000e+00 -0.000000000000000000e+00
-5.167269999999999897e+01 0.000000000000000000e+00 -0.000000000000000000e+00
-5.163239999999999696e+01 0.000000000000000000e+00 -0.000000000000000000e+00
-5.159199999999999875e+01 0.000000000000000000e+00 -0.000000000000000000e+00
-5.155169999999999675e+01 0.000000000000000000e+00 -0.000000000000000000e+00
-5.151139999999999475e+01 0.000000000000000000e+00 -0.000000000000000000e+00
-5.147109999999999275e+01 0.000000000000000000e+00 -0.000000000000000000e+00
-5.143079999999999785e+01 0.000000000000000000e+00 -0.000000000000000000e+00
-5.139049999999999585e+01 0.000000000000000000e+00 -0.000000000000000000e+00
-5.135019999999999385e+01 0.000000000000000000e+00 -0.000000000000000000e+00
-5.130989999999999895e+01 0.000000000000000000e+00 -0.000000000000000000e+00
-5.126949999999999363e+01 0.000000000000000000e+00 -0.000000000000000000e+00
-5.122919999999999874e+01 0.000000000000000000e+00 -0.000000000000000000e+00
-5.118889999999999674e+01 0.000000000000000000e+00 -0.000000000000000000e+00
-5.114859999999999474e+01 0.000000000000000000e+00 -0.000000000000000000e+00
-5.110829999999999274e+01 0.000000000000000000e+00 -0.000000000000000000e+00
-5.106799999999999784e+01 0.000000000000000000e+00 -0.000000000000000000e+00
-5.102769999999999584e+01 0.000000000000000000e+00 -0.000000000000000000e+00
-5.098739999999999384e+01 0.000000000000000000e+00 -0.000000000000000000e+00
-5.094699999999999562e+01 0.000000000000000000e+00 -0.000000000000000000e+00
-5.090669999999999362e+01 0.000000000000000000e+00 -0.000000000000000000e+00
-5.086639999999999873e+01 0.000000000000000000e+00 -0.000000000000000000e+00
-5.082609999999999673e+01 0.000000000000000000e+00 -0.000000000000000000e+00
-5.078579999999999472e+01 0.000000000000000000e+00 -0.000000000000000000e+00
-5.074549999999999272e+01 0.000000000000000000e+00 -0.000000000000000000e+00
-5.070519999999999783e+01 0.000000000000000000e+00 -0.000000000000000000e+00
-5.066489999999999583e+01 0.000000000000000000e+00 -0.000000000000000000e+00
-5.062459999999999383e+01 0.000000000000000000e+00 -0.000000000000000000e+00
-5.058419999999999561e+01 0.000000000000000000e+00 -0.000000000000000000e+00
-5.054389999999999361e+01 0.000000000000000000e+00 -0.000000000000000000e+00
-5.050359999999999872e+01 0.000000000000000000e+00 -0.000000000000000000e+00
-5.046329999999999671e+01 0.000000000000000000e+00 -0.000000000000000000e+00
-5.042299999999999471e+01 0.000000000000000000e+00 -0.000000000000000000e+00
-5.038269999999999271e+01 0.000000000000000000e+00 -0.000000000000000000e+00
-5.034239999999999782e+01 0.000000000000000000e+00 -0.000000000000000000e+00
-5.030209999999999582e+01 0.000000000000000000e+00 -0.000000000000000000e+00
-5.026169999999999760e+01 0.000000000000000000e+00 -0.000000000000000000e+00
-5.022139999999999560e+01 0.000000000000000000e+00 -0.000000000000000000e+00
-5.018109999999999360e+01 0.000000000000000000e+00 -0.000000000000000000e+00
-5.014079999999999870e+01 0.000000000000000000e+00 -0.000000000000000000e+00
-5.010049999999999670e+01 0.000000000000000000e+00 -0.000000000000000000e+00
-5.006019999999999470e+01 0.000000000000000000e+00 -0.000000000000000000e+00
-5.001989999999999270e+01 0.000000000000000000e+00 -0.000000000000000000e+00
-4.997959999999999781e+01 0.000000000000000000e+00 -0.000000000000000000e+00
-4.993929999999999580e+01 0.000000000000000000e+00 -0.000000000000000000e+00
-4.989889999999999759e+01 0.000000000000000000e+00 -0.000000000000000000e+00
-4.985859999999999559e+01 0.000000000000000000e+00 -0.000000000000000000e+00
-4.981829999999999359e+01 0.000000000000000000e+00 -0.000000000000000000e+00
-4.977799999999999869e+01 0.000000000000000000e+00 -0.000000000000000000e+00
-4.973769999999999669e+01 0.000000000000000000e+00 -0.000000000000000000e+00
-4.969739999999999469e+01 0.000000000000000000e+00 -0.000000000000000000e+00
-4.965709999999999269e+01 0.000000000000000000e+00 -0.000000000000000000e+00
-4.961679999999999779e+01 0.000000000000000000e+00 -0.000000000000000000e+00
-4.957639999999999958e+01 0.000000000000000000e+00 -0.000000000000000000e+00
-4.953609999999999758e+01 0.000000000000000000e+00 -0.000000000000000000e+00
-4.949579999999999558e+01 0.000000000000000000e+00 -0.000000000000000000e+00
-4.945549999999999358e+01 0.000000000000000000e+00 -0.000000000000000000e+00
-4.941519999999999868e+01 0.000000000000000000e+00 -0.000000000000000000e+00
-4.937489999999999668e+01 0.000000000000000000e+00 -0.000000000000000000e+00
-4.933459999999999468e+01 0.000000000000000000e+00 -0.000000000000000000e+00
-4.929429999999999268e+01 0.000000000000000000e+00 -0.000000000000000000e+00
-4.925389999999999446e+01 0.000000000000000000e+00 -0.000000000000000000e+00
-4.921359999999999957e+01 0.000000000000000000e+00 -0.000000000000000000e+00
-4.917329999999999757e+01 0.000000000000000000e+00 -0.000000000000000000e+00
-4.913299999999999557e+01 0.000000000000000000e+00 -0.000000000000000000e+00
-4.909269999999999357e+01 0.000000000000000000e+00 -0.000000000000000000e+00
-4.905239999999999867e+01 0.000000000000000000e+00 -0.000000000000000000e+00
-4.901209999999999667e+01 0.000000000000000000e+00 -0.000000000000000000e+00
-4.897179999999999467e+01 0.000000000000000000e+00 -0.000000000000000000e+00
-4.893149999999999267e+01 0.000000000000000000e+00 -0.000000000000000000e+00
-4.889109999999999445e+01 0.000000000000000000e+00 -0.000000000000000000e+00
-4.885079999999999956e+01 0.000000000000000000e+00 -0.000000000000000000e+00
-4.881049999999999756e+01 0.000000000000000000e+00 -0.000000000000000000e+00
-4.877019999999999555e+01 0.000000000000000000e+00 -0.000000000000000000e+00
-4.872989999999999355e+01 0.000000000000000000e+00 -0.000000000000000000e+00