   7   7   0   0
  0.1357194E+02  0.3858863E-09  0.3858868E-09  0.6939013E-09  0.5000000E-15
  1.000000000000000E-004
  CAR 
 unknown system                          
     25.11167145    -54.38309083  301      5.87721988      1.00000000
    -54.383  0.0000E+00  0.0000E+00  0.0000E+00  0.0000E+00
    -54.118  0.0000E+00  0.0000E+00  0.0000E+00  0.0000E+00
    -53.853  0.0000E+00  0.0000E+00  0.0000E+00  0.0000E+00
    -53.588  0.0000E+00  0.0000E+00  0.0000E+00  0.0000E+00
    -53.323  0.0000E+00  0.0000E+00  0.0000E+00  0.0000E+00
    -53.058  0.0000E+00  0.0000E+00  0.0000E+00  0.0000E+00
    -52.793  0.0000E+00  0.0000E+00  0.0000E+00  0.0000E+00
    -52.528  0.0000E+00  0.0000E+00  0.0000E+00  0.0000E+00
    -52.263  0.0000E+00  0.0000E+00  0.0000E+00  0.0000E+00
    -51.998  0.0000E+00  0.0000E+00  0.0000E+00  0.0000E+00
    -51.733  0.0000E+00  0.0000E+00  0.0000E+00  0.0000E+00
    -51.468  0.0000E+00  0.0000E+00  0.0000E+00  0.0000E+00
    -51.203  0.0000E+00  0.0000E+00  0.0000E+00  0.0000E+00
    -50.938  0.5800E-05  0.0000E+00  0.1537E-05  0.0000E+00
    -50.673  0.1448E+02  0.0000E+00  0.3837E+01  0.0000E+00
    -50.408  0.6137E+00  0.0000E+00  0.4000E+01  0.0000E+00
    -50.143  0.0000E+00  0.0000E+00  0.4000E+01  0.0000E+00
    -49.878  0.1211E-02  0.0000E+00  0.4000E+01  0.0000E+00
    -49.613  0.7546E+01  0.0000E+00  0.6000E+01  0.0000E+00
    -49.348  0.0000E+00  0.0000E+00  0.6000E+01  0.0000E+00
    -49.083  0.0000E+00  0.0000E+00  0.6000E+01  0.0000E+00
    -48.818  0.0000E+00  0.0000E+00  0.6000E+01  0.0000E+00
    -48.553  0.0000E+00  0.0000E+00  0.6000E+01  0.0000E+00
    -48.288  0.0000E+00  0.0000E+00  0.6000E+01  0.0000E+00
    -48.024  0.0000E+00  0.0000E+00  0.6000E+01  0.0000E+00
    -47.759  0.0000E+00  0.0000E+00  0.6000E+01  0.0000E+00
    -47.494  0.0000E+00  0.0000E+00  0.6000E+01  0.0000E+00
    -47.229  0.0000E+00  0.0000E+00  0.6000E+01  0.0000E+00
    -46.964  0.0000E+00  0.0000E+00  0.6000E+01  0.0000E+00
    -46.699  0.0000E+00  0.1223E-06  0.6000E+01  0.3240E-07
    -46.434  0.0000E+00  0.1438E+02  0.6000E+01  0.3810E+01
    -46.169  0.0000E+00  0.7323E+00  0.6000E+01  0.4004E+01
    -45.904  0.0000E+00  0.7531E+01  0.6000E+01  0.6000E+01
    -45.639  0.0000E+00  0.0000E+00  0.6000E+01  0.6000E+01
    -45.374  0.0000E+00  0.0000E+00  0.6000E+01  0.6000E+01
    -45.109  0.0000E+00  0.0000E+00  0.6000E+01  0.6000E+01
    -44.844  0.0000E+00  0.0000E+00  0.6000E+01  0.6000E+01
    -44.579  0.0000E+00  0.0000E+00  0.6000E+01  0.6000E+01
    -44.314  0.0000E+00  0.0000E+00  0.6000E+01  0.6000E+01
    -44.049  0.0000E+00  0.0000E+00  0.6000E+01  0.6000E+01
    -43.784  0.0000E+00  0.0000E+00  0.6000E+01  0.6000E+01
    -43.519  0.0000E+00  0.0000E+00  0.6000E+01  0.6000E+01
    -43.254  0.0000E+00  0.0000E+00  0.6000E+01  0.6000E+01
    -42.989  0.0000E+00  0.0000E+00  0.6000E+01  0.6000E+01
    -42.724  0.0000E+00  0.0000E+00  0.6000E+01  0.6000E+01
    -42.459  0.0000E+00  0.0000E+00  0.6000E+01  0.6000E+01
    -42.194  0.0000E+00  0.0000E+00  0.6000E+01  0.6000E+01
    -41.929  0.0000E+00  0.0000E+00  0.6000E+01  0.6000E+01
    -41.664  0.0000E+00  0.0000E+00  0.6000E+01  0.6000E+01
    -41.399  0.0000E+00  0.0000E+00  0.6000E+01  0.6000E+01
    -41.134  0.0000E+00  0.0000E+00  0.6000E+01  0.6000E+01
    -40.869  0.0000E+00  0.0000E+00  0.6000E+01  0.6000E+01
    -40.604  0.0000E+00  0.0000E+00  0.6000E+01  0.6000E+01
    -40.339  0.0000E+00  0.0000E+00  0.6000E+01  0.6000E+01
    -40.074  0.0000E+00  0.0000E+00  0.6000E+01  0.6000E+01
    -39.809  0.0000E+00  0.0000E+00  0.6000E+01  0.6000E+01
    -39.544  0.3293E+00  0.3377E+00  0.6087E+01  0.6089E+01
    -39.279  0.7218E+01  0.7210E+01  0.8000E+01  0.8000E+01
    -39.014  0.0000E+00  0.0000E+00  0.8000E+01  0.8000E+01
    -38.749  0.0000E+00  0.0000E+00  0.8000E+01  0.8000E+01
    -38.484  0.0000E+00  0.0000E+00  0.8000E+01  0.8000E+01
    -38.219  0.0000E+00  0.0000E+00  0.8000E+01  0.8000E+01
    -37.954  0.0000E+00  0.0000E+00  0.8000E+01  0.8000E+01
    -37.689  0.0000E+00  0.0000E+00  0.8000E+01  0.8000E+01
    -37.424  0.0000E+00  0.0000E+00  0.8000E+01  0.8000E+01
    -37.159  0.0000E+00  0.0000E+00  0.8000E+01  0.8000E+01
    -36.894  0.0000E+00  0.0000E+00  0.8000E+01  0.8000E+01
    -36.629  0.0000E+00  0.0000E+00  0.8000E+01  0.8000E+01
    -36.364  0.0000E+00  0.0000E+00  0.8000E+01  0.8000E+01
    -36.099  0.0000E+00  0.0000E+00  0.8000E+01  0.8000E+01
    -35.834  0.0000E+00  0.0000E+00  0.8000E+01  0.8000E+01
    -35.569  0.0000E+00  0.0000E+00  0.8000E+01  0.8000E+01
    -35.304  0.0000E+00  0.0000E+00  0.8000E+01  0.8000E+01
    -35.039  0.0000E+00  0.0000E+00  0.8000E+01  0.8000E+01
    -34.774  0.0000E+00  0.0000E+00  0.8000E+01  0.8000E+01
    -34.509  0.0000E+00  0.0000E+00  0.8000E+01  0.8000E+01
    -34.244  0.0000E+00  0.0000E+00  0.8000E+01  0.8000E+01
    -33.979  0.0000E+00  0.0000E+00  0.8000E+01  0.8000E+01
    -33.714  0.0000E+00  0.0000E+00  0.8000E+01  0.8000E+01
    -33.449  0.0000E+00  0.0000E+00  0.8000E+01  0.8000E+01
    -33.184  0.0000E+00  0.0000E+00  0.8000E+01  0.8000E+01
    -32.920  0.0000E+00  0.0000E+00  0.8000E+01  0.8000E+01
    -32.655  0.0000E+00  0.0000E+00  0.8000E+01  0.8000E+01
    -32.390  0.0000E+00  0.0000E+00  0.8000E+01  0.8000E+01
    -32.125  0.0000E+00  0.0000E+00  0.8000E+01  0.8000E+01
    -31.860  0.0000E+00  0.0000E+00  0.8000E+01  0.8000E+01
    -31.595  0.0000E+00  0.0000E+00  0.8000E+01  0.8000E+01
    -31.330  0.0000E+00  0.0000E+00  0.8000E+01  0.8000E+01
    -31.065  0.0000E+00  0.0000E+00  0.8000E+01  0.8000E+01
    -30.800  0.0000E+00  0.0000E+00  0.8000E+01  0.8000E+01
    -30.535  0.0000E+00  0.0000E+00  0.8000E+01  0.8000E+01
    -30.270  0.0000E+00  0.0000E+00  0.8000E+01  0.8000E+01
    -30.005  0.0000E+00  0.0000E+00  0.8000E+01  0.8000E+01
    -29.740  0.0000E+00  0.0000E+00  0.8000E+01  0.8000E+01
    -29.475  0.0000E+00  0.0000E+00  0.8000E+01  0.8000E+01
    -29.210  0.0000E+00  0.0000E+00  0.8000E+01  0.8000E+01
    -28.945  0.0000E+00  0.0000E+00  0.8000E+01  0.8000E+01
    -28.680  0.0000E+00  0.0000E+00  0.8000E+01  0.8000E+01
    -28.415  0.0000E+00  0.0000E+00  0.8000E+01  0.8000E+01
    -28.150  0.0000E+00  0.0000E+00  0.8000E+01  0.8000E+01
    -27.885  0.0000E+00  0.0000E+00  0.8000E+01  0.8000E+01
    -27.620  0.0000E+00  0.0000E+00  0.8000E+01  0.8000E+01
    -27.355  0.0000E+00  0.0000E+00  0.8000E+01  0.8000E+01
    -27.090  0.0000E+00  0.0000E+00  0.8000E+01  0.8000E+01
    -26.825  0.0000E+00  0.0000E+00  0.8000E+01  0.8000E+01
    -26.560  0.0000E+00  0.0000E+00  0.8000E+01  0.8000E+01
    -26.295  0.0000E+00  0.0000E+00  0.8000E+01  0.8000E+01
    -26.030  0.0000E+00  0.0000E+00  0.8000E+01  0.8000E+01
    -25.765  0.0000E+00  0.0000E+00  0.8000E+01  0.8000E+01
    -25.500  0.0000E+00  0.0000E+00  0.8000E+01  0.8000E+01
    -25.235  0.0000E+00  0.0000E+00  0.8000E+01  0.8000E+01
    -24.970  0.0000E+00  0.0000E+00  0.8000E+01  0.8000E+01
    -24.705  0.0000E+00  0.0000E+00  0.8000E+01  0.8000E+01
    -24.440  0.0000E+00  0.0000E+00  0.8000E+01  0.8000E+01
    -24.175  0.0000E+00  0.0000E+00  0.8000E+01  0.8000E+01
    -23.910  0.0000E+00  0.0000E+00  0.8000E+01  0.8000E+01
    -23.645  0.0000E+00  0.0000E+00  0.8000E+01  0.8000E+01
    -23.380  0.0000E+00  0.0000E+00  0.8000E+01  0.8000E+01
    -23.115  0.0000E+00  0.0000E+00  0.8000E+01  0.8000E+01
    -22.850  0.0000E+00  0.0000E+00  0.8000E+01  0.8000E+01
    -22.585  0.0000E+00  0.0000E+00  0.8000E+01  0.8000E+01
    -22.320  0.0000E+00  0.0000E+00  0.8000E+01  0.8000E+01
    -22.055  0.0000E+00  0.0000E+00  0.8000E+01  0.8000E+01
    -21.790  0.0000E+00  0.0000E+00  0.8000E+01  0.8000E+01
    -21.525  0.0000E+00  0.0000E+00  0.8000E+01  0.8000E+01
    -21.260  0.0000E+00  0.0000E+00  0.8000E+01  0.8000E+01
    -20.995  0.0000E+00  0.0000E+00  0.8000E+01  0.8000E+01
    -20.730  0.0000E+00  0.0000E+00  0.8000E+01  0.8000E+01
    -20.465  0.0000E+00  0.0000E+00  0.8000E+01  0.8000E+01
    -20.200  0.0000E+00  0.0000E+00  0.8000E+01  0.8000E+01
    -19.935  0.0000E+00  0.0000E+00  0.8000E+01  0.8000E+01
    -19.670  0.0000E+00  0.0000E+00  0.8000E+01  0.8000E+01
    -19.405  0.0000E+00  0.0000E+00  0.8000E+01  0.8000E+01
    -19.140  0.0000E+00  0.0000E+00  0.8000E+01  0.8000E+01
    -18.875  0.0000E+00  0.0000E+00  0.8000E+01  0.8000E+01
    -18.610  0.0000E+00  0.0000E+00  0.8000E+01  0.8000E+01
    -18.345  0.0000E+00  0.0000E+00  0.8000E+01  0.8000E+01
    -18.080  0.0000E+00  0.0000E+00  0.8000E+01  0.8000E+01
    -17.816  0.0000E+00  0.0000E+00  0.8000E+01  0.8000E+01
    -17.551  0.0000E+00  0.0000E+00  0.8000E+01  0.8000E+01
    -17.286  0.0000E+00  0.0000E+00  0.8000E+01  0.8000E+01
    -17.021  0.0000E+00  0.0000E+00  0.8000E+01  0.8000E+01
    -16.756  0.0000E+00  0.0000E+00  0.8000E+01  0.8000E+01
    -16.491  0.0000E+00  0.0000E+00  0.8000E+01  0.8000E+01
    -16.226  0.0000E+00  0.0000E+00  0.8000E+01  0.8000E+01
    -15.961  0.0000E+00  0.0000E+00  0.8000E+01  0.8000E+01
    -15.696  0.0000E+00  0.0000E+00  0.8000E+01  0.8000E+01
    -15.431  0.0000E+00  0.0000E+00  0.8000E+01  0.8000E+01
    -15.166  0.0000E+00  0.0000E+00  0.8000E+01  0.8000E+01
    -14.901  0.0000E+00  0.0000E+00  0.8000E+01  0.8000E+01
    -14.636  0.0000E+00  0.0000E+00  0.8000E+01  0.8000E+01
    -14.371  0.0000E+00  0.0000E+00  0.8000E+01  0.8000E+01
    -14.106  0.0000E+00  0.0000E+00  0.8000E+01  0.8000E+01
    -13.841  0.0000E+00  0.0000E+00  0.8000E+01  0.8000E+01
    -13.576  0.0000E+00  0.0000E+00  0.8000E+01  0.8000E+01
    -13.311  0.0000E+00  0.0000E+00  0.8000E+01  0.8000E+01
    -13.046  0.0000E+00  0.0000E+00  0.8000E+01  0.8000E+01
    -12.781  0.7923E-10  0.0000E+00  0.8000E+01  0.8000E+01
    -12.516  0.1524E+01  0.4282E-13  0.8404E+01  0.8000E+01
    -12.251  0.2250E+01  0.5480E+00  0.9000E+01  0.8145E+01
    -11.986  0.0000E+00  0.3226E+01  0.9000E+01  0.9000E+01
    -11.721  0.0000E+00  0.0000E+00  0.9000E+01  0.9000E+01
    -11.456  0.0000E+00  0.0000E+00  0.9000E+01  0.9000E+01
    -11.191  0.0000E+00  0.0000E+00  0.9000E+01  0.9000E+01
    -10.926  0.0000E+00  0.0000E+00  0.9000E+01  0.9000E+01
    -10.661  0.0000E+00  0.0000E+00  0.9000E+01  0.9000E+01
    -10.396  0.0000E+00  0.0000E+00  0.9000E+01  0.9000E+01
    -10.131  0.0000E+00  0.0000E+00  0.9000E+01  0.9000E+01
     -9.866  0.0000E+00  0.0000E+00  0.9000E+01  0.9000E+01
     -9.601  0.0000E+00  0.0000E+00  0.9000E+01  0.9000E+01
     -9.336  0.0000E+00  0.0000E+00  0.9000E+01  0.9000E+01
     -9.071  0.0000E+00  0.0000E+00  0.9000E+01  0.9000E+01
     -8.806  0.0000E+00  0.0000E+00  0.9000E+01  0.9000E+01
     -8.541  0.0000E+00  0.0000E+00  0.9000E+01  0.9000E+01
     -8.276  0.0000E+00  0.0000E+00  0.9000E+01  0.9000E+01
     -8.011  0.1821E-10  0.0000E+00  0.9000E+01  0.9000E+01
     -7.746  0.7383E-01  0.5365E-06  0.9020E+01  0.9000E+01
     -7.481  0.6653E+00  0.2716E+00  0.9196E+01  0.9072E+01
     -7.216  0.1081E+01  0.8254E+00  0.9482E+01  0.9291E+01
     -6.951  0.3414E+01  0.1221E+01  0.1039E+02  0.9614E+01
     -6.686  0.2313E+01  0.3386E+01  0.1100E+02  0.1051E+02
     -6.421  0.3721E-04  0.1844E+01  0.1100E+02  0.1100E+02
     -6.156  0.0000E+00  0.3283E-03  0.1100E+02  0.1100E+02
     -5.891  0.0000E+00  0.0000E+00  0.1100E+02  0.1100E+02
     -5.626  0.0000E+00  0.0000E+00  0.1100E+02  0.1100E+02
     -5.361  0.0000E+00  0.0000E+00  0.1100E+02  0.1100E+02
     -5.096  0.0000E+00  0.0000E+00  0.1100E+02  0.1100E+02
     -4.831  0.0000E+00  0.0000E+00  0.1100E+02  0.1100E+02
     -4.566  0.0000E+00  0.0000E+00  0.1100E+02  0.1100E+02
     -4.301  0.0000E+00  0.0000E+00  0.1100E+02  0.1100E+02
     -4.036  0.0000E+00  0.0000E+00  0.1100E+02  0.1100E+02
     -3.771  0.0000E+00  0.0000E+00  0.1100E+02  0.1100E+02
     -3.506  0.0000E+00  0.0000E+00  0.1100E+02  0.1100E+02
     -3.241  0.0000E+00  0.0000E+00  0.1100E+02  0.1100E+02
     -2.976  0.0000E+00  0.0000E+00  0.1100E+02  0.1100E+02
     -2.711  0.0000E+00  0.0000E+00  0.1100E+02  0.1100E+02
     -2.447  0.0000E+00  0.0000E+00  0.1100E+02  0.1100E+02
     -2.182  0.0000E+00  0.0000E+00  0.1100E+02  0.1100E+02
     -1.917  0.0000E+00  0.0000E+00  0.1100E+02  0.1100E+02
     -1.652  0.0000E+00  0.0000E+00  0.1100E+02  0.1100E+02
     -1.387  0.1041E-08  0.0000E+00  0.1100E+02  0.1100E+02
     -1.122  0.7042E+00  0.0000E+00  0.1119E+02  0.1100E+02
     -0.857  0.3000E+01  0.0000E+00  0.1198E+02  0.1100E+02
     -0.592  0.4665E+01  0.9851E-13  0.1322E+02  0.1100E+02
     -0.327  0.7256E+01  0.1044E+00  0.1514E+02  0.1103E+02
     -0.062  0.5193E+01  0.6985E+00  0.1652E+02  0.1121E+02
      0.203  0.5731E+01  0.9161E+00  0.1803E+02  0.1146E+02
      0.468  0.6294E+01  0.1795E+01  0.1970E+02  0.1193E+02
      0.733  0.4241E+01  0.2588E+01  0.2083E+02  0.1262E+02
      0.998  0.3093E+01  0.1607E+01  0.2165E+02  0.1304E+02
      1.263  0.1077E+01  0.2107E+01  0.2193E+02  0.1360E+02
      1.528  0.1615E+01  0.2385E+01  0.2236E+02  0.1423E+02
      1.793  0.2338E+01  0.2559E+01  0.2298E+02  0.1491E+02
      2.058  0.1507E+01  0.2695E+01  0.2338E+02  0.1563E+02
      2.323  0.3376E+01  0.1512E+01  0.2427E+02  0.1603E+02
      2.588  0.3360E+01  0.1907E+01  0.2516E+02  0.1653E+02
      2.853  0.2723E+01  0.3274E+01  0.2588E+02  0.1740E+02
      3.118  0.1728E+01  0.3463E+01  0.2634E+02  0.1832E+02
      3.383  0.1076E+01  0.2329E+01  0.2663E+02  0.1893E+02
      3.648  0.2225E+01  0.2862E+01  0.2722E+02  0.1969E+02
      3.913  0.2593E+01  0.8340E+00  0.2790E+02  0.1991E+02
      4.178  0.2479E+01  0.2909E+00  0.2856E+02  0.1999E+02
      4.443  0.2442E+01  0.3777E-01  0.2921E+02  0.2000E+02
      4.708  0.1043E+01  0.1950E-01  0.2949E+02  0.2001E+02
      4.973  0.1247E+01  0.2236E+00  0.2982E+02  0.2006E+02
      5.238  0.6890E+00  0.7064E+00  0.3000E+02  0.2025E+02
      5.503  0.8022E-02  0.1892E+01  0.3000E+02  0.2075E+02
      5.768  0.0000E+00  0.3576E+01  0.3000E+02  0.2170E+02
      6.033  0.0000E+00  0.3376E+01  0.3000E+02  0.2260E+02
      6.298  0.0000E+00  0.5435E+01  0.3000E+02  0.2404E+02
      6.563  0.0000E+00  0.4848E+00  0.3000E+02  0.2416E+02
      6.828  0.0000E+00  0.1016E+01  0.3000E+02  0.2443E+02
      7.093  0.3228E-12  0.2180E+01  0.3000E+02  0.2501E+02
      7.358  0.1553E-01  0.2637E+01  0.3000E+02  0.2571E+02
      7.623  0.7327E-01  0.5463E+01  0.3002E+02  0.2716E+02
      7.888  0.2141E+00  0.2920E+01  0.3008E+02  0.2793E+02
      8.153  0.1915E+00  0.9541E+00  0.3013E+02  0.2818E+02
      8.418  0.3213E+00  0.2454E+01  0.3022E+02  0.2883E+02
      8.683  0.6787E+00  0.1605E+01  0.3040E+02  0.2926E+02
      8.948  0.8267E+00  0.1158E+01  0.3062E+02  0.2957E+02
      9.213  0.5478E+00  0.1557E+01  0.3076E+02  0.2998E+02
      9.478  0.1418E+01  0.9919E+00  0.3114E+02  0.3024E+02
      9.743  0.1718E+01  0.8587E+00  0.3159E+02  0.3047E+02
     10.008  0.1341E+01  0.6391E+00  0.3195E+02  0.3064E+02
     10.273  0.8453E+00  0.1259E+01  0.3217E+02  0.3097E+02
     10.538  0.1234E+01  0.1926E+01  0.3250E+02  0.3148E+02
     10.803  0.1310E+01  0.1829E+01  0.3284E+02  0.3197E+02
     11.068  0.8413E+00  0.1098E+01  0.3307E+02  0.3226E+02
     11.333  0.1437E+01  0.1150E+01  0.3345E+02  0.3256E+02
     11.598  0.2145E+01  0.7971E+00  0.3402E+02  0.3277E+02
     11.863  0.2200E+01  0.1328E+01  0.3460E+02  0.3313E+02
     12.128  0.1448E+01  0.1736E+01  0.3498E+02  0.3359E+02
     12.393  0.2301E+01  0.2937E+01  0.3559E+02  0.3436E+02
     12.657  0.2338E+01  0.1443E+01  0.3621E+02  0.3475E+02
     12.922  0.1645E+01  0.2337E+01  0.3665E+02  0.3537E+02
     13.187  0.1557E+01  0.2552E+01  0.3706E+02  0.3604E+02
     13.452  0.1858E+01  0.2678E+01  0.3755E+02  0.3675E+02
     13.717  0.2037E+01  0.2079E+01  0.3809E+02  0.3730E+02
     13.982  0.2251E+01  0.1310E+01  0.3869E+02  0.3765E+02
     14.247  0.1151E+01  0.2215E+01  0.3899E+02  0.3824E+02
     14.512  0.1284E+01  0.1538E+01  0.3933E+02  0.3864E+02
     14.777  0.8816E+00  0.1480E+01  0.3957E+02  0.3904E+02
     15.042  0.1050E+01  0.1215E+01  0.3985E+02  0.3936E+02
     15.307  0.1824E+01  0.7446E+00  0.4033E+02  0.3956E+02
     15.572  0.8368E+00  0.1282E+01  0.4055E+02  0.3990E+02
     15.837  0.8779E+00  0.1318E+01  0.4078E+02  0.4024E+02
     16.102  0.8814E+00  0.1150E+01  0.4102E+02  0.4055E+02
     16.367  0.1333E+01  0.8964E+00  0.4137E+02  0.4079E+02
     16.632  0.9925E+00  0.4656E+00  0.4163E+02  0.4091E+02
     16.897  0.1586E+01  0.1492E+01  0.4205E+02  0.4131E+02
     17.162  0.2019E+01  0.1218E+01  0.4259E+02  0.4163E+02
     17.427  0.1409E+01  0.1260E+01  0.4296E+02  0.4196E+02
     17.692  0.1319E+01  0.1840E+01  0.4331E+02  0.4245E+02
     17.957  0.1455E+01  0.1443E+01  0.4370E+02  0.4283E+02
     18.222  0.1463E+01  0.1615E+01  0.4409E+02  0.4326E+02
     18.487  0.1204E+01  0.1607E+01  0.4440E+02  0.4369E+02
     18.752  0.1664E+01  0.1507E+01  0.4485E+02  0.4409E+02
     19.017  0.2055E+01  0.1514E+01  0.4539E+02  0.4449E+02
     19.282  0.1762E+01  0.1804E+01  0.4586E+02  0.4496E+02
     19.547  0.1530E+01  0.1717E+01  0.4626E+02  0.4542E+02
     19.812  0.1447E+01  0.1704E+01  0.4665E+02  0.4587E+02
     20.077  0.1551E+01  0.1740E+01  0.4706E+02  0.4633E+02
     20.342  0.1313E+01  0.1423E+01  0.4740E+02  0.4671E+02
     20.607  0.1296E+01  0.1607E+01  0.4775E+02  0.4713E+02
     20.872  0.7992E+00  0.1683E+01  0.4796E+02  0.4758E+02
     21.137  0.1519E+00  0.9731E+00  0.4800E+02  0.4784E+02
     21.402  0.0000E+00  0.4011E+00  0.4800E+02  0.4794E+02
     21.667  0.0000E+00  0.2078E+00  0.4800E+02  0.4800E+02
     21.932  0.0000E+00  0.0000E+00  0.4800E+02  0.4800E+02
     22.197  0.0000E+00  0.0000E+00  0.4800E+02  0.4800E+02
     22.462  0.0000E+00  0.0000E+00  0.4800E+02  0.4800E+02
     22.727  0.0000E+00  0.0000E+00  0.4800E+02  0.4800E+02
     22.992  0.0000E+00  0.0000E+00  0.4800E+02  0.4800E+02
     23.257  0.0000E+00  0.0000E+00  0.4800E+02  0.4800E+02
     23.522  0.0000E+00  0.0000E+00  0.4800E+02  0.4800E+02
     23.787  0.0000E+00  0.0000E+00  0.4800E+02  0.4800E+02
     24.052  0.0000E+00  0.0000E+00  0.4800E+02  0.4800E+02
     24.317  0.0000E+00  0.0000E+00  0.4800E+02  0.4800E+02
     24.582  0.0000E+00  0.0000E+00  0.4800E+02  0.4800E+02
     24.847  0.0000E+00  0.0000E+00  0.4800E+02  0.4800E+02
     25.112  0.0000E+00  0.0000E+00  0.4800E+02  0.4800E+02
