    7    7    1    2
  0.1357194E+02  0.3858862E-09  0.3858868E-09  0.6939013E-09  0.5000000E-15
  1.000000000000000E-004
  CAR 
 unknown system                          
     52     99     48
 
  0.0000000E+00  0.0000000E+00  0.0000000E+00  0.5102041E-02
    1      -50.768602    -46.503075   1.000000   1.000000
    2      -50.767185    -46.501172   1.000000   1.000000
    3      -50.723824    -46.486283   1.000000   1.000000
    4      -50.722403    -46.484377   1.000000   1.000000
    5      -49.752714    -46.069946   1.000000   1.000000
    6      -49.749815    -46.065987   1.000000   1.000000
    7      -39.506319    -39.506624   1.000000   1.000000
    8      -39.454722    -39.455372   1.000000   1.000000
    9      -12.457154    -12.154947   1.000000   1.000000
   10       -7.755181     -7.558037   1.000000   1.000000
   11       -7.063348     -6.789661   1.000000   1.000000
   12       -1.179097      0.513527   1.000000   1.000000
   13       -0.456892      1.051945   1.000000   1.000000
   14       -0.269581      1.322407   1.000000   1.000000
   15       -0.266322      1.327902   1.000000   1.000000
   16       -0.136626      2.968813   1.000000   1.000000
   17       -0.036532      2.969393   1.000000   1.000000
   18        0.066135      4.116000   1.000000   1.000000
   19        0.092923      4.239526   1.000000   1.000000
   20        0.575804      4.241332   1.000000   1.000000
   21        0.618221      5.243998   1.000000   1.000000
   22        1.568072      5.331671   1.000000   1.000000
   23        2.347562      5.789507   1.000000   0.993448
   24        2.367982      6.220098   1.000000   0.000000
   25        2.766334      6.313409   1.000000   0.000000
   26        2.885149      6.596301   1.000000   0.000000
   27        2.891340      6.621618   1.000000   0.000000
   28        4.010603      6.973972   1.000000   0.000000
   29        4.053802      7.013406   1.000000   0.000000
   30        4.056890      7.776197   1.000000   0.000000
   31        7.743423      8.954227   0.000000   0.000000
   32        8.899088     10.767114   0.000000   0.000000
   33       10.346267     12.335272   0.000000   0.000000
   34       11.945020     12.932020   0.000000   0.000000
   35       12.278204     13.259541   0.000000   0.000000
   36       14.060006     14.175946   0.000000   0.000000
   37       14.061379     14.177398   0.000000   0.000000
   38       14.308120     14.943230   0.000000   0.000000
   39       14.316503     14.949573   0.000000   0.000000
   40       14.803982     15.172827   0.000000   0.000000
   41       15.248393     15.473902   0.000000   0.000000
   42       16.145727     16.388161   0.000000   0.000000
   43       16.419671     17.456883   0.000000   0.000000
   44       16.707902     17.682138   0.000000   0.000000
   45       16.716738     17.688297   0.000000   0.000000
   46       16.856358     17.777505   0.000000   0.000000
   47       16.864930     17.778170   0.000000   0.000000
   48       17.845467     19.005261   0.000000   0.000000
 
  0.1428571E+00  0.6776264E-20 -0.1387779E-16  0.1020408E-01
    1      -50.768611    -46.503087   1.000000   1.000000
    2      -50.767352    -46.501387   1.000000   1.000000
    3      -50.723833    -46.486293   1.000000   1.000000
    4      -50.722571    -46.484590   1.000000   1.000000
    5      -49.752551    -46.069729   1.000000   1.000000
    6      -49.749930    -46.066142   1.000000   1.000000
    7      -39.503557    -39.503884   1.000000   1.000000
    8      -39.457172    -39.457808   1.000000   1.000000
    9      -12.465147    -12.162625   1.000000   1.000000
   10       -7.674258     -7.482463   1.000000   1.000000
   11       -7.014235     -6.749250   1.000000   1.000000
   12       -1.155635      0.395543   1.000000   1.000000
   13       -0.464153      0.675598   1.000000   1.000000
   14       -0.387056      1.385911   1.000000   1.000000
   15       -0.326849      1.844167   1.000000   1.000000
   16       -0.262611      2.569591   1.000000   1.000000
   17       -0.170104      2.953203   1.000000   1.000000
   18        0.142715      3.458406   1.000000   1.000000
   19        0.155930      3.936877   1.000000   1.000000
   20        0.540405      3.959436   1.000000   1.000000
   21        0.642319      5.320850   1.000000   1.000000
   22        1.595873      5.414822   1.000000   1.000000
   23        1.726490      6.166845   1.000000   0.000000
   24        2.346540      6.180507   1.000000   0.000000
   25        2.470666      6.267031   1.000000   0.000000
   26        3.194572      6.783380   1.000000   0.000000
   27        3.395458      6.987978   1.000000   0.000000
   28        3.824563      7.185278   1.000000   0.000000
   29        4.158465      7.596016   1.000000   0.000000
   30        4.171663      8.206543   1.000000   0.000000
   31        8.389768      9.317991   0.000000   0.000000
   32        9.025849     10.655804   0.000000   0.000000
   33       10.733012     12.309740   0.000000   0.000000
   34       11.986158     12.735515   0.000000   0.000000
   35       12.267470     13.027914   0.000000   0.000000
   36       12.870044     13.393127   0.000000   0.000000
   37       13.445672     13.763979   0.000000   0.000000
   38       13.750746     14.240209   0.000000   0.000000
   39       13.925214     14.620902   0.000000   0.000000
   40       14.500973     15.460115   0.000000   0.000000
   41       15.219664     15.627116   0.000000   0.000000
   42       15.950148     16.210386   0.000000   0.000000
   43       16.005224     16.831021   0.000000   0.000000
   44       16.246835     17.177777   0.000000   0.000000
   45       16.527971     17.265098   0.000000   0.000000
   46       18.158479     18.444536   0.000000   0.000000
   47       19.027086     20.172952   0.000000   0.000000
   48       19.646680     20.568194   0.000000   0.000000
 
  0.2857143E+00  0.1355253E-19 -0.5551115E-16  0.1020408E-01
    1      -50.768615    -46.503098   1.000000   1.000000
    2      -50.767734    -46.501918   1.000000   1.000000
    3      -50.723832    -46.486283   1.000000   1.000000
    4      -50.722948    -46.485099   1.000000   1.000000
    5      -49.752124    -46.069149   1.000000   1.000000
    6      -49.750265    -46.066594   1.000000   1.000000
    7      -39.496048    -39.496432   1.000000   1.000000
    8      -39.463947    -39.464544   1.000000   1.000000
    9      -12.483477    -12.180289   1.000000   1.000000
   10       -7.452662     -7.271213   1.000000   1.000000
   11       -6.927618     -6.690388   1.000000   1.000000
   12       -1.133107      0.014615   1.000000   1.000000
   13       -0.590399      0.437566   1.000000   1.000000
   14       -0.566328      1.548328   1.000000   1.000000
   15       -0.547087      1.931340   1.000000   1.000000
   16       -0.491965      2.386549   1.000000   1.000000
   17       -0.175555      2.587241   1.000000   1.000000
   18        0.138507      2.920509   1.000000   1.000000
   19        0.226349      3.449428   1.000000   1.000000
   20        0.353447      3.556623   1.000000   1.000000
   21        0.716712      5.451187   1.000000   1.000000
   22        0.920272      5.605898   1.000000   1.000000
   23        1.718824      6.098142   1.000000   0.000000
   24        2.382809      6.196037   1.000000   0.000000
   25        2.626638      6.776647   1.000000   0.000000
   26        2.755964      7.144609   1.000000   0.000000
   27        3.841311      7.722135   1.000000   0.000000
   28        4.066488      7.751340   1.000000   0.000000
   29        4.402102      8.241923   1.000000   0.000000
   30        4.641895      8.923009   1.000000   0.000000
   31        9.014656     10.039977   0.000000   0.000000
   32        9.343528     10.246020   0.000000   0.000000
   33       11.091965     11.736635   0.000000   0.000000
   34       11.813590     12.242751   0.000000   0.000000
   35       11.937939     12.539936   0.000000   0.000000
   36       12.126981     12.717389   0.000000   0.000000
   37       12.551795     13.295271   0.000000   0.000000
   38       12.612267     13.463992   0.000000   0.000000
   39       13.716864     14.118767   0.000000   0.000000
   40       14.181760     14.807643   0.000000   0.000000
   41       15.264505     15.924782   0.000000   0.000000
   42       15.794353     16.746151   0.000000   0.000000
   43       16.212117     16.764684   0.000000   0.000000
   44       16.823218     17.239825   0.000000   0.000000
   45       16.959130     17.604769   0.000000   0.000000
   46       20.224494     20.324799   0.000000   0.000000
   47       20.437522     20.807123   0.000000   0.000000
   48       20.922045     21.200768   0.000000   0.000000
 
  0.4285714E+00  0.4065758E-19  0.0000000E+00  0.1020408E-01
    1      -50.768490    -46.502950   1.000000   1.000000
    2      -50.768176    -46.502527   1.000000   1.000000
    3      -50.723703    -46.486103   1.000000   1.000000
    4      -50.723382    -46.485671   1.000000   1.000000
    5      -49.751592    -46.068438   1.000000   1.000000
    6      -49.750744    -46.067219   1.000000   1.000000
    7      -39.485452    -39.485911   1.000000   1.000000
    8      -39.473976    -39.474513   1.000000   1.000000
    9      -12.498471    -12.194803   1.000000   1.000000
   10       -7.181918     -7.000762   1.000000   1.000000
   11       -6.933993     -6.735399   1.000000   1.000000
   12       -1.189676     -0.344119   1.000000   1.000000
   13       -0.796507      0.488374   1.000000   1.000000
   14       -0.747782      1.217165   1.000000   1.000000
   15       -0.673557      1.726415   1.000000   1.000000
   16       -0.648476      2.158772   1.000000   1.000000
   17       -0.099374      2.837629   1.000000   1.000000
   18        0.151621      2.879599   1.000000   1.000000
   19        0.239361      3.083688   1.000000   1.000000
   20        0.255779      3.436617   1.000000   1.000000
   21        0.586406      5.559837   1.000000   1.000000
   22        0.772983      5.760408   1.000000   0.999523
   23        1.720652      6.020602   1.000000   0.000025
   24        2.212791      6.120345   1.000000   0.000000
   25        2.431465      7.337552   1.000000   0.000000
   26        2.968836      7.483238   1.000000   0.000000
   27        4.216093      8.345504   1.000000   0.000000
   28        4.378792      8.398240   1.000000   0.000000
   29        4.627684      8.605132   1.000000   0.000000
   30        4.981150      9.218865   1.000000   0.000000
   31        8.817847      9.449599   0.000000   0.000000
   32        9.558226     10.090534   0.000000   0.000000
   33       10.712051     11.350781   0.000000   0.000000
   34       11.097632     11.667942   0.000000   0.000000
   35       11.569330     11.899406   0.000000   0.000000
   36       11.715777     12.418742   0.000000   0.000000
   37       11.972226     12.808669   0.000000   0.000000
   38       13.317570     13.608466   0.000000   0.000000
   39       13.348621     13.701720   0.000000   0.000000
   40       14.661665     15.348668   0.000000   0.000000
   41       16.072308     16.583577   0.000000   0.000000
   42       16.788884     17.122591   0.000000   0.000000
   43       16.979412     17.587151   0.000000   0.000000
   44       17.122491     17.862413   0.000000   0.000000
   45       17.665318     18.178059   0.000000   0.000000
   46       19.312794     19.672606   0.000000   0.000000
   47       19.386526     19.705325   0.000000   0.000000
   48       19.869788     20.371561   0.000000   0.000000
 
  0.1355253E-19  0.1428571E+00  0.0000000E+00  0.1020408E-01
    1      -50.768611    -46.503087   1.000000   1.000000
    2      -50.767352    -46.501387   1.000000   1.000000
    3      -50.723833    -46.486293   1.000000   1.000000
    4      -50.722571    -46.484590   1.000000   1.000000
    5      -49.752551    -46.069729   1.000000   1.000000
    6      -49.749930    -46.066142   1.000000   1.000000
    7      -39.503557    -39.503884   1.000000   1.000000
    8      -39.457172    -39.457808   1.000000   1.000000
    9      -12.465147    -12.162625   1.000000   1.000000
   10       -7.674259     -7.482463   1.000000   1.000000
   11       -7.014236     -6.749251   1.000000   1.000000
   12       -1.155635      0.395542   1.000000   1.000000
   13       -0.464151      0.675595   1.000000   1.000000
   14       -0.387056      1.385914   1.000000   1.000000
   15       -0.326855      1.844164   1.000000   1.000000
   16       -0.262610      2.569586   1.000000   1.000000
   17       -0.170103      2.953219   1.000000   1.000000
   18        0.142719      3.458398   1.000000   1.000000
   19        0.155936      3.936880   1.000000   1.000000
   20        0.540402      3.959434   1.000000   1.000000
   21        0.642310      5.320861   1.000000   1.000000
   22        1.595877      5.414831   1.000000   1.000000
   23        1.726482      6.166675   1.000000   0.000000
   24        2.346541      6.180669   1.000000   0.000000
   25        2.470668      6.267020   1.000000   0.000000
   26        3.194581      6.783388   1.000000   0.000000
   27        3.395457      6.987976   1.000000   0.000000
   28        3.824559      7.185284   1.000000   0.000000
   29        4.158472      7.596010   1.000000   0.000000
   30        4.171661      8.206541   1.000000   0.000000
   31        8.389771      9.317990   0.000000   0.000000
   32        9.025855     10.655805   0.000000   0.000000
   33       10.733003     12.309737   0.000000   0.000000
   34       11.986158     12.735513   0.000000   0.000000
   35       12.267466     13.027914   0.000000   0.000000
   36       12.870040     13.393111   0.000000   0.000000
   37       13.445683     13.763986   0.000000   0.000000
   38       13.750740     14.240211   0.000000   0.000000
   39       13.925219     14.620919   0.000000   0.000000
   40       14.500982     15.460126   0.000000   0.000000
   41       15.219670     15.627125   0.000000   0.000000
   42       15.950145     16.210383   0.000000   0.000000
   43       16.005240     16.831027   0.000000   0.000000
   44       16.246838     17.177776   0.000000   0.000000
   45       16.527965     17.265088   0.000000   0.000000
   46       18.158464     18.444522   0.000000   0.000000
   47       19.027080     20.172951   0.000000   0.000000
   48       19.646676     20.568196   0.000000   0.000000
 
  0.1428571E+00  0.1428571E+00 -0.5551115E-16  0.1020408E-01
    1      -50.768814    -46.503352   1.000000   1.000000
    2      -50.767319    -46.501340   1.000000   1.000000
    3      -50.723690    -46.486098   1.000000   1.000000
    4      -50.722882    -46.485019   1.000000   1.000000
    5      -49.752365    -46.069469   1.000000   1.000000
    6      -49.750066    -46.066337   1.000000   1.000000
    7      -39.501075    -39.501421   1.000000   1.000000
    8      -39.459327    -39.459952   1.000000   1.000000
    9      -12.473198    -12.170593   1.000000   1.000000
   10       -7.597707     -7.407420   1.000000   1.000000
   11       -6.981767     -6.720180   1.000000   1.000000
   12       -1.118304      0.381903   1.000000   1.000000
   13       -0.504714      0.698608   1.000000   1.000000
   14       -0.448132      1.272804   1.000000   1.000000
   15       -0.382886      2.148737   1.000000   1.000000
   16       -0.289203      2.396116   1.000000   1.000000
   17       -0.125866      2.603629   1.000000   1.000000
   18        0.092946      2.980192   1.000000   1.000000
   19        0.209019      3.788631   1.000000   1.000000
   20        0.574924      3.829206   1.000000   1.000000
   21        0.633083      5.330330   1.000000   1.000000
   22        1.573828      5.532717   1.000000   1.000000
   23        1.764734      6.084696   1.000000   0.000000
   24        2.054151      6.279749   1.000000   0.000000
   25        2.538183      6.538255   1.000000   0.000000
   26        2.816948      6.801794   1.000000   0.000000
   27        3.100566      7.066708   1.000000   0.000000
   28        3.872312      7.169769   1.000000   0.000000
   29        4.246199      8.118140   1.000000   0.000000
   30        4.594892      8.713681   1.000000   0.000000
   31        9.009510      9.824984   0.000000   0.000000
   32        9.234671     10.433490   0.000000   0.000000
   33       11.032065     12.243913   0.000000   0.000000
   34       11.745420     12.387567   0.000000   0.000000
   35       12.185110     12.724574   0.000000   0.000000
   36       12.209328     13.080919   0.000000   0.000000
   37       12.508389     13.402936   0.000000   0.000000
   38       13.086512     13.578656   0.000000   0.000000
   39       13.974859     14.810383   0.000000   0.000000
   40       14.684885     14.970077   0.000000   0.000000
   41       15.197991     15.754712   0.000000   0.000000
   42       15.731296     15.990665   0.000000   0.000000
   43       16.727622     17.512281   0.000000   0.000000
   44       17.180216     17.645357   0.000000   0.000000
   45       17.285864     18.232060   0.000000   0.000000
   46       18.809516     19.228371   0.000000   0.000000
   47       18.958506     19.891662   0.000000   0.000000
   48       20.066627     20.633229   0.000000   0.000000
 
  0.2857143E+00  0.1428571E+00  0.0000000E+00  0.1020408E-01
    1      -50.768976    -46.503575   1.000000   1.000000
    2      -50.767554    -46.501653   1.000000   1.000000
    3      -50.723582    -46.485945   1.000000   1.000000
    4      -50.723381    -46.485691   1.000000   1.000000
    5      -49.751954    -46.068904   1.000000   1.000000
    6      -49.750405    -46.066793   1.000000   1.000000
    7      -39.494300    -39.494699   1.000000   1.000000
    8      -39.465391    -39.465983   1.000000   1.000000
    9      -12.493376    -12.190314   1.000000   1.000000
   10       -7.382974     -7.193181   1.000000   1.000000
   11       -6.922455     -6.679223   1.000000   1.000000
   12       -1.089672      0.140727   1.000000   1.000000
   13       -0.655149      0.703188   1.000000   1.000000
   14       -0.586738      1.319398   1.000000   1.000000
   15       -0.462167      1.796785   1.000000   1.000000
   16       -0.366224      2.047484   1.000000   1.000000
   17       -0.063929      2.639168   1.000000   1.000000
   18        0.123735      2.759160   1.000000   1.000000
   19        0.222865      3.247319   1.000000   1.000000
   20        0.426819      3.629851   1.000000   1.000000
   21        0.699358      5.409855   1.000000   1.000000
   22        0.997730      5.642835   1.000000   1.000000
   23        1.779664      6.009022   1.000000   0.000096
   24        2.046762      6.231557   1.000000   0.000000
   25        2.483312      6.991478   1.000000   0.000000
   26        2.705459      7.081608   1.000000   0.000000
   27        3.178161      7.499923   1.000000   0.000000
   28        3.901395      7.514482   1.000000   0.000000
   29        4.333845      8.646726   1.000000   0.000000
   30        4.910140      9.187390   1.000000   0.000000
   31        9.592193     10.281631   0.000000   0.000000
   32        9.835024     10.712435   0.000000   0.000000
   33       10.472146     11.157961   0.000000   0.000000
   34       11.071326     11.821168   0.000000   0.000000
   35       11.849037     12.384943   0.000000   0.000000
   36       12.050143     12.622967   0.000000   0.000000
   37       12.663509     13.225708   0.000000   0.000000
   38       12.748803     13.443458   0.000000   0.000000
   39       13.720822     14.376473   0.000000   0.000000
   40       14.510883     14.870527   0.000000   0.000000
   41       15.268620     15.672232   0.000000   0.000000
   42       16.253527     16.758022   0.000000   0.000000
   43       16.976561     17.860724   0.000000   0.000000
   44       17.217870     18.063392   0.000000   0.000000
   45       18.174004     18.613930   0.000000   0.000000
   46       19.504490     19.893390   0.000000   0.000000
   47       20.083831     20.226280   0.000000   0.000000
   48       20.825860     21.287560   0.000000   0.000000
 
  0.4285714E+00  0.1428571E+00 -0.5551115E-16  0.1020408E-01
    1      -50.768959    -46.503566   1.000000   1.000000
    2      -50.767883    -46.502110   1.000000   1.000000
    3      -50.723875    -46.486340   1.000000   1.000000
    4      -50.723392    -46.485685   1.000000   1.000000
    5      -49.751480    -46.068282   1.000000   1.000000
    6      -49.750827    -46.067335   1.000000   1.000000
    7      -39.484728    -39.485195   1.000000   1.000000
    8      -39.474396    -39.474934   1.000000   1.000000
    9      -12.510476    -12.206945   1.000000   1.000000
   10       -7.126798     -6.927188   1.000000   1.000000
   11       -6.934600     -6.722080   1.000000   1.000000
   12       -1.104529     -0.172113   1.000000   1.000000
   13       -0.722199      0.633336   1.000000   1.000000
   14       -0.689338      1.110349   1.000000   1.000000
   15       -0.600796      1.757030   1.000000   1.000000
   16       -0.535564      1.976650   1.000000   1.000000
   17       -0.042417      2.606843   1.000000   1.000000
   18        0.176474      2.738575   1.000000   1.000000
   19        0.251676      3.007036   1.000000   1.000000
   20        0.264936      3.512500   1.000000   1.000000
   21        0.591247      5.507132   1.000000   1.000000
   22        0.780060      5.617884   1.000000   1.000000
   23        1.668347      6.035140   1.000000   0.000004
   24        2.144759      6.147296   1.000000   0.000000
   25        2.449826      7.389577   1.000000   0.000000
   26        2.754354      7.486169   1.000000   0.000000
   27        3.811532      7.858908   1.000000   0.000000
   28        4.067608      7.956329   1.000000   0.000000
   29        4.227546      8.701844   1.000000   0.000000
   30        4.745847      9.053286   1.000000   0.000000
   31        9.716924     10.254427   0.000000   0.000000
   32        9.903456     10.547692   0.000000   0.000000
   33       10.027775     10.848685   0.000000   0.000000
   34       10.398312     11.077962   0.000000   0.000000
   35       11.417742     12.098228   0.000000   0.000000
   36       11.838931     12.278304   0.000000   0.000000
   37       13.251203     13.642886   0.000000   0.000000
   38       13.399129     13.787842   0.000000   0.000000
   39       13.853043     14.328346   0.000000   0.000000
   40       14.489556     15.107392   0.000000   0.000000
   41       15.252845     15.804139   0.000000   0.000000
   42       17.204421     17.761796   0.000000   0.000000
   43       17.695644     18.349973   0.000000   0.000000
   44       17.815901     18.512333   0.000000   0.000000
   45       18.586053     18.896245   0.000000   0.000000
   46       19.213407     19.571979   0.000000   0.000000
   47       19.374835     19.729813   0.000000   0.000000
   48       19.719563     20.133128   0.000000   0.000000
 
 -0.4285714E+00  0.1428571E+00  0.0000000E+00  0.1020408E-01
    1      -50.768670    -46.503191   1.000000   1.000000
    2      -50.768165    -46.502493   1.000000   1.000000
    3      -50.724163    -46.486714   1.000000   1.000000
    4      -50.723102    -46.485299   1.000000   1.000000
    5      -49.751612    -46.068468   1.000000   1.000000
    6      -49.750705    -46.067156   1.000000   1.000000
    7      -39.484724    -39.485191   1.000000   1.000000
    8      -39.474391    -39.474927   1.000000   1.000000
    9      -12.511378    -12.207666   1.000000   1.000000
   10       -7.157066     -6.963273   1.000000   1.000000
   11       -6.890564     -6.673876   1.000000   1.000000
   12       -1.111556     -0.205318   1.000000   1.000000
   13       -0.752306      0.438436   1.000000   1.000000
   14       -0.679744      1.286656   1.000000   1.000000
   15       -0.597265      1.758104   1.000000   1.000000
   16       -0.560926      1.956672   1.000000   1.000000
   17       -0.168173      2.602151   1.000000   1.000000
   18        0.153738      2.803136   1.000000   1.000000
   19        0.261206      3.096329   1.000000   1.000000
   20        0.272495      3.489336   1.000000   1.000000
   21        0.674984      5.342240   1.000000   1.000000
   22        0.791048      5.760471   1.000000   0.999521
   23        1.626871      6.047871   1.000000   0.000001
   24        2.269759      6.128243   1.000000   0.000000
   25        2.561037      7.400530   1.000000   0.000000
   26        2.836022      7.489673   1.000000   0.000000
   27        3.657754      7.862057   1.000000   0.000000
   28        3.898009      7.946139   1.000000   0.000000
   29        4.234370      8.647372   1.000000   0.000000
   30        4.900242      9.116190   1.000000   0.000000
   31        9.707839     10.233946   0.000000   0.000000
   32        9.801524     10.445552   0.000000   0.000000
   33       10.135325     10.702161   0.000000   0.000000
   34       10.358568     11.283289   0.000000   0.000000
   35       11.447785     12.095648   0.000000   0.000000
   36       11.906161     12.431498   0.000000   0.000000
   37       13.088922     13.376939   0.000000   0.000000
   38       13.562599     14.079675   0.000000   0.000000
   39       13.792834     14.229872   0.000000   0.000000
   40       14.499368     15.116998   0.000000   0.000000
   41       15.092097     15.637961   0.000000   0.000000
   42       17.308286     17.861962   0.000000   0.000000
   43       17.482298     18.124595   0.000000   0.000000
   44       17.753684     18.295986   0.000000   0.000000
   45       18.455240     18.858249   0.000000   0.000000
   46       18.702375     19.086613   0.000000   0.000000
   47       19.776148     20.284852   0.000000   0.000000
   48       19.990723     20.400038   0.000000   0.000000
 
 -0.2857143E+00  0.1428571E+00  0.0000000E+00  0.1020408E-01
    1      -50.768345    -46.502724   1.000000   1.000000
    2      -50.768183    -46.502523   1.000000   1.000000
    3      -50.724183    -46.486753   1.000000   1.000000
    4      -50.722780    -46.484863   1.000000   1.000000
    5      -49.752098    -46.069118   1.000000   1.000000
    6      -49.750281    -46.066597   1.000000   1.000000
    7      -39.494298    -39.494697   1.000000   1.000000
    8      -39.465407    -39.465998   1.000000   1.000000
    9      -12.495482    -12.192019   1.000000   1.000000
   10       -7.396063     -7.209586   1.000000   1.000000
   11       -6.882734     -6.640696   1.000000   1.000000
   12       -1.116861      0.068021   1.000000   1.000000
   13       -0.693271      0.459788   1.000000   1.000000
   14       -0.589529      1.352112   1.000000   1.000000
   15       -0.454038      1.968019   1.000000   1.000000
   16       -0.425961      2.086801   1.000000   1.000000
   17       -0.245335      2.663946   1.000000   1.000000
   18        0.139645      2.695767   1.000000   1.000000
   19        0.256239      3.479079   1.000000   1.000000
   20        0.435439      3.670364   1.000000   1.000000
   21        0.669303      5.156549   1.000000   1.000000
   22        1.098646      5.781324   1.000000   0.996662
   23        1.664291      6.080968   1.000000   0.000000
   24        2.349721      6.182763   1.000000   0.000000
   25        2.571973      7.001157   1.000000   0.000000
   26        2.855517      7.100433   1.000000   0.000000
   27        3.207274      7.499128   1.000000   0.000000
   28        3.733130      7.519335   1.000000   0.000000
   29        4.126725      8.412610   1.000000   0.000000
   30        5.020464      9.293592   1.000000   0.000000
   31        9.565276     10.220268   0.000000   0.000000
   32        9.907623     10.729515   0.000000   0.000000
   33       10.727735     11.443479   0.000000   0.000000
   34       10.877331     11.718015   0.000000   0.000000
   35       11.647659     12.260312   0.000000   0.000000
   36       12.193606     12.908302   0.000000   0.000000
   37       12.599223     13.227842   0.000000   0.000000
   38       12.935765     13.427148   0.000000   0.000000
   39       13.863315     14.350406   0.000000   0.000000
   40       14.199162     14.626436   0.000000   0.000000
   41       14.833087     15.362665   0.000000   0.000000
   42       16.536540     16.918156   0.000000   0.000000
   43       16.815880     17.502921   0.000000   0.000000
   44       17.037631     17.950071   0.000000   0.000000
   45       17.970628     18.613303   0.000000   0.000000
   46       19.038523     19.409085   0.000000   0.000000
   47       20.663697     20.842807   0.000000   0.000000
   48       20.820812     21.498273   0.000000   0.000000
 
 -0.1428571E+00  0.1428571E+00  0.9282455E-18  0.1020408E-01
    1      -50.768471    -46.502886   1.000000   1.000000
    2      -50.767685    -46.501837   1.000000   1.000000
    3      -50.724033    -46.486553   1.000000   1.000000
    4      -50.722542    -46.484551   1.000000   1.000000
    5      -49.752454    -46.069599   1.000000   1.000000
    6      -49.750005    -46.066234   1.000000   1.000000
    7      -39.501108    -39.501454   1.000000   1.000000
    8      -39.459332    -39.459957   1.000000   1.000000
    9      -12.474990    -12.172072   1.000000   1.000000
   10       -7.596783     -7.407375   1.000000   1.000000
   11       -6.964766     -6.706539   1.000000   1.000000
   12       -1.150922      0.317283   1.000000   1.000000
   13       -0.530944      0.600400   1.000000   1.000000
   14       -0.447099      1.273743   1.000000   1.000000
   15       -0.387870      2.187965   1.000000   1.000000
   16       -0.293989      2.348351   1.000000   1.000000
   17       -0.247897      2.737042   1.000000   1.000000
   18        0.125073      2.957114   1.000000   1.000000
   19        0.222962      3.864753   1.000000   1.000000
   20        0.585339      3.969189   1.000000   1.000000
   21        0.593634      5.113572   1.000000   1.000000