 144 144   0   0
  0.1325381E+02  0.1546422E-08  0.1214491E-08  0.1054520E-08  0.5000000E-15
  1.000000000000000E-004
  CAR 
 unknown system                          
     17.01594250    -54.87215219  301      5.09450013      1.00000000
    -54.872  0.0000E+00  0.0000E+00  0.0000E+00  0.0000E+00
    -54.633  0.0000E+00  0.0000E+00  0.0000E+00  0.0000E+00
    -54.393  0.0000E+00  0.0000E+00  0.0000E+00  0.0000E+00
    -54.153  0.0000E+00  0.0000E+00  0.0000E+00  0.0000E+00
    -53.914  0.0000E+00  0.0000E+00  0.0000E+00  0.0000E+00
    -53.674  0.0000E+00  0.0000E+00  0.0000E+00  0.0000E+00
    -53.434  0.0000E+00  0.0000E+00  0.0000E+00  0.0000E+00
    -53.195  0.0000E+00  0.0000E+00  0.0000E+00  0.0000E+00
    -52.955  0.0000E+00  0.0000E+00  0.0000E+00  0.0000E+00
    -52.716  0.0000E+00  0.0000E+00  0.0000E+00  0.0000E+00
    -52.476  0.0000E+00  0.0000E+00  0.0000E+00  0.0000E+00
    -52.236  0.0000E+00  0.0000E+00  0.0000E+00  0.0000E+00
    -51.997  0.0000E+00  0.0000E+00  0.0000E+00  0.0000E+00
    -51.757  0.3182E-03  0.0000E+00  0.7625E-04  0.0000E+00
    -51.517  0.4980E+02  0.0000E+00  0.1193E+02  0.0000E+00
    -51.278  0.8607E+02  0.0000E+00  0.3256E+02  0.0000E+00
    -51.038  0.1436E+02  0.0000E+00  0.3600E+02  0.0000E+00
    -50.798  0.0000E+00  0.0000E+00  0.3600E+02  0.0000E+00
    -50.559  0.0000E+00  0.0000E+00  0.3600E+02  0.0000E+00
    -50.319  0.1170E-03  0.0000E+00  0.3600E+02  0.0000E+00
    -50.080  0.6682E+02  0.0000E+00  0.5201E+02  0.0000E+00
    -49.840  0.2083E+03  0.0000E+00  0.1019E+03  0.0000E+00
    -49.600  0.2534E+02  0.0000E+00  0.1080E+03  0.0000E+00
    -49.361  0.0000E+00  0.0000E+00  0.1080E+03  0.0000E+00
    -49.121  0.0000E+00  0.0000E+00  0.1080E+03  0.0000E+00
    -48.881  0.0000E+00  0.0000E+00  0.1080E+03  0.0000E+00
    -48.642  0.0000E+00  0.0000E+00  0.1080E+03  0.0000E+00
    -48.402  0.0000E+00  0.0000E+00  0.1080E+03  0.0000E+00
    -48.163  0.0000E+00  0.0000E+00  0.1080E+03  0.0000E+00
    -47.923  0.0000E+00  0.0000E+00  0.1080E+03  0.0000E+00
    -47.683  0.0000E+00  0.0000E+00  0.1080E+03  0.0000E+00
    -47.444  0.0000E+00  0.0000E+00  0.1080E+03  0.0000E+00
    -47.204  0.0000E+00  0.0000E+00  0.1080E+03  0.0000E+00
    -46.964  0.0000E+00  0.6370E-01  0.1080E+03  0.1526E-01
    -46.725  0.0000E+00  0.5092E+02  0.1080E+03  0.1222E+02
    -46.485  0.0000E+00  0.9544E+02  0.1080E+03  0.3509E+02
    -46.246  0.0000E+00  0.1458E+03  0.1080E+03  0.7003E+02
    -46.006  0.0000E+00  0.1584E+03  0.1080E+03  0.1080E+03
    -45.766  0.0000E+00  0.4615E-02  0.1080E+03  0.1080E+03
    -45.527  0.0000E+00  0.0000E+00  0.1080E+03  0.1080E+03
    -45.287  0.0000E+00  0.0000E+00  0.1080E+03  0.1080E+03
    -45.047  0.0000E+00  0.0000E+00  0.1080E+03  0.1080E+03
    -44.808  0.0000E+00  0.0000E+00  0.1080E+03  0.1080E+03
    -44.568  0.0000E+00  0.0000E+00  0.1080E+03  0.1080E+03
    -44.329  0.0000E+00  0.0000E+00  0.1080E+03  0.1080E+03
    -44.089  0.0000E+00  0.0000E+00  0.1080E+03  0.1080E+03
    -43.849  0.0000E+00  0.0000E+00  0.1080E+03  0.1080E+03
    -43.610  0.0000E+00  0.0000E+00  0.1080E+03  0.1080E+03
    -43.370  0.0000E+00  0.0000E+00  0.1080E+03  0.1080E+03
    -43.130  0.0000E+00  0.0000E+00  0.1080E+03  0.1080E+03
    -42.891  0.0000E+00  0.0000E+00  0.1080E+03  0.1080E+03
    -42.651  0.0000E+00  0.0000E+00  0.1080E+03  0.1080E+03
    -42.412  0.0000E+00  0.0000E+00  0.1080E+03  0.1080E+03
    -42.172  0.0000E+00  0.0000E+00  0.1080E+03  0.1080E+03
    -41.932  0.0000E+00  0.0000E+00  0.1080E+03  0.1080E+03
    -41.693  0.0000E+00  0.0000E+00  0.1080E+03  0.1080E+03
    -41.453  0.0000E+00  0.0000E+00  0.1080E+03  0.1080E+03
    -41.213  0.0000E+00  0.0000E+00  0.1080E+03  0.1080E+03
    -40.974  0.0000E+00  0.0000E+00  0.1080E+03  0.1080E+03
    -40.734  0.1658E-08  0.5427E-09  0.1080E+03  0.1080E+03
    -40.495  0.2980E+02  0.2655E+02  0.1151E+03  0.1144E+03
    -40.255  0.4591E+02  0.4952E+02  0.1261E+03  0.1262E+03
    -40.015  0.9959E+02  0.9953E+02  0.1500E+03  0.1501E+03
    -39.776  0.2500E+02  0.2471E+02  0.1560E+03  0.1560E+03
    -39.536  0.0000E+00  0.0000E+00  0.1560E+03  0.1560E+03
    -39.296  0.0000E+00  0.0000E+00  0.1560E+03  0.1560E+03
    -39.057  0.0000E+00  0.0000E+00  0.1560E+03  0.1560E+03
    -38.817  0.0000E+00  0.0000E+00  0.1560E+03  0.1560E+03
    -38.578  0.0000E+00  0.0000E+00  0.1560E+03  0.1560E+03
    -38.338  0.0000E+00  0.0000E+00  0.1560E+03  0.1560E+03
    -38.098  0.0000E+00  0.0000E+00  0.1560E+03  0.1560E+03
    -37.859  0.0000E+00  0.0000E+00  0.1560E+03  0.1560E+03
    -37.619  0.0000E+00  0.0000E+00  0.1560E+03  0.1560E+03
    -37.379  0.0000E+00  0.0000E+00  0.1560E+03  0.1560E+03
    -37.140  0.0000E+00  0.0000E+00  0.1560E+03  0.1560E+03
    -36.900  0.0000E+00  0.0000E+00  0.1560E+03  0.1560E+03
    -36.661  0.0000E+00  0.0000E+00  0.1560E+03  0.1560E+03
    -36.421  0.0000E+00  0.0000E+00  0.1560E+03  0.1560E+03
    -36.181  0.0000E+00  0.0000E+00  0.1560E+03  0.1560E+03
    -35.942  0.0000E+00  0.0000E+00  0.1560E+03  0.1560E+03
    -35.702  0.0000E+00  0.0000E+00  0.1560E+03  0.1560E+03
    -35.462  0.0000E+00  0.0000E+00  0.1560E+03  0.1560E+03
    -35.223  0.0000E+00  0.0000E+00  0.1560E+03  0.1560E+03
    -34.983  0.0000E+00  0.0000E+00  0.1560E+03  0.1560E+03
    -34.743  0.0000E+00  0.0000E+00  0.1560E+03  0.1560E+03
    -34.504  0.0000E+00  0.0000E+00  0.1560E+03  0.1560E+03
    -34.264  0.0000E+00  0.0000E+00  0.1560E+03  0.1560E+03
    -34.025  0.0000E+00  0.0000E+00  0.1560E+03  0.1560E+03
    -33.785  0.0000E+00  0.0000E+00  0.1560E+03  0.1560E+03
    -33.545  0.0000E+00  0.0000E+00  0.1560E+03  0.1560E+03
    -33.306  0.0000E+00  0.0000E+00  0.1560E+03  0.1560E+03
    -33.066  0.0000E+00  0.0000E+00  0.1560E+03  0.1560E+03
    -32.826  0.0000E+00  0.0000E+00  0.1560E+03  0.1560E+03
    -32.587  0.0000E+00  0.0000E+00  0.1560E+03  0.1560E+03
    -32.347  0.0000E+00  0.0000E+00  0.1560E+03  0.1560E+03
    -32.108  0.0000E+00  0.0000E+00  0.1560E+03  0.1560E+03
    -31.868  0.0000E+00  0.0000E+00  0.1560E+03  0.1560E+03
    -31.628  0.0000E+00  0.0000E+00  0.1560E+03  0.1560E+03
    -31.389  0.0000E+00  0.0000E+00  0.1560E+03  0.1560E+03
    -31.149  0.0000E+00  0.0000E+00  0.1560E+03  0.1560E+03
    -30.909  0.0000E+00  0.0000E+00  0.1560E+03  0.1560E+03
    -30.670  0.0000E+00  0.0000E+00  0.1560E+03  0.1560E+03
    -30.430  0.0000E+00  0.0000E+00  0.1560E+03  0.1560E+03
    -30.191  0.0000E+00  0.0000E+00  0.1560E+03  0.1560E+03
    -29.951  0.0000E+00  0.0000E+00  0.1560E+03  0.1560E+03
    -29.711  0.0000E+00  0.0000E+00  0.1560E+03  0.1560E+03
    -29.472  0.0000E+00  0.0000E+00  0.1560E+03  0.1560E+03
    -29.232  0.0000E+00  0.0000E+00  0.1560E+03  0.1560E+03
    -28.992  0.0000E+00  0.0000E+00  0.1560E+03  0.1560E+03
    -28.753  0.0000E+00  0.0000E+00  0.1560E+03  0.1560E+03
    -28.513  0.0000E+00  0.0000E+00  0.1560E+03  0.1560E+03
    -28.274  0.0000E+00  0.0000E+00  0.1560E+03  0.1560E+03
    -28.034  0.0000E+00  0.0000E+00  0.1560E+03  0.1560E+03
    -27.794  0.0000E+00  0.0000E+00  0.1560E+03  0.1560E+03
    -27.555  0.0000E+00  0.0000E+00  0.1560E+03  0.1560E+03
    -27.315  0.0000E+00  0.0000E+00  0.1560E+03  0.1560E+03
    -27.075  0.0000E+00  0.0000E+00  0.1560E+03  0.1560E+03
    -26.836  0.0000E+00  0.0000E+00  0.1560E+03  0.1560E+03
    -26.596  0.0000E+00  0.0000E+00  0.1560E+03  0.1560E+03
    -26.357  0.0000E+00  0.0000E+00  0.1560E+03  0.1560E+03
    -26.117  0.0000E+00  0.0000E+00  0.1560E+03  0.1560E+03
    -25.877  0.0000E+00  0.0000E+00  0.1560E+03  0.1560E+03
    -25.638  0.0000E+00  0.0000E+00  0.1560E+03  0.1560E+03
    -25.398  0.0000E+00  0.0000E+00  0.1560E+03  0.1560E+03
    -25.158  0.0000E+00  0.0000E+00  0.1560E+03  0.1560E+03
    -24.919  0.0000E+00  0.0000E+00  0.1560E+03  0.1560E+03
    -24.679  0.0000E+00  0.0000E+00  0.1560E+03  0.1560E+03
    -24.440  0.0000E+00  0.0000E+00  0.1560E+03  0.1560E+03
    -24.200  0.0000E+00  0.0000E+00  0.1560E+03  0.1560E+03
    -23.960  0.0000E+00  0.0000E+00  0.1560E+03  0.1560E+03
    -23.721  0.0000E+00  0.0000E+00  0.1560E+03  0.1560E+03
    -23.481  0.0000E+00  0.0000E+00  0.1560E+03  0.1560E+03
    -23.241  0.0000E+00  0.0000E+00  0.1560E+03  0.1560E+03
    -23.002  0.0000E+00  0.0000E+00  0.1560E+03  0.1560E+03
    -22.762  0.0000E+00  0.0000E+00  0.1560E+03  0.1560E+03
    -22.523  0.0000E+00  0.0000E+00  0.1560E+03  0.1560E+03
    -22.283  0.0000E+00  0.0000E+00  0.1560E+03  0.1560E+03
    -22.043  0.0000E+00  0.0000E+00  0.1560E+03  0.1560E+03
    -21.804  0.0000E+00  0.0000E+00  0.1560E+03  0.1560E+03
    -21.564  0.0000E+00  0.0000E+00  0.1560E+03  0.1560E+03
    -21.324  0.0000E+00  0.0000E+00  0.1560E+03  0.1560E+03
    -21.085  0.0000E+00  0.0000E+00  0.1560E+03  0.1560E+03
    -20.845  0.0000E+00  0.0000E+00  0.1560E+03  0.1560E+03
    -20.605  0.0000E+00  0.0000E+00  0.1560E+03  0.1560E+03
    -20.366  0.0000E+00  0.0000E+00  0.1560E+03  0.1560E+03
    -20.126  0.0000E+00  0.0000E+00  0.1560E+03  0.1560E+03
    -19.887  0.0000E+00  0.0000E+00  0.1560E+03  0.1560E+03
    -19.647  0.0000E+00  0.0000E+00  0.1560E+03  0.1560E+03
    -19.407  0.0000E+00  0.0000E+00  0.1560E+03  0.1560E+03
    -19.168  0.0000E+00  0.0000E+00  0.1560E+03  0.1560E+03
    -18.928  0.0000E+00  0.0000E+00  0.1560E+03  0.1560E+03
    -18.688  0.0000E+00  0.0000E+00  0.1560E+03  0.1560E+03
    -18.449  0.0000E+00  0.0000E+00  0.1560E+03  0.1560E+03
    -18.209  0.0000E+00  0.0000E+00  0.1560E+03  0.1560E+03
    -17.970  0.0000E+00  0.0000E+00  0.1560E+03  0.1560E+03
    -17.730  0.0000E+00  0.0000E+00  0.1560E+03  0.1560E+03
    -17.490  0.0000E+00  0.0000E+00  0.1560E+03  0.1560E+03
    -17.251  0.0000E+00  0.0000E+00  0.1560E+03  0.1560E+03
    -17.011  0.0000E+00  0.0000E+00  0.1560E+03  0.1560E+03
    -16.771  0.0000E+00  0.0000E+00  0.1560E+03  0.1560E+03
    -16.532  0.0000E+00  0.0000E+00  0.1560E+03  0.1560E+03
    -16.292  0.0000E+00  0.0000E+00  0.1560E+03  0.1560E+03
    -16.053  0.0000E+00  0.0000E+00  0.1560E+03  0.1560E+03
    -15.813  0.0000E+00  0.0000E+00  0.1560E+03  0.1560E+03
    -15.573  0.0000E+00  0.0000E+00  0.1560E+03  0.1560E+03
    -15.334  0.0000E+00  0.0000E+00  0.1560E+03  0.1560E+03
    -15.094  0.0000E+00  0.0000E+00  0.1560E+03  0.1560E+03
    -14.854  0.0000E+00  0.0000E+00  0.1560E+03  0.1560E+03
    -14.615  0.0000E+00  0.0000E+00  0.1560E+03  0.1560E+03
    -14.375  0.0000E+00  0.0000E+00  0.1560E+03  0.1560E+03
    -14.136  0.0000E+00  0.0000E+00  0.1560E+03  0.1560E+03
    -13.896  0.1809E-02  0.0000E+00  0.1560E+03  0.1560E+03
    -13.656  0.2265E+02  0.1261E-12  0.1614E+03  0.1560E+03
    -13.417  0.2728E+02  0.2108E+01  0.1680E+03  0.1565E+03
    -13.177  0.9544E+01  0.4461E+02  0.1703E+03  0.1672E+03
    -12.937  0.3141E+02  0.4236E+01  0.1778E+03  0.1682E+03
    -12.698  0.9270E+01  0.4261E+02  0.1800E+03  0.1784E+03
    -12.458  0.0000E+00  0.6584E+01  0.1800E+03  0.1800E+03
    -12.219  0.0000E+00  0.0000E+00  0.1800E+03  0.1800E+03
    -11.979  0.0000E+00  0.0000E+00  0.1800E+03  0.1800E+03
    -11.739  0.0000E+00  0.0000E+00  0.1800E+03  0.1800E+03
    -11.500  0.0000E+00  0.0000E+00  0.1800E+03  0.1800E+03
    -11.260  0.0000E+00  0.0000E+00  0.1800E+03  0.1800E+03
    -11.020  0.0000E+00  0.0000E+00  0.1800E+03  0.1800E+03
    -10.781  0.0000E+00  0.0000E+00  0.1800E+03  0.1800E+03
    -10.541  0.0000E+00  0.0000E+00  0.1800E+03  0.1800E+03
    -10.302  0.0000E+00  0.0000E+00  0.1800E+03  0.1800E+03
    -10.062  0.0000E+00  0.0000E+00  0.1800E+03  0.1800E+03
     -9.822  0.0000E+00  0.0000E+00  0.1800E+03  0.1800E+03
     -9.583  0.0000E+00  0.0000E+00  0.1800E+03  0.1800E+03
     -9.343  0.0000E+00  0.0000E+00  0.1800E+03  0.1800E+03
     -9.103  0.0000E+00  0.0000E+00  0.1800E+03  0.1800E+03
     -8.864  0.0000E+00  0.0000E+00  0.1800E+03  0.1800E+03
     -8.624  0.0000E+00  0.0000E+00  0.1800E+03  0.1800E+03
     -8.385  0.0000E+00  0.0000E+00  0.1800E+03  0.1800E+03
     -8.145  0.0000E+00  0.0000E+00  0.1800E+03  0.1800E+03
     -7.905  0.3239E-02  0.0000E+00  0.1800E+03  0.1800E+03
     -7.666  0.9714E+01  0.2293E-01  0.1823E+03  0.1800E+03
     -7.426  0.2343E+02  0.1230E+02  0.1879E+03  0.1830E+03
     -7.186  0.5657E+02  0.2917E+02  0.2015E+03  0.1899E+03
     -6.947  0.5692E+02  0.6037E+02  0.2151E+03  0.2044E+03
     -6.707  0.3594E+01  0.4538E+02  0.2160E+03  0.2153E+03
     -6.468  0.0000E+00  0.3002E+01  0.2160E+03  0.2160E+03
     -6.228  0.0000E+00  0.0000E+00  0.2160E+03  0.2160E+03
     -5.988  0.0000E+00  0.0000E+00  0.2160E+03  0.2160E+03
     -5.749  0.0000E+00  0.0000E+00  0.2160E+03  0.2160E+03
     -5.509  0.0000E+00  0.0000E+00  0.2160E+03  0.2160E+03
     -5.269  0.0000E+00  0.0000E+00  0.2160E+03  0.2160E+03
     -5.030  0.0000E+00  0.0000E+00  0.2160E+03  0.2160E+03
     -4.790  0.0000E+00  0.0000E+00  0.2160E+03  0.2160E+03
     -4.550  0.0000E+00  0.0000E+00  0.2160E+03  0.2160E+03
     -4.311  0.0000E+00  0.0000E+00  0.2160E+03  0.2160E+03
     -4.071  0.0000E+00  0.0000E+00  0.2160E+03  0.2160E+03
     -3.832  0.0000E+00  0.0000E+00  0.2160E+03  0.2160E+03
     -3.592  0.0000E+00  0.0000E+00  0.2160E+03  0.2160E+03
     -3.352  0.0000E+00  0.0000E+00  0.2160E+03  0.2160E+03
     -3.113  0.0000E+00  0.0000E+00  0.2160E+03  0.2160E+03
     -2.873  0.4770E-13  0.0000E+00  0.2160E+03  0.2160E+03
     -2.633  0.1065E+01  0.0000E+00  0.2163E+03  0.2160E+03
     -2.394  0.1007E+02  0.0000E+00  0.2187E+03  0.2160E+03
     -2.154  0.2082E+02  0.0000E+00  0.2237E+03  0.2160E+03
     -1.915  0.1551E+01  0.0000E+00  0.2240E+03  0.2160E+03
     -1.675  0.3504E+02  0.0000E+00  0.2324E+03  0.2160E+03
     -1.435  0.2005E+02  0.1390E-14  0.2372E+03  0.2160E+03
     -1.196  0.4395E+02  0.1122E+00  0.2478E+03  0.2160E+03
     -0.956  0.5021E+02  0.4455E+01  0.2598E+03  0.2171E+03
     -0.716  0.7544E+02  0.1429E+02  0.2779E+03  0.2205E+03
     -0.477  0.1039E+03  0.1544E+02  0.3028E+03  0.2242E+03
     -0.237  0.8546E+02  0.2001E+02  0.3232E+03  0.2290E+03
      0.002  0.1105E+03  0.4114E+02  0.3497E+03  0.2389E+03
      0.242  0.6869E+02  0.3392E+02  0.3662E+03  0.2470E+03
      0.482  0.3779E+02  0.4245E+02  0.3752E+03  0.2572E+03
      0.721  0.4574E+02  0.3347E+02  0.3862E+03  0.2652E+03
      0.961  0.4867E+02  0.5365E+02  0.3978E+03  0.2781E+03
      1.201  0.5589E+02  0.5995E+02  0.4112E+03  0.2924E+03
      1.440  0.6493E+02  0.4447E+02  0.4268E+03  0.3031E+03
      1.680  0.1008E+03  0.3973E+02  0.4509E+03  0.3126E+03
      1.919  0.5119E+02  0.3864E+02  0.4632E+03  0.3219E+03
      2.159  0.3928E+02  0.3725E+02  0.4726E+03  0.3308E+03
      2.399  0.4644E+02  0.3842E+02  0.4838E+03  0.3400E+03
      2.638  0.4785E+02  0.5008E+02  0.4952E+03  0.3520E+03
      2.878  0.4335E+02  0.6253E+02  0.5056E+03  0.3670E+03
      3.118  0.4007E+02  0.5878E+02  0.5152E+03  0.3811E+03
      3.357  0.4807E+02  0.4735E+02  0.5267E+03  0.3924E+03
      3.597  0.5229E+02  0.3068E+02  0.5393E+03  0.3997E+03
      3.836  0.4505E+02  0.6216E+02  0.5501E+03  0.4146E+03
      4.076  0.3212E+02  0.7122E+02  0.5578E+03  0.4317E+03
      4.316  0.4215E+02  0.1206E+01  0.5679E+03  0.4320E+03
      4.555  0.2329E+02  0.0000E+00  0.5734E+03  0.4320E+03
      4.795  0.9951E+01  0.0000E+00  0.5758E+03  0.4320E+03
      5.035  0.7572E+00  0.0000E+00  0.5760E+03  0.4320E+03
      5.274  0.0000E+00  0.0000E+00  0.5760E+03  0.4320E+03
      5.514  0.0000E+00  0.0000E+00  0.5760E+03  0.4320E+03
      5.753  0.0000E+00  0.0000E+00  0.5760E+03  0.4320E+03
      5.993  0.0000E+00  0.1525E-10  0.5760E+03  0.4320E+03
      6.233  0.0000E+00  0.1656E+00  0.5760E+03  0.4320E+03
      6.472  0.0000E+00  0.8452E+01  0.5760E+03  0.4341E+03
      6.712  0.0000E+00  0.3070E+02  0.5760E+03  0.4414E+03
      6.952  0.2362E-11  0.4408E+02  0.5760E+03  0.4520E+03
      7.191  0.1228E+00  0.7396E+02  0.5760E+03  0.4697E+03
      7.431  0.1187E+00  0.8043E+02  0.5761E+03  0.4890E+03
      7.670  0.9529E+00  0.6547E+02  0.5763E+03  0.5047E+03
      7.910  0.3556E+01  0.8784E+02  0.5771E+03  0.5257E+03
      8.150  0.4259E+01  0.7087E+02  0.5782E+03  0.5427E+03
      8.389  0.7177E+01  0.5396E+02  0.5799E+03  0.5556E+03
      8.629  0.1666E+02  0.3732E+02  0.5839E+03  0.5646E+03
      8.869  0.2511E+02  0.3863E+02  0.5899E+03  0.5738E+03
      9.108  0.1922E+02  0.1900E+02  0.5945E+03  0.5784E+03
      9.348  0.2572E+02  0.1424E+02  0.6007E+03  0.5818E+03
      9.588  0.3148E+02  0.2060E+02  0.6082E+03  0.5867E+03
      9.827  0.2639E+02  0.3015E+02  0.6145E+03  0.5940E+03
     10.067  0.2949E+02  0.2657E+02  0.6216E+03  0.6003E+03
     10.306  0.2274E+02  0.3520E+02  0.6270E+03  0.6088E+03
     10.546  0.2040E+02  0.3494E+02  0.6319E+03  0.6171E+03
     10.786  0.2899E+02  0.2807E+02  0.6389E+03  0.6239E+03
     11.025  0.3881E+02  0.2210E+02  0.6482E+03  0.6292E+03
     11.265  0.3952E+02  0.2194E+02  0.6576E+03  0.6344E+03
     11.505  0.3712E+02  0.3239E+02  0.6665E+03  0.6422E+03
     11.744  0.4515E+02  0.3867E+02  0.6774E+03  0.6514E+03
     11.984  0.3829E+02  0.4284E+02  0.6865E+03  0.6617E+03
     12.223  0.3864E+02  0.5216E+02  0.6958E+03  0.6742E+03
     12.463  0.4001E+02  0.4647E+02  0.7054E+03  0.6853E+03
     12.703  0.3626E+02  0.3593E+02  0.7141E+03  0.6940E+03
     12.942  0.3426E+02  0.4138E+02  0.7223E+03  0.7039E+03
     13.182  0.2217E+02  0.3933E+02  0.7276E+03  0.7133E+03
     13.422  0.1695E+01  0.3440E+02  0.7280E+03  0.7215E+03
     13.661  0.0000E+00  0.2334E+02  0.7280E+03  0.7271E+03
     13.901  0.0000E+00  0.3635E+01  0.7280E+03  0.7280E+03
     14.140  0.0000E+00  0.3733E-05  0.7280E+03  0.7280E+03
     14.380  0.0000E+00  0.0000E+00  0.7280E+03  0.7280E+03
     14.620  0.0000E+00  0.0000E+00  0.7280E+03  0.7280E+03
     14.859  0.0000E+00  0.0000E+00  0.7280E+03  0.7280E+03
     15.099  0.0000E+00  0.0000E+00  0.7280E+03  0.7280E+03
     15.339  0.0000E+00  0.0000E+00  0.7280E+03  0.7280E+03
     15.578  0.0000E+00  0.0000E+00  0.7280E+03  0.7280E+03
     15.818  0.0000E+00  0.0000E+00  0.7280E+03  0.7280E+03
     16.057  0.0000E+00  0.0000E+00  0.7280E+03  0.7280E+03
     16.297  0.0000E+00  0.0000E+00  0.7280E+03  0.7280E+03
     16.537  0.0000E+00  0.0000E+00  0.7280E+03  0.7280E+03
     16.776  0.0000E+00  0.0000E+00  0.7280E+03  0.7280E+03
     17.016  0.0000E+00  0.0000E+00  0.7280E+03  0.7280E+03
