 160 160   0   0
  0.1215613E+02  0.1537564E-08  0.1124787E-08  0.1124760E-08  0.5000000E-15
  1.000000000000000E-004
  CAR 
 unknown system                          
     17.04972307    -54.78858821  301      4.89707541      1.00000000
    -54.789  0.0000E+00  0.0000E+00  0.0000E+00  0.0000E+00
    -54.549  0.0000E+00  0.0000E+00  0.0000E+00  0.0000E+00
    -54.310  0.0000E+00  0.0000E+00  0.0000E+00  0.0000E+00
    -54.070  0.0000E+00  0.0000E+00  0.0000E+00  0.0000E+00
    -53.831  0.0000E+00  0.0000E+00  0.0000E+00  0.0000E+00
    -53.591  0.0000E+00  0.0000E+00  0.0000E+00  0.0000E+00
    -53.352  0.0000E+00  0.0000E+00  0.0000E+00  0.0000E+00
    -53.112  0.0000E+00  0.0000E+00  0.0000E+00  0.0000E+00
    -52.873  0.0000E+00  0.0000E+00  0.0000E+00  0.0000E+00
    -52.633  0.0000E+00  0.0000E+00  0.0000E+00  0.0000E+00
    -52.394  0.0000E+00  0.0000E+00  0.0000E+00  0.0000E+00
    -52.155  0.0000E+00  0.0000E+00  0.0000E+00  0.0000E+00
    -51.915  0.0000E+00  0.0000E+00  0.0000E+00  0.0000E+00
    -51.676  0.4557E-03  0.0000E+00  0.1091E-03  0.0000E+00
    -51.436  0.8273E+02  0.0000E+00  0.1981E+02  0.0000E+00
    -51.197  0.5091E+02  0.0000E+00  0.3200E+02  0.0000E+00
    -50.957  0.0000E+00  0.0000E+00  0.3200E+02  0.0000E+00
    -50.718  0.0000E+00  0.0000E+00  0.3200E+02  0.0000E+00
    -50.478  0.7210E-13  0.0000E+00  0.3200E+02  0.0000E+00
    -50.239  0.8206E+01  0.0000E+00  0.3397E+02  0.0000E+00
    -49.999  0.1696E+03  0.0000E+00  0.7458E+02  0.0000E+00
    -49.760  0.8944E+02  0.0000E+00  0.9600E+02  0.0000E+00
    -49.520  0.0000E+00  0.0000E+00  0.9600E+02  0.0000E+00
    -49.281  0.0000E+00  0.0000E+00  0.9600E+02  0.0000E+00
    -49.042  0.0000E+00  0.0000E+00  0.9600E+02  0.0000E+00
    -48.802  0.0000E+00  0.0000E+00  0.9600E+02  0.0000E+00
    -48.563  0.0000E+00  0.0000E+00  0.9600E+02  0.0000E+00
    -48.323  0.0000E+00  0.0000E+00  0.9600E+02  0.0000E+00
    -48.084  0.0000E+00  0.0000E+00  0.9600E+02  0.0000E+00
    -47.844  0.0000E+00  0.0000E+00  0.9600E+02  0.0000E+00
    -47.605  0.0000E+00  0.0000E+00  0.9600E+02  0.0000E+00
    -47.365  0.0000E+00  0.0000E+00  0.9600E+02  0.0000E+00
    -47.126  0.0000E+00  0.0000E+00  0.9600E+02  0.0000E+00
    -46.886  0.0000E+00  0.2155E+00  0.9600E+02  0.5161E-01
    -46.647  0.0000E+00  0.1069E+03  0.9600E+02  0.2564E+02
    -46.407  0.0000E+00  0.1053E+03  0.9600E+02  0.5086E+02
    -46.168  0.0000E+00  0.1882E+03  0.9600E+02  0.9593E+02
    -45.929  0.0000E+00  0.2816E+00  0.9600E+02  0.9600E+02
    -45.689  0.0000E+00  0.0000E+00  0.9600E+02  0.9600E+02
    -45.450  0.0000E+00  0.0000E+00  0.9600E+02  0.9600E+02
    -45.210  0.0000E+00  0.0000E+00  0.9600E+02  0.9600E+02
    -44.971  0.0000E+00  0.0000E+00  0.9600E+02  0.9600E+02
    -44.731  0.0000E+00  0.0000E+00  0.9600E+02  0.9600E+02
    -44.492  0.0000E+00  0.0000E+00  0.9600E+02  0.9600E+02
    -44.252  0.0000E+00  0.0000E+00  0.9600E+02  0.9600E+02
    -44.013  0.0000E+00  0.0000E+00  0.9600E+02  0.9600E+02
    -43.773  0.0000E+00  0.0000E+00  0.9600E+02  0.9600E+02
    -43.534  0.0000E+00  0.0000E+00  0.9600E+02  0.9600E+02
    -43.294  0.0000E+00  0.0000E+00  0.9600E+02  0.9600E+02
    -43.055  0.0000E+00  0.0000E+00  0.9600E+02  0.9600E+02
    -42.816  0.0000E+00  0.0000E+00  0.9600E+02  0.9600E+02
    -42.576  0.0000E+00  0.0000E+00  0.9600E+02  0.9600E+02
    -42.337  0.0000E+00  0.0000E+00  0.9600E+02  0.9600E+02
    -42.097  0.0000E+00  0.0000E+00  0.9600E+02  0.9600E+02
    -41.858  0.0000E+00  0.0000E+00  0.9600E+02  0.9600E+02
    -41.618  0.0000E+00  0.0000E+00  0.9600E+02  0.9600E+02
    -41.379  0.0000E+00  0.0000E+00  0.9600E+02  0.9600E+02
    -41.139  0.0000E+00  0.0000E+00  0.9600E+02  0.9600E+02
    -40.900  0.0000E+00  0.0000E+00  0.9600E+02  0.9600E+02
    -40.660  0.3245E-14  0.9273E-15  0.9600E+02  0.9600E+02
    -40.421  0.3942E+01  0.3473E+01  0.9694E+02  0.9683E+02
    -40.181  0.1812E+03  0.1838E+03  0.1403E+03  0.1408E+03
    -39.942  0.8209E+02  0.8002E+02  0.1600E+03  0.1600E+03
    -39.703  0.0000E+00  0.0000E+00  0.1600E+03  0.1600E+03
    -39.463  0.0000E+00  0.0000E+00  0.1600E+03  0.1600E+03
    -39.224  0.0000E+00  0.0000E+00  0.1600E+03  0.1600E+03
    -38.984  0.0000E+00  0.0000E+00  0.1600E+03  0.1600E+03
    -38.745  0.0000E+00  0.0000E+00  0.1600E+03  0.1600E+03
    -38.505  0.0000E+00  0.0000E+00  0.1600E+03  0.1600E+03
    -38.266  0.0000E+00  0.0000E+00  0.1600E+03  0.1600E+03
    -38.026  0.0000E+00  0.0000E+00  0.1600E+03  0.1600E+03
    -37.787  0.0000E+00  0.0000E+00  0.1600E+03  0.1600E+03
    -37.547  0.0000E+00  0.0000E+00  0.1600E+03  0.1600E+03
    -37.308  0.0000E+00  0.0000E+00  0.1600E+03  0.1600E+03
    -37.068  0.0000E+00  0.0000E+00  0.1600E+03  0.1600E+03
    -36.829  0.0000E+00  0.0000E+00  0.1600E+03  0.1600E+03
    -36.590  0.0000E+00  0.0000E+00  0.1600E+03  0.1600E+03
    -36.350  0.0000E+00  0.0000E+00  0.1600E+03  0.1600E+03
    -36.111  0.0000E+00  0.0000E+00  0.1600E+03  0.1600E+03
    -35.871  0.0000E+00  0.0000E+00  0.1600E+03  0.1600E+03
    -35.632  0.0000E+00  0.0000E+00  0.1600E+03  0.1600E+03
    -35.392  0.0000E+00  0.0000E+00  0.1600E+03  0.1600E+03
    -35.153  0.0000E+00  0.0000E+00  0.1600E+03  0.1600E+03
    -34.913  0.0000E+00  0.0000E+00  0.1600E+03  0.1600E+03
    -34.674  0.0000E+00  0.0000E+00  0.1600E+03  0.1600E+03
    -34.434  0.0000E+00  0.0000E+00  0.1600E+03  0.1600E+03
    -34.195  0.0000E+00  0.0000E+00  0.1600E+03  0.1600E+03
    -33.955  0.0000E+00  0.0000E+00  0.1600E+03  0.1600E+03
    -33.716  0.0000E+00  0.0000E+00  0.1600E+03  0.1600E+03
    -33.477  0.0000E+00  0.0000E+00  0.1600E+03  0.1600E+03
    -33.237  0.0000E+00  0.0000E+00  0.1600E+03  0.1600E+03
    -32.998  0.0000E+00  0.0000E+00  0.1600E+03  0.1600E+03
    -32.758  0.0000E+00  0.0000E+00  0.1600E+03  0.1600E+03
    -32.519  0.0000E+00  0.0000E+00  0.1600E+03  0.1600E+03
    -32.279  0.0000E+00  0.0000E+00  0.1600E+03  0.1600E+03
    -32.040  0.0000E+00  0.0000E+00  0.1600E+03  0.1600E+03
    -31.800  0.0000E+00  0.0000E+00  0.1600E+03  0.1600E+03
    -31.561  0.0000E+00  0.0000E+00  0.1600E+03  0.1600E+03
    -31.321  0.0000E+00  0.0000E+00  0.1600E+03  0.1600E+03
    -31.082  0.0000E+00  0.0000E+00  0.1600E+03  0.1600E+03
    -30.842  0.0000E+00  0.0000E+00  0.1600E+03  0.1600E+03
    -30.603  0.0000E+00  0.0000E+00  0.1600E+03  0.1600E+03
    -30.364  0.0000E+00  0.0000E+00  0.1600E+03  0.1600E+03
    -30.124  0.0000E+00  0.0000E+00  0.1600E+03  0.1600E+03
    -29.885  0.0000E+00  0.0000E+00  0.1600E+03  0.1600E+03
    -29.645  0.0000E+00  0.0000E+00  0.1600E+03  0.1600E+03
    -29.406  0.0000E+00  0.0000E+00  0.1600E+03  0.1600E+03
    -29.166  0.0000E+00  0.0000E+00  0.1600E+03  0.1600E+03
    -28.927  0.0000E+00  0.0000E+00  0.1600E+03  0.1600E+03
    -28.687  0.0000E+00  0.0000E+00  0.1600E+03  0.1600E+03
    -28.448  0.0000E+00  0.0000E+00  0.1600E+03  0.1600E+03
    -28.208  0.0000E+00  0.0000E+00  0.1600E+03  0.1600E+03
    -27.969  0.0000E+00  0.0000E+00  0.1600E+03  0.1600E+03
    -27.729  0.0000E+00  0.0000E+00  0.1600E+03  0.1600E+03
    -27.490  0.0000E+00  0.0000E+00  0.1600E+03  0.1600E+03
    -27.251  0.0000E+00  0.0000E+00  0.1600E+03  0.1600E+03
    -27.011  0.0000E+00  0.0000E+00  0.1600E+03  0.1600E+03
    -26.772  0.0000E+00  0.0000E+00  0.1600E+03  0.1600E+03
    -26.532  0.0000E+00  0.0000E+00  0.1600E+03  0.1600E+03
    -26.293  0.0000E+00  0.0000E+00  0.1600E+03  0.1600E+03
    -26.053  0.0000E+00  0.0000E+00  0.1600E+03  0.1600E+03
    -25.814  0.0000E+00  0.0000E+00  0.1600E+03  0.1600E+03
    -25.574  0.0000E+00  0.0000E+00  0.1600E+03  0.1600E+03
    -25.335  0.0000E+00  0.0000E+00  0.1600E+03  0.1600E+03
    -25.095  0.0000E+00  0.0000E+00  0.1600E+03  0.1600E+03
    -24.856  0.0000E+00  0.0000E+00  0.1600E+03  0.1600E+03
    -24.616  0.0000E+00  0.0000E+00  0.1600E+03  0.1600E+03
    -24.377  0.0000E+00  0.0000E+00  0.1600E+03  0.1600E+03
    -24.138  0.0000E+00  0.0000E+00  0.1600E+03  0.1600E+03
    -23.898  0.0000E+00  0.0000E+00  0.1600E+03  0.1600E+03
    -23.659  0.0000E+00  0.0000E+00  0.1600E+03  0.1600E+03
    -23.419  0.0000E+00  0.0000E+00  0.1600E+03  0.1600E+03
    -23.180  0.0000E+00  0.0000E+00  0.1600E+03  0.1600E+03
    -22.940  0.0000E+00  0.0000E+00  0.1600E+03  0.1600E+03
    -22.701  0.0000E+00  0.0000E+00  0.1600E+03  0.1600E+03
    -22.461  0.0000E+00  0.0000E+00  0.1600E+03  0.1600E+03
    -22.222  0.0000E+00  0.0000E+00  0.1600E+03  0.1600E+03
    -21.982  0.0000E+00  0.0000E+00  0.1600E+03  0.1600E+03
    -21.743  0.0000E+00  0.0000E+00  0.1600E+03  0.1600E+03
    -21.504  0.0000E+00  0.0000E+00  0.1600E+03  0.1600E+03
    -21.264  0.0000E+00  0.0000E+00  0.1600E+03  0.1600E+03
    -21.025  0.0000E+00  0.0000E+00  0.1600E+03  0.1600E+03
    -20.785  0.0000E+00  0.0000E+00  0.1600E+03  0.1600E+03
    -20.546  0.0000E+00  0.0000E+00  0.1600E+03  0.1600E+03
    -20.306  0.0000E+00  0.0000E+00  0.1600E+03  0.1600E+03
    -20.067  0.0000E+00  0.0000E+00  0.1600E+03  0.1600E+03
    -19.827  0.0000E+00  0.0000E+00  0.1600E+03  0.1600E+03
    -19.588  0.0000E+00  0.0000E+00  0.1600E+03  0.1600E+03
    -19.348  0.0000E+00  0.0000E+00  0.1600E+03  0.1600E+03
    -19.109  0.0000E+00  0.0000E+00  0.1600E+03  0.1600E+03
    -18.869  0.0000E+00  0.0000E+00  0.1600E+03  0.1600E+03
    -18.630  0.0000E+00  0.0000E+00  0.1600E+03  0.1600E+03
    -18.391  0.0000E+00  0.0000E+00  0.1600E+03  0.1600E+03
    -18.151  0.0000E+00  0.0000E+00  0.1600E+03  0.1600E+03
    -17.912  0.0000E+00  0.0000E+00  0.1600E+03  0.1600E+03
    -17.672  0.0000E+00  0.0000E+00  0.1600E+03  0.1600E+03
    -17.433  0.0000E+00  0.0000E+00  0.1600E+03  0.1600E+03
    -17.193  0.0000E+00  0.0000E+00  0.1600E+03  0.1600E+03
    -16.954  0.0000E+00  0.0000E+00  0.1600E+03  0.1600E+03
    -16.714  0.0000E+00  0.0000E+00  0.1600E+03  0.1600E+03
    -16.475  0.0000E+00  0.0000E+00  0.1600E+03  0.1600E+03
    -16.235  0.0000E+00  0.0000E+00  0.1600E+03  0.1600E+03
    -15.996  0.0000E+00  0.0000E+00  0.1600E+03  0.1600E+03
    -15.756  0.0000E+00  0.0000E+00  0.1600E+03  0.1600E+03
    -15.517  0.0000E+00  0.0000E+00  0.1600E+03  0.1600E+03
    -15.278  0.0000E+00  0.0000E+00  0.1600E+03  0.1600E+03
    -15.038  0.0000E+00  0.0000E+00  0.1600E+03  0.1600E+03
    -14.799  0.0000E+00  0.0000E+00  0.1600E+03  0.1600E+03
    -14.559  0.0000E+00  0.0000E+00  0.1600E+03  0.1600E+03
    -14.320  0.0000E+00  0.0000E+00  0.1600E+03  0.1600E+03
    -14.080  0.0000E+00  0.0000E+00  0.1600E+03  0.1600E+03
    -13.841  0.0000E+00  0.0000E+00  0.1600E+03  0.1600E+03
    -13.601  0.2014E-01  0.0000E+00  0.1600E+03  0.1600E+03
    -13.362  0.5332E+02  0.2337E-05  0.1728E+03  0.1600E+03
    -13.122  0.7195E+02  0.2946E+02  0.1900E+03  0.1671E+03
    -12.883  0.8344E+01  0.9949E+02  0.1920E+03  0.1909E+03
    -12.643  0.0000E+00  0.4682E+01  0.1920E+03  0.1920E+03
    -12.404  0.0000E+00  0.0000E+00  0.1920E+03  0.1920E+03
    -12.165  0.0000E+00  0.0000E+00  0.1920E+03  0.1920E+03
    -11.925  0.0000E+00  0.0000E+00  0.1920E+03  0.1920E+03
    -11.686  0.0000E+00  0.0000E+00  0.1920E+03  0.1920E+03
    -11.446  0.0000E+00  0.0000E+00  0.1920E+03  0.1920E+03
    -11.207  0.0000E+00  0.0000E+00  0.1920E+03  0.1920E+03
    -10.967  0.0000E+00  0.0000E+00  0.1920E+03  0.1920E+03
    -10.728  0.0000E+00  0.0000E+00  0.1920E+03  0.1920E+03
    -10.488  0.0000E+00  0.0000E+00  0.1920E+03  0.1920E+03
    -10.249  0.0000E+00  0.0000E+00  0.1920E+03  0.1920E+03
    -10.009  0.0000E+00  0.0000E+00  0.1920E+03  0.1920E+03
     -9.770  0.0000E+00  0.0000E+00  0.1920E+03  0.1920E+03
     -9.530  0.0000E+00  0.0000E+00  0.1920E+03  0.1920E+03
     -9.291  0.0000E+00  0.0000E+00  0.1920E+03  0.1920E+03
     -9.052  0.0000E+00  0.0000E+00  0.1920E+03  0.1920E+03
     -8.812  0.0000E+00  0.0000E+00  0.1920E+03  0.1920E+03
     -8.573  0.0000E+00  0.0000E+00  0.1920E+03  0.1920E+03
     -8.333  0.0000E+00  0.0000E+00  0.1920E+03  0.1920E+03
     -8.094  0.0000E+00  0.0000E+00  0.1920E+03  0.1920E+03
     -7.854  0.5011E-10  0.0000E+00  0.1920E+03  0.1920E+03
     -7.615  0.1591E+01  0.4706E-07  0.1924E+03  0.1920E+03
     -7.375  0.4691E+02  0.7795E+01  0.2036E+03  0.1939E+03
     -7.136  0.6532E+02  0.6083E+02  0.2193E+03  0.2084E+03
     -6.896  0.1981E+02  0.5424E+02  0.2240E+03  0.2214E+03
     -6.657  0.9395E-02  0.1076E+02  0.2240E+03  0.2240E+03
     -6.417  0.0000E+00  0.3490E-02  0.2240E+03  0.2240E+03
     -6.178  0.0000E+00  0.0000E+00  0.2240E+03  0.2240E+03
     -5.939  0.0000E+00  0.0000E+00  0.2240E+03  0.2240E+03
     -5.699  0.0000E+00  0.0000E+00  0.2240E+03  0.2240E+03
     -5.460  0.0000E+00  0.0000E+00  0.2240E+03  0.2240E+03
     -5.220  0.0000E+00  0.0000E+00  0.2240E+03  0.2240E+03
     -4.981  0.0000E+00  0.0000E+00  0.2240E+03  0.2240E+03
     -4.741  0.0000E+00  0.0000E+00  0.2240E+03  0.2240E+03
     -4.502  0.0000E+00  0.0000E+00  0.2240E+03  0.2240E+03
     -4.262  0.0000E+00  0.0000E+00  0.2240E+03  0.2240E+03
     -4.023  0.0000E+00  0.0000E+00  0.2240E+03  0.2240E+03
     -3.783  0.0000E+00  0.0000E+00  0.2240E+03  0.2240E+03
     -3.544  0.0000E+00  0.0000E+00  0.2240E+03  0.2240E+03
     -3.304  0.0000E+00  0.0000E+00  0.2240E+03  0.2240E+03
     -3.065  0.0000E+00  0.0000E+00  0.2240E+03  0.2240E+03
     -2.826  0.4636E-15  0.0000E+00  0.2240E+03  0.2240E+03
     -2.586  0.4165E+00  0.0000E+00  0.2241E+03  0.2240E+03
     -2.347  0.3097E+02  0.0000E+00  0.2315E+03  0.2240E+03
     -2.107  0.1161E+02  0.0000E+00  0.2343E+03  0.2240E+03
     -1.868  0.1268E+02  0.0000E+00  0.2373E+03  0.2240E+03
     -1.628  0.1143E+02  0.0000E+00  0.2401E+03  0.2240E+03
     -1.389  0.1571E+02  0.0000E+00  0.2438E+03  0.2240E+03
     -1.149  0.6293E+02  0.2453E-05  0.2589E+03  0.2240E+03
     -0.910  0.7662E+02  0.3451E+01  0.2772E+03  0.2248E+03
     -0.670  0.6741E+02  0.3293E+02  0.2934E+03  0.2327E+03
     -0.431  0.7794E+02  0.1881E+02  0.3121E+03  0.2372E+03
     -0.191  0.1061E+03  0.1908E+02  0.3375E+03  0.2418E+03
      0.048  0.7843E+02  0.1228E+02  0.3563E+03  0.2447E+03
      0.287  0.5337E+02  0.3176E+02  0.3690E+03  0.2523E+03
      0.527  0.4760E+02  0.8147E+02  0.3804E+03  0.2718E+03
      0.766  0.4612E+02  0.6840E+02  0.3915E+03  0.2882E+03
      1.006  0.4679E+02  0.6982E+02  0.4027E+03  0.3049E+03
      1.245  0.7676E+02  0.6324E+02  0.4211E+03  0.3201E+03
      1.485  0.8778E+02  0.2172E+02  0.4421E+03  0.3253E+03
      1.724  0.5809E+02  0.5074E+02  0.4560E+03  0.3374E+03
      1.964  0.3996E+02  0.5160E+02  0.4656E+03  0.3498E+03
      2.203  0.4724E+02  0.3052E+02  0.4769E+03  0.3571E+03
      2.443  0.4159E+02  0.3911E+02  0.4868E+03  0.3665E+03
      2.682  0.5339E+02  0.6477E+02  0.4996E+03  0.3820E+03
      2.922  0.5392E+02  0.7216E+02  0.5125E+03  0.3993E+03
      3.161  0.5652E+02  0.5984E+02  0.5261E+03  0.4136E+03
      3.400  0.5300E+02  0.1610E+02  0.5387E+03  0.4174E+03
      3.640  0.5338E+02  0.3623E+02  0.5515E+03  0.4261E+03
      3.879  0.3985E+02  0.5947E+02  0.5611E+03  0.4404E+03
      4.119  0.3544E+02  0.3190E+02  0.5696E+03  0.4480E+03
      4.358  0.1924E+02  0.4172E-01  0.5742E+03  0.4480E+03
      4.598  0.7355E+01  0.0000E+00  0.5759E+03  0.4480E+03
      4.837  0.3153E+00  0.0000E+00  0.5760E+03  0.4480E+03
      5.077  0.0000E+00  0.0000E+00  0.5760E+03  0.4480E+03
      5.316  0.0000E+00  0.0000E+00  0.5760E+03  0.4480E+03
      5.556  0.0000E+00  0.0000E+00  0.5760E+03  0.4480E+03
      5.795  0.0000E+00  0.0000E+00  0.5760E+03  0.4480E+03
      6.035  0.0000E+00  0.0000E+00  0.5760E+03  0.4480E+03
      6.274  0.0000E+00  0.2061E-15  0.5760E+03  0.4480E+03
      6.513  0.0000E+00  0.7027E-01  0.5760E+03  0.4480E+03
      6.753  0.0000E+00  0.2451E+02  0.5760E+03  0.4539E+03
      6.992  0.7667E-06  0.7773E+02  0.5760E+03  0.4725E+03
      7.232  0.2293E+00  0.6314E+02  0.5761E+03  0.4876E+03
      7.471  0.1936E+00  0.6391E+02  0.5761E+03  0.5029E+03
      7.711  0.1384E+01  0.6305E+02  0.5764E+03  0.5180E+03
      7.950  0.3045E+01  0.9513E+02  0.5772E+03  0.5408E+03
      8.190  0.6569E+01  0.7260E+02  0.5787E+03  0.5582E+03
      8.429  0.9452E+01  0.4913E+02  0.5810E+03  0.5699E+03
      8.669  0.1881E+02  0.2492E+02  0.5855E+03  0.5759E+03
      8.908  0.2338E+02  0.7244E+01  0.5911E+03  0.5777E+03
      9.148  0.3137E+02  0.8610E+01  0.5986E+03  0.5797E+03
      9.387  0.2858E+02  0.1783E+02  0.6055E+03  0.5840E+03
      9.626  0.2975E+02  0.2689E+02  0.6126E+03  0.5904E+03
      9.866  0.2618E+02  0.3194E+02  0.6188E+03  0.5981E+03
     10.105  0.1752E+02  0.3778E+02  0.6230E+03  0.6071E+03
     10.345  0.2600E+02  0.3347E+02  0.6293E+03  0.6151E+03
     10.584  0.3640E+02  0.2857E+02  0.6380E+03  0.6220E+03
     10.824  0.4021E+02  0.3313E+02  0.6476E+03  0.6299E+03
     11.063  0.3302E+02  0.2818E+02  0.6555E+03  0.6367E+03
     11.303  0.4919E+02  0.2602E+02  0.6673E+03  0.6429E+03
     11.542  0.4114E+02  0.2922E+02  0.6772E+03  0.6499E+03
     11.782  0.4151E+02  0.5102E+02  0.6871E+03  0.6621E+03
     12.021  0.3406E+02  0.5026E+02  0.6952E+03  0.6741E+03
     12.261  0.3276E+02  0.5595E+02  0.7031E+03  0.6875E+03
     12.500  0.3251E+02  0.3158E+02  0.7109E+03  0.6951E+03
     12.739  0.3675E+02  0.3266E+02  0.7197E+03  0.7029E+03
     12.979  0.3407E+02  0.3219E+02  0.7278E+03  0.7106E+03
     13.218  0.1561E+02  0.3800E+02  0.7316E+03  0.7197E+03
     13.458  0.1408E+01  0.3254E+02  0.7319E+03  0.7275E+03
     13.697  0.3814E+00  0.1773E+02  0.7320E+03  0.7318E+03
     13.937  0.0000E+00  0.9711E+00  0.7320E+03  0.7320E+03
     14.176  0.0000E+00  0.3493E-05  0.7320E+03  0.7320E+03
     14.416  0.0000E+00  0.0000E+00  0.7320E+03  0.7320E+03
     14.655  0.0000E+00  0.0000E+00  0.7320E+03  0.7320E+03
     14.895  0.0000E+00  0.0000E+00  0.7320E+03  0.7320E+03
     15.134  0.0000E+00  0.0000E+00  0.7320E+03  0.7320E+03
     15.373  0.0000E+00  0.0000E+00  0.7320E+03  0.7320E+03
     15.613  0.0000E+00  0.0000E+00  0.7320E+03  0.7320E+03
     15.852  0.0000E+00  0.0000E+00  0.7320E+03  0.7320E+03
     16.092  0.0000E+00  0.0000E+00  0.7320E+03  0.7320E+03
     16.331  0.0000E+00  0.0000E+00  0.7320E+03  0.7320E+03
     16.571  0.0000E+00  0.0000E+00  0.7320E+03  0.7320E+03
     16.810  0.0000E+00  0.0000E+00  0.7320E+03  0.7320E+03
     17.050  0.0000E+00  0.0000E+00  0.7320E+03  0.7320E+03
