 vasp.5.4.4.18Apr17-6-g9f103f2a35 (build Oct 25 2017 14:42:18) complex          
  
 executed on             LinuxIFC date 2021.06.17  01:17:40
 running on   48 total cores
 distrk:  each k-point on   24 cores,    2 groups
 distr:  one band on NCORES_PER_BAND=   6 cores,    4 groups


--------------------------------------------------------------------------------------------------------


 INCAR:
 POTCAR:    PAW_PBE Li_sv 10Sep2004               
 POTCAR:    PAW_PBE Fe_pv 02Aug2007               
 POTCAR:    PAW_PBE S 06Sep2000                   
 POTCAR:    PAW_PBE O 08Apr2002                   

 ----------------------------------------------------------------------------- 
|                                                                             |
|           W    W    AA    RRRRR   N    N  II  N    N   GGGG   !!!           |
|           W    W   A  A   R    R  NN   N  II  NN   N  G    G  !!!           |
|           W    W  A    A  R    R  N N  N  II  N N  N  G       !!!           |
|           W WW W  AAAAAA  RRRRR   N  N N  II  N  N N  G  GGG   !            |
|           WW  WW  A    A  R   R   N   NN  II  N   NN  G    G                |
|           W    W  A    A  R    R  N    N  II  N    N   GGGG   !!!           |
|                                                                             |
|      You have enabled k-point parallelism (KPAR>1).                         |
|      This developmental code was originally  written by Paul Kent at ORNL,  |
|      and carefully double checked in Vienna.                                |
|      GW as well as linear response parallelism added by Martijn Marsman     |
|      and Georg Kresse.                                                      |
|      Carefully verify results versus KPAR=1.                                |
|      Report problems to Paul Kent and Vienna.                               |
|                                                                             |
 ----------------------------------------------------------------------------- 

 POTCAR:    PAW_PBE Li_sv 10Sep2004               
  local pseudopotential read in
  atomic valenz-charges read in
  non local Contribution for L=           0  read in
    real space projection operators read in
  non local Contribution for L=           0  read in
    real space projection operators read in
  non local Contribution for L=           1  read in
    real space projection operators read in
    PAW grid and wavefunctions read in
 
   number of l-projection  operators is LMAX  =           3
   number of lm-projection operators is LMMAX =           5
 
 POTCAR:    PAW_PBE Fe_pv 02Aug2007               
  local pseudopotential read in
  partial core-charges read in
  partial kinetic energy density read in
  atomic valenz-charges read in
  non local Contribution for L=           1  read in
    real space projection operators read in
  non local Contribution for L=           1  read in
    real space projection operators read in
  non local Contribution for L=           2  read in
    real space projection operators read in
  non local Contribution for L=           2  read in
    real space projection operators read in
  non local Contribution for L=           0  read in
    real space projection operators read in
  non local Contribution for L=           0  read in
    real space projection operators read in
    PAW grid and wavefunctions read in
 
   number of l-projection  operators is LMAX  =           6
   number of lm-projection operators is LMMAX =          18
 
 POTCAR:    PAW_PBE S 06Sep2000                   
  local pseudopotential read in
  partial core-charges read in
  partial kinetic energy density read in
  atomic valenz-charges read in
  non local Contribution for L=           0  read in
    real space projection operators read in
  non local Contribution for L=           0  read in
    real space projection operators read in
  non local Contribution for L=           1  read in
    real space projection operators read in
  non local Contribution for L=           1  read in
    real space projection operators read in
    PAW grid and wavefunctions read in
 
   number of l-projection  operators is LMAX  =           4
   number of lm-projection operators is LMMAX =           8
 
 POTCAR:    PAW_PBE O 08Apr2002                   
  local pseudopotential read in
  partial core-charges read in
  partial kinetic energy density read in
  kinetic energy density of atom read in
  atomic valenz-charges read in
  non local Contribution for L=           0  read in
    real space projection operators read in
  non local Contribution for L=           0  read in
    real space projection operators read in
  non local Contribution for L=           1  read in
    real space projection operators read in
  non local Contribution for L=           1  read in
    real space projection operators read in
    PAW grid and wavefunctions read in
 
   number of l-projection  operators is LMAX  =           4
   number of lm-projection operators is LMMAX =           8
 

 ----------------------------------------------------------------------------- 
|                                                                             |
|  ADVICE TO THIS USER RUNNING 'VASP/VAMP'   (HEAR YOUR MASTER'S VOICE ...):  |
|                                                                             |
|      You have a (more or less) 'large supercell' and for larger cells       |
|      it might be more efficient to use real space projection opertators     |
|      So try LREAL= Auto  in the INCAR   file.                               |
|      Mind:          For very  accurate calculation you might also keep the  |
|      reciprocal projection scheme          (i.e. LREAL=.FALSE.)             |
|                                                                             |
 ----------------------------------------------------------------------------- 

  PAW_PBE Li_sv 10Sep2004               :
 energy of atom  1       EATOM= -202.7858
 kinetic energy error for atom=    0.0072 (will be added to EATOM!!)
  PAW_PBE Fe_pv 02Aug2007               :
 energy of atom  2       EATOM=-2457.4239
 kinetic energy error for atom=    0.0041 (will be added to EATOM!!)
  PAW_PBE S 06Sep2000                   :
 energy of atom  3       EATOM= -276.8230
 kinetic energy error for atom=    0.0008 (will be added to EATOM!!)
  PAW_PBE O 08Apr2002                   :
 energy of atom  4       EATOM= -432.3788
 kinetic energy error for atom=    0.0129 (will be added to EATOM!!)
 
 
 POSCAR: # Compound: Li64Fe32S32O32. Old comment:
  positions in direct lattice
  No initial velocities read in
 exchange correlation table for  LEXCH =        8
   RHO(1)=    0.500       N(1)  =     2000
   RHO(2)=  100.500       N(2)  =     4000
 


--------------------------------------------------------------------------------------------------------


 ion  position               nearest neighbor table
   1  0.125  0.276  0.475- 149 1.96 133 1.97  97 2.54 105 2.54
   2  0.625  0.276  0.475- 150 1.96 134 1.97  98 2.54 106 2.54
   3  0.125  0.776  0.475- 151 1.96 135 1.97  99 2.54 107 2.54
   4  0.625  0.776  0.475- 152 1.96 136 1.97 100 2.54 108 2.54
   5  0.125  0.276  0.975- 145 1.96 129 1.97 101 2.54 109 2.54
   6  0.625  0.276  0.975- 146 1.96 130 1.97 102 2.54 110 2.54
   7  0.125  0.776  0.975- 147 1.96 131 1.97 103 2.54 111 2.54
   8  0.625  0.776  0.975- 148 1.96 132 1.97 104 2.54 112 2.54
   9  0.125  0.474  0.275- 155 1.96 139 1.97 105 2.54  97 2.54
  10  0.625  0.474  0.275- 156 1.96 140 1.97 106 2.54  98 2.54
  11  0.125  0.974  0.275- 153 1.96 137 1.97 107 2.54  99 2.54
  12  0.625  0.974  0.275- 154 1.96 138 1.97 108 2.54 100 2.54
  13  0.125  0.474  0.775- 159 1.96 143 1.97 109 2.54 101 2.54
  14  0.625  0.474  0.775- 160 1.96 144 1.97 110 2.54 102 2.54
  15  0.125  0.974  0.775- 157 1.96 141 1.97 111 2.54 103 2.54
  16  0.625  0.974  0.775- 158 1.96 142 1.97 112 2.54 104 2.54
  17  0.375  0.224  0.025- 145 1.96 130 1.97 113 2.54 121 2.54
  18  0.875  0.224  0.025- 146 1.96 129 1.97 114 2.54 122 2.54
  19  0.375  0.724  0.025- 147 1.96 132 1.97 115 2.54 123 2.54
  20  0.875  0.724  0.025- 148 1.96 131 1.97 116 2.54 124 2.54
  21  0.375  0.224  0.525- 149 1.96 134 1.97 117 2.54 125 2.54
  22  0.875  0.224  0.525- 150 1.96 133 1.97 118 2.54 126 2.54
  23  0.375  0.724  0.525- 151 1.96 136 1.97 119 2.54 127 2.54
  24  0.875  0.724  0.525- 152 1.96 135 1.97 120 2.54 128 2.54
  25  0.375  0.026  0.225- 153 1.96 138 1.97 121 2.54 113 2.54
  26  0.875  0.026  0.225- 154 1.96 137 1.97 122 2.54 114 2.54
  27  0.375  0.526  0.225- 155 1.96 140 1.97 123 2.54 115 2.54
  28  0.875  0.526  0.225- 156 1.96 139 1.97 124 2.54 116 2.54
  29  0.375  0.026  0.725- 157 1.96 142 1.97 125 2.54 117 2.54
  30  0.875  0.026  0.725- 158 1.96 141 1.97 126 2.54 118 2.54
  31  0.375  0.526  0.725- 159 1.96 144 1.97 127 2.54 119 2.54
  32  0.875  0.526  0.725- 160 1.96 143 1.97 128 2.54 120 2.54
  33  0.276  0.375  0.375- 149 2.01 155 2.01 119 2.52 121 2.52
  34  0.776  0.375  0.375- 150 2.01 156 2.01 120 2.52 122 2.52
  35  0.276  0.875  0.375- 151 2.01 153 2.01 117 2.52 123 2.52
  36  0.776  0.875  0.375- 152 2.01 154 2.01 118 2.52 124 2.52
  37  0.276  0.375  0.875- 145 2.01 159 2.01 115 2.52 125 2.52
  38  0.776  0.375  0.875- 146 2.01 160 2.01 116 2.52 126 2.52
  39  0.276  0.875  0.875- 147 2.01 157 2.01 113 2.52 127 2.52
  40  0.776  0.875  0.875- 148 2.01 158 2.01 114 2.52 128 2.52
  41  0.224  0.125  0.125- 145 2.01 153 2.01 103 2.52 105 2.52
  42  0.724  0.125  0.125- 146 2.01 154 2.01 104 2.52 106 2.52
  43  0.224  0.625  0.125- 147 2.01 155 2.01 101 2.52 107 2.52
  44  0.724  0.625  0.125- 148 2.01 156 2.01 102 2.52 108 2.52
  45  0.224  0.125  0.625- 149 2.01 157 2.01  99 2.52 109 2.52
  46  0.724  0.125  0.625- 150 2.01 158 2.01 100 2.52 110 2.52
  47  0.224  0.625  0.625- 151 2.01 159 2.01  97 2.52 111 2.52
  48  0.724  0.625  0.625- 152 2.01 160 2.01  98 2.52 112 2.52
  49  0.500  0.375  0.125- 130 2.00 140 2.00
  50  1.000  0.375  0.125- 129 2.00 139 2.00
  51  0.500  0.875  0.125- 132 2.00 138 2.00
  52  1.000  0.875  0.125- 131 2.00 137 2.00
  53  0.500  0.375  0.625- 134 2.00 144 2.00
  54  1.000  0.375  0.625- 133 2.00 143 2.00
  55  0.500  0.875  0.625- 136 2.00 142 2.00
  56  1.000  0.875  0.625- 135 2.00 141 2.00
  57  0.000  0.125  0.375- 133 2.00 137 2.00
  58  0.500  0.125  0.375- 134 2.00 138 2.00
  59  0.000  0.625  0.375- 135 2.00 139 2.00
  60  0.500  0.625  0.375- 136 2.00 140 2.00
  61  0.000  0.125  0.875- 129 2.00 141 2.00
  62  0.500  0.125  0.875- 130 2.00 142 2.00
  63  0.000  0.625  0.875- 131 2.00 143 2.00
  64  0.500  0.625  0.875- 132 2.00 144 2.00
  65  0.479  0.375  0.375- 134 2.00 140 2.00 119 2.57 121 2.57
  66  0.979  0.375  0.375- 133 2.00 139 2.00 120 2.57 122 2.57
  67  0.479  0.875  0.375- 136 2.00 138 2.00 117 2.57 123 2.57
  68  0.979  0.875  0.375- 135 2.00 137 2.00 118 2.57 124 2.57
  69  0.479  0.375  0.875- 130 2.00 144 2.00 115 2.57 125 2.57
  70  0.979  0.375  0.875- 129 2.00 143 2.00 116 2.57 126 2.57
  71  0.479  0.875  0.875- 132 2.00 142 2.00 113 2.57 127 2.57
  72  0.979  0.875  0.875- 131 2.00 141 2.00 114 2.57 128 2.57
  73  0.021  0.125  0.125- 129 2.00 137 2.00 103 2.57 105 2.57
  74  0.521  0.125  0.125- 130 2.00 138 2.00 104 2.57 106 2.57
  75  0.021  0.625  0.125- 131 2.00 139 2.00 101 2.57 107 2.57
  76  0.521  0.625  0.125- 132 2.00 140 2.00 102 2.57 108 2.57
  77  0.021  0.125  0.625- 133 2.00 141 2.00  99 2.57 109 2.57
  78  0.521  0.125  0.625- 134 2.00 142 2.00 100 2.57 110 2.57
  79  0.021  0.625  0.625- 135 2.00 143 2.00  97 2.57 111 2.57
  80  0.521  0.625  0.625- 136 2.00 144 2.00  98 2.57 112 2.57
  81  0.250  0.375  0.126- 155 2.00 145 2.01 121 2.74 105 2.75 115 2.75 101 2.76
  82  0.750  0.375  0.125- 146 2.00 156 2.00 116 2.75 122 2.75 102 2.75 106 2.75
  83  0.250  0.875  0.125- 147 2.00 153 2.00 113 2.75 123 2.75 103 2.75 107 2.75
  84  0.750  0.875  0.125- 148 2.00 154 2.00 114 2.75 124 2.75 104 2.75 108 2.75
  85  0.250  0.375  0.625- 149 2.00 159 2.00 119 2.75 125 2.75  97 2.75 109 2.75
  86  0.750  0.375  0.625- 150 2.00 160 2.00 120 2.75 126 2.75  98 2.75 110 2.75
  87  0.250  0.875  0.625- 151 2.00 157 2.00 117 2.75 127 2.75  99 2.75 111 2.75
  88  0.750  0.875  0.625- 152 2.00 158 2.00 118 2.75 128 2.75 100 2.75 112 2.75
  89  0.250  0.125  0.375- 149 2.00 153 2.00  99 2.75 105 2.75 117 2.75 121 2.75
  90  0.750  0.125  0.375- 150 2.00 154 2.00 100 2.75 106 2.75 118 2.75 122 2.75
  91  0.250  0.625  0.375- 151 2.00 155 2.00  97 2.75 107 2.75 119 2.75 123 2.75
  92  0.750  0.625  0.375- 152 2.00 156 2.00  98 2.75 108 2.75 120 2.75 124 2.75
  93  0.250  0.125  0.875- 145 2.00 157 2.00 103 2.75 109 2.75 113 2.75 125 2.75
  94  0.750  0.125  0.875- 146 2.00 158 2.00 104 2.75 110 2.75 114 2.75 126 2.75
  95  0.250  0.625  0.875- 147 2.00 159 2.00 101 2.75 111 2.75 115 2.75 127 2.75
  96  0.750  0.625  0.875- 148 2.00 160 2.00 102 2.75 112 2.75 116 2.75 128 2.75
  97  0.125  0.500  0.500-  47 2.52   1 2.54   9 2.54  79 2.57  91 2.75  85 2.75
  98  0.625  0.500  0.500-  48 2.52   2 2.54  10 2.54  80 2.57  92 2.75  86 2.75
  99  0.125  1.000  0.500-  45 2.52   3 2.54  11 2.54  77 2.57  89 2.75  87 2.75
 100  0.625  1.000  0.500-  46 2.52   4 2.54  12 2.54  78 2.57  90 2.75  88 2.75
 101  0.125  0.500  1.000-  43 2.52   5 2.54  13 2.54  75 2.57  95 2.75  81 2.76
 102  0.625  0.500  1.000-  44 2.52   6 2.54  14 2.54  76 2.57  96 2.75  82 2.75
 103  0.125  1.000  1.000-  41 2.52   7 2.54  15 2.54  73 2.57  93 2.75  83 2.75
 104  0.625  1.000  1.000-  42 2.52   8 2.54  16 2.54  74 2.57  94 2.75  84 2.75
 105  0.125  0.250  0.250-  41 2.52   9 2.54   1 2.54  73 2.57  81 2.75  89 2.75
 106  0.625  0.250  0.250-  42 2.52  10 2.54   2 2.54  74 2.57  90 2.75  82 2.75
 107  0.125  0.750  0.250-  43 2.52  11 2.54   3 2.54  75 2.57  91 2.75  83 2.75
 108  0.625  0.750  0.250-  44 2.52  12 2.54   4 2.54  76 2.57  92 2.75  84 2.75
 109  0.125  0.250  0.750-  45 2.52  13 2.54   5 2.54  77 2.57  93 2.75  85 2.75
 110  0.625  0.250  0.750-  46 2.52  14 2.54   6 2.54  78 2.57  94 2.75  86 2.75
 111  0.125  0.750  0.750-  47 2.52  15 2.54   7 2.54  79 2.57  95 2.75  87 2.75
 112  0.625  0.750  0.750-  48 2.52  16 2.54   8 2.54  80 2.57  96 2.75  88 2.75
 113  0.375  0.000  0.000-  39 2.52  17 2.54  25 2.54  71 2.57  83 2.75  93 2.75
 114  0.875  0.000  0.000-  40 2.52  18 2.54  26 2.54  72 2.57  84 2.75  94 2.75
 115  0.375  0.500  0.000-  37 2.52  19 2.54  27 2.54  69 2.57  95 2.75  81 2.75
 116  0.875  0.500  0.000-  38 2.52  20 2.54  28 2.54  70 2.57  82 2.75  96 2.75
 117  0.375  0.000  0.500-  35 2.52  21 2.54  29 2.54  67 2.57  87 2.75  89 2.75
 118  0.875  0.000  0.500-  36 2.52  22 2.54  30 2.54  68 2.57  88 2.75  90 2.75
 119  0.375  0.500  0.500-  33 2.52  23 2.54  31 2.54  65 2.57  85 2.75  91 2.75
 120  0.875  0.500  0.500-  34 2.52  24 2.54  32 2.54  66 2.57  86 2.75  92 2.75
 121  0.375  0.250  0.250-  33 2.52  25 2.54  17 2.54  65 2.57  81 2.74  89 2.75
 122  0.875  0.250  0.250-  34 2.52  26 2.54  18 2.54  66 2.57  82 2.75  90 2.75
 123  0.375  0.750  0.250-  35 2.52  27 2.54  19 2.54  67 2.57  83 2.75  91 2.75
 124  0.875  0.750  0.250-  36 2.52  28 2.54  20 2.54  68 2.57  84 2.75  92 2.75
 125  0.375  0.250  0.750-  37 2.52  29 2.54  21 2.54  69 2.57  85 2.75  93 2.75
 126  0.875  0.250  0.750-  38 2.52  30 2.54  22 2.54  70 2.57  86 2.75  94 2.75
 127  0.375  0.750  0.750-  39 2.52  31 2.54  23 2.54  71 2.57  87 2.75  95 2.75
 128  0.875  0.750  0.750-  40 2.52  32 2.54  24 2.54  72 2.57  88 2.75  96 2.75
 129  0.000  0.250  0.000-   5 1.97  18 1.97  70 2.00  73 2.00  50 2.00  61 2.00
 130  0.500  0.250  0.000-   6 1.97  17 1.97  69 2.00  74 2.00  49 2.00  62 2.00
 131  0.000  0.750  0.000-   7 1.97  20 1.97  72 2.00  75 2.00  52 2.00  63 2.00
 132  0.500  0.750  0.000-   8 1.97  19 1.97  71 2.00  76 2.00  51 2.00  64 2.00
 133  0.000  0.250  0.500-   1 1.97  22 1.97  66 2.00  77 2.00  54 2.00  57 2.00
 134  0.500  0.250  0.500-   2 1.97  21 1.97  65 2.00  78 2.00  53 2.00  58 2.00
 135  0.000  0.750  0.500-   3 1.97  24 1.97  68 2.00  79 2.00  56 2.00  59 2.00
 136  0.500  0.750  0.500-   4 1.97  23 1.97  67 2.00  80 2.00  55 2.00  60 2.00
 137  0.000  0.000  0.250-  11 1.97  26 1.97  68 2.00  73 2.00  52 2.00  57 2.00
 138  0.500  0.000  0.250-  12 1.97  25 1.97  67 2.00  74 2.00  51 2.00  58 2.00
 139  0.000  0.500  0.250-   9 1.97  28 1.97  66 2.00  75 2.00  50 2.00  59 2.00
 140  0.500  0.500  0.250-  10 1.97  27 1.97  65 2.00  76 2.00  49 2.00  60 2.00
 141  0.000  0.000  0.750-  15 1.97  30 1.97  72 2.00  77 2.00  56 2.00  61 2.00
 142  0.500  0.000  0.750-  16 1.97  29 1.97  71 2.00  78 2.00  55 2.00  62 2.00
 143  0.000  0.500  0.750-  13 1.97  32 1.97  70 2.00  79 2.00  54 2.00  63 2.00
 144  0.500  0.500  0.750-  14 1.97  31 1.97  69 2.00  80 2.00  53 2.00  64 2.00
 145  0.250  0.250  0.000-   5 1.96  17 1.96  93 2.00  81 2.01  37 2.01  41 2.01
 146  0.750  0.250  0.000-   6 1.96  18 1.96  82 2.00  94 2.00  38 2.01  42 2.01
 147  0.250  0.750  0.000-   7 1.96  19 1.96  83 2.00  95 2.00  39 2.01  43 2.01
 148  0.750  0.750  0.000-   8 1.96  20 1.96  84 2.00  96 2.00  40 2.01  44 2.01
 149  0.250  0.250  0.500-   1 1.96  21 1.96  85 2.00  89 2.00  33 2.01  45 2.01
 150  0.750  0.250  0.500-   2 1.96  22 1.96  86 2.00  90 2.00  34 2.01  46 2.01
 151  0.250  0.750  0.500-   3 1.96  23 1.96  87 2.00  91 2.00  35 2.01  47 2.01
 152  0.750  0.750  0.500-   4 1.96  24 1.96  88 2.00  92 2.00  36 2.01  48 2.01
 153  0.250  0.000  0.250-  11 1.96  25 1.96  83 2.00  89 2.00  35 2.01  41 2.01
 154  0.750  0.000  0.250-  12 1.96  26 1.96  84 2.00  90 2.00  36 2.01  42 2.01
 155  0.250  0.500  0.250-   9 1.96  27 1.96  81 2.00  91 2.00  33 2.01  43 2.01
 156  0.750  0.500  0.250-  10 1.96  28 1.96  82 2.00  92 2.00  34 2.01  44 2.01
 157  0.250  0.000  0.750-  15 1.96  29 1.96  87 2.00  93 2.00  39 2.01  45 2.01
 158  0.750  0.000  0.750-  16 1.96  30 1.96  88 2.00  94 2.00  40 2.01  46 2.01
 159  0.250  0.500  0.750-  13 1.96  31 1.96  85 2.00  95 2.00  37 2.01  47 2.01
 160  0.750  0.500  0.750-  14 1.96  32 1.96  86 2.00  96 2.00  38 2.01  48 2.01
 
  LATTYP: Found a simple monoclinic cell.
 ALAT       =    16.0245724362
 B/A-ratio  =     0.9595037360
 C/A-ratio  =     1.5788311284
 COS(beta)  =    -0.9500776273
  
  Lattice vectors:
  
 A1 = (   0.0000000000, -11.3322995400, -11.3298680000)
 A2 = ( -15.3756371200,   0.0000000000,   0.0000000000)
 A3 = (   0.0000000000,  22.5798703800,  11.4124580600)


Analysis of symmetry for initial positions (statically):
=====================================================================
 Subroutine PRICEL returns:
 Original cell was already a primitive cell.
 

 Routine SETGRP: Setting up the symmetry group for a 
 simple monoclinic supercell.


 Subroutine GETGRP returns: Found  1 space group operations
 (whereof  1 operations were pure point group operations)
 out of a pool of  4 trial point group operations.


The static configuration has the point symmetry C_1 .


Analysis of symmetry for dynamics (positions and initial velocities):
=====================================================================
 Subroutine PRICEL returns:
 Original cell was already a primitive cell.
 

 Routine SETGRP: Setting up the symmetry group for a 
 simple monoclinic supercell.


 Subroutine GETGRP returns: Found  1 space group operations
 (whereof  1 operations were pure point group operations)
 out of a pool of  4 trial point group operations.


The dynamic configuration has the point symmetry C_1 .


Analysis of structural, dynamic, and magnetic symmetry:
=====================================================================
 Subroutine PRICEL returns:
 Original cell was already a primitive cell.
 

 Routine SETGRP: Setting up the symmetry group for a 
 simple monoclinic supercell.


 Subroutine GETGRP returns: Found  1 space group operations
 (whereof  1 operations were pure point group operations)
 out of a pool of  4 trial point group operations.


The magnetic configuration has the point symmetry C_1 .


 Subroutine INISYM returns: Found  1 space group operations
 (whereof  1 operations are pure point group operations),
 and found     1 'primitive' translations

 
 
 KPOINTS: # No comment                            

Automatic generation of k-mesh.
Space group operators:
 irot       det(A)        alpha          n_x          n_y          n_z        tau_x        tau_y        tau_z
    1     1.000000     0.000001     1.000000     0.000000     0.000000     0.000000     0.000000     0.000000
 
 Subroutine IBZKPT returns following result:
 ===========================================
 
 Found     10 irreducible k-points:
 
 Following reciprocal coordinates:
            Coordinates               Weight
  0.000000  0.000000  0.000000      1.000000
  0.500000  0.000000  0.000000      1.000000
  0.000000  0.333333 -0.000000      2.000000
  0.500000  0.333333 -0.000000      2.000000
  0.000000 -0.000000  0.333333      2.000000
  0.500000 -0.000000  0.333333      2.000000
  0.000000  0.333333  0.333333      2.000000
  0.500000  0.333333  0.333333      2.000000
  0.000000 -0.333333  0.333333      2.000000
  0.500000 -0.333333  0.333333      2.000000
 
 Following cartesian coordinates:
            Coordinates               Weight
  0.000000  0.000000  0.000000      1.000000
  0.032519  0.000000  0.000000      1.000000
  0.000000  0.029638 -0.000223      2.000000
  0.032519  0.029638 -0.000223      2.000000
  0.000000 -0.000218  0.029638      2.000000
  0.032519 -0.000218  0.029638      2.000000
  0.000000  0.029420  0.029415      2.000000
  0.032519  0.029420  0.029415      2.000000
  0.000000 -0.029855  0.029862      2.000000
  0.032519 -0.029855  0.029862      2.000000
 


--------------------------------------------------------------------------------------------------------




 Dimension of arrays:
   k-points           NKPTS =     10   k-points in BZ     NKDIM =     10   number of bands    NBANDS=    732
   number of dos      NEDOS =    301   number of ions     NIONS =    160
   non local maximal  LDIM  =      6   non local SUM 2l+1 LMDIM =     18
   total plane-waves  NPLWV = ******
   max r-space proj   IRMAX =      1   max aug-charges    IRDMAX= 153046
   dimension x,y,z NGX =   128 NGY =   96 NGZ =   96
   dimension x,y,z NGXF=   256 NGYF=  192 NGZF=  192
   support grid    NGXF=   512 NGYF=  384 NGZF=  384
   ions per type =              64  32  32  32
   NGX,Y,Z   is equivalent  to a cutoff of  13.84, 14.19, 14.19 a.u.
   NGXF,Y,Z  is equivalent  to a cutoff of  27.68, 28.38, 28.38 a.u.

 SYSTEM =  unknown system                          
 POSCAR =  # Compound: Li64Fe32S32O32. Old comment:

 Startparameter for this run:
   NWRITE =      1    write-flag & timer
   PREC   = accura    normal or accurate (medium, high low for compatibility)
   ISTART =      0    job   : 0-new  1-cont  2-samecut
   ICHARG =      1    charge: 1-file 2-atom 10-const
   ISPIN  =      2    spin polarized calculation?
   LNONCOLLINEAR =      F non collinear calculations
   LSORBIT =      F    spin-orbit coupling
   INIWAV =      1    electr: 0-lowe 1-rand  2-diag
   LASPH  =      T    aspherical Exc in radial PAW
   METAGGA=      F    non-selfconsistent MetaGGA calc.

 Electronic Relaxation 1
   ENCUT  =  650.0 eV  47.77 Ry    6.91 a.u.  31.96 23.38 23.38*2*pi/ulx,y,z
   ENINI  =  650.0     initial cutoff
   ENAUG  =  628.9 eV  augmentation charge cutoff
   NELM   =    200;   NELMIN=  8; NELMDL=  0     # of ELM steps 
   EDIFF  = 0.1E-07   stopping-criterion for ELM
   LREAL  =      F    real-space projection
   NLSPLINE    = F    spline interpolate recip. space projectors
   LCOMPAT=      F    compatible to vasp.4.4
   GGA_COMPAT  = T    GGA compatible to vasp.4.4-vasp.4.6
   LMAXPAW     = -100 max onsite density
   LMAXMIX     =    4 max onsite mixed and CHGCAR
   VOSKOWN=      0    Vosko Wilk Nusair interpolation
   ROPT   =    0.00000   0.00000   0.00000   0.00000
 Ionic relaxation
   EDIFFG = 0.1E-06   stopping-criterion for IOM
   NSW    =      0    number of steps for IOM
   NBLOCK =      1;   KBLOCK =      1    inner block; outer block 
   IBRION =     -1    ionic relax: 0-MD 1-quasi-New 2-CG
   NFREE  =      0    steps in history (QN), initial steepest desc. (CG)
   ISIF   =      2    stress and relaxation
   IWAVPR =     10    prediction:  0-non 1-charg 2-wave 3-comb
   ISYM   =      2    0-nonsym 1-usesym 2-fastsym
   LCORR  =      T    Harris-Foulkes like correction to forces

   POTIM  = 0.5000    time-step for ionic-motion
   TEIN   =    0.0    initial temperature
   TEBEG  =    0.0;   TEEND  =   0.0 temperature during run
   SMASS  =  -3.00    Nose mass-parameter (am)
   estimated Nose-frequenzy (Omega)   =  0.10E-29 period in steps =****** mass=  -0.540E-26a.u.
   SCALEE = 1.0000    scale energy and forces
   NPACO  =    256;   APACO  = 16.0  distance and # of slots for P.C.
   PSTRESS=    0.0 pullay stress

  Mass of Ions in am
   POMASS =   7.01 55.85 32.07 16.00
  Ionic Valenz
   ZVAL   =   3.00 14.00  6.00  6.00
  Atomic Wigner-Seitz radii
   RWIGS  =  -1.00 -1.00 -1.00 -1.00
  virtual crystal weights 
   VCA    =   1.00  1.00  1.00  1.00
   NELECT =    1024.0000    total number of electrons
   NUPDOWN=      -1.0000    fix difference up-down

 DOS related values:
   EMIN   =  10.00;   EMAX   =-10.00  energy-range for DOS
   EFERMI =   0.00
   ISMEAR =     0;   SIGMA  =   0.05  broadening in eV -4-tet -1-fermi 0-gaus

 Electronic relaxation 2 (details)
   IALGO  =     38    algorithm
   LDIAG  =      T    sub-space diagonalisation (order eigenvalues)
   LSUBROT=      F    optimize rotation matrix (better conditioning)
   TURBO    =      0    0=normal 1=particle mesh
   IRESTART =      0    0=no restart 2=restart with 2 vectors
   NREBOOT  =      0    no. of reboots
   NMIN     =      0    reboot dimension
   EREF     =   0.00    reference energy to select bands
   IMIX   =      4    mixing-type and parameters
     AMIX     =   0.40;   BMIX     =  1.00
     AMIX_MAG =   1.60;   BMIX_MAG =  1.00
     AMIN     =   0.10
     WC   =   100.;   INIMIX=   1;  MIXPRE=   1;  MAXMIX= -45

 Intra band minimization:
   WEIMIN = 0.0000     energy-eigenvalue tresh-hold
   EBREAK =  0.34E-11  absolut break condition
   DEPER  =   0.30     relativ break condition  

   TIME   =   0.40     timestep for ELM

  volume/ion in A,a.u.               =      12.16        82.03
  Fermi-wavevector in a.u.,A,eV,Ry     =   1.321914  2.498054 23.775576  1.747456
  Thomas-Fermi vector in A             =   2.451633
 
 Write flags
   LWAVE        =      F    write WAVECAR
   LDOWNSAMPLE  =      F    k-point downsampling of WAVECAR
   LCHARG       =      T    write CHGCAR
   LVTOT        =      F    write LOCPOT, total local potential
   LVHAR        =      F    write LOCPOT, Hartree potential only
   LELF         =      F    write electronic localiz. function (ELF)
   LORBIT       =      0    0 simple, 1 ext, 2 COOP (PROOUT), +10 PAW based schemes


 Dipole corrections
   LMONO  =      F    monopole corrections only (constant potential shift)
   LDIPOL =      F    correct potential (dipole corrections)
   IDIPOL =      0    1-x, 2-y, 3-z, 4-all directions 
   EPSILON=  1.0000000 bulk dielectric constant

 LDA+U is selected, type is set to LDAUTYPE =  2
   angular momentum for each species LDAUL =    -1    2   -1   -1
   U (eV)           for each species LDAUU =   0.0  4.0  0.0  0.0
   J (eV)           for each species LDAUJ =   0.0  0.0  0.0  0.0
 Exchange correlation treatment:
   GGA     =    PE    GGA type
   LEXCH   =     8    internal setting for exchange type
   VOSKOWN=      0    Vosko Wilk Nusair interpolation
   LHFCALC =     F    Hartree Fock is set to
   LHFONE  =     F    Hartree Fock one center treatment
   AEXX    =    0.0000 exact exchange contribution

 Linear response parameters
   LEPSILON=     F    determine dielectric tensor
   LRPA    =     F    only Hartree local field effects (RPA)
   LNABLA  =     F    use nabla operator in PAW spheres
   LVEL    =     F    velocity operator in full k-point grid
   LINTERFAST=   F  fast interpolation
   KINTER  =     0    interpolate to denser k-point grid
   CSHIFT  =0.1000    complex shift for real part using Kramers Kronig
   OMEGAMAX=  -1.0    maximum frequency
   DEG_THRESHOLD= 0.2000000E-02 threshold for treating states as degnerate
   RTIME   =   -0.100 relaxation time in fs
  (WPLASMAI=    0.000 imaginary part of plasma frequency in eV, 0.658/RTIME)
   DFIELD  = 0.0000000 0.0000000 0.0000000 field for delta impulse in time
 
 Orbital magnetization related:
   ORBITALMAG=     F  switch on orbital magnetization
   LCHIMAG   =     F  perturbation theory with respect to B field
   DQ        =  0.001000  dq finite difference perturbation B field
   LLRAUG    =     F  two centre corrections for induced B field



--------------------------------------------------------------------------------------------------------


 Static calculation
 charge density and potential will be updated during run
 spin polarized calculation
 Variant of blocked Davidson
 Davidson routine will perform the subspace rotation
 perform sub-space diagonalisation
    after iterative eigenvector-optimisation
 modified Broyden-mixing scheme, WC =      100.0
 initial mixing is a Kerker type mixing with AMIX =  0.4000 and BMIX =      1.0000
 Hartree-type preconditioning will be used
 using additional bands          220
 reciprocal scheme for non local part
 use partial core corrections
 calculate Harris-corrections to forces 
   (improved forces if not selfconsistent)
 use gradient corrections 
 use of overlap-Matrix (Vanderbilt PP)
 Gauss-broadening in eV      SIGMA  =   0.05


--------------------------------------------------------------------------------------------------------


  energy-cutoff  :      650.00
  volume of cell :     1944.98
      direct lattice vectors                 reciprocal lattice vectors
    15.375637120  0.000000000  0.000000000     0.065037955  0.000000000  0.000000000
     0.000000000 11.247570840  0.082590060     0.000000000  0.088913005 -0.000669805
     0.000000000  0.084728700 11.247277940     0.000000000 -0.000652898  0.088915320

  length of vectors
    15.375637120 11.247874062 11.247597077     0.065037955  0.088915528  0.088917717


 
 k-points in units of 2pi/SCALE and weight: # No comment                            
   0.00000000  0.00000000  0.00000000       0.056
   0.03251898  0.00000000  0.00000000       0.056
   0.00000000  0.02963767 -0.00022327       0.111
   0.03251898  0.02963767 -0.00022327       0.111
   0.00000000 -0.00021763  0.02963844       0.111
   0.03251898 -0.00021763  0.02963844       0.111
   0.00000000  0.02942004  0.02941517       0.111
   0.03251898  0.02942004  0.02941517       0.111
   0.00000000 -0.02985530  0.02986171       0.111
   0.03251898 -0.02985530  0.02986171       0.111
 
 k-points in reciprocal lattice and weights: # No comment                            
   0.00000000  0.00000000  0.00000000       0.056
   0.50000000  0.00000000  0.00000000       0.056
   0.00000000  0.33333333 -0.00000000       0.111
   0.50000000  0.33333333 -0.00000000       0.111
   0.00000000 -0.00000000  0.33333333       0.111
   0.50000000 -0.00000000  0.33333333       0.111
   0.00000000  0.33333333  0.33333333       0.111
   0.50000000  0.33333333  0.33333333       0.111
   0.00000000 -0.33333333  0.33333333       0.111
   0.50000000 -0.33333333  0.33333333       0.111
 
 position of ions in fractional coordinates (direct lattice) 
   0.12525680  0.27553588  0.47453981
   0.62525680  0.27553588  0.47453981
   0.12525680  0.77553588  0.47453981
   0.62525680  0.77553588  0.47453981
   0.12525680  0.27553588  0.97453981
   0.62525680  0.27553588  0.97453981
   0.12525680  0.77553588  0.97453981
   0.62525680  0.77553588  0.97453981
   0.12525680  0.47446412  0.27546019
   0.62525680  0.47446412  0.27546019
   0.12525680  0.97446412  0.27546019
   0.62525680  0.97446412  0.27546019
   0.12525680  0.47446412  0.77546019
   0.62525680  0.47446412  0.77546019
   0.12525680  0.97446412  0.77546019
   0.62525680  0.97446412  0.77546019
   0.37474320  0.22446412  0.02546019
   0.87474320  0.22446412  0.02546019
   0.37474320  0.72446412  0.02546019
   0.87474320  0.72446412  0.02546019
   0.37474320  0.22446412  0.52546019
   0.87474320  0.22446412  0.52546019
   0.37474320  0.72446412  0.52546019
   0.87474320  0.72446412  0.52546019
   0.37474320  0.02553588  0.22453981
   0.87474320  0.02553588  0.22453981
   0.37474320  0.52553588  0.22453981
   0.87474320  0.52553588  0.22453981
   0.37474320  0.02553588  0.72453981
   0.87474320  0.02553588  0.72453981
   0.37474320  0.52553588  0.72453981
   0.87474320  0.52553588  0.72453981
   0.27600236  0.37500000  0.37500000
   0.77600236  0.37500000  0.37500000
   0.27600236  0.87500000  0.37500000
   0.77600236  0.87500000  0.37500000
   0.27600236  0.37500000  0.87500000
   0.77600236  0.37500000  0.87500000
   0.27600236  0.87500000  0.87500000
   0.77600236  0.87500000  0.87500000
   0.22399764  0.12500000  0.12500000
   0.72399764  0.12500000  0.12500000
   0.22399764  0.62500000  0.12500000
   0.72399764  0.62500000  0.12500000
   0.22399764  0.12500000  0.62500000
   0.72399764  0.12500000  0.62500000
   0.22399764  0.62500000  0.62500000
   0.72399764  0.62500000  0.62500000
   0.49994073  0.37500000  0.12500000
   0.99994073  0.37500000  0.12500000
   0.49994073  0.87500000  0.12500000
   0.99994073  0.87500000  0.12500000
   0.49994073  0.37500000  0.62500000
   0.99994073  0.37500000  0.62500000
   0.49994073  0.87500000  0.62500000
   0.99994073  0.87500000  0.62500000
   0.00005927  0.12500000  0.37500000
   0.50005927  0.12500000  0.37500000
   0.00005927  0.62500000  0.37500000
   0.50005927  0.62500000  0.37500000
   0.00005927  0.12500000  0.87500000
   0.50005927  0.12500000  0.87500000
   0.00005927  0.62500000  0.87500000
   0.50005927  0.62500000  0.87500000
   0.47912905  0.37500000  0.37500000
   0.97912905  0.37500000  0.37500000
   0.47912905  0.87500000  0.37500000
   0.97912905  0.87500000  0.37500000
   0.47912905  0.37500000  0.87500000
   0.97912905  0.37500000  0.87500000
   0.47912905  0.87500000  0.87500000
   0.97912905  0.87500000  0.87500000
   0.02087095  0.12500000  0.12500000
   0.52087095  0.12500000  0.12500000
   0.02087095  0.62500000  0.12500000
   0.52087095  0.62500000  0.12500000
   0.02087095  0.12500000  0.62500000
   0.52087095  0.12500000  0.62500000
   0.02087095  0.62500000  0.62500000
   0.52087095  0.62500000  0.62500000
   0.25003487  0.37500000  0.12588908
   0.75003487  0.37500000  0.12500000
   0.25003487  0.87500000  0.12500000
   0.75003487  0.87500000  0.12500000
   0.25003487  0.37500000  0.62500000
   0.75003487  0.37500000  0.62500000
   0.25003487  0.87500000  0.62500000
   0.75003487  0.87500000  0.62500000
   0.24996513  0.12500000  0.37500000
   0.74996513  0.12500000  0.37500000
   0.24996513  0.62500000  0.37500000
   0.74996513  0.62500000  0.37500000
   0.24996513  0.12500000  0.87500000
   0.74996513  0.12500000  0.87500000
   0.24996513  0.62500000  0.87500000
   0.74996513  0.62500000  0.87500000
   0.12546906  0.49959881  0.49958956
   0.62546906  0.49959881  0.49958956
   0.12546906  0.99959881  0.49958956
   0.62546906  0.99959881  0.49958956
   0.12546906  0.49959881  0.99958956
   0.62546906  0.49959881  0.99958956
   0.12546906  0.99959881  0.99958956
   0.62546906  0.99959881  0.99958956
   0.12546906  0.25040119  0.25041044
   0.62546906  0.25040119  0.25041044
   0.12546906  0.75040119  0.25041044
   0.62546906  0.75040119  0.25041044
   0.12546906  0.25040119  0.75041044
   0.62546906  0.25040119  0.75041044
   0.12546906  0.75040119  0.75041044
   0.62546906  0.75040119  0.75041044
   0.37453094  0.00040119  0.00041044
   0.87453094  0.00040119  0.00041044
   0.37453094  0.50040119  0.00041044
   0.87453094  0.50040119  0.00041044
   0.37453094  0.00040119  0.50041044
   0.87453094  0.00040119  0.50041044
   0.37453094  0.50040119  0.50041044
   0.87453094  0.50040119  0.50041044
   0.37453094  0.24959881  0.24958956
   0.87453094  0.24959881  0.24958956
   0.37453094  0.74959881  0.24958956
   0.87453094  0.74959881  0.24958956
   0.37453094  0.24959881  0.74958956
   0.87453094  0.24959881  0.74958956
   0.37453094  0.74959881  0.74958956
   0.87453094  0.74959881  0.74958956
   0.00000000  0.25000000  0.00000000
   0.50000000  0.25000000  0.00000000
   0.00000000  0.75000000  0.00000000
   0.50000000  0.75000000  0.00000000
   0.00000000  0.25000000  0.50000000
   0.50000000  0.25000000  0.50000000
   0.00000000  0.75000000  0.50000000
   0.50000000  0.75000000  0.50000000
   0.00000000  0.00000000  0.25000000
   0.50000000  0.00000000  0.25000000
   0.00000000  0.50000000  0.25000000
   0.50000000  0.50000000  0.25000000
   0.00000000  0.00000000  0.75000000
   0.50000000  0.00000000  0.75000000
   0.00000000  0.50000000  0.75000000
   0.50000000  0.50000000  0.75000000
   0.25000000  0.25000000  0.00000000
   0.75000000  0.25000000  0.00000000
   0.25000000  0.75000000  0.00000000
   0.75000000  0.75000000  0.00000000
   0.25000000  0.25000000  0.50000000
   0.75000000  0.25000000  0.50000000
   0.25000000  0.75000000  0.50000000
   0.75000000  0.75000000  0.50000000
   0.25000000  0.00000000  0.25000000
   0.75000000  0.00000000  0.25000000
   0.25000000  0.50000000  0.25000000
   0.75000000  0.50000000  0.25000000
   0.25000000  0.00000000  0.75000000
   0.75000000  0.00000000  0.75000000
   0.25000000  0.50000000  0.75000000
   0.75000000  0.50000000  0.75000000
 
 position of ions in cartesian coordinates  (Angst):
   1.92590310  3.13931647  5.36003766
   9.61372166  3.13931647  5.36003766
   1.92590310  8.76310189  5.40133269
   9.61372166  8.76310189  5.40133269
   1.92590310  3.18168082 10.98367663
   9.61372166  3.18168082 10.98367663
   1.92590310  8.80546624 11.02497166
   9.61372166  8.80546624 11.02497166
   1.92590310  5.35990818  3.13736334
   9.61372166  5.35990818  3.13736334
   1.92590310 10.98369360  3.17865837
   9.61372166 10.98369360  3.17865837
   1.92590310  5.40227253  8.76100231
   9.61372166  5.40227253  8.76100231
   1.92590310 11.02605795  8.80229734
   9.61372166 11.02605795  8.80229734
   5.76191546  2.52683330  0.30489634
  13.44973402  2.52683330  0.30489634
   5.76191546  8.15061872  0.34619137
  13.44973402  8.15061872  0.34619137
   5.76191546  2.56919765  5.92853531
  13.44973402  2.56919765  5.92853531
   5.76191546  8.19298307  5.96983034
  13.44973402  8.19298307  5.96983034
   5.76191546  0.30624159  2.52757066
  13.44973402  0.30624159  2.52757066
   5.76191546  5.93002701  2.56886569
  13.44973402  5.93002701  2.56886569
   5.76191546  0.34860594  8.15120963
  13.44973402  0.34860594  8.15120963
   5.76191546  5.97239136  8.19250466
  13.44973402  5.97239136  8.19250466
   4.24371213  4.24961233  4.24870050
  11.93153069  4.24961233  4.24870050
   4.24371213  9.87339775  4.28999553
  11.93153069  9.87339775  4.28999553
   4.24371213  4.29197668  9.87233947
  11.93153069  4.29197668  9.87233947
   4.24371213  9.91576210  9.91363450
  11.93153069  9.91576210  9.91363450
   3.44410643  1.41653744  1.41623350
  11.13192499  1.41653744  1.41623350
   3.44410643  7.04032286  1.45752853
  11.13192499  7.04032286  1.45752853
   3.44410643  1.45890179  7.03987247
  11.13192499  1.45890179  7.03987247
   3.44410643  7.08268721  7.08116750
  11.13192499  7.08268721  7.08116750
   7.68690717  4.22843015  1.43688101
  15.37472573  4.22843015  1.43688101
   7.68690717  9.85221557  1.47817605
  15.37472573  9.85221557  1.47817605
   7.68690717  4.27079450  7.06051999
  15.37472573  4.27079450  7.06051999
   7.68690717  9.89457992  7.10181502
  15.37472573  9.89457992  7.10181502
   0.00091139  1.43771962  4.22805298
   7.68872995  1.43771962  4.22805298
   0.00091139  7.06150504  4.26934801
   7.68872995  7.06150504  4.26934801
   0.00091139  1.48008397  9.85169195
   7.68872995  1.48008397  9.85169195
   0.00091139  7.10386939  9.89298699
   7.68872995  7.10386939  9.89298699
   7.36691433  4.24961233  4.24870050
  15.05473289  4.24961233  4.24870050
   7.36691433  9.87339775  4.28999553
  15.05473289  9.87339775  4.28999553
   7.36691433  4.29197668  9.87233947
  15.05473289  4.29197668  9.87233947
   7.36691433  9.91576210  9.91363450
  15.05473289  9.91576210  9.91363450
   0.32090423  1.41653744  1.41623350
   8.00872279  1.41653744  1.41623350
   0.32090423  7.04032286  1.45752853
   8.00872279  7.04032286  1.45752853
   0.32090423  1.45890179  7.03987247
   8.00872279  1.45890179  7.03987247
   0.32090423  7.08268721  7.08116750
   8.00872279  7.08268721  7.08116750
   3.84444535  4.22850548  1.44688073
  11.53226391  4.22843015  1.43688101
   3.84444535  9.85221557  1.47817605
  11.53226391  9.85221557  1.47817605
   3.84444535  4.27079450  7.06051999
  11.53226391  4.27079450  7.06051999
   3.84444535  9.89457992  7.10181502
  11.53226391  9.89457992  7.10181502
   3.84337321  1.43771962  4.22805298
  11.53119177  1.43771962  4.22805298
   3.84337321  7.06150504  4.26934801
  11.53119177  7.06150504  4.26934801
   3.84337321  1.48008397  9.85169195
  11.53119177  1.48008397  9.85169195
   3.84337321  7.10386939  9.89298699
  11.53119177  7.10386939  9.89298699
   1.92916681  5.66160258  5.66028448
   9.61698537  5.66160258  5.66028448
   1.92916681 11.28538800  5.70157951
   9.61698537 11.28538800  5.70157951
   1.92916681  5.70396693 11.28392345
   9.61698537  5.70396693 11.28392345
   1.92916681 11.32775235 11.32521848
   9.61698537 11.32775235 11.32521848
   1.92916681  2.83762207  2.83711652
   9.61698537  2.83762207  2.83711652
   1.92916681  8.46140749  2.87841155
   9.61698537  8.46140749  2.87841155
   1.92916681  2.87998642  8.46075549
   9.61698537  2.87998642  8.46075549
   1.92916681  8.50377184  8.50205052
   9.61698537  8.50377184  8.50205052
   5.75865175  0.00454719  0.00464952
  13.44647031  0.00454719  0.00464952
   5.75865175  5.62833261  0.04594455
  13.44647031  5.62833261  0.04594455
   5.75865175  0.04691154  5.62828849
  13.44647031  0.04691154  5.62828849
   5.75865175  5.67069696  5.66958352
  13.44647031  5.67069696  5.66958352
   5.75865175  2.82852770  2.82781748
  13.44647031  2.82852770  2.82781748
   5.75865175  8.45231312  2.86911251
  13.44647031  8.45231312  2.86911251
   5.75865175  2.87089205  8.45145645
  13.44647031  2.87089205  8.45145645
   5.75865175  8.49467747  8.49275148
  13.44647031  8.49467747  8.49275148
   0.00000000  2.81189271  0.02064752
   7.68781856  2.81189271  0.02064752
   0.00000000  8.43567813  0.06194255
   7.68781856  8.43567813  0.06194255
   0.00000000  2.85425706  5.64428649
   7.68781856  2.85425706  5.64428649
   0.00000000  8.47804248  5.68558151
   7.68781856  8.47804248  5.68558151
   0.00000000  0.02118218  2.81181949
   7.68781856  0.02118218  2.81181949
   0.00000000  5.64496759  2.85311452
   7.68781856  5.64496759  2.85311452
   0.00000000  0.06354653  8.43545845
   7.68781856  0.06354653  8.43545845
   0.00000000  5.68733194  8.47675348
   7.68781856  5.68733194  8.47675348
   3.84390928  2.81189271  0.02064752
  11.53172784  2.81189271  0.02064752
   3.84390928  8.43567813  0.06194255
  11.53172784  8.43567813  0.06194255
   3.84390928  2.85425706  5.64428649
  11.53172784  2.85425706  5.64428649
   3.84390928  8.47804248  5.68558151
  11.53172784  8.47804248  5.68558151
   3.84390928  0.02118218  2.81181949
  11.53172784  0.02118218  2.81181949
   3.84390928  5.64496759  2.85311452
  11.53172784  5.64496759  2.85311452
   3.84390928  0.06354653  8.43545845
  11.53172784  0.06354653  8.43545845
   3.84390928  5.68733194  8.47675348
  11.53172784  5.68733194  8.47675348
 


--------------------------------------------------------------------------------------------------------


 k-point  1 :   0.0000 0.0000 0.0000  plane waves:   73163
 k-point  2 :   0.5000 0.0000 0.0000  plane waves:   73208
 k-point  3 :   0.0000 0.3333-0.0000  plane waves:   73197
 k-point  4 :   0.5000 0.3333-0.0000  plane waves:   73182
 k-point  5 :   0.0000-0.0000 0.3333  plane waves:   73195
 k-point  6 :   0.5000-0.0000 0.3333  plane waves:   73178
 k-point  7 :   0.0000 0.3333 0.3333  plane waves:   73141
 k-point  8 :   0.5000 0.3333 0.3333  plane waves:   73198
 k-point  9 :   0.0000-0.3333 0.3333  plane waves:   73095
 k-point 10 :   0.5000-0.3333 0.3333  plane waves:   73224

 maximum and minimum number of plane-waves per node :     12268    12150

 maximum number of plane-waves:     73224
 maximum index in each direction: 
   IXMAX=   31   IYMAX=   23   IZMAX=   23
   IXMIN=  -32   IYMIN=  -23   IZMIN=  -23


 parallel 3D FFT for wavefunctions:
    minimum data exchange during FFTs selected (reduces bandwidth)
 parallel 3D FFT for charge:
    minimum data exchange during FFTs selected (reduces bandwidth)


 total amount of memory used by VASP MPI-rank0   985864. kBytes
=======================================================================

   base      :      30000. kBytes
   nonl-proj :     102069. kBytes
   fftplans  :      64934. kBytes
   grid      :      55554. kBytes
   one-center:        839. kBytes
   wavefun   :     732468. kBytes
 
     INWAV:  cpu time    0.0000: real time    0.0000
 Broyden mixing: mesh for mixing (old mesh)
   NGX = 63   NGY = 47   NGZ = 47
  (NGX  =256   NGY  =192   NGZ  =192)
  gives a total of 139167 points

 initial charge density was supplied:
 number of electron    1024.0000024 magnetization     128.0000040
 keeping initial charge density in first step


--------------------------------------------------------------------------------------------------------


 Maximum index for augmentation-charges         8015 (set IRDMAX)


--------------------------------------------------------------------------------------------------------


 First call to EWALD:  gamma=   0.142
 Maximum number of real-space cells 2x 3x 3
 Maximum number of reciprocal cells 3x 3x 3

    FEWALD:  cpu time    0.0373: real time    0.0435


--------------------------------------- Iteration      1(   1)  ---------------------------------------


    POTLOK:  cpu time    0.6663: real time    0.6798
    SETDIJ:  cpu time    1.6762: real time    1.7030
     EDDAV:  cpu time  360.5092: real time  367.5809
       DOS:  cpu time    0.0046: real time    0.0047
    --------------------------------------------
      LOOP:  cpu time  362.8564: real time  369.9683

 eigenvalue-minimisations  : 30712
 total energy-change (2. order) : 0.1347190E+05  (-0.5518320E+05)
 number of electron    1024.0000024 magnetization     128.0000040
 augmentation part     1024.0000024 magnetization     128.0000040

 Free energy of the ion-electron system (eV)
  ---------------------------------------------------
  alpha Z        PSCENC =      2580.95227926
  Ewald energy   TEWEN  =    -67508.64773335
  -Hartree energ DENC   =    -35943.98870980
  -exchange      EXHF   =         0.00000000
  -V(xc)+E(xc)   XCENC  =      4397.38376864
  PAW double counting   =    108731.45464712  -112348.03830957
  entropy T*S    EENTRO =        -0.03810887
  eigenvalues    EBANDS =      -746.46014705
  atomic energy  EATOM  =    114309.28505226
  Solvation  Ediel_sol  =         0.00000000
  ---------------------------------------------------
  free energy    TOTEN  =     13471.90273865 eV

  energy without entropy =    13471.94084752  energy(sigma->0) =    13471.92179308


--------------------------------------------------------------------------------------------------------




--------------------------------------- Iteration      1(   2)  ---------------------------------------


     EDDAV:  cpu time  346.0963: real time  353.2712
       DOS:  cpu time    0.0046: real time    0.0046
    --------------------------------------------
      LOOP:  cpu time  346.1008: real time  353.2758

 eigenvalue-minimisations  : 29280
 total energy-change (2. order) :-0.1205994E+05  (-0.1121282E+05)
 number of electron    1024.0000024 magnetization     128.0000040
 augmentation part     1024.0000024 magnetization     128.0000040

 Free energy of the ion-electron system (eV)
  ---------------------------------------------------
  alpha Z        PSCENC =      2580.95227926
  Ewald energy   TEWEN  =    -67508.64773335
  -Hartree energ DENC   =    -35943.98870980
  -exchange      EXHF   =         0.00000000
  -V(xc)+E(xc)   XCENC  =      4397.38376864
  PAW double counting   =    108731.45464712  -112348.03830957
  entropy T*S    EENTRO =        -0.06557786
  eigenvalues    EBANDS =    -12806.37458990
  atomic energy  EATOM  =    114309.28505226
  Solvation  Ediel_sol  =         0.00000000
  ---------------------------------------------------
  free energy    TOTEN  =      1411.96082681 eV

  energy without entropy =     1412.02640467  energy(sigma->0) =     1411.99361574


--------------------------------------------------------------------------------------------------------




--------------------------------------- Iteration      1(   3)  ---------------------------------------


     EDDAV:  cpu time  379.3229: real time  387.4282
       DOS:  cpu time    0.0016: real time    0.0016
    --------------------------------------------
      LOOP:  cpu time  379.3246: real time  387.4298

 eigenvalue-minimisations  : 32896
 total energy-change (2. order) :-0.1937658E+04  (-0.1739028E+04)
 number of electron    1024.0000024 magnetization     128.0000040
 augmentation part     1024.0000024 magnetization     128.0000040

 Free energy of the ion-electron system (eV)
  ---------------------------------------------------
  alpha Z        PSCENC =      2580.95227926
  Ewald energy   TEWEN  =    -67508.64773335
  -Hartree energ DENC   =    -35943.98870980
  -exchange      EXHF   =         0.00000000
  -V(xc)+E(xc)   XCENC  =      4397.38376864
  PAW double counting   =    108731.45464712  -112348.03830957
  entropy T*S    EENTRO =        -0.00000000
  eigenvalues    EBANDS =    -14744.09798997
  atomic energy  EATOM  =    114309.28505226
  Solvation  Ediel_sol  =         0.00000000
  ---------------------------------------------------
  free energy    TOTEN  =      -525.69699540 eV

  energy without entropy =     -525.69699540  energy(sigma->0) =     -525.69699540


--------------------------------------------------------------------------------------------------------




--------------------------------------- Iteration      1(   4)  ---------------------------------------


     EDDAV:  cpu time  435.1972: real time  444.1730
       DOS:  cpu time    0.0020: real time    0.0020
    --------------------------------------------
      LOOP:  cpu time  435.1992: real time  444.1750

 eigenvalue-minimisations  : 39312
 total energy-change (2. order) :-0.2631034E+03  (-0.2602315E+03)
 number of electron    1024.0000024 magnetization     128.0000040
 augmentation part     1024.0000024 magnetization     128.0000040

 Free energy of the ion-electron system (eV)
  ---------------------------------------------------
  alpha Z        PSCENC =      2580.95227926
  Ewald energy   TEWEN  =    -67508.64773335
  -Hartree energ DENC   =    -35943.98870980
  -exchange      EXHF   =         0.00000000
  -V(xc)+E(xc)   XCENC  =      4397.38376864
  PAW double counting   =    108731.45464712  -112348.03830957
  entropy T*S    EENTRO =        -0.00000000
  eigenvalues    EBANDS =    -15007.20135518
  atomic energy  EATOM  =    114309.28505226
  Solvation  Ediel_sol  =         0.00000000
  ---------------------------------------------------
  free energy    TOTEN  =      -788.80036062 eV

  energy without entropy =     -788.80036062  energy(sigma->0) =     -788.80036062


--------------------------------------------------------------------------------------------------------




--------------------------------------- Iteration      1(   5)  ---------------------------------------


     EDDAV:  cpu time  549.1649: real time  561.0570
       DOS:  cpu time    0.0021: real time    0.0077
    CHARGE:  cpu time    8.3593: real time    8.5596
    MIXING:  cpu time    0.0294: real time    0.0294
    --------------------------------------------
      LOOP:  cpu time  557.5557: real time  569.6537

 eigenvalue-minimisations  : 51416
 total energy-change (2. order) :-0.3174461E+02  (-0.3149017E+02)
 number of electron    1024.0000024 magnetization     128.0000032
 augmentation part      329.1963355 magnetization      84.1875316

 Broyden mixing:
  rms(total) = 0.32186E+00    rms(broyden)= 0.32151E+00
  rms(prec ) = 0.32536E+00
  weight for this iteration     100.00

 Free energy of the ion-electron system (eV)
  ---------------------------------------------------
  alpha Z        PSCENC =      2580.95227926
  Ewald energy   TEWEN  =    -67508.64773335
  -Hartree energ DENC   =    -35943.98870980
  -exchange      EXHF   =         0.00000000
  -V(xc)+E(xc)   XCENC  =      4397.38376864
  PAW double counting   =    108731.45464712  -112348.03830957
  entropy T*S    EENTRO =        -0.00000000
  eigenvalues    EBANDS =    -15038.94596243
  atomic energy  EATOM  =    114309.28505226
  Solvation  Ediel_sol  =         0.00000000
  ---------------------------------------------------
  free energy    TOTEN  =      -820.54496786 eV

  energy without entropy =     -820.54496786  energy(sigma->0) =     -820.54496786


--------------------------------------------------------------------------------------------------------




--------------------------------------- Iteration      1(   6)  ---------------------------------------


    POTLOK:  cpu time    0.6875: real time    0.7357
    SETDIJ:  cpu time    1.6348: real time    1.6739
     EDDAV:  cpu time  448.7797: real time  458.9658
       DOS:  cpu time    0.0017: real time    0.0017
    CHARGE:  cpu time    8.4609: real time    8.6415
    MIXING:  cpu time    0.0295: real time    0.0302
    --------------------------------------------
      LOOP:  cpu time  459.5942: real time  470.0487

 eigenvalue-minimisations  : 40848
 total energy-change (2. order) :-0.1448309E+01  (-0.1492977E+01)
 number of electron    1024.0000024 magnetization     128.0000028
 augmentation part      327.4398579 magnetization      84.3737115

 Broyden mixing:
  rms(total) = 0.13591E+00    rms(broyden)= 0.13559E+00
  rms(prec ) = 0.13661E+00
  weight for this iteration     100.00

 eigenvalues of (default mixing * dielectric matrix)
  average eigenvalue GAMMA=   0.6654
  0.6654

 Free energy of the ion-electron system (eV)
  ---------------------------------------------------
  alpha Z        PSCENC =      2580.95227926
  Ewald energy   TEWEN  =    -67508.64773335
  -Hartree energ DENC   =    -35935.60979519
  -exchange      EXHF   =         0.00000000
  -V(xc)+E(xc)   XCENC  =      4396.13514611
  PAW double counting   =    108545.12618092  -112156.10570900
  entropy T*S    EENTRO =        -0.00000000
  eigenvalues    EBANDS =    -15053.12869830
  atomic energy  EATOM  =    114309.28505226
  Solvation  Ediel_sol  =         0.00000000
  ---------------------------------------------------
  free energy    TOTEN  =      -821.99327730 eV

  energy without entropy =     -821.99327730  energy(sigma->0) =     -821.99327730


--------------------------------------------------------------------------------------------------------




--------------------------------------- Iteration      1(   7)  ---------------------------------------


    POTLOK:  cpu time    0.6850: real time    0.6870
    SETDIJ:  cpu time    1.6789: real time    1.6980
     EDDAV:  cpu time  503.9952: real time  515.3635
       DOS:  cpu time    0.0021: real time    0.0021
    CHARGE:  cpu time    8.5874: real time    8.7250
    MIXING:  cpu time    0.0354: real time    0.0361
    --------------------------------------------
      LOOP:  cpu time  514.9840: real time  526.5116

 eigenvalue-minimisations  : 46824
 total energy-change (2. order) :-0.7344516E-01  (-0.7218999E-01)
 number of electron    1024.0000024 magnetization     128.0000026
 augmentation part      327.1430094 magnetization      84.3022615

 Broyden mixing:
  rms(total) = 0.97729E-01    rms(broyden)= 0.97606E-01
  rms(prec ) = 0.99121E-01
  weight for this iteration     100.00

 eigenvalues of (default mixing * dielectric matrix)
  average eigenvalue GAMMA=   0.5932
  0.5932  0.5932

 Free energy of the ion-electron system (eV)
  ---------------------------------------------------
  alpha Z        PSCENC =      2580.95227926
  Ewald energy   TEWEN  =    -67508.64773335
  -Hartree energ DENC   =    -35938.23554719
  -exchange      EXHF   =         0.00000000
  -V(xc)+E(xc)   XCENC  =      4396.47717497
  PAW double counting   =    108587.72264950  -112200.14625909
  entropy T*S    EENTRO =        -0.00000000
  eigenvalues    EBANDS =    -15049.47433880
  atomic energy  EATOM  =    114309.28505226
  Solvation  Ediel_sol  =         0.00000000
  ---------------------------------------------------
  free energy    TOTEN  =      -822.06672245 eV

  energy without entropy =     -822.06672245  energy(sigma->0) =     -822.06672245


--------------------------------------------------------------------------------------------------------




--------------------------------------- Iteration      1(   8)  ---------------------------------------


    POTLOK:  cpu time    0.6918: real time    0.7080
    SETDIJ:  cpu time    1.6685: real time    1.6897
     EDDAV:  cpu time  486.8775: real time  497.6285
       DOS:  cpu time    0.0018: real time    0.0018
    CHARGE:  cpu time    8.6176: real time    8.6643
    MIXING:  cpu time    0.0410: real time    0.0413
    --------------------------------------------
      LOOP:  cpu time  497.8981: real time  508.7336

 eigenvalue-minimisations  : 44928
 total energy-change (2. order) :-0.1605857E-03  (-0.2863128E-02)
 number of electron    1024.0000024 magnetization     128.0000025
 augmentation part      327.0907804 magnetization      84.2875151

 Broyden mixing:
  rms(total) = 0.84951E-01    rms(broyden)= 0.84940E-01
  rms(prec ) = 0.86310E-01
  weight for this iteration     100.00

 eigenvalues of (default mixing * dielectric matrix)
  average eigenvalue GAMMA=   0.5238
  0.5901  0.5901  0.3911

 Free energy of the ion-electron system (eV)
  ---------------------------------------------------
  alpha Z        PSCENC =      2580.95227926
  Ewald energy   TEWEN  =    -67508.64773335
  -Hartree energ DENC   =    -35939.09552741
  -exchange      EXHF   =         0.00000000
  -V(xc)+E(xc)   XCENC  =      4396.62048930
  PAW double counting   =    108613.19563340  -112226.34717099
  entropy T*S    EENTRO =        -0.00000000
  eigenvalues    EBANDS =    -15048.02990550
  atomic energy  EATOM  =    114309.28505226
  Solvation  Ediel_sol  =         0.00000000
  ---------------------------------------------------
  free energy    TOTEN  =      -822.06688304 eV

  energy without entropy =     -822.06688304  energy(sigma->0) =     -822.06688304


--------------------------------------------------------------------------------------------------------




--------------------------------------- Iteration      1(   9)  ---------------------------------------


    POTLOK:  cpu time    0.6890: real time    0.6904
    SETDIJ:  cpu time    1.6714: real time    1.6844
     EDDAV:  cpu time  515.9284: real time  527.1776
       DOS:  cpu time    0.0018: real time    0.0021
    CHARGE:  cpu time    8.4988: real time    8.6433
    MIXING:  cpu time    0.0315: real time    0.0333
    --------------------------------------------
      LOOP:  cpu time  526.8208: real time  538.2311

 eigenvalue-minimisations  : 48176
 total energy-change (2. order) : 0.1119895E-02  (-0.1732227E-03)
 number of electron    1024.0000024 magnetization     128.0000021
 augmentation part      327.0999458 magnetization      84.2821772

 Broyden mixing:
  rms(total) = 0.77032E-01    rms(broyden)= 0.77032E-01
  rms(prec ) = 0.78249E-01
  weight for this iteration     100.00

 eigenvalues of (default mixing * dielectric matrix)
  average eigenvalue GAMMA=   0.8757
  1.2042  1.2042  0.5472  0.5472

 Free energy of the ion-electron system (eV)
  ---------------------------------------------------
  alpha Z        PSCENC =      2580.95227926
  Ewald energy   TEWEN  =    -67508.64773335
  -Hartree energ DENC   =    -35939.40217855
  -exchange      EXHF   =         0.00000000
  -V(xc)+E(xc)   XCENC  =      4396.69066370
  PAW double counting   =    108622.25089951  -112235.71546799
  entropy T*S    EENTRO =        -0.00000000
  eigenvalues    EBANDS =    -15047.47927798
  atomic energy  EATOM  =    114309.28505226
  Solvation  Ediel_sol  =         0.00000000
  ---------------------------------------------------
  free energy    TOTEN  =      -822.06576314 eV

  energy without entropy =     -822.06576314  energy(sigma->0) =     -822.06576314


--------------------------------------------------------------------------------------------------------




--------------------------------------- Iteration      1(  10)  ---------------------------------------


    POTLOK:  cpu time    0.6636: real time    0.6776
    SETDIJ:  cpu time    1.6682: real time    1.6862
     EDDAV:  cpu time  542.9521: real time  554.9719
       DOS:  cpu time    0.0018: real time    0.0018
    CHARGE:  cpu time    8.4296: real time    8.6021
    MIXING:  cpu time    0.0263: real time    0.0263
    --------------------------------------------
      LOOP:  cpu time  553.7417: real time  565.9659

 eigenvalue-minimisations  : 50864
 total energy-change (2. order) : 0.3233626E-02  (-0.1740717E-03)
 number of electron    1024.0000024 magnetization     128.0000016
 augmentation part      327.1316874 magnetization      84.2794834

 Broyden mixing:
  rms(total) = 0.44945E-01    rms(broyden)= 0.44945E-01
  rms(prec ) = 0.45508E-01
  weight for this iteration     100.00

 eigenvalues of (default mixing * dielectric matrix)
  average eigenvalue GAMMA=   0.9058
  1.4270  1.4270  0.5950  0.5950  0.4849

 Free energy of the ion-electron system (eV)
  ---------------------------------------------------
  alpha Z        PSCENC =      2580.95227926
  Ewald energy   TEWEN  =    -67508.64773335
  -Hartree energ DENC   =    -35941.44894123
  -exchange      EXHF   =         0.00000000
  -V(xc)+E(xc)   XCENC  =      4397.01949295
  PAW double counting   =    108662.38851999  -112277.26624090
  entropy T*S    EENTRO =        -0.00000000
  eigenvalues    EBANDS =    -15044.34495848
  atomic energy  EATOM  =    114309.28505226
  Solvation  Ediel_sol  =         0.00000000
  ---------------------------------------------------
  free energy    TOTEN  =      -822.06252952 eV

  energy without entropy =     -822.06252952  energy(sigma->0) =     -822.06252952


--------------------------------------------------------------------------------------------------------




--------------------------------------- Iteration      1(  11)  ---------------------------------------


    POTLOK:  cpu time    0.6791: real time    0.6794
    SETDIJ:  cpu time    1.6868: real time    1.6872
     EDDAV:  cpu time  520.0340: real time  530.3251
       DOS:  cpu time    0.0024: real time    0.0024
    CHARGE:  cpu time    8.6318: real time    8.6932
    MIXING:  cpu time    0.0328: real time    0.0327
    --------------------------------------------
      LOOP:  cpu time  531.0667: real time  541.4200

 eigenvalue-minimisations  : 48568
 total energy-change (2. order) : 0.1098439E-02  (-0.2414198E-03)
 number of electron    1024.0000024 magnetization     128.0000013
 augmentation part      327.1672984 magnetization      84.2788632

 Broyden mixing:
  rms(total) = 0.14692E-01    rms(broyden)= 0.14688E-01
  rms(prec ) = 0.14734E-01
  weight for this iteration     100.00

 eigenvalues of (default mixing * dielectric matrix)
  average eigenvalue GAMMA=   0.9538
  1.5165  1.5165  0.7760  0.7760  0.6168  0.5210

 Free energy of the ion-electron system (eV)
  ---------------------------------------------------
  alpha Z        PSCENC =      2580.95227926
  Ewald energy   TEWEN  =    -67508.64773335
  -Hartree energ DENC   =    -35943.48248124
  -exchange      EXHF   =         0.00000000
  -V(xc)+E(xc)   XCENC  =      4397.32955475
  PAW double counting   =    108705.13933487  -112321.41420820
  entropy T*S    EENTRO =        -0.00000000
  eigenvalues    EBANDS =    -15041.22322943
  atomic energy  EATOM  =    114309.28505226
  Solvation  Ediel_sol  =         0.00000000
  ---------------------------------------------------
  free energy    TOTEN  =      -822.06143108 eV

  energy without entropy =     -822.06143108  energy(sigma->0) =     -822.06143108


--------------------------------------------------------------------------------------------------------




--------------------------------------- Iteration      1(  12)  ---------------------------------------


    POTLOK:  cpu time    0.6771: real time    0.6882
    SETDIJ:  cpu time    1.6610: real time    1.6876
     EDDAV:  cpu time  459.5738: real time  469.7882
       DOS:  cpu time    0.0054: real time    0.0054
    CHARGE:  cpu time    8.4289: real time    8.6946
    MIXING:  cpu time    0.0411: real time    0.0413
    --------------------------------------------
      LOOP:  cpu time  470.3873: real time  480.9053

 eigenvalue-minimisations  : 42152
 total energy-change (2. order) :-0.4485820E-04  (-0.4835924E-04)
 number of electron    1024.0000024 magnetization     128.0000011
 augmentation part      327.1751812 magnetization      84.2794833

 Broyden mixing:
  rms(total) = 0.77789E-02    rms(broyden)= 0.77779E-02
  rms(prec ) = 0.79312E-02
  weight for this iteration     100.00

 eigenvalues of (default mixing * dielectric matrix)
  average eigenvalue GAMMA=   1.0147
  2.1123  1.1021  1.1021  1.1115  0.6078  0.5335  0.5335

 Free energy of the ion-electron system (eV)
  ---------------------------------------------------
  alpha Z        PSCENC =      2580.95227926
  Ewald energy   TEWEN  =    -67508.64773335
  -Hartree energ DENC   =    -35944.08951366
  -exchange      EXHF   =         0.00000000
  -V(xc)+E(xc)   XCENC  =      4397.42817704
  PAW double counting   =    108722.78330708  -112339.49179496
  entropy T*S    EENTRO =        -0.00000000
  eigenvalues    EBANDS =    -15040.28124960
  atomic energy  EATOM  =    114309.28505226
  Solvation  Ediel_sol  =         0.00000000
  ---------------------------------------------------
  free energy    TOTEN  =      -822.06147594 eV

  energy without entropy =     -822.06147594  energy(sigma->0) =     -822.06147594


--------------------------------------------------------------------------------------------------------




--------------------------------------- Iteration      1(  13)  ---------------------------------------


    POTLOK:  cpu time    0.7185: real time    0.7243
    SETDIJ:  cpu time    1.6571: real time    1.6703
     EDDAV:  cpu time  458.5017: real time  469.1660
       DOS:  cpu time    0.0017: real time    0.0017
    CHARGE:  cpu time    8.6286: real time    8.7715
    MIXING:  cpu time    0.0429: real time    0.0429
    --------------------------------------------
      LOOP:  cpu time  469.5505: real time  480.3767

 eigenvalue-minimisations  : 41872
 total energy-change (2. order) :-0.1008924E-04  (-0.1503604E-04)
 number of electron    1024.0000024 magnetization     128.0000010
 augmentation part      327.1834040 magnetization      84.2790320

 Broyden mixing:
  rms(total) = 0.58610E-02    rms(broyden)= 0.58597E-02
  rms(prec ) = 0.60410E-02
  weight for this iteration     100.00

 eigenvalues of (default mixing * dielectric matrix)
  average eigenvalue GAMMA=   1.0870
  2.3066  1.4596  1.4596  1.0791  0.6608  0.6608  0.5733  0.4963

 Free energy of the ion-electron system (eV)
  ---------------------------------------------------
  alpha Z        PSCENC =      2580.95227926
  Ewald energy   TEWEN  =    -67508.64773335
  -Hartree energ DENC   =    -35944.05597616
  -exchange      EXHF   =         0.00000000
  -V(xc)+E(xc)   XCENC  =      4397.42037157
  PAW double counting   =    108726.65907139  -112343.32246148
  entropy T*S    EENTRO =        -0.00000000
  eigenvalues    EBANDS =    -15040.35208952
  atomic energy  EATOM  =    114309.28505226
  Solvation  Ediel_sol  =         0.00000000
  ---------------------------------------------------
  free energy    TOTEN  =      -822.06148603 eV

  energy without entropy =     -822.06148603  energy(sigma->0) =     -822.06148603


--------------------------------------------------------------------------------------------------------




--------------------------------------- Iteration      1(  14)  ---------------------------------------


    POTLOK:  cpu time    0.6756: real time    0.6803
    SETDIJ:  cpu time    1.7010: real time    1.7035
     EDDAV:  cpu time  429.4388: real time  438.6498
       DOS:  cpu time    0.0017: real time    0.0017
    CHARGE:  cpu time    8.4088: real time    8.5875
    MIXING:  cpu time    0.0314: real time    0.0389
    --------------------------------------------
      LOOP:  cpu time  440.2573: real time  449.6617

 eigenvalue-minimisations  : 38240
 total energy-change (2. order) : 0.9988536E-05  (-0.1154449E-05)
 number of electron    1024.0000024 magnetization     128.0000009
 augmentation part      327.1821616 magnetization      84.2787951

 Broyden mixing:
  rms(total) = 0.29623E-02    rms(broyden)= 0.29616E-02
  rms(prec ) = 0.30702E-02
  weight for this iteration     100.00

 eigenvalues of (default mixing * dielectric matrix)
  average eigenvalue GAMMA=   1.1118
  2.3634  1.5652  1.5652  1.1769  0.7987  0.7987  0.6646  0.5598  0.5137

 Free energy of the ion-electron system (eV)
  ---------------------------------------------------
  alpha Z        PSCENC =      2580.95227926
  Ewald energy   TEWEN  =    -67508.64773335
  -Hartree energ DENC   =    -35944.00240673
  -exchange      EXHF   =         0.00000000
  -V(xc)+E(xc)   XCENC  =      4397.39838448
  PAW double counting   =    108729.16444593  -112345.73914041
  entropy T*S    EENTRO =        -0.00000000
  eigenvalues    EBANDS =    -15040.47235747
  atomic energy  EATOM  =    114309.28505226
  Solvation  Ediel_sol  =         0.00000000
  ---------------------------------------------------
  free energy    TOTEN  =      -822.06147604 eV

  energy without entropy =     -822.06147604  energy(sigma->0) =     -822.06147604


--------------------------------------------------------------------------------------------------------




--------------------------------------- Iteration      1(  15)  ---------------------------------------


    POTLOK:  cpu time    0.6578: real time    0.6840
    SETDIJ:  cpu time    1.6352: real time    1.6764
     EDDAV:  cpu time  416.0244: real time  424.7909
       DOS:  cpu time    0.0021: real time    0.0021
    CHARGE:  cpu time    8.4213: real time    8.6756
    MIXING:  cpu time    0.0527: real time    0.0538
    --------------------------------------------
      LOOP:  cpu time  426.7936: real time  435.8828

 eigenvalue-minimisations  : 37216
 total energy-change (2. order) :-0.6104077E-05  (-0.2964040E-05)
 number of electron    1024.0000024 magnetization     128.0000008
 augmentation part      327.1785855 magnetization      84.2792106

 Broyden mixing:
  rms(total) = 0.10097E-02    rms(broyden)= 0.10076E-02
  rms(prec ) = 0.10301E-02
  weight for this iteration     100.00

 eigenvalues of (default mixing * dielectric matrix)
  average eigenvalue GAMMA=   1.1130
  2.6994  1.6439  1.6439  0.9186  0.9186  0.9378  0.6545  0.6545  0.5048  0.5540

 Free energy of the ion-electron system (eV)
  ---------------------------------------------------
  alpha Z        PSCENC =      2580.95227926
  Ewald energy   TEWEN  =    -67508.64773335
  -Hartree energ DENC   =    -35944.01138450
  -exchange      EXHF   =         0.00000000
  -V(xc)+E(xc)   XCENC  =      4397.38536672
  PAW double counting   =    108730.65164946  -112347.19191065
  entropy T*S    EENTRO =        -0.00000000
  eigenvalues    EBANDS =    -15040.48480133
  atomic energy  EATOM  =    114309.28505226
  Solvation  Ediel_sol  =         0.00000000
  ---------------------------------------------------
  free energy    TOTEN  =      -822.06148214 eV

  energy without entropy =     -822.06148214  energy(sigma->0) =     -822.06148214


--------------------------------------------------------------------------------------------------------




--------------------------------------- Iteration      1(  16)  ---------------------------------------


    POTLOK:  cpu time    0.6763: real time    0.6938
    SETDIJ:  cpu time    1.6797: real time    1.6959
     EDDAV:  cpu time  471.8797: real time  483.3023
       DOS:  cpu time    0.0021: real time    0.0025
    CHARGE:  cpu time    8.3314: real time    8.5776
    MIXING:  cpu time    0.0299: real time    0.0395
    --------------------------------------------
      LOOP:  cpu time  482.5991: real time  494.3117

 eigenvalue-minimisations  : 43208
 total energy-change (2. order) :-0.3124092E-05  (-0.9916497E-06)
 number of electron    1024.0000024 magnetization     128.0000008
 augmentation part      327.1766021 magnetization      84.2793024

 Broyden mixing:
  rms(total) = 0.54767E-03    rms(broyden)= 0.54351E-03
  rms(prec ) = 0.55671E-03
  weight for this iteration     100.00

 eigenvalues of (default mixing * dielectric matrix)
  average eigenvalue GAMMA=   1.1079
  2.7360  1.6695  1.6695  1.0120  1.0120  0.9670  0.7189  0.7189  0.6351  0.5138
  0.5347

 Free energy of the ion-electron system (eV)
  ---------------------------------------------------
  alpha Z        PSCENC =      2580.95227926
  Ewald energy   TEWEN  =    -67508.64773335
  -Hartree energ DENC   =    -35944.01329252
  -exchange      EXHF   =         0.00000000
  -V(xc)+E(xc)   XCENC  =      4397.38547580
  PAW double counting   =    108731.34977725  -112347.90969887
  entropy T*S    EENTRO =        -0.00000000
  eigenvalues    EBANDS =    -15040.46334508
  atomic energy  EATOM  =    114309.28505226
  Solvation  Ediel_sol  =         0.00000000
  ---------------------------------------------------
  free energy    TOTEN  =      -822.06148527 eV

  energy without entropy =     -822.06148527  energy(sigma->0) =     -822.06148527


--------------------------------------------------------------------------------------------------------




--------------------------------------- Iteration      1(  17)  ---------------------------------------


    POTLOK:  cpu time    0.6643: real time    0.6645
    SETDIJ:  cpu time    1.6884: real time    1.6890
     EDDAV:  cpu time  395.8515: real time  403.8646
       DOS:  cpu time    0.0062: real time    0.0062
    CHARGE:  cpu time    8.7767: real time    8.8290
    MIXING:  cpu time    0.0442: real time    0.0442
    --------------------------------------------
      LOOP:  cpu time  407.0312: real time  415.0975

 eigenvalue-minimisations  : 34912
 total energy-change (2. order) :-0.2197005E-05  (-0.2316035E-07)
 number of electron    1024.0000024 magnetization     128.0000007
 augmentation part      327.1765530 magnetization      84.2793467

 Broyden mixing:
  rms(total) = 0.31039E-03    rms(broyden)= 0.30412E-03
  rms(prec ) = 0.31334E-03
  weight for this iteration     100.00

 eigenvalues of (default mixing * dielectric matrix)
  average eigenvalue GAMMA=   1.1339
  2.4131  2.4131  1.5221  1.5221  0.9175  0.9175  0.7858  0.7858  0.6481  0.6481
  0.5303  0.5031

 Free energy of the ion-electron system (eV)
  ---------------------------------------------------
  alpha Z        PSCENC =      2580.95227926
  Ewald energy   TEWEN  =    -67508.64773335
  -Hartree energ DENC   =    -35943.99092306
  -exchange      EXHF   =         0.00000000
  -V(xc)+E(xc)   XCENC  =      4397.38258018
  PAW double counting   =    108731.44074848  -112348.00080644
  entropy T*S    EENTRO =        -0.00000000
  eigenvalues    EBANDS =    -15040.48268478
  atomic energy  EATOM  =    114309.28505226
  Solvation  Ediel_sol  =         0.00000000
  ---------------------------------------------------
  free energy    TOTEN  =      -822.06148746 eV

  energy without entropy =     -822.06148746  energy(sigma->0) =     -822.06148746


--------------------------------------------------------------------------------------------------------




--------------------------------------- Iteration      1(  18)  ---------------------------------------


    POTLOK:  cpu time    0.6863: real time    0.6893
    SETDIJ:  cpu time    1.7106: real time    1.7142
     EDDAV:  cpu time  473.3091: real time  483.2602
       DOS:  cpu time    0.0032: real time    0.0036
    CHARGE:  cpu time    8.4796: real time    8.6895
    MIXING:  cpu time    0.0416: real time    0.0473
    --------------------------------------------
      LOOP:  cpu time  484.2303: real time  494.4042

 eigenvalue-minimisations  : 43248
 total energy-change (2. order) :-0.1748020E-05  (-0.2627272E-07)
 number of electron    1024.0000024 magnetization     128.0000007
 augmentation part      327.1762540 magnetization      84.2793440

 Broyden mixing:
  rms(total) = 0.18904E-03    rms(broyden)= 0.17861E-03
  rms(prec ) = 0.18337E-03
  weight for this iteration     100.00

 eigenvalues of (default mixing * dielectric matrix)
  average eigenvalue GAMMA=   1.1564
  2.5873  2.0783  2.0783  1.2972  1.2972  0.9407  0.9407  0.7915  0.6896  0.6896
  0.6001  0.5052  0.5378

 Free energy of the ion-electron system (eV)
  ---------------------------------------------------
  alpha Z        PSCENC =      2580.95227926
  Ewald energy   TEWEN  =    -67508.64773335
  -Hartree energ DENC   =    -35943.98387247
  -exchange      EXHF   =         0.00000000
  -V(xc)+E(xc)   XCENC  =      4397.38099205
  PAW double counting   =    108731.40741920  -112347.97241783
  entropy T*S    EENTRO =        -0.00000000
  eigenvalues    EBANDS =    -15040.48320832
  atomic energy  EATOM  =    114309.28505226
  Solvation  Ediel_sol  =         0.00000000
  ---------------------------------------------------
  free energy    TOTEN  =      -822.06148921 eV

  energy without entropy =     -822.06148921  energy(sigma->0) =     -822.06148921


--------------------------------------------------------------------------------------------------------




--------------------------------------- Iteration      1(  19)  ---------------------------------------


    POTLOK:  cpu time    0.7262: real time    0.7464
    SETDIJ:  cpu time    1.6521: real time    1.6779
     EDDAV:  cpu time  361.8248: real time  368.9326
       DOS:  cpu time    0.0020: real time    0.0020
    CHARGE:  cpu time    8.5905: real time    8.7761
    MIXING:  cpu time    0.0695: real time    0.0696
    --------------------------------------------
      LOOP:  cpu time  372.8651: real time  380.2046

 eigenvalue-minimisations  : 30984
 total energy-change (2. order) : 0.1289300E-07  (-0.3748877E-07)
 number of electron    1024.0000024 magnetization     128.0000007
 augmentation part      327.1760712 magnetization      84.2793699

 Broyden mixing:
  rms(total) = 0.99452E-04    rms(broyden)= 0.77846E-04
  rms(prec ) = 0.80338E-04
  weight for this iteration     100.00
  WARNING: grid for Broyden might be to small

 eigenvalues of (default mixing * dielectric matrix)
  average eigenvalue GAMMA=   1.1208
  2.6144  1.8961  1.8961  1.4448  1.4448  0.9522  0.9522  0.8086  0.6887  0.6887
  0.6901  0.5073  0.5535  0.5535

 Free energy of the ion-electron system (eV)
  ---------------------------------------------------
  alpha Z        PSCENC =      2580.95227926
  Ewald energy   TEWEN  =    -67508.64773335
  -Hartree energ DENC   =    -35943.99744177
  -exchange      EXHF   =         0.00000000
  -V(xc)+E(xc)   XCENC  =      4397.38342309
  PAW double counting   =    108731.54209187  -112348.12387257
[...]
   0.122E+00 -.424E-01 0.691E-01   -.124E+00 0.440E-01 -.717E-01   0.326E-02 -.275E-02 0.419E-02   0.364E-05 0.339E-05 0.780E-05
   -.238E-01 0.166E-01 0.330E-01   0.263E-01 -.192E-01 -.339E-01   -.341E-02 0.370E-02 0.111E-02   -.101E-04 -.748E-05 -.735E-05
   0.239E-01 0.166E-01 0.328E-01   -.263E-01 -.192E-01 -.339E-01   0.335E-02 0.381E-02 0.137E-02   -.209E-04 -.123E-04 -.208E-05
   0.574E-01 0.197E-01 -.719E-01   -.583E-01 -.200E-01 0.752E-01   0.103E-02 0.762E-03 -.490E-02   0.722E-05 0.195E-05 -.601E-06
   -.573E-01 0.197E-01 -.720E-01   0.583E-01 -.200E-01 0.752E-01   -.140E-02 0.840E-03 -.489E-02   -.347E-04 0.565E-05 0.149E-04
   0.189E-01 -.122E-01 -.327E-01   -.195E-01 0.126E-01 0.335E-01   0.890E-03 -.446E-03 -.117E-02   -.230E-04 -.502E-05 0.422E-05
   -.188E-01 -.123E-01 -.326E-01   0.195E-01 0.126E-01 0.335E-01   -.101E-02 -.370E-03 -.134E-02   0.247E-04 0.941E-05 0.412E-05
   0.237E-01 0.165E-01 0.332E-01   -.261E-01 -.191E-01 -.341E-01   0.340E-02 0.370E-02 0.111E-02   0.183E-04 -.131E-04 -.726E-05
   -.237E-01 0.165E-01 0.331E-01   0.261E-01 -.191E-01 -.342E-01   -.334E-02 0.380E-02 0.136E-02   -.248E-05 0.360E-05 0.305E-05
   0.121E+00 -.420E-01 0.696E-01   -.123E+00 0.438E-01 -.725E-01   0.297E-02 -.300E-02 0.451E-02   -.129E-04 0.142E-04 0.143E-04
   -.121E+00 -.423E-01 0.699E-01   0.124E+00 0.439E-01 -.726E-01   -.328E-02 -.274E-02 0.420E-02   0.190E-04 -.197E-04 -.755E-05
   -.187E-01 -.121E-01 -.328E-01   0.194E-01 0.125E-01 0.336E-01   -.868E-03 -.452E-03 -.117E-02   -.149E-04 0.387E-05 -.633E-06
   0.187E-01 -.122E-01 -.327E-01   -.194E-01 0.125E-01 0.336E-01   0.989E-03 -.354E-03 -.133E-02   0.243E-04 -.128E-04 -.717E-05
   -.570E-01 0.196E-01 -.720E-01   0.578E-01 -.198E-01 0.754E-01   -.105E-02 0.753E-03 -.492E-02   0.187E-04 0.469E-05 0.602E-05
   0.569E-01 0.195E-01 -.721E-01   -.579E-01 -.199E-01 0.754E-01   0.142E-02 0.837E-03 -.491E-02   0.159E-04 0.276E-05 0.740E-05
   -.356E-03 -.210E+01 -.742E+00   0.855E-03 0.225E+01 0.813E+00   -.614E-03 -.122E+00 -.413E-01   -.233E-04 -.719E-05 0.939E-05
   0.277E-04 -.203E-02 0.142E-01   -.573E-05 0.244E-02 -.150E-01   -.499E-06 -.535E-03 0.112E-02   -.309E-04 0.555E-05 -.348E-05
   0.121E-03 0.993E-01 0.786E-01   0.157E-04 -.101E+00 -.806E-01   -.225E-03 0.292E-02 0.304E-02   0.355E-04 0.501E-05 -.747E-05
   -.109E-05 0.150E-02 0.106E-01   -.266E-05 -.198E-02 -.108E-01   0.679E-05 0.731E-03 0.469E-03   0.249E-05 0.169E-04 -.184E-04
   -.212E-03 0.102E+00 -.310E+00   -.414E-04 -.104E+00 0.317E+00   0.335E-03 0.241E-02 -.854E-02   0.173E-04 0.184E-05 -.264E-06
   -.175E-04 0.212E-02 -.142E-01   0.479E-05 -.217E-02 0.150E-01   0.130E-04 -.323E-04 -.117E-02   0.102E-04 0.105E-04 -.106E-04
   -.905E-04 -.410E-01 -.765E-01   -.793E-05 0.431E-01 0.791E-01   0.125E-03 -.394E-02 -.453E-02   0.745E-05 0.159E-04 -.153E-04
   -.675E-05 -.168E-02 -.106E-01   0.240E-05 0.179E-02 0.108E-01   0.915E-05 -.209E-03 -.371E-03   -.207E-05 0.814E-05 -.955E-05
   -.135E-03 0.989E-01 0.794E-01   -.156E-04 -.101E+00 -.814E-01   0.217E-03 0.293E-02 0.302E-02   -.149E-04 -.120E-04 0.149E-04
   -.907E-06 0.150E-02 0.106E-01   0.265E-05 -.197E-02 -.109E-01   -.124E-04 0.739E-03 0.458E-03   0.531E-05 -.201E-05 0.497E-05
   0.353E-03 -.213E+01 -.735E+00   -.864E-03 0.227E+01 0.805E+00   0.624E-03 -.123E+00 -.403E-01   0.259E-04 -.240E-06 0.592E-06
   -.179E-04 -.200E-02 0.142E-01   0.571E-05 0.243E-02 -.151E-01   0.125E-04 -.517E-03 0.110E-02   0.120E-04 -.233E-04 0.257E-04
   0.921E-04 -.406E-01 -.767E-01   0.787E-05 0.427E-01 0.793E-01   -.123E-03 -.393E-02 -.454E-02   -.101E-04 -.728E-05 0.523E-05
   0.829E-05 -.166E-02 -.106E-01   -.239E-05 0.178E-02 0.109E-01   -.133E-04 -.201E-03 -.379E-03   0.378E-05 -.580E-05 0.298E-05
   0.220E-03 0.101E+00 -.309E+00   0.410E-04 -.103E+00 0.315E+00   -.330E-03 0.239E-02 -.852E-02   -.292E-04 -.546E-05 0.386E-05
   0.112E-04 0.212E-02 -.143E-01   -.477E-05 -.216E-02 0.151E-01   -.164E-04 -.259E-04 -.117E-02   -.863E-06 -.264E-05 0.379E-05
 -----------------------------------------------------------------------------------------------
   -.224E-04 0.364E+00 0.322E+00   -.378E-12 -.110E-12 0.357E-12   0.241E-04 -.364E+00 -.322E+00   0.170E-04 0.973E-05 0.738E-05
 
 
 POSITION                                       TOTAL-FORCE (eV/Angst)
 -----------------------------------------------------------------------------------
      1.92590      3.13932      5.36004        -0.000254     -0.000334      0.001141
      9.61372      3.13932      5.36004         0.000108     -0.000074      0.000094
      1.92590      8.76310      5.40133        -0.000230      0.000194      0.000189
      9.61372      8.76310      5.40133         0.000099     -0.000063     -0.000032
      1.92590      3.18168     10.98368         0.008001      0.002721      0.002092
      9.61372      3.18168     10.98368        -0.000134      0.000076     -0.000191
      1.92590      8.80547     11.02497        -0.000182     -0.000626     -0.000098
      9.61372      8.80547     11.02497        -0.000214     -0.000150     -0.000064
      1.92590      5.35991      3.13736        -0.008051      0.002869      0.002217
      9.61372      5.35991      3.13736         0.000145      0.000196     -0.000066
      1.92590     10.98369      3.17866         0.000191     -0.000504      0.000028
      9.61372     10.98369      3.17866         0.000224     -0.000030      0.000061
      1.92590      5.40227      8.76100         0.000260     -0.000211      0.001268
      9.61372      5.40227      8.76100        -0.000099      0.000047      0.000220
      1.92590     11.02606      8.80230         0.000239      0.000314      0.000314
      9.61372     11.02606      8.80230        -0.000089      0.000056      0.000094
      5.76192      2.52683      0.30490        -0.006485      0.003387     -0.001349
     13.44973      2.52683      0.30490         0.000016      0.000141     -0.000164
      5.76192      8.15062      0.34619         0.000349     -0.000917     -0.000605
     13.44973      8.15062      0.34619         0.000215     -0.000036     -0.000038
      5.76192      2.56920      5.92854         0.000175     -0.000097      0.001166
     13.44973      2.56920      5.92854        -0.000066      0.000042      0.000240
      5.76192      8.19298      5.96983         0.000238      0.000377      0.000490
     13.44973      8.19298      5.96983        -0.000078      0.000090      0.000145
      5.76192      0.30624      2.52757        -0.000359     -0.001037     -0.000730
     13.44973      0.30624      2.52757        -0.000225     -0.000155     -0.000164
      5.76192      5.93003      2.56887         0.006487      0.003270     -0.001500
     13.44973      5.93003      2.56887        -0.000026      0.000021     -0.000291
      5.76192      0.34861      8.15121        -0.000248      0.000255      0.000364
     13.44973      0.34861      8.15121         0.000068     -0.000029      0.000019
      5.76192      5.97239      8.19250        -0.000182     -0.000216      0.001045
     13.44973      5.97239      8.19250         0.000057     -0.000079      0.000114
      4.24371      4.24961      4.24870         0.002177     -0.001936      0.011981
     11.93153      4.24961      4.24870         0.000045      0.000105      0.000088
      4.24371      9.87340      4.29000         0.000052      0.000259      0.000083
     11.93153      9.87340      4.29000         0.000045     -0.000043      0.000003
      4.24371      4.29198      9.87234        -0.002013     -0.001921      0.011780
     11.93153      4.29198      9.87234         0.000079      0.000104      0.000089
      4.24371      9.91576      9.91363         0.000073      0.000258      0.000084
     11.93153      9.91576      9.91363         0.000079     -0.000043      0.000002
      3.44411      1.41654      1.41623         0.000490      0.000835     -0.005058
     11.13192      1.41654      1.41623        -0.000033     -0.000137     -0.000259
      3.44411      7.04032      1.45753        -0.000610      0.000808     -0.005060
     11.13192      7.04032      1.45753        -0.000091     -0.000138     -0.000259
      3.44411      1.45890      7.03987        -0.000103      0.000026      0.000864
     11.13192      1.45890      7.03987        -0.000072      0.000072      0.000171
      3.44411      7.08269      7.08117        -0.000022      0.000027      0.000864
     11.13192      7.08269      7.08117        -0.000052      0.000073      0.000170
      7.68691      4.22843      1.43688         0.000071      0.000855     -0.001307
     15.37473      4.22843      1.43688         0.000074      0.000871     -0.001236
      7.68691      9.85222      1.47818         0.000072     -0.000013     -0.000805
     15.37473      9.85222      1.47818         0.000073     -0.000075     -0.000790
      7.68691      4.27079      7.06052         0.000073     -0.000350      0.000674
     15.37473      4.27079      7.06052         0.000072     -0.000334      0.000599
      7.68691      9.89458      7.10182         0.000073     -0.000031      0.000308
     15.37473      9.89458      7.10182         0.000072     -0.000020      0.000287
      0.00091      1.43772      4.22805        -0.000942     -0.000541      0.000911
      7.68873      1.43772      4.22805         0.000831     -0.000549      0.000946
      0.00091      7.06151      4.26935        -0.000422      0.000073     -0.000024
      7.68873      7.06151      4.26935         0.000290      0.000086     -0.000013
      0.00091      1.48008      9.85169         0.000276      0.000073     -0.000024
      7.68873      1.48008      9.85169        -0.000434      0.000086     -0.000012
      0.00091      7.10387      9.89299         0.000801     -0.000543      0.000912
      7.68873      7.10387      9.89299        -0.000981     -0.000553      0.000946
      7.36691      4.24961      4.24870         0.001664      0.000702      0.000730
     15.05473      4.24961      4.24870        -0.001017      0.000643      0.000527
      7.36691      9.87340      4.29000         0.000448     -0.000143      0.000694
     15.05473      9.87340      4.29000        -0.000377     -0.000196      0.000549
      7.36691      4.29198      9.87234        -0.001525      0.000710      0.000731
     15.05473      4.29198      9.87234         0.001157      0.000648      0.000525
      7.36691      9.91576      9.91363        -0.000308     -0.000145      0.000693
     15.05473      9.91576      9.91363         0.000515     -0.000196      0.000550
      0.32090      1.41654      1.41623        -0.001113     -0.000770     -0.003074
      8.00872      1.41654      1.41623         0.001067     -0.000421     -0.002406
      0.32090      7.04032      1.45753         0.000973     -0.000772     -0.003072
      8.00872      7.04032      1.45753        -0.001204     -0.000422     -0.002405
      0.32090      1.45890      7.03987         0.000396      0.000251      0.000999
      8.00872      1.45890      7.03987        -0.000416      0.000022      0.000922
      0.32090      7.08269      7.08117        -0.000538      0.000253      0.001001
      8.00872      7.08269      7.08117         0.000278      0.000025      0.000924
      3.84445      4.22851      1.44688        -0.000046     -0.064257     -0.101372
     11.53226      4.22843      1.43688        -0.000060      0.000515     -0.000778
      3.84445      9.85222      1.47818        -0.000060      0.000054     -0.001664
     11.53226      9.85222      1.47818        -0.000060     -0.000064     -0.000300
      3.84445      4.27079      7.06052        -0.000061      0.000024      0.002336
     11.53226      4.27079      7.06052        -0.000060     -0.000070      0.000435
      3.84445      9.89458      7.10182        -0.000060      0.000886      0.001616
     11.53226      9.89458      7.10182        -0.000060     -0.000114      0.000252
      3.84337      1.43772      4.22805         0.000006     -0.002319      0.001848
     11.53119      1.43772      4.22805         0.000060     -0.000214      0.000211
      3.84337      7.06151      4.26935         0.000019      0.008311      0.008549
     11.53119      7.06151      4.26935         0.000057      0.000098     -0.000035
      3.84337      1.48008      9.85169         0.000100      0.008267      0.008518
     11.53119      1.48008      9.85169         0.000062      0.000098     -0.000036
      3.84337      7.10387      9.89299         0.000115     -0.002308      0.001847
     11.53119      7.10387      9.89299         0.000059     -0.000214      0.000211
      1.92917      5.66160      5.66028         0.001356     -0.000219     -0.002372
      9.61699      5.66160      5.66028        -0.000274     -0.000081     -0.000267
      1.92917     11.28539      5.70158         0.000058      0.000103     -0.000917
      9.61699     11.28539      5.70158        -0.000130      0.000049     -0.000288
      1.92917      5.70397     11.28392        -0.001875      0.001875      0.004139
      9.61699      5.70397     11.28392         0.000763     -0.000094      0.000272
      1.92917     11.32775     11.32522        -0.001528     -0.001427      0.000984
      9.61699     11.32775     11.32522         0.000145      0.000183      0.000301
      1.92917      2.83762      2.83712         0.001777      0.001804      0.004229
      9.61699      2.83762      2.83712        -0.000788     -0.000122      0.000300
      1.92917      8.46141      2.87841         0.001503     -0.001457      0.001009
      9.61699      8.46141      2.87841        -0.000171      0.000156      0.000327
      1.92917      2.87999      8.46076        -0.001378     -0.000241     -0.002338
      9.61699      2.87999      8.46076         0.000248     -0.000108     -0.000238
      1.92917      8.50377      8.50205        -0.000083      0.000078     -0.000891
      9.61699      8.50377      8.50205         0.000104      0.000021     -0.000260
      5.75865      0.00455      0.00465         0.001516     -0.001552      0.000738
     13.44647      0.00455      0.00465        -0.000121      0.000173      0.000310
      5.75865      5.62833      0.04594         0.001910      0.001911      0.003794
     13.44647      5.62833      0.04594        -0.000712     -0.000198      0.000194
      5.75865      0.04691      5.62829        -0.000026      0.000101     -0.000878
     13.44647      0.04691      5.62829         0.000116      0.000015     -0.000254
      5.75865      5.67070      5.66958        -0.001318     -0.000177     -0.002415
     13.44647      5.67070      5.66958         0.000230     -0.000093     -0.000195
      5.75865      2.82853      2.82782        -0.001814      0.001902      0.003829
     13.44647      2.82853      2.82782         0.000738     -0.000171      0.000164
      5.75865      8.45231      2.86911        -0.001489     -0.001528      0.000707
     13.44647      8.45231      2.86911         0.000147      0.000199      0.000282
      5.75865      2.87089      8.45146         0.001339     -0.000146     -0.002436
     13.44647      2.87089      8.45146        -0.000204     -0.000065     -0.000224
      5.75865      8.49468      8.49275         0.000051      0.000127     -0.000909
     13.44647      8.49468      8.49275        -0.000090      0.000041     -0.000282
      0.00000      2.81189      0.02065        -0.000579     -0.001151      0.001567
      7.68782      2.81189      0.02065         0.000904     -0.001144      0.001528
      0.00000      8.43568      0.06194        -0.000987      0.001108      0.000160
      7.68782      8.43568      0.06194         0.000917      0.001176      0.000285
      0.00000      2.85426      5.64429         0.000200      0.000486     -0.001575
      7.68782      2.85426      5.64429        -0.000452      0.000530     -0.001602
      0.00000      8.47804      5.68558         0.000214     -0.000060     -0.000355
      7.68782      8.47804      5.68558        -0.000285     -0.000001     -0.000443
      0.00000      0.02118      2.81182         0.000985      0.001106      0.000160
      7.68782      0.02118      2.81182        -0.000917      0.001174      0.000285
      0.00000      5.64497      2.85311         0.000576     -0.001151      0.001569
      7.68782      5.64497      2.85311        -0.000906     -0.001143      0.001530
      0.00000      0.06355      8.43546        -0.000211     -0.000060     -0.000354
      7.68782      0.06355      8.43546         0.000281      0.000001     -0.000441
      0.00000      5.68733      8.47675        -0.000203      0.000484     -0.001583
      7.68782      5.68733      8.47675         0.000458      0.000529     -0.001608
      3.84391      2.81189      0.02065        -0.000138      0.020298      0.028742
     11.53173      2.81189      0.02065        -0.000010     -0.000111      0.000330
      3.84391      8.43568      0.06194        -0.000053      0.001110      0.001092
     11.53173      8.43568      0.06194         0.000005      0.000263      0.000187
      3.84391      2.85426      5.64429         0.000099      0.000259     -0.002499
     11.53173      2.85426      5.64429         0.000010     -0.000072     -0.000378
      3.84391      8.47804      5.68558         0.000034     -0.001796     -0.001954
     11.53173      8.47804      5.68558         0.000003     -0.000090     -0.000126
      3.84391      0.02118      2.81182         0.000052      0.001110      0.001090
     11.53173      0.02118      2.81182        -0.000005      0.000264      0.000184
      3.84391      5.64497      2.85311         0.000139      0.021870      0.029969
     11.53173      5.64497      2.85311         0.000012     -0.000108      0.000327
      3.84391      0.06355      8.43546        -0.000034     -0.001794     -0.001954
     11.53173      0.06355      8.43546        -0.000004     -0.000089     -0.000129
      3.84391      5.68733      8.47675        -0.000099      0.000253     -0.002493
     11.53173      5.68733      8.47675        -0.000011     -0.000072     -0.000378
 -----------------------------------------------------------------------------------
    total drift:                                0.000019      0.000023     -0.000041


--------------------------------------------------------------------------------------------------------



  FREE ENERGIE OF THE ION-ELECTRON SYSTEM (eV)
  ---------------------------------------------------
  free  energy   TOTEN  =      -822.06148951 eV

  energy  without entropy=     -822.06148951  energy(sigma->0) =     -822.06148951
 


--------------------------------------------------------------------------------------------------------


    POTLOK:  cpu time    2.3568: real time    2.4085


--------------------------------------------------------------------------------------------------------


     LOOP+:  cpu time 9979.2149: real time10189.1244
    4ORBIT:  cpu time    0.0000: real time    0.0000

 total amount of memory used by VASP MPI-rank0   985864. kBytes
=======================================================================

   base      :      30000. kBytes
   nonl-proj :     102069. kBytes
   fftplans  :      64934. kBytes
   grid      :      55554. kBytes
   one-center:        839. kBytes
   wavefun   :     732468. kBytes
 
  
  
 General timing and accounting informations for this job:
 ========================================================
  
                  Total CPU time used (sec):    10126.918
                            User time (sec):    10062.882
                          System time (sec):       64.035
                         Elapsed time (sec):    10340.253
  
                   Maximum memory used (kb):     1176004.
                   Average memory used (kb):           0.
  
                          Minor page faults:       660082
                          Major page faults:           10
                 Voluntary context switches:        60772
