  88  88   0   0
  0.1431748E+02  0.1111223E-08  0.1111745E-08  0.1056954E-08  0.5000000E-15
  1.000000000000000E-004
  CAR 
 unknown system                          
     17.90649169    -54.34595245  301      5.20210360      1.00000000
    -54.346  0.0000E+00  0.0000E+00  0.0000E+00  0.0000E+00
    -54.105  0.0000E+00  0.0000E+00  0.0000E+00  0.0000E+00
    -53.864  0.0000E+00  0.0000E+00  0.0000E+00  0.0000E+00
    -53.623  0.0000E+00  0.0000E+00  0.0000E+00  0.0000E+00
    -53.383  0.0000E+00  0.0000E+00  0.0000E+00  0.0000E+00
    -53.142  0.0000E+00  0.0000E+00  0.0000E+00  0.0000E+00
    -52.901  0.0000E+00  0.0000E+00  0.0000E+00  0.0000E+00
    -52.660  0.0000E+00  0.0000E+00  0.0000E+00  0.0000E+00
    -52.419  0.0000E+00  0.0000E+00  0.0000E+00  0.0000E+00
    -52.178  0.0000E+00  0.0000E+00  0.0000E+00  0.0000E+00
    -51.938  0.0000E+00  0.0000E+00  0.0000E+00  0.0000E+00
    -51.697  0.0000E+00  0.0000E+00  0.0000E+00  0.0000E+00
    -51.456  0.0000E+00  0.0000E+00  0.0000E+00  0.0000E+00
    -51.215  0.2124E-03  0.0000E+00  0.5116E-04  0.0000E+00
    -50.974  0.1300E+03  0.0000E+00  0.3132E+02  0.0000E+00
    -50.733  0.2834E+01  0.0000E+00  0.3200E+02  0.0000E+00
    -50.492  0.0000E+00  0.0000E+00  0.3200E+02  0.0000E+00
    -50.252  0.0000E+00  0.0000E+00  0.3200E+02  0.0000E+00
    -50.011  0.0000E+00  0.0000E+00  0.3200E+02  0.0000E+00
    -49.770  0.1484E+01  0.0000E+00  0.3236E+02  0.0000E+00
    -49.529  0.2313E+03  0.0000E+00  0.8805E+02  0.0000E+00
    -49.288  0.3299E+02  0.0000E+00  0.9600E+02  0.0000E+00
    -49.047  0.0000E+00  0.0000E+00  0.9600E+02  0.0000E+00
    -48.807  0.0000E+00  0.0000E+00  0.9600E+02  0.0000E+00
    -48.566  0.0000E+00  0.0000E+00  0.9600E+02  0.0000E+00
    -48.325  0.0000E+00  0.0000E+00  0.9600E+02  0.0000E+00
    -48.084  0.0000E+00  0.0000E+00  0.9600E+02  0.0000E+00
    -47.843  0.0000E+00  0.0000E+00  0.9600E+02  0.0000E+00
    -47.602  0.0000E+00  0.0000E+00  0.9600E+02  0.0000E+00
    -47.362  0.0000E+00  0.0000E+00  0.9600E+02  0.0000E+00
    -47.121  0.0000E+00  0.0000E+00  0.9600E+02  0.0000E+00
    -46.880  0.0000E+00  0.0000E+00  0.9600E+02  0.0000E+00
    -46.639  0.0000E+00  0.0000E+00  0.9600E+02  0.0000E+00
    -46.398  0.0000E+00  0.2540E+00  0.9600E+02  0.6117E-01
    -46.157  0.0000E+00  0.1325E+03  0.9600E+02  0.3198E+02
    -45.917  0.0000E+00  0.5456E+02  0.9600E+02  0.4512E+02
    -45.676  0.0000E+00  0.2113E+03  0.9600E+02  0.9600E+02
    -45.435  0.0000E+00  0.5254E-04  0.9600E+02  0.9600E+02
    -45.194  0.0000E+00  0.0000E+00  0.9600E+02  0.9600E+02
    -44.953  0.0000E+00  0.0000E+00  0.9600E+02  0.9600E+02
    -44.712  0.0000E+00  0.0000E+00  0.9600E+02  0.9600E+02
    -44.471  0.0000E+00  0.0000E+00  0.9600E+02  0.9600E+02
    -44.231  0.0000E+00  0.0000E+00  0.9600E+02  0.9600E+02
    -43.990  0.0000E+00  0.0000E+00  0.9600E+02  0.9600E+02
    -43.749  0.0000E+00  0.0000E+00  0.9600E+02  0.9600E+02
    -43.508  0.0000E+00  0.0000E+00  0.9600E+02  0.9600E+02
    -43.267  0.0000E+00  0.0000E+00  0.9600E+02  0.9600E+02
    -43.026  0.0000E+00  0.0000E+00  0.9600E+02  0.9600E+02
    -42.786  0.0000E+00  0.0000E+00  0.9600E+02  0.9600E+02
    -42.545  0.0000E+00  0.0000E+00  0.9600E+02  0.9600E+02
    -42.304  0.0000E+00  0.0000E+00  0.9600E+02  0.9600E+02
    -42.063  0.0000E+00  0.0000E+00  0.9600E+02  0.9600E+02
    -41.822  0.0000E+00  0.0000E+00  0.9600E+02  0.9600E+02
    -41.581  0.0000E+00  0.0000E+00  0.9600E+02  0.9600E+02
    -41.341  0.0000E+00  0.0000E+00  0.9600E+02  0.9600E+02
    -41.100  0.0000E+00  0.0000E+00  0.9600E+02  0.9600E+02
    -40.859  0.0000E+00  0.0000E+00  0.9600E+02  0.9600E+02
    -40.618  0.0000E+00  0.0000E+00  0.9600E+02  0.9600E+02
    -40.377  0.0000E+00  0.0000E+00  0.9600E+02  0.9600E+02
    -40.136  0.8835E-12  0.5790E-12  0.9600E+02  0.9600E+02
    -39.895  0.1284E+02  0.1182E+02  0.9909E+02  0.9885E+02
    -39.655  0.5359E+02  0.5462E+02  0.1120E+03  0.1120E+03
    -39.414  0.0000E+00  0.0000E+00  0.1120E+03  0.1120E+03
    -39.173  0.0000E+00  0.0000E+00  0.1120E+03  0.1120E+03
    -38.932  0.0000E+00  0.0000E+00  0.1120E+03  0.1120E+03
    -38.691  0.0000E+00  0.0000E+00  0.1120E+03  0.1120E+03
    -38.450  0.0000E+00  0.0000E+00  0.1120E+03  0.1120E+03
    -38.210  0.0000E+00  0.0000E+00  0.1120E+03  0.1120E+03
    -37.969  0.0000E+00  0.0000E+00  0.1120E+03  0.1120E+03
    -37.728  0.0000E+00  0.0000E+00  0.1120E+03  0.1120E+03
    -37.487  0.0000E+00  0.0000E+00  0.1120E+03  0.1120E+03
    -37.246  0.0000E+00  0.0000E+00  0.1120E+03  0.1120E+03
    -37.005  0.0000E+00  0.0000E+00  0.1120E+03  0.1120E+03
    -36.765  0.0000E+00  0.0000E+00  0.1120E+03  0.1120E+03
    -36.524  0.0000E+00  0.0000E+00  0.1120E+03  0.1120E+03
    -36.283  0.0000E+00  0.0000E+00  0.1120E+03  0.1120E+03
    -36.042  0.0000E+00  0.0000E+00  0.1120E+03  0.1120E+03
    -35.801  0.0000E+00  0.0000E+00  0.1120E+03  0.1120E+03
    -35.560  0.0000E+00  0.0000E+00  0.1120E+03  0.1120E+03
    -35.319  0.0000E+00  0.0000E+00  0.1120E+03  0.1120E+03
    -35.079  0.0000E+00  0.0000E+00  0.1120E+03  0.1120E+03
    -34.838  0.0000E+00  0.0000E+00  0.1120E+03  0.1120E+03
    -34.597  0.0000E+00  0.0000E+00  0.1120E+03  0.1120E+03
    -34.356  0.0000E+00  0.0000E+00  0.1120E+03  0.1120E+03
    -34.115  0.0000E+00  0.0000E+00  0.1120E+03  0.1120E+03
    -33.874  0.0000E+00  0.0000E+00  0.1120E+03  0.1120E+03
    -33.634  0.0000E+00  0.0000E+00  0.1120E+03  0.1120E+03
    -33.393  0.0000E+00  0.0000E+00  0.1120E+03  0.1120E+03
    -33.152  0.0000E+00  0.0000E+00  0.1120E+03  0.1120E+03
    -32.911  0.0000E+00  0.0000E+00  0.1120E+03  0.1120E+03
    -32.670  0.0000E+00  0.0000E+00  0.1120E+03  0.1120E+03
    -32.429  0.0000E+00  0.0000E+00  0.1120E+03  0.1120E+03
    -32.189  0.0000E+00  0.0000E+00  0.1120E+03  0.1120E+03
    -31.948  0.0000E+00  0.0000E+00  0.1120E+03  0.1120E+03
    -31.707  0.0000E+00  0.0000E+00  0.1120E+03  0.1120E+03
    -31.466  0.0000E+00  0.0000E+00  0.1120E+03  0.1120E+03
    -31.225  0.0000E+00  0.0000E+00  0.1120E+03  0.1120E+03
    -30.984  0.0000E+00  0.0000E+00  0.1120E+03  0.1120E+03
    -30.743  0.0000E+00  0.0000E+00  0.1120E+03  0.1120E+03
    -30.503  0.0000E+00  0.0000E+00  0.1120E+03  0.1120E+03
    -30.262  0.0000E+00  0.0000E+00  0.1120E+03  0.1120E+03
    -30.021  0.0000E+00  0.0000E+00  0.1120E+03  0.1120E+03
    -29.780  0.0000E+00  0.0000E+00  0.1120E+03  0.1120E+03
    -29.539  0.0000E+00  0.0000E+00  0.1120E+03  0.1120E+03
    -29.298  0.0000E+00  0.0000E+00  0.1120E+03  0.1120E+03
    -29.058  0.0000E+00  0.0000E+00  0.1120E+03  0.1120E+03
    -28.817  0.0000E+00  0.0000E+00  0.1120E+03  0.1120E+03
    -28.576  0.0000E+00  0.0000E+00  0.1120E+03  0.1120E+03
    -28.335  0.0000E+00  0.0000E+00  0.1120E+03  0.1120E+03
    -28.094  0.0000E+00  0.0000E+00  0.1120E+03  0.1120E+03
    -27.853  0.0000E+00  0.0000E+00  0.1120E+03  0.1120E+03
    -27.613  0.0000E+00  0.0000E+00  0.1120E+03  0.1120E+03
    -27.372  0.0000E+00  0.0000E+00  0.1120E+03  0.1120E+03
    -27.131  0.0000E+00  0.0000E+00  0.1120E+03  0.1120E+03
    -26.890  0.0000E+00  0.0000E+00  0.1120E+03  0.1120E+03
    -26.649  0.0000E+00  0.0000E+00  0.1120E+03  0.1120E+03
    -26.408  0.0000E+00  0.0000E+00  0.1120E+03  0.1120E+03
    -26.167  0.0000E+00  0.0000E+00  0.1120E+03  0.1120E+03
    -25.927  0.0000E+00  0.0000E+00  0.1120E+03  0.1120E+03
    -25.686  0.0000E+00  0.0000E+00  0.1120E+03  0.1120E+03
    -25.445  0.0000E+00  0.0000E+00  0.1120E+03  0.1120E+03
    -25.204  0.0000E+00  0.0000E+00  0.1120E+03  0.1120E+03
    -24.963  0.0000E+00  0.0000E+00  0.1120E+03  0.1120E+03
    -24.722  0.0000E+00  0.0000E+00  0.1120E+03  0.1120E+03
    -24.482  0.0000E+00  0.0000E+00  0.1120E+03  0.1120E+03
    -24.241  0.0000E+00  0.0000E+00  0.1120E+03  0.1120E+03
    -24.000  0.0000E+00  0.0000E+00  0.1120E+03  0.1120E+03
    -23.759  0.0000E+00  0.0000E+00  0.1120E+03  0.1120E+03
    -23.518  0.0000E+00  0.0000E+00  0.1120E+03  0.1120E+03
    -23.277  0.0000E+00  0.0000E+00  0.1120E+03  0.1120E+03
    -23.037  0.0000E+00  0.0000E+00  0.1120E+03  0.1120E+03
    -22.796  0.0000E+00  0.0000E+00  0.1120E+03  0.1120E+03
    -22.555  0.0000E+00  0.0000E+00  0.1120E+03  0.1120E+03
    -22.314  0.0000E+00  0.0000E+00  0.1120E+03  0.1120E+03
    -22.073  0.0000E+00  0.0000E+00  0.1120E+03  0.1120E+03
    -21.832  0.0000E+00  0.0000E+00  0.1120E+03  0.1120E+03
    -21.592  0.0000E+00  0.0000E+00  0.1120E+03  0.1120E+03
    -21.351  0.0000E+00  0.0000E+00  0.1120E+03  0.1120E+03
    -21.110  0.0000E+00  0.0000E+00  0.1120E+03  0.1120E+03
    -20.869  0.0000E+00  0.0000E+00  0.1120E+03  0.1120E+03
    -20.628  0.0000E+00  0.0000E+00  0.1120E+03  0.1120E+03
    -20.387  0.0000E+00  0.0000E+00  0.1120E+03  0.1120E+03
    -20.146  0.0000E+00  0.0000E+00  0.1120E+03  0.1120E+03
    -19.906  0.0000E+00  0.0000E+00  0.1120E+03  0.1120E+03
    -19.665  0.0000E+00  0.0000E+00  0.1120E+03  0.1120E+03
    -19.424  0.0000E+00  0.0000E+00  0.1120E+03  0.1120E+03
    -19.183  0.0000E+00  0.0000E+00  0.1120E+03  0.1120E+03
    -18.942  0.0000E+00  0.0000E+00  0.1120E+03  0.1120E+03
    -18.701  0.0000E+00  0.0000E+00  0.1120E+03  0.1120E+03
    -18.461  0.0000E+00  0.0000E+00  0.1120E+03  0.1120E+03
    -18.220  0.0000E+00  0.0000E+00  0.1120E+03  0.1120E+03
    -17.979  0.0000E+00  0.0000E+00  0.1120E+03  0.1120E+03
    -17.738  0.0000E+00  0.0000E+00  0.1120E+03  0.1120E+03
    -17.497  0.0000E+00  0.0000E+00  0.1120E+03  0.1120E+03
    -17.256  0.0000E+00  0.0000E+00  0.1120E+03  0.1120E+03
    -17.016  0.0000E+00  0.0000E+00  0.1120E+03  0.1120E+03
    -16.775  0.0000E+00  0.0000E+00  0.1120E+03  0.1120E+03
    -16.534  0.0000E+00  0.0000E+00  0.1120E+03  0.1120E+03
    -16.293  0.0000E+00  0.0000E+00  0.1120E+03  0.1120E+03
    -16.052  0.0000E+00  0.0000E+00  0.1120E+03  0.1120E+03
    -15.811  0.0000E+00  0.0000E+00  0.1120E+03  0.1120E+03
    -15.570  0.0000E+00  0.0000E+00  0.1120E+03  0.1120E+03
    -15.330  0.0000E+00  0.0000E+00  0.1120E+03  0.1120E+03
    -15.089  0.0000E+00  0.0000E+00  0.1120E+03  0.1120E+03
    -14.848  0.0000E+00  0.0000E+00  0.1120E+03  0.1120E+03
    -14.607  0.0000E+00  0.0000E+00  0.1120E+03  0.1120E+03
    -14.366  0.0000E+00  0.0000E+00  0.1120E+03  0.1120E+03
    -14.125  0.0000E+00  0.0000E+00  0.1120E+03  0.1120E+03
    -13.885  0.0000E+00  0.0000E+00  0.1120E+03  0.1120E+03
    -13.644  0.0000E+00  0.0000E+00  0.1120E+03  0.1120E+03
    -13.403  0.4720E-06  0.0000E+00  0.1120E+03  0.1120E+03
    -13.162  0.1857E+02  0.0000E+00  0.1165E+03  0.1120E+03
    -12.921  0.4634E+02  0.6487E-02  0.1276E+03  0.1120E+03
    -12.680  0.1523E+01  0.4186E+02  0.1280E+03  0.1221E+03
    -12.440  0.0000E+00  0.2457E+02  0.1280E+03  0.1280E+03
    -12.199  0.0000E+00  0.3169E-05  0.1280E+03  0.1280E+03
    -11.958  0.0000E+00  0.0000E+00  0.1280E+03  0.1280E+03
    -11.717  0.0000E+00  0.0000E+00  0.1280E+03  0.1280E+03
    -11.476  0.0000E+00  0.0000E+00  0.1280E+03  0.1280E+03
    -11.235  0.0000E+00  0.0000E+00  0.1280E+03  0.1280E+03
    -10.994  0.0000E+00  0.0000E+00  0.1280E+03  0.1280E+03
    -10.754  0.0000E+00  0.0000E+00  0.1280E+03  0.1280E+03
    -10.513  0.0000E+00  0.0000E+00  0.1280E+03  0.1280E+03
    -10.272  0.0000E+00  0.0000E+00  0.1280E+03  0.1280E+03
    -10.031  0.0000E+00  0.0000E+00  0.1280E+03  0.1280E+03
     -9.790  0.0000E+00  0.0000E+00  0.1280E+03  0.1280E+03
     -9.549  0.0000E+00  0.0000E+00  0.1280E+03  0.1280E+03
     -9.309  0.0000E+00  0.0000E+00  0.1280E+03  0.1280E+03
     -9.068  0.0000E+00  0.0000E+00  0.1280E+03  0.1280E+03
     -8.827  0.0000E+00  0.0000E+00  0.1280E+03  0.1280E+03
     -8.586  0.0000E+00  0.0000E+00  0.1280E+03  0.1280E+03
     -8.345  0.0000E+00  0.0000E+00  0.1280E+03  0.1280E+03
     -8.104  0.0000E+00  0.0000E+00  0.1280E+03  0.1280E+03
     -7.864  0.5401E-10  0.0000E+00  0.1280E+03  0.1280E+03
     -7.623  0.5446E+00  0.9556E-11  0.1281E+03  0.1280E+03
     -7.382  0.1246E+02  0.4784E+00  0.1311E+03  0.1281E+03
     -7.141  0.3025E+02  0.1370E+02  0.1384E+03  0.1314E+03
     -6.900  0.3380E+02  0.2949E+02  0.1466E+03  0.1385E+03
     -6.659  0.2258E+02  0.2595E+02  0.1520E+03  0.1448E+03
     -6.418  0.2701E-04  0.2998E+02  0.1520E+03  0.1520E+03
     -6.178  0.0000E+00  0.6175E-01  0.1520E+03  0.1520E+03
     -5.937  0.0000E+00  0.0000E+00  0.1520E+03  0.1520E+03
     -5.696  0.0000E+00  0.0000E+00  0.1520E+03  0.1520E+03
     -5.455  0.0000E+00  0.0000E+00  0.1520E+03  0.1520E+03
     -5.214  0.0000E+00  0.0000E+00  0.1520E+03  0.1520E+03
     -4.973  0.0000E+00  0.0000E+00  0.1520E+03  0.1520E+03
     -4.733  0.0000E+00  0.0000E+00  0.1520E+03  0.1520E+03
     -4.492  0.0000E+00  0.0000E+00  0.1520E+03  0.1520E+03
     -4.251  0.0000E+00  0.0000E+00  0.1520E+03  0.1520E+03
     -4.010  0.0000E+00  0.0000E+00  0.1520E+03  0.1520E+03
     -3.769  0.0000E+00  0.0000E+00  0.1520E+03  0.1520E+03
     -3.528  0.0000E+00  0.0000E+00  0.1520E+03  0.1520E+03
     -3.288  0.0000E+00  0.0000E+00  0.1520E+03  0.1520E+03
     -3.047  0.0000E+00  0.0000E+00  0.1520E+03  0.1520E+03
     -2.806  0.0000E+00  0.0000E+00  0.1520E+03  0.1520E+03
     -2.565  0.0000E+00  0.0000E+00  0.1520E+03  0.1520E+03
     -2.324  0.0000E+00  0.0000E+00  0.1520E+03  0.1520E+03
     -2.083  0.2042E-04  0.0000E+00  0.1520E+03  0.1520E+03
     -1.843  0.1580E+02  0.0000E+00  0.1558E+03  0.1520E+03
     -1.602  0.1961E+02  0.0000E+00  0.1605E+03  0.1520E+03
     -1.361  0.1485E+02  0.0000E+00  0.1641E+03  0.1520E+03
     -1.120  0.1708E+02  0.0000E+00  0.1682E+03  0.1520E+03
     -0.879  0.4566E+02  0.0000E+00  0.1792E+03  0.1520E+03
     -0.638  0.5898E+02  0.7514E-06  0.1934E+03  0.1520E+03
     -0.397  0.3870E+02  0.4063E+01  0.2027E+03  0.1530E+03
     -0.157  0.6779E+02  0.2035E+02  0.2191E+03  0.1579E+03
      0.084  0.7379E+02  0.1224E+02  0.2368E+03  0.1608E+03
      0.325  0.7756E+02  0.1848E+02  0.2555E+03  0.1653E+03
      0.566  0.6982E+02  0.2952E+02  0.2723E+03  0.1724E+03
      0.807  0.5582E+02  0.3916E+02  0.2858E+03  0.1818E+03
      1.048  0.3643E+02  0.3732E+02  0.2946E+03  0.1908E+03
      1.288  0.3056E+02  0.3130E+02  0.3019E+03  0.1983E+03
      1.529  0.4507E+02  0.2071E+02  0.3128E+03  0.2033E+03
      1.770  0.4209E+02  0.2898E+02  0.3229E+03  0.2103E+03
      2.011  0.6882E+02  0.3681E+02  0.3395E+03  0.2192E+03
      2.252  0.5821E+02  0.2775E+02  0.3535E+03  0.2259E+03
      2.493  0.2676E+02  0.2700E+02  0.3599E+03  0.2324E+03
      2.733  0.4262E+02  0.3059E+02  0.3702E+03  0.2397E+03
      2.974  0.3036E+02  0.4433E+02  0.3775E+03  0.2504E+03
      3.215  0.8653E+01  0.4552E+02  0.3796E+03  0.2614E+03
      3.456  0.2776E+02  0.3235E+02  0.3863E+03  0.2692E+03
      3.697  0.2731E+02  0.1251E+02  0.3929E+03  0.2722E+03
      3.938  0.3086E+02  0.1758E+02  0.4003E+03  0.2764E+03
      4.179  0.3592E+02  0.5259E+02  0.4090E+03  0.2891E+03
      4.419  0.3636E+02  0.4476E+02  0.4177E+03  0.2999E+03
      4.660  0.3029E+02  0.1719E+02  0.4250E+03  0.3040E+03
      4.901  0.2582E+02  0.5521E-02  0.4312E+03  0.3040E+03
      5.142  0.3223E+01  0.0000E+00  0.4320E+03  0.3040E+03
      5.383  0.0000E+00  0.0000E+00  0.4320E+03  0.3040E+03
      5.624  0.0000E+00  0.0000E+00  0.4320E+03  0.3040E+03
      5.864  0.0000E+00  0.0000E+00  0.4320E+03  0.3040E+03
      6.105  0.0000E+00  0.3056E-09  0.4320E+03  0.3040E+03
      6.346  0.0000E+00  0.3918E+00  0.4320E+03  0.3041E+03
      6.587  0.0000E+00  0.4195E+01  0.4320E+03  0.3051E+03
      6.828  0.0000E+00  0.7841E+01  0.4320E+03  0.3070E+03
      7.069  0.5805E-15  0.1918E+02  0.4320E+03  0.3116E+03
      7.309  0.2578E-01  0.4411E+02  0.4320E+03  0.3222E+03
      7.550  0.1280E+00  0.5332E+02  0.4320E+03  0.3351E+03
      7.791  0.2413E+00  0.6334E+02  0.4321E+03  0.3503E+03
      8.032  0.7338E+00  0.6584E+02  0.4323E+03  0.3662E+03
      8.273  0.2108E+01  0.7007E+02  0.4328E+03  0.3831E+03
      8.514  0.2640E+01  0.5928E+02  0.4334E+03  0.3973E+03
      8.755  0.8885E+01  0.5864E+02  0.4356E+03  0.4115E+03
      8.995  0.1245E+02  0.4797E+02  0.4386E+03  0.4230E+03
      9.236  0.1309E+02  0.2999E+02  0.4417E+03  0.4302E+03
      9.477  0.1806E+02  0.8936E+01  0.4461E+03  0.4324E+03
      9.718  0.1627E+02  0.2997E+01  0.4500E+03  0.4331E+03
      9.959  0.1571E+02  0.8345E+01  0.4538E+03  0.4351E+03
     10.200  0.2248E+02  0.1864E+02  0.4592E+03  0.4396E+03
     10.440  0.1485E+02  0.1798E+02  0.4627E+03  0.4439E+03
     10.681  0.1534E+02  0.1716E+02  0.4664E+03  0.4481E+03
     10.922  0.1317E+02  0.2759E+02  0.4696E+03  0.4547E+03
     11.163  0.2061E+02  0.1897E+02  0.4746E+03  0.4593E+03
     11.404  0.2473E+02  0.2396E+02  0.4805E+03  0.4651E+03
     11.645  0.2728E+02  0.1486E+02  0.4871E+03  0.4686E+03
     11.885  0.2461E+02  0.1379E+02  0.4930E+03  0.4720E+03
     12.126  0.3354E+02  0.1602E+02  0.5011E+03  0.4758E+03
     12.367  0.1989E+02  0.3668E+02  0.5059E+03  0.4847E+03
     12.608  0.2305E+02  0.3269E+02  0.5115E+03  0.4925E+03
     12.849  0.2143E+02  0.2991E+02  0.5166E+03  0.4997E+03
     13.090  0.2030E+02  0.2026E+02  0.5215E+03  0.5046E+03
     13.331  0.2390E+02  0.2215E+02  0.5273E+03  0.5100E+03
     13.571  0.2431E+02  0.2723E+02  0.5331E+03  0.5165E+03
     13.812  0.1345E+02  0.2373E+02  0.5363E+03  0.5222E+03
     14.053  0.6850E+01  0.2629E+02  0.5380E+03  0.5286E+03
     14.294  0.4665E-02  0.1921E+02  0.5380E+03  0.5332E+03
     14.535  0.0000E+00  0.1672E+02  0.5380E+03  0.5372E+03
     14.776  0.0000E+00  0.3280E+01  0.5380E+03  0.5380E+03
     15.016  0.0000E+00  0.2242E-05  0.5380E+03  0.5380E+03
     15.257  0.0000E+00  0.0000E+00  0.5380E+03  0.5380E+03
     15.498  0.0000E+00  0.0000E+00  0.5380E+03  0.5380E+03
     15.739  0.0000E+00  0.0000E+00  0.5380E+03  0.5380E+03
     15.980  0.0000E+00  0.0000E+00  0.5380E+03  0.5380E+03
     16.221  0.0000E+00  0.0000E+00  0.5380E+03  0.5380E+03
     16.461  0.0000E+00  0.0000E+00  0.5380E+03  0.5380E+03
     16.702  0.0000E+00  0.0000E+00  0.5380E+03  0.5380E+03
     16.943  0.0000E+00  0.0000E+00  0.5380E+03  0.5380E+03
     17.184  0.0000E+00  0.0000E+00  0.5380E+03  0.5380E+03
     17.425  0.0000E+00  0.0000E+00  0.5380E+03  0.5380E+03
     17.666  0.0000E+00  0.0000E+00  0.5380E+03  0.5380E+03
     17.906  0.0000E+00  0.0000E+00  0.5380E+03  0.5380E+03
