 vasp.5.4.4.18Apr17-6-g9f103f2a35 (build Oct 25 2017 14:42:18) complex          
  
 executed on             LinuxIFC date 2021.06.02  15:28:05
 running on   24 total cores
 distrk:  each k-point on   12 cores,    2 groups
 distr:  one band on NCORES_PER_BAND=   6 cores,    2 groups


--------------------------------------------------------------------------------------------------------


 INCAR:
 POTCAR:    PAW_PBE Li_sv 10Sep2004               
 POTCAR:    PAW_PBE O 08Apr2002                   
 POTCAR:    PAW_PBE S 06Sep2000                   
 POTCAR:    PAW_PBE Fe_pv 02Aug2007               

 ----------------------------------------------------------------------------- 
|                                                                             |
|           W    W    AA    RRRRR   N    N  II  N    N   GGGG   !!!           |
|           W    W   A  A   R    R  NN   N  II  NN   N  G    G  !!!           |
|           W    W  A    A  R    R  N N  N  II  N N  N  G       !!!           |
|           W WW W  AAAAAA  RRRRR   N  N N  II  N  N N  G  GGG   !            |
|           WW  WW  A    A  R   R   N   NN  II  N   NN  G    G                |
|           W    W  A    A  R    R  N    N  II  N    N   GGGG   !!!           |
|                                                                             |
|      You have enabled k-point parallelism (KPAR>1).                         |
|      This developmental code was originally  written by Paul Kent at ORNL,  |
|      and carefully double checked in Vienna.                                |
|      GW as well as linear response parallelism added by Martijn Marsman     |
|      and Georg Kresse.                                                      |
|      Carefully verify results versus KPAR=1.                                |
|      Report problems to Paul Kent and Vienna.                               |
|                                                                             |
 ----------------------------------------------------------------------------- 

 POTCAR:    PAW_PBE Li_sv 10Sep2004               
  local pseudopotential read in
  atomic valenz-charges read in
  non local Contribution for L=           0  read in
    real space projection operators read in
  non local Contribution for L=           0  read in
    real space projection operators read in
  non local Contribution for L=           1  read in
    real space projection operators read in
    PAW grid and wavefunctions read in
 
   number of l-projection  operators is LMAX  =           3
   number of lm-projection operators is LMMAX =           5
 
 POTCAR:    PAW_PBE O 08Apr2002                   
  local pseudopotential read in
  partial core-charges read in
  partial kinetic energy density read in
  kinetic energy density of atom read in
  atomic valenz-charges read in
  non local Contribution for L=           0  read in
    real space projection operators read in
  non local Contribution for L=           0  read in
    real space projection operators read in
  non local Contribution for L=           1  read in
    real space projection operators read in
  non local Contribution for L=           1  read in
    real space projection operators read in
    PAW grid and wavefunctions read in
 
   number of l-projection  operators is LMAX  =           4
   number of lm-projection operators is LMMAX =           8
 
 POTCAR:    PAW_PBE S 06Sep2000                   
  local pseudopotential read in
  partial core-charges read in
  partial kinetic energy density read in
  atomic valenz-charges read in
  non local Contribution for L=           0  read in
    real space projection operators read in
  non local Contribution for L=           0  read in
    real space projection operators read in
  non local Contribution for L=           1  read in
    real space projection operators read in
  non local Contribution for L=           1  read in
    real space projection operators read in
    PAW grid and wavefunctions read in
 
   number of l-projection  operators is LMAX  =           4
   number of lm-projection operators is LMMAX =           8
 
 POTCAR:    PAW_PBE Fe_pv 02Aug2007               
  local pseudopotential read in
  partial core-charges read in
  partial kinetic energy density read in
  atomic valenz-charges read in
  non local Contribution for L=           1  read in
    real space projection operators read in
  non local Contribution for L=           1  read in
    real space projection operators read in
  non local Contribution for L=           2  read in
    real space projection operators read in
  non local Contribution for L=           2  read in
    real space projection operators read in
  non local Contribution for L=           0  read in
    real space projection operators read in
  non local Contribution for L=           0  read in
    real space projection operators read in
    PAW grid and wavefunctions read in
 
   number of l-projection  operators is LMAX  =           6
   number of lm-projection operators is LMMAX =          18
 

 ----------------------------------------------------------------------------- 
|                                                                             |
|  ADVICE TO THIS USER RUNNING 'VASP/VAMP'   (HEAR YOUR MASTER'S VOICE ...):  |
|                                                                             |
|      You have a (more or less) 'large supercell' and for larger cells       |
|      it might be more efficient to use real space projection opertators     |
|      So try LREAL= Auto  in the INCAR   file.                               |
|      Mind:          For very  accurate calculation you might also keep the  |
|      reciprocal projection scheme          (i.e. LREAL=.FALSE.)             |
|                                                                             |
 ----------------------------------------------------------------------------- 

  PAW_PBE Li_sv 10Sep2004               :
 energy of atom  1       EATOM= -202.7858
 kinetic energy error for atom=    0.0072 (will be added to EATOM!!)
  PAW_PBE O 08Apr2002                   :
 energy of atom  2       EATOM= -432.3788
 kinetic energy error for atom=    0.0129 (will be added to EATOM!!)
  PAW_PBE S 06Sep2000                   :
 energy of atom  3       EATOM= -276.8230
 kinetic energy error for atom=    0.0008 (will be added to EATOM!!)
  PAW_PBE Fe_pv 02Aug2007               :
 energy of atom  4       EATOM=-2457.4239
 kinetic energy error for atom=    0.0041 (will be added to EATOM!!)
 
 
 POSCAR: # Compound: Li16O16S24Fe32. Old comment:
  positions in direct lattice
  No initial velocities read in
 exchange correlation table for  LEXCH =        8
   RHO(1)=    0.500       N(1)  =     2000
   RHO(2)=  100.500       N(2)  =     4000
 


--------------------------------------------------------------------------------------------------------


 ion  position               nearest neighbor table
   1  0.289  0.469  0.156-  27 2.00  29 2.00  55 2.53  49 2.53
   2  0.789  0.469  0.156-  28 2.00  30 2.00  56 2.53  50 2.53
   3  0.289  0.969  0.156-  25 2.00  31 2.00  53 2.53  51 2.53
   4  0.789  0.969  0.156-  26 2.00  32 2.00  54 2.53  52 2.53
   5  0.046  0.219  0.186-  30 1.98  25 1.98
   6  0.546  0.219  0.186-  29 1.98  26 1.98
   7  0.046  0.719  0.186-  32 1.98  27 1.98
   8  0.546  0.719  0.186-  31 1.98  28 1.98
   9  0.454  0.469  0.814-  21 1.98  20 1.98
  10  0.954  0.469  0.814-  19 1.98  22 1.98
  11  0.454  0.969  0.814-  18 1.98  23 1.98
  12  0.954  0.969  0.814-  17 1.98  24 1.98
  13  0.211  0.219  0.844-  17 2.00  21 2.00  49 2.53  53 2.53
  14  0.711  0.219  0.844-  22 2.00  18 2.00  50 2.53  54 2.53
  15  0.211  0.719  0.844-  23 2.00  19 2.00  51 2.53  55 2.53
  16  0.711  0.719  0.844-  24 2.00  20 2.00  52 2.53  56 2.53
  17  0.077  0.095  0.803-  12 1.98  13 2.00  57 2.01  83 2.01  86 2.01
  18  0.577  0.095  0.803-  11 1.98  14 2.00  58 2.01  84 2.01  85 2.01
  19  0.077  0.595  0.803-  10 1.98  15 2.00  59 2.01  81 2.01  88 2.01
  20  0.577  0.595  0.803-   9 1.98  16 2.00  60 2.01  82 2.01  87 2.01
  21  0.326  0.343  0.803-   9 1.98  13 2.00  85 2.01  61 2.01  81 2.02
  22  0.825  0.343  0.803-  10 1.98  14 2.00  62 2.01  82 2.01  86 2.01
  23  0.325  0.843  0.803-  11 1.98  15 2.00  63 2.01  83 2.01  87 2.01
  24  0.825  0.843  0.803-  12 1.98  16 2.00  64 2.01  84 2.01  88 2.01
  25  0.175  0.093  0.197-   5 1.98   3 2.00  65 2.01  77 2.01  75 2.01
  26  0.675  0.093  0.197-   6 1.98   4 2.00  66 2.01  78 2.01  76 2.01
  27  0.175  0.593  0.197-   7 1.98   1 2.00  67 2.01  79 2.01  73 2.01
  28  0.675  0.593  0.197-   8 1.98   2 2.00  68 2.01  80 2.01  74 2.01
  29  0.423  0.345  0.197-   6 1.98   1 2.00  69 2.01  77 2.01  74 2.01
  30  0.923  0.345  0.197-   5 1.98   2 2.00  70 2.01  78 2.01  73 2.01
  31  0.423  0.845  0.197-   8 1.98   3 2.00  71 2.01  79 2.01  76 2.01
  32  0.923  0.845  0.197-   7 1.98   4 2.00  72 2.01  80 2.01  75 2.01
  33  0.219  0.345  0.371-  61 2.41  67 2.65  69 2.65
  34  0.719  0.345  0.371-  62 2.41  68 2.65  70 2.65
  35  0.219  0.845  0.371-  63 2.41  65 2.65  71 2.65
  36  0.719  0.845  0.371-  64 2.41  66 2.65  72 2.65
  37  0.467  0.093  0.371-  58 2.41  71 2.65  65 2.65
  38  0.967  0.093  0.371-  57 2.41  72 2.65  66 2.65
  39  0.467  0.593  0.371-  60 2.41  69 2.65  67 2.65
  40  0.967  0.593  0.371-  59 2.41  70 2.65  68 2.65
  41  0.033  0.343  0.629-  70 2.41  57 2.65  61 2.65
  42  0.533  0.343  0.629-  69 2.41  58 2.65  62 2.65
  43  0.033  0.843  0.629-  72 2.41  59 2.65  63 2.65
  44  0.533  0.843  0.629-  71 2.41  60 2.65  64 2.65
  45  0.281  0.095  0.629-  65 2.41  61 2.65  57 2.65
  46  0.781  0.095  0.629-  66 2.41  62 2.65  58 2.65
  47  0.281  0.595  0.629-  67 2.41  63 2.65  59 2.65
  48  0.781  0.595  0.629-  68 2.41  64 2.65  60 2.65
  49  0.124  0.344  0.000-  73 2.51  86 2.51  81 2.52  77 2.52  13 2.53   1 2.53
  50  0.624  0.344  0.000-  74 2.51  85 2.51  82 2.52  78 2.52  14 2.53   2 2.53
  51  0.124  0.844  0.000-  75 2.51  88 2.51  83 2.52  79 2.52  15 2.53   3 2.53
  52  0.624  0.844  0.000-  76 2.51  87 2.51  84 2.52  80 2.52  16 2.53   4 2.53
  53  0.376  0.094  1.000-  85 2.51  76 2.51  77 2.52  83 2.52   3 2.53  13 2.53
  54  0.876  0.094  1.000-  86 2.51  75 2.51  78 2.52  84 2.52   4 2.53  14 2.53
  55  0.376  0.594  1.000-  87 2.51  74 2.51  79 2.52  81 2.52   1 2.53  15 2.53
  56  0.876  0.594  1.000-  88 2.51  73 2.51  80 2.52  82 2.52   2 2.53  16 2.53
  57  0.038  0.106  0.606-  17 2.01  38 2.41  41 2.65  45 2.65
  58  0.538  0.106  0.606-  18 2.01  37 2.41  42 2.65  46 2.65
  59  0.038  0.606  0.606-  19 2.01  40 2.41  43 2.65  47 2.65
  60  0.538  0.606  0.606-  20 2.01  39 2.41  44 2.65  48 2.65
  61  0.265  0.332  0.606-  21 2.01  33 2.41  45 2.65  41 2.65
  62  0.765  0.332  0.606-  22 2.01  34 2.41  46 2.65  42 2.65
  63  0.265  0.832  0.606-  23 2.01  35 2.41  47 2.65  43 2.65
  64  0.765  0.832  0.606-  24 2.01  36 2.41  48 2.65  44 2.65
  65  0.235  0.082  0.394-  25 2.01  45 2.41  35 2.65  37 2.65
  66  0.735  0.082  0.394-  26 2.01  46 2.41  36 2.65  38 2.65
  67  0.235  0.582  0.394-  27 2.01  47 2.41  33 2.65  39 2.65
  68  0.735  0.582  0.394-  28 2.01  48 2.41  34 2.65  40 2.65
  69  0.462  0.356  0.394-  29 2.01  42 2.41  39 2.65  33 2.65
  70  0.962  0.356  0.394-  30 2.01  41 2.41  40 2.65  34 2.65
  71  0.462  0.856  0.394-  31 2.01  44 2.41  37 2.65  35 2.65
  72  0.962  0.856  0.394-  32 2.01  43 2.41  38 2.65  36 2.65
  73  0.038  0.469  0.154-  30 2.01  27 2.01  49 2.51  56 2.51
  74  0.538  0.469  0.154-  29 2.01  28 2.01  50 2.51  55 2.51
  75  0.038  0.969  0.154-  32 2.01  25 2.01  51 2.51  54 2.51
  76  0.538  0.969  0.154-  31 2.01  26 2.01  52 2.51  53 2.51
  77  0.289  0.219  0.154-  25 2.01  29 2.01  53 2.52  49 2.52
  78  0.789  0.219  0.154-  26 2.01  30 2.01  54 2.52  50 2.52
  79  0.289  0.719  0.154-  27 2.01  31 2.01  55 2.52  51 2.52
  80  0.789  0.719  0.154-  28 2.01  32 2.01  56 2.52  52 2.52
  81  0.211  0.469  0.846-  19 2.01  21 2.02  49 2.52  55 2.52
  82  0.711  0.469  0.846-  22 2.01  20 2.01  50 2.52  56 2.52
  83  0.211  0.969  0.846-  23 2.01  17 2.01  51 2.52  53 2.52
  84  0.711  0.969  0.846-  24 2.01  18 2.01  52 2.52  54 2.52
  85  0.462  0.219  0.846-  21 2.01  18 2.01  53 2.51  50 2.51
  86  0.962  0.219  0.846-  17 2.01  22 2.01  54 2.51  49 2.51
  87  0.462  0.719  0.846-  20 2.01  23 2.01  55 2.51  52 2.51
  88  0.962  0.719  0.846-  19 2.01  24 2.01  56 2.51  51 2.51
 

IMPORTANT INFORMATION: All symmetrisations will be switched off!
NOSYMM: (Re-)initialisation of all symmetry stuff for point group C_1.

 
 
 KPOINTS: # No comment                            

Automatic generation of k-mesh.
Space group operators:
 irot       det(A)        alpha          n_x          n_y          n_z        tau_x        tau_y        tau_z
    1     1.000000     0.000000     1.000000     0.000000     0.000000     0.000000     0.000000     0.000000
 
 Subroutine IBZKPT returns following result:
 ===========================================
 
 Found     14 irreducible k-points:
 
 Following reciprocal coordinates:
            Coordinates               Weight
  0.000000  0.000000  0.000000      1.000000
  0.333333  0.000000  0.000000      2.000000
  0.000000  0.333333  0.000000      2.000000
  0.333333  0.333333  0.000000      2.000000
 -0.333333  0.333333 -0.000000      2.000000
  0.000000  0.000000  0.333333      2.000000
  0.333333  0.000000  0.333333      2.000000
 -0.333333  0.000000  0.333333      2.000000
  0.000000  0.333333  0.333333      2.000000
  0.333333  0.333333  0.333333      2.000000
 -0.333333  0.333333  0.333333      2.000000
  0.000000 -0.333333  0.333333      2.000000
  0.333333 -0.333333  0.333333      2.000000
 -0.333333 -0.333333  0.333333      2.000000
 
 Following cartesian coordinates:
            Coordinates               Weight
  0.000000  0.000000  0.000000      1.000000
  0.029997  0.000000  0.008162      2.000000
  0.000000  0.029983  0.000000      2.000000
  0.029997  0.029983  0.008162      2.000000
 -0.029997  0.029983 -0.008162      2.000000
  0.000001  0.000000  0.032684      2.000000
  0.029998  0.000000  0.040846      2.000000
 -0.029996  0.000000  0.024522      2.000000
  0.000001  0.029983  0.032684      2.000000
  0.029998  0.029983  0.040846      2.000000
 -0.029996  0.029983  0.024522      2.000000
  0.000001 -0.029983  0.032684      2.000000
  0.029998 -0.029983  0.040846      2.000000
 -0.029996 -0.029983  0.024522      2.000000
 


--------------------------------------------------------------------------------------------------------




 Dimension of arrays:
   k-points           NKPTS =     14   k-points in BZ     NKDIM =     14   number of bands    NBANDS=    538
   number of dos      NEDOS =    301   number of ions     NIONS =     88
   non local maximal  LDIM  =      6   non local SUM 2l+1 LMDIM =     18
   total plane-waves  NPLWV = 829440
   max r-space proj   IRMAX =      1   max aug-charges    IRDMAX= 166102
   dimension x,y,z NGX =    96 NGY =   96 NGZ =   90
   dimension x,y,z NGXF=   192 NGYF=  192 NGZF=  180
   support grid    NGXF=   384 NGYF=  384 NGZF=  360
   ions per type =              16  16  24  32
   NGX,Y,Z   is equivalent  to a cutoff of  14.36, 14.36, 14.16 a.u.
   NGXF,Y,Z  is equivalent  to a cutoff of  28.72, 28.71, 28.31 a.u.

 SYSTEM =  unknown system                          
 POSCAR =  # Compound: Li16O16S24Fe32. Old comment:

 Startparameter for this run:
   NWRITE =      1    write-flag & timer
   PREC   = accura    normal or accurate (medium, high low for compatibility)
   ISTART =      0    job   : 0-new  1-cont  2-samecut
   ICHARG =      1    charge: 1-file 2-atom 10-const
   ISPIN  =      2    spin polarized calculation?
   LNONCOLLINEAR =      F non collinear calculations
   LSORBIT =      F    spin-orbit coupling
   INIWAV =      1    electr: 0-lowe 1-rand  2-diag
   LASPH  =      T    aspherical Exc in radial PAW
   METAGGA=      F    non-selfconsistent MetaGGA calc.

 Electronic Relaxation 1
   ENCUT  =  650.0 eV  47.77 Ry    6.91 a.u.  23.10 23.11 21.97*2*pi/ulx,y,z
   ENINI  =  650.0     initial cutoff
   ENAUG  =  628.9 eV  augmentation charge cutoff
   NELM   =    200;   NELMIN=  8; NELMDL=  0     # of ELM steps 
   EDIFF  = 0.1E-05   stopping-criterion for ELM
   LREAL  =      F    real-space projection
   NLSPLINE    = F    spline interpolate recip. space projectors
   LCOMPAT=      F    compatible to vasp.4.4
   GGA_COMPAT  = T    GGA compatible to vasp.4.4-vasp.4.6
   LMAXPAW     = -100 max onsite density
   LMAXMIX     =    4 max onsite mixed and CHGCAR
   VOSKOWN=      0    Vosko Wilk Nusair interpolation
   ROPT   =    0.00000   0.00000   0.00000   0.00000
 Ionic relaxation
   EDIFFG = 0.1E-04   stopping-criterion for IOM
   NSW    =      0    number of steps for IOM
   NBLOCK =      1;   KBLOCK =      1    inner block; outer block 
   IBRION =     -1    ionic relax: 0-MD 1-quasi-New 2-CG
   NFREE  =      0    steps in history (QN), initial steepest desc. (CG)
   ISIF   =      2    stress and relaxation
   IWAVPR =     10    prediction:  0-non 1-charg 2-wave 3-comb
   ISYM   =      0    0-nonsym 1-usesym 2-fastsym
   LCORR  =      T    Harris-Foulkes like correction to forces

   POTIM  = 0.5000    time-step for ionic-motion
   TEIN   =    0.0    initial temperature
   TEBEG  =    0.0;   TEEND  =   0.0 temperature during run
   SMASS  =  -3.00    Nose mass-parameter (am)
   estimated Nose-frequenzy (Omega)   =  0.10E-29 period in steps =****** mass=  -0.282E-26a.u.
   SCALEE = 1.0000    scale energy and forces
   NPACO  =    256;   APACO  = 16.0  distance and # of slots for P.C.
   PSTRESS=    0.0 pullay stress

  Mass of Ions in am
   POMASS =   7.01 16.00 32.07 55.85
  Ionic Valenz
   ZVAL   =   3.00  6.00  6.00 14.00
  Atomic Wigner-Seitz radii
   RWIGS  =  -1.00 -1.00 -1.00 -1.00
  virtual crystal weights 
   VCA    =   1.00  1.00  1.00  1.00
   NELECT =     736.0000    total number of electrons
   NUPDOWN=      -1.0000    fix difference up-down

 DOS related values:
   EMIN   =  10.00;   EMAX   =-10.00  energy-range for DOS
   EFERMI =   0.00
   ISMEAR =     0;   SIGMA  =   0.05  broadening in eV -4-tet -1-fermi 0-gaus

 Electronic relaxation 2 (details)
   IALGO  =     38    algorithm
   LDIAG  =      T    sub-space diagonalisation (order eigenvalues)
   LSUBROT=      F    optimize rotation matrix (better conditioning)
   TURBO    =      0    0=normal 1=particle mesh
   IRESTART =      0    0=no restart 2=restart with 2 vectors
   NREBOOT  =      0    no. of reboots
   NMIN     =      0    reboot dimension
   EREF     =   0.00    reference energy to select bands
   IMIX   =      4    mixing-type and parameters
     AMIX     =   0.40;   BMIX     =  1.00
     AMIX_MAG =   1.60;   BMIX_MAG =  1.00
     AMIN     =   0.10
     WC   =   100.;   INIMIX=   1;  MIXPRE=   1;  MAXMIX= -45

 Intra band minimization:
   WEIMIN = 0.0000     energy-eigenvalue tresh-hold
   EBREAK =  0.46E-09  absolut break condition
   DEPER  =   0.30     relativ break condition  

   TIME   =   0.40     timestep for ELM

  volume/ion in A,a.u.               =      14.32        96.62
  Fermi-wavevector in a.u.,A,eV,Ry     =   1.368520  2.586127 25.481613  1.872846
  Thomas-Fermi vector in A             =   2.494476
 
 Write flags
   LWAVE        =      F    write WAVECAR
   LDOWNSAMPLE  =      F    k-point downsampling of WAVECAR
   LCHARG       =      T    write CHGCAR
   LVTOT        =      F    write LOCPOT, total local potential
   LVHAR        =      F    write LOCPOT, Hartree potential only
   LELF         =      F    write electronic localiz. function (ELF)
   LORBIT       =      0    0 simple, 1 ext, 2 COOP (PROOUT), +10 PAW based schemes


 Dipole corrections
   LMONO  =      F    monopole corrections only (constant potential shift)
   LDIPOL =      F    correct potential (dipole corrections)
   IDIPOL =      0    1-x, 2-y, 3-z, 4-all directions 
   EPSILON=  1.0000000 bulk dielectric constant

 LDA+U is selected, type is set to LDAUTYPE =  2
   angular momentum for each species LDAUL =    -1   -1   -1    2
   U (eV)           for each species LDAUU =   0.0  0.0  0.0  4.0
   J (eV)           for each species LDAUJ =   0.0  0.0  0.0  0.0
 Exchange correlation treatment:
   GGA     =    PE    GGA type
   LEXCH   =     8    internal setting for exchange type
   VOSKOWN=      0    Vosko Wilk Nusair interpolation
   LHFCALC =     F    Hartree Fock is set to
   LHFONE  =     F    Hartree Fock one center treatment
   AEXX    =    0.0000 exact exchange contribution

 Linear response parameters
   LEPSILON=     F    determine dielectric tensor
   LRPA    =     F    only Hartree local field effects (RPA)
   LNABLA  =     F    use nabla operator in PAW spheres
   LVEL    =     F    velocity operator in full k-point grid
   LINTERFAST=   F  fast interpolation
   KINTER  =     0    interpolate to denser k-point grid
   CSHIFT  =0.1000    complex shift for real part using Kramers Kronig
   OMEGAMAX=  -1.0    maximum frequency
   DEG_THRESHOLD= 0.2000000E-02 threshold for treating states as degnerate
   RTIME   =   -0.100 relaxation time in fs
  (WPLASMAI=    0.000 imaginary part of plasma frequency in eV, 0.658/RTIME)
   DFIELD  = 0.0000000 0.0000000 0.0000000 field for delta impulse in time
 
 Orbital magnetization related:
   ORBITALMAG=     F  switch on orbital magnetization
   LCHIMAG   =     F  perturbation theory with respect to B field
   DQ        =  0.001000  dq finite difference perturbation B field
   LLRAUG    =     F  two centre corrections for induced B field



--------------------------------------------------------------------------------------------------------


 Static calculation
 charge density and potential will be updated during run
 spin polarized calculation
 Variant of blocked Davidson
 Davidson routine will perform the subspace rotation
 perform sub-space diagonalisation
    after iterative eigenvector-optimisation
 modified Broyden-mixing scheme, WC =      100.0
 initial mixing is a Kerker type mixing with AMIX =  0.4000 and BMIX =      1.0000
 Hartree-type preconditioning will be used
 using additional bands          170
 reciprocal scheme for non local part
 use partial core corrections
 calculate Harris-corrections to forces 
   (improved forces if not selfconsistent)
 use gradient corrections 
 use of overlap-Matrix (Vanderbilt PP)
 Gauss-broadening in eV      SIGMA  =   0.05


--------------------------------------------------------------------------------------------------------


  energy-cutoff  :      650.00
  volume of cell :     1259.94
      direct lattice vectors                 reciprocal lattice vectors
    11.112233740  0.000000000 -0.000290340     0.089991547  0.000000000  0.024487024
     0.000000000 11.117451940  0.000000000     0.000000000  0.089948669  0.000000000
    -2.775108980  0.000000000 10.198722210     0.000002562  0.000000000  0.098052196

  length of vectors
    11.112233744 11.117451940 10.569539468     0.093263567  0.089948669  0.098052196


 
 k-points in units of 2pi/SCALE and weight: # No comment                            
   0.00000000  0.00000000  0.00000000       0.037
   0.02999718  0.00000000  0.00816234       0.074
   0.00000000  0.02998289  0.00000000       0.074
   0.02999718  0.02998289  0.00816234       0.074
  -0.02999718  0.02998289 -0.00816234       0.074
   0.00000085  0.00000000  0.03268407       0.074
   0.02999804  0.00000000  0.04084641       0.074
  -0.02999633  0.00000000  0.02452172       0.074
   0.00000085  0.02998289  0.03268407       0.074
   0.02999804  0.02998289  0.04084641       0.074
  -0.02999633  0.02998289  0.02452172       0.074
   0.00000085 -0.02998289  0.03268407       0.074
   0.02999804 -0.02998289  0.04084641       0.074
  -0.02999633 -0.02998289  0.02452172       0.074
 
 k-points in reciprocal lattice and weights: # No comment                            
   0.00000000  0.00000000  0.00000000       0.037
   0.33333333  0.00000000  0.00000000       0.074
   0.00000000  0.33333333  0.00000000       0.074
   0.33333333  0.33333333  0.00000000       0.074
  -0.33333333  0.33333333 -0.00000000       0.074
   0.00000000  0.00000000  0.33333333       0.074
   0.33333333  0.00000000  0.33333333       0.074
  -0.33333333  0.00000000  0.33333333       0.074
   0.00000000  0.33333333  0.33333333       0.074
   0.33333333  0.33333333  0.33333333       0.074
  -0.33333333  0.33333333  0.33333333       0.074
   0.00000000 -0.33333333  0.33333333       0.074
   0.33333333 -0.33333333  0.33333333       0.074
  -0.33333333 -0.33333333  0.33333333       0.074
 
 position of ions in fractional coordinates (direct lattice) 
   0.28894969  0.46933910  0.15583616
   0.78894969  0.46933910  0.15583616
   0.28894969  0.96933910  0.15583616
   0.78894969  0.96933910  0.15583616
   0.04646972  0.21934976  0.18586770
   0.54646972  0.21934976  0.18586770
   0.04646972  0.71934976  0.18586770
   0.54646972  0.71934976  0.18586770
   0.45353028  0.46934976  0.81413230
   0.95353028  0.46934976  0.81413230
   0.45353028  0.96934976  0.81413230
   0.95353028  0.96934976  0.81413230
   0.21105031  0.21933910  0.84416384
   0.71105031  0.21933910  0.84416384
   0.21105031  0.71933910  0.84416384
   0.71105031  0.71933910  0.84416384
   0.07654971  0.09530995  0.80250593
   0.57654971  0.09530995  0.80250593
   0.07654971  0.59530995  0.80250593
   0.57654971  0.59530995  0.80250593
   0.32560457  0.34338175  0.80250383
   0.82470466  0.34338175  0.80250383
   0.32470466  0.84338175  0.80250383
   0.82470466  0.84338175  0.80250383
   0.17529534  0.09338175  0.19749617
   0.67529534  0.09338175  0.19749617
   0.17529534  0.59338175  0.19749617
   0.67529534  0.59338175  0.19749617
   0.42345029  0.34530995  0.19749407
   0.92345029  0.34530995  0.19749407
   0.42345029  0.84530995  0.19749407
   0.92345029  0.84530995  0.19749407
   0.21868463  0.34523395  0.37102476
   0.71868463  0.34523395  0.37102476
   0.21868463  0.84523395  0.37102476
   0.71868463  0.84523395  0.37102476
   0.46681660  0.09344897  0.37102399
   0.96681660  0.09344897  0.37102399
   0.46681660  0.59344897  0.37102399
   0.96681660  0.59344897  0.37102399
   0.03318340  0.34344897  0.62897601
   0.53318340  0.34344897  0.62897601
   0.03318340  0.84344897  0.62897601
   0.53318340  0.84344897  0.62897601
   0.28131537  0.09523395  0.62897524
   0.78131537  0.09523395  0.62897524
   0.28131537  0.59523395  0.62897524
   0.78131537  0.59523395  0.62897524
   0.12439279  0.34434306  0.00000412
   0.62439279  0.34434306  0.00000412
   0.12439279  0.84434306  0.00000412
   0.62439279  0.84434306  0.00000412
   0.37560721  0.09434306  0.99999588
   0.87560721  0.09434306  0.99999588
   0.37560721  0.59434306  0.99999588
   0.87560721  0.59434306  0.99999588
   0.03824426  0.10634799  0.60632306
   0.53824426  0.10634799  0.60632306
   0.03824426  0.60634799  0.60632306
   0.53824426  0.60634799  0.60632306
   0.26492712  0.33232651  0.60632763
   0.76492712  0.33232651  0.60632763
   0.26492712  0.83232651  0.60632763
   0.76492712  0.83232651  0.60632763
   0.23507288  0.08232651  0.39367237
   0.73507288  0.08232651  0.39367237
   0.23507288  0.58232651  0.39367237
   0.73507288  0.58232651  0.39367237
   0.46175574  0.35634799  0.39367694
   0.96175574  0.35634799  0.39367694
   0.46175574  0.85634799  0.39367694
   0.96175574  0.85634799  0.39367694
   0.03848398  0.46936404  0.15397331
   0.53848398  0.46936404  0.15397331
   0.03848398  0.96936404  0.15397331
   0.53848398  0.96936404  0.15397331
   0.28861657  0.21935690  0.15447525
   0.78861657  0.21935690  0.15447525
   0.28861657  0.71935690  0.15447525
   0.78861657  0.71935690  0.15447525
   0.21138343  0.46935690  0.84552475
   0.71138343  0.46935690  0.84552475
   0.21138343  0.96935690  0.84552475
   0.71138343  0.96935690  0.84552475
   0.46151602  0.21936404  0.84602669
   0.96151602  0.21936404  0.84602669
   0.46151602  0.71936404  0.84602669
   0.96151602  0.71936404  0.84602669
 
 position of ions in cartesian coordinates  (Angst):
   2.77841422  5.21785483  1.58924581
   8.33453109  5.21785483  1.58910064
   2.77841422 10.77658080  1.58924581
   8.33453109 10.77658080  1.58910064
   0.00057921  2.43861041  1.89559955
   5.55669608  2.43861041  1.89545438
   0.00057921  7.99733638  1.89559955
   5.55669608  7.99733638  1.89545438
   2.78042868  5.21797340  8.30297749
   8.33654555  5.21797340  8.30283232
   2.78042868 10.77669937  8.30297749
   8.33654555 10.77669937  8.30283232
   0.00259367  2.43849185  8.60933123
   5.55871054  2.43849185  8.60918606
   0.00259367  7.99721782  8.60933123
   5.55871054  7.99721782  8.60918606
  -1.37640314  1.05960384  8.18451283
   4.17971373  1.05960384  8.18436766
  -1.37640314  6.61832981  8.18451283
   4.17971373  6.61832981  8.18436766
   1.39115855  3.81753010  8.18441910
   6.93727542  3.81753010  8.18427419
   1.38115855  9.37625607  8.18441936
   6.93727542  9.37625607  8.18427419
   1.39984934  1.03816712  2.01415768
   6.95596621  1.03816712  2.01401251
   1.39984934  6.59689309  2.01415768
   6.95596621  6.59689309  2.01401251
   4.15741103  3.83896683  2.01406421
   9.71352790  3.83896683  2.01391904
   4.15741103  9.39769280  2.01406421
   9.71352790  9.39769280  2.01391904
   1.40044058  3.83812185  3.78391497
   6.95655745  3.83812185  3.78376980
   1.40044058  9.39684782  3.78391497
   6.95655745  9.39684782  3.78376980
   4.15774317  1.03891443  3.78383507
   9.71386004  1.03891443  3.78368990
   4.15774317  6.59764040  3.78383507
   9.71386004  6.59764040  3.78368990
  -1.37673528  3.81827742  6.41474197
   4.17938159  3.81827742  6.41459680
  -1.37673528  9.37700339  6.41474197
   4.17938159  9.37700339  6.41459680
   1.38056731  1.05875886  6.41466207
   6.93668418  1.05875886  6.41451690
   1.38056731  6.61748483  6.41466207
   6.93668418  6.61748483  6.41451690
   1.38227032  3.82821742  0.00000590
   6.93838719  3.82821742 -0.00013927
   1.38227032  9.38694339  0.00000590
   6.93838719  9.38694339 -0.00013927
   1.39873757  1.04885444 10.19857114
   6.95485444  1.04885444 10.19842597
   1.39873757  6.60758041 10.19857114
   6.95485444  6.60758041 10.19842597
  -1.25763347  1.18231867  6.18370935
   4.29848340  1.18231867  6.18356418
  -1.25763347  6.74104464  6.18370935
   4.29848340  6.74104464  6.18356418
   1.26130689  3.69462400  6.18369015
   6.81742376  3.69462400  6.18354498
   1.26130689  9.25334997  6.18369015
   6.81742376  9.25334997  6.18354498
   1.51970100  0.91526102  4.01488689
   7.07581787  0.91526102  4.01474172
   1.51970100  6.47398699  4.01488689
   7.07581787  6.47398699  4.01474172
   4.03864136  3.96168165  4.01486769
   9.59475823  3.96168165  4.01472252
   4.03864136  9.52040762  4.01486769
   9.59475823  9.52040762  4.01472252
   0.00035027  5.21813216  1.57031984
   5.55646714  5.21813216  1.57017467
   0.00035027 10.77685813  1.57031984
   5.55646714 10.77685813  1.57017467
   2.77848919  2.43868979  1.57536637
   8.33460606  2.43868979  1.57522120
   2.77848919  7.99741576  1.57536637
   8.33460606  7.99741576  1.57522120
   0.00251870  5.21805278  8.62321067
   5.55863557  5.21805278  8.62306550
   0.00251870 10.77677875  8.62321067
   5.55863557 10.77677875  8.62306550
   2.78065762  2.43876917  8.62825720
   8.33677449  2.43876917  8.62811203
   2.78065762  7.99749514  8.62825720
   8.33677449  7.99749514  8.62811203
 


--------------------------------------------------------------------------------------------------------


 k-point  1 :   0.0000 0.0000 0.0000  plane waves:   47369
 k-point  2 :   0.3333 0.0000 0.0000  plane waves:   47373
 k-point  3 :   0.0000 0.3333 0.0000  plane waves:   47370
 k-point  4 :   0.3333 0.3333 0.0000  plane waves:   47404
 k-point  5 :  -0.3333 0.3333-0.0000  plane waves:   47404
 k-point  6 :   0.0000 0.0000 0.3333  plane waves:   47419
 k-point  7 :   0.3333 0.0000 0.3333  plane waves:   47399
 k-point  8 :  -0.3333 0.0000 0.3333  plane waves:   47417
 k-point  9 :   0.0000 0.3333 0.3333  plane waves:   47409
 k-point 10 :   0.3333 0.3333 0.3333  plane waves:   47422
 k-point 11 :  -0.3333 0.3333 0.3333  plane waves:   47440
 k-point 12 :   0.0000-0.3333 0.3333  plane waves:   47409
 k-point 13 :   0.3333-0.3333 0.3333  plane waves:   47422
 k-point 14 :  -0.3333-0.3333 0.3333  plane waves:   47440

 maximum and minimum number of plane-waves per node :      7942     7858

 maximum number of plane-waves:     47440
 maximum index in each direction: 
   IXMAX=   23   IYMAX=   23   IZMAX=   21
   IXMIN=  -23   IYMIN=  -23   IZMIN=  -22


 parallel 3D FFT for wavefunctions:
    minimum data exchange during FFTs selected (reduces bandwidth)
 parallel 3D FFT for charge:
    minimum data exchange during FFTs selected (reduces bandwidth)


 total amount of memory used by VASP MPI-rank0  1233264. kBytes
=======================================================================

   base      :      30000. kBytes
   nonl-proj :      75226. kBytes
   fftplans  :      85054. kBytes
   grid      :      64684. kBytes
   one-center:        466. kBytes
   wavefun   :     977834. kBytes
 
     INWAV:  cpu time    0.0001: real time    0.0000
 Broyden mixing: mesh for mixing (old mesh)
   NGX = 47   NGY = 47   NGZ = 43
  (NGX  =192   NGY  =192   NGZ  =180)
  gives a total of  94987 points

 initial charge density was supplied:
 number of electron     736.0000016 magnetization     127.9999885
 keeping initial charge density in first step


--------------------------------------------------------------------------------------------------------


 Maximum index for augmentation-charges        13229 (set IRDMAX)


--------------------------------------------------------------------------------------------------------


 First call to EWALD:  gamma=   0.164
 Maximum number of real-space cells 3x 3x 3
 Maximum number of reciprocal cells 3x 3x 3

    FEWALD:  cpu time    0.0041: real time    0.0043


--------------------------------------- Iteration      1(   1)  ---------------------------------------


    POTLOK:  cpu time    1.0356: real time    1.4561
    SETDIJ:  cpu time    2.2782: real time    2.3204
     EDDAV:  cpu time  307.4351: real time  310.6663
       DOS:  cpu time    0.0081: real time    0.0081
    --------------------------------------------
      LOOP:  cpu time  310.7569: real time  314.4509

 eigenvalue-minimisations  : 30944
 total energy-change (2. order) : 0.1040964E+05  (-0.4118848E+05)
 number of electron     736.0000016 magnetization     127.9999885
 augmentation part      736.0000016 magnetization     127.9999885

 Free energy of the ion-electron system (eV)
  ---------------------------------------------------
  alpha Z        PSCENC =      2314.49656628
  Ewald energy   TEWEN  =    -57723.19645674
  -Hartree energ DENC   =    -30348.72725456
  -exchange      EXHF   =         0.00000000
  -V(xc)+E(xc)   XCENC  =      3229.29911504
  PAW double counting   =     92679.89207989   -95535.38516353
  entropy T*S    EENTRO =        -0.01840400
  eigenvalues    EBANDS =       349.79923860
  atomic energy  EATOM  =     95443.47970955
  Solvation  Ediel_sol  =         0.00000000
  ---------------------------------------------------
  free energy    TOTEN  =     10409.63943052 eV

  energy without entropy =    10409.65783452  energy(sigma->0) =    10409.64863252


--------------------------------------------------------------------------------------------------------




--------------------------------------- Iteration      1(   2)  ---------------------------------------


     EDDAV:  cpu time  301.7022: real time  304.6143
       DOS:  cpu time    0.0084: real time    0.0084
    --------------------------------------------
      LOOP:  cpu time  301.7106: real time  304.6227

 eigenvalue-minimisations  : 30128
 total energy-change (2. order) :-0.9232151E+04  (-0.8658352E+04)
 number of electron     736.0000016 magnetization     127.9999885
 augmentation part      736.0000016 magnetization     127.9999885

 Free energy of the ion-electron system (eV)
  ---------------------------------------------------
  alpha Z        PSCENC =      2314.49656628
  Ewald energy   TEWEN  =    -57723.19645674
  -Hartree energ DENC   =    -30348.72725456
  -exchange      EXHF   =         0.00000000
  -V(xc)+E(xc)   XCENC  =      3229.29911504
  PAW double counting   =     92679.89207989   -95535.38516353
  entropy T*S    EENTRO =        -0.06585905
  eigenvalues    EBANDS =     -8882.30470491
  atomic energy  EATOM  =     95443.47970955
  Solvation  Ediel_sol  =         0.00000000
  ---------------------------------------------------
  free energy    TOTEN  =      1177.48803196 eV

  energy without entropy =     1177.55389101  energy(sigma->0) =     1177.52096149


--------------------------------------------------------------------------------------------------------




--------------------------------------- Iteration      1(   3)  ---------------------------------------


     EDDAV:  cpu time  318.3396: real time  320.9518
       DOS:  cpu time    0.0026: real time    0.0026
    --------------------------------------------
      LOOP:  cpu time  318.3422: real time  320.9544

 eigenvalue-minimisations  : 32368
 total energy-change (2. order) :-0.1485542E+04  (-0.1278918E+04)
 number of electron     736.0000016 magnetization     127.9999885
 augmentation part      736.0000016 magnetization     127.9999885

 Free energy of the ion-electron system (eV)
  ---------------------------------------------------
  alpha Z        PSCENC =      2314.49656628
  Ewald energy   TEWEN  =    -57723.19645674
  -Hartree energ DENC   =    -30348.72725456
  -exchange      EXHF   =         0.00000000
  -V(xc)+E(xc)   XCENC  =      3229.29911504
  PAW double counting   =     92679.89207989   -95535.38516353
  entropy T*S    EENTRO =        -0.00000000
  eigenvalues    EBANDS =    -10367.91274928
  atomic energy  EATOM  =     95443.47970955
  Solvation  Ediel_sol  =         0.00000000
  ---------------------------------------------------
  free energy    TOTEN  =      -308.05415336 eV

  energy without entropy =     -308.05415336  energy(sigma->0) =     -308.05415336


--------------------------------------------------------------------------------------------------------




--------------------------------------- Iteration      1(   4)  ---------------------------------------


     EDDAV:  cpu time  338.7038: real time  341.7194
       DOS:  cpu time    0.0026: real time    0.0027
    --------------------------------------------
      LOOP:  cpu time  338.7064: real time  341.7221

 eigenvalue-minimisations  : 35016
 total energy-change (2. order) :-0.1682450E+03  (-0.1654894E+03)
 number of electron     736.0000016 magnetization     127.9999885
 augmentation part      736.0000016 magnetization     127.9999885

 Free energy of the ion-electron system (eV)
  ---------------------------------------------------
  alpha Z        PSCENC =      2314.49656628
  Ewald energy   TEWEN  =    -57723.19645674
  -Hartree energ DENC   =    -30348.72725456
  -exchange      EXHF   =         0.00000000
  -V(xc)+E(xc)   XCENC  =      3229.29911504
  PAW double counting   =     92679.89207989   -95535.38516353
  entropy T*S    EENTRO =        -0.00000000
  eigenvalues    EBANDS =    -10536.15779424
  atomic energy  EATOM  =     95443.47970955
  Solvation  Ediel_sol  =         0.00000000
  ---------------------------------------------------
  free energy    TOTEN  =      -476.29919832 eV

  energy without entropy =     -476.29919832  energy(sigma->0) =     -476.29919832


--------------------------------------------------------------------------------------------------------




--------------------------------------- Iteration      1(   5)  ---------------------------------------


     EDDAV:  cpu time  451.5945: real time  455.3990
       DOS:  cpu time    0.0027: real time    0.0027
    CHARGE:  cpu time    9.2249: real time    9.2621
    MIXING:  cpu time    0.0369: real time    0.0369
    --------------------------------------------
      LOOP:  cpu time  460.8589: real time  464.7007

 eigenvalue-minimisations  : 49832
 total energy-change (2. order) :-0.1243547E+02  (-0.1231231E+02)
 number of electron     736.0000016 magnetization     127.9999932
 augmentation part      278.4624125 magnetization      84.1343971

 Broyden mixing:
  rms(total) = 0.20714E+00    rms(broyden)= 0.20697E+00
  rms(prec ) = 0.21065E+00
  weight for this iteration     100.00

 Free energy of the ion-electron system (eV)
  ---------------------------------------------------
  alpha Z        PSCENC =      2314.49656628
  Ewald energy   TEWEN  =    -57723.19645674
  -Hartree energ DENC   =    -30348.72725456
  -exchange      EXHF   =         0.00000000
  -V(xc)+E(xc)   XCENC  =      3229.29911504
  PAW double counting   =     92679.89207989   -95535.38516353
  entropy T*S    EENTRO =        -0.00000000
  eigenvalues    EBANDS =    -10548.59326411
  atomic energy  EATOM  =     95443.47970955
  Solvation  Ediel_sol  =         0.00000000
  ---------------------------------------------------
  free energy    TOTEN  =      -488.73466819 eV

  energy without entropy =     -488.73466819  energy(sigma->0) =     -488.73466819


--------------------------------------------------------------------------------------------------------




--------------------------------------- Iteration      1(   6)  ---------------------------------------


    POTLOK:  cpu time    1.0509: real time    1.0531
    SETDIJ:  cpu time    2.3050: real time    2.3065
     EDDAV:  cpu time  392.0486: real time  395.3495
       DOS:  cpu time    0.0025: real time    0.0026
    CHARGE:  cpu time    9.2628: real time    9.3687
    MIXING:  cpu time    0.0321: real time    0.0321
    --------------------------------------------
      LOOP:  cpu time  404.7020: real time  408.1125

 eigenvalue-minimisations  : 42064
 total energy-change (2. order) :-0.4657178E+00  (-0.4799929E+00)
 number of electron     736.0000016 magnetization     127.9999951
 augmentation part      277.9604525 magnetization      84.1630243

 Broyden mixing:
  rms(total) = 0.10238E+00    rms(broyden)= 0.10222E+00
  rms(prec ) = 0.10310E+00
  weight for this iteration     100.00

 eigenvalues of (default mixing * dielectric matrix)
  average eigenvalue GAMMA=   0.6572
  0.6572

 Free energy of the ion-electron system (eV)
  ---------------------------------------------------
  alpha Z        PSCENC =      2314.49656628
  Ewald energy   TEWEN  =    -57723.19645674
  -Hartree energ DENC   =    -30346.88569320
  -exchange      EXHF   =         0.00000000
  -V(xc)+E(xc)   XCENC  =      3228.99877496
  PAW double counting   =     92523.59290802   -95377.42951566
  entropy T*S    EENTRO =        -0.00000000
  eigenvalues    EBANDS =    -10552.25667921
  atomic energy  EATOM  =     95443.47970955
  Solvation  Ediel_sol  =         0.00000000
  ---------------------------------------------------
  free energy    TOTEN  =      -489.20038600 eV

  energy without entropy =     -489.20038600  energy(sigma->0) =     -489.20038600


--------------------------------------------------------------------------------------------------------




--------------------------------------- Iteration      1(   7)  ---------------------------------------


    POTLOK:  cpu time    1.0358: real time    1.0624
    SETDIJ:  cpu time    2.2932: real time    2.3153
     EDDAV:  cpu time  425.7182: real time  429.6587
       DOS:  cpu time    0.0028: real time    0.0028
    CHARGE:  cpu time    9.3811: real time    9.4203
    MIXING:  cpu time    0.0299: real time    0.0299
    --------------------------------------------
      LOOP:  cpu time  438.4609: real time  442.4893

 eigenvalue-minimisations  : 46272
 total energy-change (2. order) :-0.1656991E-01  (-0.1745311E-01)
 number of electron     736.0000016 magnetization     127.9999959
 augmentation part      277.8795913 magnetization      84.1547769

 Broyden mixing:
  rms(total) = 0.59350E-01    rms(broyden)= 0.59308E-01
  rms(prec ) = 0.60785E-01
  weight for this iteration     100.00

 eigenvalues of (default mixing * dielectric matrix)
  average eigenvalue GAMMA=   0.5656
  0.5656  0.5656

 Free energy of the ion-electron system (eV)
  ---------------------------------------------------
  alpha Z        PSCENC =      2314.49656628
  Ewald energy   TEWEN  =    -57723.19645674
  -Hartree energ DENC   =    -30347.82263685
  -exchange      EXHF   =         0.00000000
  -V(xc)+E(xc)   XCENC  =      3229.08443734
  PAW double counting   =     92580.80738033   -95435.21986184
  entropy T*S    EENTRO =        -0.00000000
  eigenvalues    EBANDS =    -10550.84609399
  atomic energy  EATOM  =     95443.47970955
  Solvation  Ediel_sol  =         0.00000000
  ---------------------------------------------------
  free energy    TOTEN  =      -489.21695592 eV

  energy without entropy =     -489.21695592  energy(sigma->0) =     -489.21695592


--------------------------------------------------------------------------------------------------------




--------------------------------------- Iteration      1(   8)  ---------------------------------------


    POTLOK:  cpu time    1.0428: real time    1.0757
    SETDIJ:  cpu time    2.3008: real time    2.3022
     EDDAV:  cpu time  398.9687: real time  402.6750
       DOS:  cpu time    0.0030: real time    0.0030
    CHARGE:  cpu time    9.3414: real time    9.3563
    MIXING:  cpu time    0.0364: real time    0.0365
    --------------------------------------------
      LOOP:  cpu time  411.6930: real time  415.4487

 eigenvalue-minimisations  : 42856
 total energy-change (2. order) : 0.4763855E-03  (-0.3545261E-03)
 number of electron     736.0000016 magnetization     127.9999964
 augmentation part      277.8711980 magnetization      84.1567974

 Broyden mixing:
  rms(total) = 0.52867E-01    rms(broyden)= 0.52864E-01
  rms(prec ) = 0.54137E-01
  weight for this iteration     100.00

 eigenvalues of (default mixing * dielectric matrix)
  average eigenvalue GAMMA=   0.5723
  0.6306  0.6306  0.4559

 Free energy of the ion-electron system (eV)
  ---------------------------------------------------
  alpha Z        PSCENC =      2314.49656628
  Ewald energy   TEWEN  =    -57723.19645674
  -Hartree energ DENC   =    -30347.78943375
  -exchange      EXHF   =         0.00000000
  -V(xc)+E(xc)   XCENC  =      3229.11296025
  PAW double counting   =     92594.15305335   -95448.69760637
  entropy T*S    EENTRO =        -0.00000000
  eigenvalues    EBANDS =    -10550.77527211
  atomic energy  EATOM  =     95443.47970955
  Solvation  Ediel_sol  =         0.00000000
  ---------------------------------------------------
  free energy    TOTEN  =      -489.21647953 eV

  energy without entropy =     -489.21647953  energy(sigma->0) =     -489.21647953


--------------------------------------------------------------------------------------------------------




--------------------------------------- Iteration      1(   9)  ---------------------------------------


    POTLOK:  cpu time    1.0491: real time    1.0515
    SETDIJ:  cpu time    2.3069: real time    2.3085
     EDDAV:  cpu time  444.3685: real time  448.3577
       DOS:  cpu time    0.0029: real time    0.0029
    CHARGE:  cpu time    9.2886: real time    9.3900
    MIXING:  cpu time    0.0444: real time    0.0488
    --------------------------------------------
      LOOP:  cpu time  457.0604: real time  461.1595

 eigenvalue-minimisations  : 48616
 total energy-change (2. order) : 0.5039626E-03  (-0.2188622E-04)
 number of electron     736.0000016 magnetization     127.9999986
 augmentation part      277.8735806 magnetization      84.1569524

 Broyden mixing:
  rms(total) = 0.45585E-01    rms(broyden)= 0.45585E-01
  rms(prec ) = 0.46637E-01
  weight for this iteration     100.00

 eigenvalues of (default mixing * dielectric matrix)
  average eigenvalue GAMMA=   0.8419
  1.1236  1.1236  0.5601  0.5601

 Free energy of the ion-electron system (eV)
  ---------------------------------------------------
  alpha Z        PSCENC =      2314.49656628
  Ewald energy   TEWEN  =    -57723.19645674
  -Hartree energ DENC   =    -30347.87555479
  -exchange      EXHF   =         0.00000000
  -V(xc)+E(xc)   XCENC  =      3229.14039589
  PAW double counting   =     92603.74207482   -95458.41495815
  entropy T*S    EENTRO =        -0.00000000
  eigenvalues    EBANDS =    -10550.58775242
  atomic energy  EATOM  =     95443.47970955
  Solvation  Ediel_sol  =         0.00000000
  ---------------------------------------------------
  free energy    TOTEN  =      -489.21597557 eV

  energy without entropy =     -489.21597557  energy(sigma->0) =     -489.21597557


--------------------------------------------------------------------------------------------------------




--------------------------------------- Iteration      1(  10)  ---------------------------------------


    POTLOK:  cpu time    1.0483: real time    1.0749
    SETDIJ:  cpu time    2.2719: real time    2.2996
     EDDAV:  cpu time  440.1216: real time  446.6877
       DOS:  cpu time    0.0030: real time    0.0034
    CHARGE:  cpu time    9.3449: real time    9.3685
    MIXING:  cpu time    0.0306: real time    0.0306
    --------------------------------------------
      LOOP:  cpu time  452.8203: real time  459.4648

 eigenvalue-minimisations  : 47632
 total energy-change (2. order) : 0.1018558E-02  (-0.9851318E-04)
 number of electron     736.0000016 magnetization     127.9999998
 augmentation part      277.8863187 magnetization      84.1583386

 Broyden mixing:
  rms(total) = 0.19628E-01    rms(broyden)= 0.19627E-01
  rms(prec ) = 0.19854E-01
  weight for this iteration     100.00

 eigenvalues of (default mixing * dielectric matrix)
  average eigenvalue GAMMA=   0.9340
  1.4919  1.4919  0.6157  0.6157  0.4549

 Free energy of the ion-electron system (eV)
  ---------------------------------------------------
  alpha Z        PSCENC =      2314.49656628
  Ewald energy   TEWEN  =    -57723.19645674
  -Hartree energ DENC   =    -30348.41822023
  -exchange      EXHF   =         0.00000000
  -V(xc)+E(xc)   XCENC  =      3229.25008495
  PAW double counting   =     92642.73118696   -95497.92456209
  entropy T*S    EENTRO =        -0.00000000
  eigenvalues    EBANDS =    -10549.63326568
  atomic energy  EATOM  =     95443.47970955
  Solvation  Ediel_sol  =         0.00000000
  ---------------------------------------------------
  free energy    TOTEN  =      -489.21495701 eV

  energy without entropy =     -489.21495701  energy(sigma->0) =     -489.21495701


--------------------------------------------------------------------------------------------------------




--------------------------------------- Iteration      1(  11)  ---------------------------------------


    POTLOK:  cpu time    1.0535: real time    1.0555
    SETDIJ:  cpu time    2.2982: real time    2.2999
     EDDAV:  cpu time  361.9609: real time  364.6819
       DOS:  cpu time    0.0027: real time    0.0027
    CHARGE:  cpu time    9.2560: real time    9.4045
    MIXING:  cpu time    0.0357: real time    0.0382
    --------------------------------------------
      LOOP:  cpu time  374.6069: real time  377.4828

 eigenvalue-minimisations  : 38176
 total energy-change (2. order) : 0.7480569E-04  (-0.4897035E-04)
 number of electron     736.0000016 magnetization     128.0000000
 augmentation part      277.8921027 magnetization      84.1584615

 Broyden mixing:
  rms(total) = 0.71815E-02    rms(broyden)= 0.71792E-02
  rms(prec ) = 0.72183E-02
  weight for this iteration     100.00

 eigenvalues of (default mixing * dielectric matrix)
  average eigenvalue GAMMA=   0.9007
  1.5082  1.5082  0.6630  0.6630  0.5309  0.5309

 Free energy of the ion-electron system (eV)
  ---------------------------------------------------
  alpha Z        PSCENC =      2314.49656628
  Ewald energy   TEWEN  =    -57723.19645674
  -Hartree energ DENC   =    -30348.68270719
  -exchange      EXHF   =         0.00000000
  -V(xc)+E(xc)   XCENC  =      3229.30243891
  PAW double counting   =     92665.69420983   -95521.15129819
  entropy T*S    EENTRO =        -0.00000000
  eigenvalues    EBANDS =    -10549.15734465
  atomic energy  EATOM  =     95443.47970955
  Solvation  Ediel_sol  =         0.00000000
  ---------------------------------------------------
  free energy    TOTEN  =      -489.21488220 eV

  energy without entropy =     -489.21488220  energy(sigma->0) =     -489.21488220


--------------------------------------------------------------------------------------------------------




--------------------------------------- Iteration      1(  12)  ---------------------------------------


    POTLOK:  cpu time    1.0408: real time    1.0521
    SETDIJ:  cpu time    2.2590: real time    2.3169
     EDDAV:  cpu time  389.3317: real time  392.5762
       DOS:  cpu time    0.0025: real time    0.0025
    CHARGE:  cpu time    9.2829: real time    9.3169
    MIXING:  cpu time    0.0391: real time    0.0391
    --------------------------------------------
      LOOP:  cpu time  401.9560: real time  405.3038

 eigenvalue-minimisations  : 41728
 total energy-change (2. order) :-0.1318271E-04  (-0.1170945E-04)
 number of electron     736.0000016 magnetization     128.0000001
 augmentation part      277.8943225 magnetization      84.1583771

 Broyden mixing:
  rms(total) = 0.57646E-02    rms(broyden)= 0.57632E-02
  rms(prec ) = 0.58230E-02
  weight for this iteration     100.00

 eigenvalues of (default mixing * dielectric matrix)
  average eigenvalue GAMMA=   0.9780
  1.5094  1.5094  1.0705  1.0705  0.5920  0.5920  0.5022

 Free energy of the ion-electron system (eV)
  ---------------------------------------------------
  alpha Z        PSCENC =      2314.49656628
  Ewald energy   TEWEN  =    -57723.19645674
  -Hartree energ DENC   =    -30348.69314919
  -exchange      EXHF   =         0.00000000
  -V(xc)+E(xc)   XCENC  =      3229.30301141
  PAW double counting   =     92669.07174365   -95524.53646253
  entropy T*S    EENTRO =        -0.00000000
  eigenvalues    EBANDS =    -10549.13985781
  atomic energy  EATOM  =     95443.47970955
  Solvation  Ediel_sol  =         0.00000000
  ---------------------------------------------------
  free energy    TOTEN  =      -489.21489539 eV

  energy without entropy =     -489.21489539  energy(sigma->0) =     -489.21489539


--------------------------------------------------------------------------------------------------------




--------------------------------------- Iteration      1(  13)  ---------------------------------------


    POTLOK:  cpu time    1.0512: real time    1.0526
    SETDIJ:  cpu time    2.3085: real time    2.3144
     EDDAV:  cpu time  274.7717: real time  277.4778
       DOS:  cpu time    0.0025: real time    0.0025
    CHARGE:  cpu time    9.2631: real time    9.2827
    MIXING:  cpu time    0.0339: real time    0.0339
    --------------------------------------------
      LOOP:  cpu time  287.4310: real time  290.1639

 eigenvalue-minimisations  : 26424
 total energy-change (2. order) :-0.2812376E-05  (-0.3060421E-06)
 number of electron     736.0000016 magnetization     128.0000004
 augmentation part      277.8943725 magnetization      84.1582987

 Broyden mixing:
  rms(total) = 0.42394E-02    rms(broyden)= 0.42379E-02
  rms(prec ) = 0.42665E-02
  weight for this iteration     100.00

 eigenvalues of (default mixing * dielectric matrix)
  average eigenvalue GAMMA=   1.1939
  2.5014  2.5014  1.0494  1.0494  0.6963  0.6963  0.5286  0.5286

 Free energy of the ion-electron system (eV)
  ---------------------------------------------------
  alpha Z        PSCENC =      2314.49656628
  Ewald energy   TEWEN  =    -57723.19645674
  -Hartree energ DENC   =    -30348.67091537
  -exchange      EXHF   =         0.00000000
  -V(xc)+E(xc)   XCENC  =      3229.29827156
  PAW double counting   =     92671.50141987   -95526.95338416
  entropy T*S    EENTRO =        -0.00000000
  eigenvalues    EBANDS =    -10549.17010919
  atomic energy  EATOM  =     95443.47970955
  Solvation  Ediel_sol  =         0.00000000
  ---------------------------------------------------
  free energy    TOTEN  =      -489.21489820 eV

  energy without entropy =     -489.21489820  energy(sigma->0) =     -489.21489820


--------------------------------------------------------------------------------------------------------




--------------------------------------- Iteration      1(  14)  ---------------------------------------


    POTLOK:  cpu time    1.0490: real time    1.0514
    SETDIJ:  cpu time    2.2898: real time    2.2994
     EDDAV:  cpu time  323.2860: real time  325.9153
       DOS:  cpu time    0.0026: real time    0.0026
    CHARGE:  cpu time    9.1547: real time    9.2234
    MIXING:  cpu time    0.0357: real time    0.0357
    --------------------------------------------
      LOOP:  cpu time  335.8178: real time  338.5278

 eigenvalue-minimisations  : 33072
 total energy-change (2. order) :-0.1036251E-04  (-0.8185559E-06)
 number of electron     736.0000016 magnetization     128.0000005
 augmentation part      277.8931453 magnetization      84.1582126

 Broyden mixing:
  rms(total) = 0.13436E-02    rms(broyden)= 0.13388E-02
  rms(prec ) = 0.13866E-02
  weight for this iteration     100.00

 eigenvalues of (default mixing * dielectric matrix)
  average eigenvalue GAMMA=   1.1293
  2.8636  1.5463  1.5463  0.9109  0.8043  0.8043  0.5494  0.5694  0.5694

 Free energy of the ion-electron system (eV)
  ---------------------------------------------------
  alpha Z        PSCENC =      2314.49656628
  Ewald energy   TEWEN  =    -57723.19645674
  -Hartree energ DENC   =    -30348.70077871
  -exchange      EXHF   =         0.00000000
  -V(xc)+E(xc)   XCENC  =      3229.29518665
  PAW double counting   =     92677.96400049   -95533.42552252
  entropy T*S    EENTRO =        -0.00000000
  eigenvalues    EBANDS =    -10549.12761357
  atomic energy  EATOM  =     95443.47970955
  Solvation  Ediel_sol  =         0.00000000
  ---------------------------------------------------
  free energy    TOTEN  =      -489.21490856 eV

  energy without entropy =     -489.21490856  energy(sigma->0) =     -489.21490856


--------------------------------------------------------------------------------------------------------




--------------------------------------- Iteration      1(  15)  ---------------------------------------


    POTLOK:  cpu time    1.0488: real time    1.0529
    SETDIJ:  cpu time    2.2969: real time    2.2992
     EDDAV:  cpu time  296.5021: real time  299.4148
       DOS:  cpu time    0.0026: real time    0.0026
    CHARGE:  cpu time    9.3340: real time    9.3565
    MIXING:  cpu time    0.0356: real time    0.0356
    --------------------------------------------
      LOOP:  cpu time  309.2199: real time  312.1616

 eigenvalue-minimisations  : 29512
 total energy-change (2. order) : 0.2022018E-05  (-0.3643245E-06)
 number of electron     736.0000016 magnetization     128.0000004
 augmentation part      277.8926558 magnetization      84.1582276

 Broyden mixing:
  rms(total) = 0.61664E-03    rms(broyden)= 0.60658E-03
  rms(prec ) = 0.63587E-03
  weight for this iteration     100.00

 eigenvalues of (default mixing * dielectric matrix)
  average eigenvalue GAMMA=   1.0946
  2.7490  1.5497  1.5497  1.0838  0.8620  0.8620  0.6107  0.6107  0.5342  0.5342

 Free energy of the ion-electron system (eV)
  ---------------------------------------------------
  alpha Z        PSCENC =      2314.49656628
  Ewald energy   TEWEN  =    -57723.19645674
  -Hartree energ DENC   =    -30348.72370993
  -exchange      EXHF   =         0.00000000
  -V(xc)+E(xc)   XCENC  =      3229.29961990
  PAW double counting   =     92679.36540944   -95534.85108259
  entropy T*S    EENTRO =        -0.00000000
  eigenvalues    EBANDS =    -10549.08496245
  atomic energy  EATOM  =     95443.47970955
  Solvation  Ediel_sol  =         0.00000000
  ---------------------------------------------------
  free energy    TOTEN  =      -489.21490654 eV

  energy without entropy =     -489.21490654  energy(sigma->0) =     -489.21490654


--------------------------------------------------------------------------------------------------------




--------------------------------------- Iteration      1(  16)  ---------------------------------------


    POTLOK:  cpu time    1.0492: real time    1.0528
    SETDIJ:  cpu time    2.3032: real time    2.3068
     EDDAV:  cpu time  217.1260: real time  218.8641
       DOS:  cpu time    0.0024: real time    0.0024
    --------------------------------------------
      LOOP:  cpu time  220.4808: real time  222.2262

 eigenvalue-minimisations  : 18920
 total energy-change (2. order) :-0.7526833E-06  (-0.9430990E-07)
 number of electron     736.0000016 magnetization     128.0000004
 augmentation part      277.8926558 magnetization      84.1582276

 Free energy of the ion-electron system (eV)
  ---------------------------------------------------
  alpha Z        PSCENC =      2314.49656628
  Ewald energy   TEWEN  =    -57723.19645674
  -Hartree energ DENC   =    -30348.71530314
  -exchange      EXHF   =         0.00000000
  -V(xc)+E(xc)   XCENC  =      3229.29934350
  PAW double counting   =     92679.45214287   -95534.93935361
  entropy T*S    EENTRO =        -0.00000000
  eigenvalues    EBANDS =    -10549.09155600
  atomic energy  EATOM  =     95443.47970955
  Solvation  Ediel_sol  =         0.00000000
  ---------------------------------------------------
  free energy    TOTEN  =      -489.21490729 eV

  energy without entropy =     -489.21490729  energy(sigma->0) =     -489.21490729


--------------------------------------------------------------------------------------------------------




 average (electrostatic) potential at core
  the test charge radii are     0.7079  0.7215  0.9698  0.9500
  (the norm of the test charge is              1.0000)
       1 -58.9497       2 -58.9475       3 -58.9482       4 -58.9486       5 -58.9487
       6 -58.9466       7 -58.9481       8 -58.9477       9 -58.9351      10 -58.9494
      11 -58.9467      12 -58.9479      13 -58.9603      14 -58.9468      15 -58.9496
      16 -58.9484      17 -69.8174      18 -69.8132      19 -69.8193      20 -69.8152
      21 -69.8158      22 -69.8163      23 -69.8164      24 -69.8163      25 -69.8166
      26 -69.8156      27 -69.8170      28 -69.8160      29 -69.8161      30 -69.8166
      31 -69.8161      32 -69.8165      33 -85.5802      34 -85.5795      35 -85.5799
      36 -85.5797      37 -85.5792      38 -85.5801      39 -85.5796      40 -85.5805
      41 -85.5848      42 -85.5752      43 -85.5802      44 -85.5795      45 -85.5792
      46 -85.5795      47 -85.5807      48 -85.5799      49 -85.6434      50 -85.6343
      51 -85.6391      52 -85.6386      53 -85.6375      54 -85.6387      55 -85.6400
      56 -85.6390      57 -78.5749      58 -78.5727      59 -78.5755      60 -78.5736
      61 -78.5754      62 -78.5735      63 -78.5743      64 -78.5740      65 -78.5739
      66 -78.5738      67 -78.5746      68 -78.5741      69 -78.5729      70 -78.5757
      71 -78.5739      72 -78.5744      73 -78.5834      74 -78.5812      75 -78.5821
      76 -78.5814      77 -78.5921      78 -78.5903      79 -78.5919      80 -78.5916
      81 -78.6037      82 -78.5903      83 -78.5914      84 -78.5908      85 -78.5693
      86 -78.5832      87 -78.5821      88 -78.5827
 
 
 
 E-fermi :   5.2021     XC(G=0): -10.4850     alpha+bet :-11.8156


 spin component 1

 k-point     1 :       0.0000    0.0000    0.0000
  band No.  band energies     occupation 
      1     -51.0617      1.00000
      2     -51.0553      1.00000
      3     -51.0549      1.00000
      4     -51.0546      1.00000
      5     -51.0543      1.00000
      6     -51.0537      1.00000
      7     -51.0536      1.00000
      8     -51.0535      1.00000
      9     -51.0531      1.00000
     10     -51.0527      1.00000
     11     -51.0526      1.00000
     12     -51.0524      1.00000
     13     -51.0521      1.00000
     14     -51.0512      1.00000
     15     -51.0510      1.00000
     16     -51.0508      1.00000
     17     -51.0501      1.00000
     18     -51.0444      1.00000
     19     -51.0444      1.00000
     20     -51.0441      1.00000
     21     -51.0440      1.00000
     22     -51.0432      1.00000
     23     -51.0431      1.00000
     24     -51.0430      1.00000
     25     -51.0407      1.00000
     26     -51.0404      1.00000
     27     -51.0402      1.00000
     28     -51.0395      1.00000
     29     -51.0394      1.00000
     30     -51.0389      1.00000
     31     -51.0387      1.00000
     32     -51.0260      1.00000
     33     -49.7137      1.00000
     34     -49.7021      1.00000
     35     -49.7019      1.00000
     36     -49.7016      1.00000
     37     -49.7014      1.00000
     38     -49.7008      1.00000
     39     -49.7005      1.00000
     40     -49.7003      1.00000
     41     -49.6953      1.00000
     42     -49.6953      1.00000
     43     -49.6947      1.00000
     44     -49.6942      1.00000
     45     -49.6942      1.00000
     46     -49.6935      1.00000
     47     -49.6933      1.00000
     48     -49.6813      1.00000
     49     -49.5991      1.00000
     50     -49.5982      1.00000
     51     -49.5980      1.00000
     52     -49.5978      1.00000
     53     -49.5975      1.00000
     54     -49.5972      1.00000
     55     -49.5970      1.00000
     56     -49.5969      1.00000
     57     -49.5966      1.00000
     58     -49.5964      1.00000
     59     -49.5962      1.00000
     60     -49.5961      1.00000
     61     -49.5959      1.00000
     62     -49.5957      1.00000
     63     -49.5953      1.00000
     64     -49.5949      1.00000
     65     -49.5678      1.00000
     66     -49.5671      1.00000
     67     -49.5668      1.00000
     68     -49.5663      1.00000
     69     -49.5662      1.00000
     70     -49.5659      1.00000
     71     -49.5655      1.00000
     72     -49.5653      1.00000
     73     -49.5652      1.00000
     74     -49.5650      1.00000
     75     -49.5646      1.00000
     76     -49.5645      1.00000
     77     -49.5641      1.00000
     78     -49.5640      1.00000
     79     -49.5639      1.00000
     80     -49.5635      1.00000
     81     -49.5630      1.00000
     82     -49.5548      1.00000
     83     -49.5545      1.00000
     84     -49.5542      1.00000
     85     -49.5540      1.00000
     86     -49.5534      1.00000
     87     -49.5528      1.00000
     88     -49.5527      1.00000
     89     -49.5410      1.00000
     90     -49.5408      1.00000
     91     -49.5401      1.00000
     92     -49.5396      1.00000
     93     -49.5396      1.00000
     94     -49.5389      1.00000
     95     -49.5386      1.00000
     96     -49.5278      1.00000
     97     -39.8765      1.00000
     98     -39.8664      1.00000
     99     -39.8660      1.00000
    100     -39.8657      1.00000
    101     -39.8656      1.00000
    102     -39.8651      1.00000
    103     -39.8649      1.00000
    104     -39.8647      1.00000
    105     -39.8646      1.00000
    106     -39.8644      1.00000
    107     -39.8642      1.00000
    108     -39.8636      1.00000
    109     -39.8636      1.00000
    110     -39.8634      1.00000
    111     -39.8629      1.00000
    112     -39.8520      1.00000
    113     -13.2248      1.00000
    114     -13.2247      1.00000
    115     -13.2104      1.00000
    116     -13.1835      1.00000
    117     -13.1008      1.00000
    118     -13.0993      1.00000
    119     -13.0987      1.00000
    120     -13.0932      1.00000
    121     -13.0858      1.00000
    122     -13.0802      1.00000
    123     -13.0796      1.00000
    124     -13.0779      1.00000
    125     -12.9881      1.00000
    126     -12.9773      1.00000
    127     -12.9419      1.00000
    128     -12.9417      1.00000
    129      -7.6454      1.00000
    130      -7.4069      1.00000
    131      -7.3265      1.00000
    132      -7.3262      1.00000
    133      -7.3096      1.00000
    134      -7.3092      1.00000
    135      -7.3084      1.00000
    136      -7.3073      1.00000
    137      -7.1697      1.00000
    138      -7.1572      1.00000
    139      -7.1239      1.00000
    140      -7.1238      1.00000
    141      -7.0366      1.00000
    142      -7.0220      1.00000
    143      -7.0021      1.00000
    144      -7.0021      1.00000
    145      -6.9409      1.00000
    146      -6.9409      1.00000
    147      -6.8873      1.00000
    148      -6.8872      1.00000
    149      -6.8656      1.00000
    150      -6.8617      1.00000
    151      -6.8346      1.00000
    152      -6.8038      1.00000
    153      -1.9357      1.00000
    154      -1.9353      1.00000
    155      -1.9105      1.00000
    156      -1.8935      1.00000
    157      -1.6667      1.00000
    158      -1.6660      1.00000
    159      -1.6589      1.00000
    160      -1.6569      1.00000
    161      -1.6000      1.00000
    162      -1.5976      1.00000
    163      -1.5865      1.00000
    164      -1.5859      1.00000
    165      -1.2982      1.00000
    166      -1.1745      1.00000
    167      -1.1742      1.00000
    168      -1.1138      1.00000
    169      -1.1133      1.00000
    170      -1.1071      1.00000
    171      -1.0494      1.00000
    172      -0.9808      1.00000
    173      -0.9647      1.00000
    174      -0.9595      1.00000
    175      -0.9579      1.00000
    176      -0.9574      1.00000
    177      -0.9471      1.00000
    178      -0.9449      1.00000
    179      -0.9229      1.00000
    180      -0.8712      1.00000
    181      -0.8711      1.00000
    182      -0.8036      1.00000
    183      -0.8026      1.00000
    184      -0.8025      1.00000
    185      -0.7753      1.00000
    186      -0.7743      1.00000
    187      -0.7736      1.00000
    188      -0.7608      1.00000
    189      -0.7167      1.00000
    190      -0.7165      1.00000
    191      -0.7065      1.00000
    192      -0.7049      1.00000
    193      -0.6992      1.00000
    194      -0.6990      1.00000
    195      -0.6087      1.00000
    196      -0.6084      1.00000
    197      -0.5615      1.00000
    198      -0.5615      1.00000
    199      -0.5497      1.00000
    200      -0.5480      1.00000
    201      -0.4083      1.00000
    202      -0.4078      1.00000
    203      -0.3580      1.00000
    204      -0.3479      1.00000
    205      -0.3296      1.00000
    206      -0.3295      1.00000
    207      -0.2986      1.00000
    208      -0.2982      1.00000
    209      -0.2817      1.00000
    210      -0.2693      1.00000
    211      -0.2628      1.00000
    212      -0.2560      1.00000
    213      -0.2551      1.00000
    214      -0.2094      1.00000
    215      -0.2091      1.00000
    216      -0.1882      1.00000
    217      -0.1867      1.00000
    218      -0.1864      1.00000
    219      -0.1758      1.00000
    220      -0.1577      1.00000
    221      -0.1255      1.00000
    222      -0.1252      1.00000
    223      -0.1096      1.00000
    224      -0.0710      1.00000
    225      -0.0700      1.00000
    226      -0.0606      1.00000
    227      -0.0434      1.00000
    228      -0.0176      1.00000
    229      -0.0176      1.00000
    230      -0.0120      1.00000
    231       0.0015      1.00000
    232       0.0017      1.00000
    233       0.0459      1.00000
    234       0.0490      1.00000
    235       0.0498      1.00000
    236       0.0911      1.00000
    237       0.0944      1.00000
    238       0.1181      1.00000
    239       0.1187      1.00000
    240       0.1578      1.00000
    241       0.1626      1.00000
    242       0.1769      1.00000
    243       0.1790      1.00000
    244       0.1822      1.00000
    245       0.1823      1.00000
    246       0.1857      1.00000
    247       0.1891      1.00000
    248       0.1933      1.00000
    249       0.1934      1.00000
    250       0.2007      1.00000
    251       0.2011      1.00000
    252       0.2387      1.00000
    253       0.2516      1.00000
    254       0.2569      1.00000
    255       0.2570      1.00000
    256       0.2768      1.00000
    257       0.3372      1.00000
    258       0.3474      1.00000
    259       0.3584      1.00000
    260       0.3589      1.00000
    261       0.3605      1.00000
    262       0.3609      1.00000
    263       0.3878      1.00000
    264       0.4021      1.00000
    265       0.4524      1.00000
    266       0.4526      1.00000
    267       0.5782      1.00000
    268       0.5794      1.00000
    269       0.5836      1.00000
    270       0.6019      1.00000
    271       0.6020      1.00000
    272       0.6071      1.00000
    273       0.6079      1.00000
    274       0.6399      1.00000
    275       0.6504      1.00000
    276       0.6517      1.00000
    277       0.6620      1.00000
    278       0.6625      1.00000
    279       0.6655      1.00000
    280       0.6730      1.00000
    281       0.6749      1.00000
    282       0.6751      1.00000
    283       0.6972      1.00000
    284       0.7231      1.00000
    285       0.7833      1.00000
    286       0.8198      1.00000
    287       0.8291      1.00000
    288       0.8320      1.00000
    289       0.8322      1.00000
    290       0.8610      1.00000
    291       0.8613      1.00000
    292       0.9093      1.00000
    293       0.9401      1.00000
    294       0.9485      1.00000
    295       0.9485      1.00000
    296       0.9831      1.00000
    297       1.0261      1.00000
    298       1.0704      1.00000
    299       1.2693      1.00000
    300       1.2977      1.00000
    301       1.2985      1.00000
    302       1.3119      1.00000
    303       1.3330      1.00000
    304       1.3333      1.00000
    305       1.3380      1.00000
    306       1.3843      1.00000
    307       1.4048      1.00000
    308       1.4279      1.00000
    309       1.4667      1.00000
    310       1.4675      1.00000
    311       1.4686      1.00000
    312       1.4815      1.00000
    313       1.5110      1.00000
    314       1.5112      1.00000
    315       1.5403      1.00000
    316       1.5615      1.00000
    317       1.5769      1.00000
    318       1.6463      1.00000
    319       1.6557      1.00000
    320       1.7561      1.00000
    321       1.7564      1.00000
    322       1.7629      1.00000
    323       1.7785      1.00000
    324       1.8027      1.00000
    325       1.8030      1.00000
    326       1.8107      1.00000
    327       1.8233      1.00000
    328       1.8365      1.00000
    329       1.8369      1.00000
    330       1.8460      1.00000
    331       1.8467      1.00000
    332       1.8784      1.00000
    333       1.8901      1.00000
    334       1.9468      1.00000
    335       1.9928      1.00000
    336       1.9936      1.00000
    337       2.0060      1.00000
    338       2.0069      1.00000
    339       2.0099      1.00000
    340       2.0189      1.00000
    341       2.0200      1.00000
    342       2.0202      1.00000
    343       2.0396      1.00000
    344       2.0467      1.00000
    345       2.0468      1.00000
    346       2.0571      1.00000
    347       2.0688      1.00000
    348       2.0690      1.00000
    349       2.0918      1.00000
    350       2.1131      1.00000
    351       2.1907      1.00000
    352       2.1909      1.00000
    353       2.2460      1.00000
    354       2.2479      1.00000
    355       2.2701      1.00000
    356       2.2738      1.00000
    357       2.2847      1.00000
    358       2.4277      1.00000
    359       2.4658      1.00000
    360       2.4666      1.00000
    361       2.4778      1.00000
    362       2.5037      1.00000
    363       2.5275      1.00000
    364       2.5543      1.00000
    365       2.5921      1.00000
    366       2.6267      1.00000
    367       2.6270      1.00000
    368       2.6561      1.00000
    369       2.7383      1.00000
    370       2.7386      1.00000
    371       2.7611      1.00000
    372       2.7614      1.00000
    373       2.8339      1.00000
    374       2.8723      1.00000
    375       2.9263      1.00000
    376       2.9340      1.00000
    377       2.9346      1.00000
    378       2.9692      1.00000
    379       3.0272      1.00000
    380       3.0282      1.00000
    381       3.0617      1.00000
    382       3.0973      1.00000
    383       3.3075      1.00000
    384       3.3105      1.00000
    385       3.3479      1.00000
    386       3.3756      1.00000
    387       3.4214      1.00000
    388       3.4222      1.00000
    389       3.4404      1.00000
    390       3.4583      1.00000
    391       3.4587      1.00000
    392       3.5316      1.00000
    393       3.7480      1.00000
    394       3.8081      1.00000
    395       3.8089      1.00000
    396       3.8151      1.00000
    397       3.8156      1.00000
    398       3.8821      1.00000
    399       3.8831      1.00000
    400       3.9330      1.00000
    401       3.9346      1.00000
    402       3.9405      1.00000
    403       3.9408      1.00000
    404       4.0388      1.00000
    405       4.0393      1.00000
    406       4.0700      1.00000
    407       4.1389      1.00000
    408       4.1491      1.00000
    409       4.1512      1.00000
    410       4.3156      1.00000
    411       4.3176      1.00000
    412       4.3380      1.00000
    413       4.3579      1.00000
    414       4.3593      1.00000
    415       4.4283      1.00000
    416       4.4444      1.00000
    417       4.4461      1.00000
    418       4.4536      1.00000
    419       4.4563      1.00000
    420       4.4564      1.00000
    421       4.6362      1.00000
    422       4.6366      1.00000
    423       4.7322      1.00000
    424       4.7327      1.00000
    425       4.7638      1.00000
    426       4.7642      1.00000
    427       4.7692      1.00000
    428       4.7694      1.00000
    429       4.8103      1.00000
    430       4.8533      1.00000
    431       4.8533      1.00000
    432       4.8574      1.00000
    433       7.3435      0.00000
    434       8.1284      0.00000
    435       8.4450      0.00000
    436       8.6416      0.00000
    437       8.6436      0.00000
    438       8.8581      0.00000
    439       9.0838      0.00000
    440       9.0853      0.00000
    441       9.2619      0.00000
    442       9.2729      0.00000
    443       9.2885      0.00000
    444       9.2896      0.00000
    445       9.7283      0.00000
    446       9.7716      0.00000
    447       9.7726      0.00000
    448       9.7895      0.00000
    449       9.8536      0.00000
    450       9.8556      0.00000
    451       9.8590      0.00000
    452       9.8789      0.00000
    453       9.8893      0.00000
    454      10.0609      0.00000
    455      10.0826      0.00000
    456      10.1361      0.00000
    457      10.1363      0.00000
    458      10.3048      0.00000
    459      10.3070      0.00000
    460      10.4165      0.00000
    461      10.5259      0.00000
    462      10.5705      0.00000
    463      10.5718      0.00000
    464      10.5721      0.00000
    465      10.5783      0.00000
    466      10.5784      0.00000
    467      10.6761      0.00000
    468      10.9757      0.00000
    469      11.0189      0.00000
    470      11.0194      0.00000
    471      11.0401      0.00000
    472      11.0415      0.00000
    473      11.0773      0.00000
    474      11.1273      0.00000
    475      11.1781      0.00000
[...]
   -.739E-01 0.251E-01 -.259E+02   0.702E-01 -.244E-01 0.257E+02   0.196E-02 -.431E-03 0.251E+00   0.287E-04 -.498E-05 -.111E-04
   0.177E-01 0.269E-01 -.259E+02   -.161E-01 -.244E-01 0.257E+02   -.110E-02 -.175E-02 0.251E+00   -.716E-05 0.735E-04 0.614E-05
   -.194E-01 -.891E-02 -.259E+02   0.186E-01 0.909E-02 0.257E+02   0.581E-03 -.225E-03 0.251E+00   -.136E-04 -.156E-04 -.102E-04
   -.156E+00 -.478E+00 -.419E+02   0.145E+00 0.452E+00 0.419E+02   0.202E-01 0.291E-01 -.114E-04   -.406E-04 -.121E-03 0.460E-04
   -.661E-01 0.356E-01 -.421E+02   0.626E-01 -.342E-01 0.421E+02   0.166E-02 -.113E-02 0.108E-01   0.111E-04 -.358E-05 -.872E-06
   0.242E-01 0.370E-01 -.421E+02   -.227E-01 -.340E-01 0.420E+02   -.119E-02 -.229E-02 0.105E-01   -.120E-04 0.690E-04 -.198E-04
   -.125E-01 0.301E-02 -.421E+02   0.119E-01 -.212E-02 0.420E+02   0.283E-03 -.910E-03 0.111E-01   -.144E-04 -.258E-04 -.117E-04
   0.158E+02 0.148E+02 -.126E+03   -.162E+02 -.152E+02 0.131E+03   0.389E+00 0.387E+00 -.463E+01   -.107E-03 -.103E-04 0.210E-04
   0.158E+02 0.150E+02 -.126E+03   -.162E+02 -.154E+02 0.131E+03   0.394E+00 0.369E+00 -.463E+01   -.219E-03 -.127E-03 0.209E-03
   0.158E+02 0.150E+02 -.126E+03   -.162E+02 -.154E+02 0.131E+03   0.393E+00 0.369E+00 -.463E+01   -.235E-03 -.128E-03 -.152E-03
   0.158E+02 0.148E+02 -.126E+03   -.162E+02 -.152E+02 0.131E+03   0.389E+00 0.388E+00 -.463E+01   -.118E-03 -.462E-04 0.246E-04
   -.138E+02 -.177E+02 -.126E+03   0.141E+02 0.182E+02 0.130E+03   -.419E+00 -.508E+00 -.462E+01   0.135E-02 0.368E-04 -.392E-04
   -.161E+02 -.149E+02 -.126E+03   0.164E+02 0.153E+02 0.131E+03   -.380E+00 -.380E+00 -.463E+01   0.590E-04 0.491E-05 0.169E-04
   -.159E+02 -.149E+02 -.126E+03   0.163E+02 0.153E+02 0.131E+03   -.390E+00 -.381E+00 -.463E+01   0.788E-04 -.588E-05 0.250E-04
   -.160E+02 -.149E+02 -.126E+03   0.163E+02 0.153E+02 0.131E+03   -.388E+00 -.380E+00 -.463E+01   0.424E-04 -.560E-04 0.311E-04
   0.159E+02 -.149E+02 0.126E+03   -.163E+02 0.153E+02 -.131E+03   0.388E+00 -.377E+00 0.463E+01   -.374E-04 -.420E-04 -.503E-04
   0.159E+02 -.149E+02 0.126E+03   -.163E+02 0.152E+02 -.131E+03   0.390E+00 -.382E+00 0.463E+01   -.362E-04 0.192E-04 -.610E-04
   0.159E+02 -.149E+02 0.126E+03   -.163E+02 0.152E+02 -.131E+03   0.389E+00 -.382E+00 0.463E+01   -.178E-04 -.300E-05 -.211E-04
   0.159E+02 -.149E+02 0.126E+03   -.163E+02 0.153E+02 -.131E+03   0.389E+00 -.377E+00 0.463E+01   -.254E-04 -.240E-04 -.440E-04
   -.158E+02 0.149E+02 0.126E+03   0.162E+02 -.153E+02 -.131E+03   -.391E+00 0.381E+00 0.463E+01   -.725E-06 0.899E-04 -.376E-04
   -.159E+02 0.149E+02 0.126E+03   0.163E+02 -.153E+02 -.131E+03   -.378E+00 0.382E+00 0.463E+01   -.414E-04 0.806E-05 -.444E-04
   -.159E+02 0.149E+02 0.126E+03   0.163E+02 -.153E+02 -.131E+03   -.387E+00 0.378E+00 0.463E+01   0.507E-04 0.827E-05 -.379E-04
   -.159E+02 0.149E+02 0.126E+03   0.163E+02 -.153E+02 -.131E+03   -.386E+00 0.380E+00 0.463E+01   0.524E-04 0.234E-04 -.281E-04
   0.281E+02 0.282E+02 0.334E+02   -.284E+02 -.285E+02 -.339E+02   0.348E+00 0.354E+00 0.517E+00   -.194E-03 0.279E-04 -.254E-04
   0.280E+02 0.282E+02 0.333E+02   -.283E+02 -.285E+02 -.338E+02   0.355E+00 0.354E+00 0.520E+00   -.427E-04 -.253E-05 -.387E-05
   0.280E+02 0.282E+02 0.333E+02   -.284E+02 -.285E+02 -.339E+02   0.350E+00 0.352E+00 0.519E+00   -.407E-04 0.136E-04 -.284E-05
   0.280E+02 0.282E+02 0.333E+02   -.283E+02 -.285E+02 -.339E+02   0.351E+00 0.353E+00 0.519E+00   -.318E-04 0.190E-04 -.523E-05
   -.279E+02 -.282E+02 0.333E+02   0.283E+02 0.286E+02 -.339E+02   -.350E+00 -.355E+00 0.518E+00   0.538E-04 -.260E-04 -.369E-05
   -.279E+02 -.282E+02 0.333E+02   0.283E+02 0.286E+02 -.338E+02   -.349E+00 -.353E+00 0.520E+00   0.330E-04 -.258E-04 0.205E-05
   -.279E+02 -.282E+02 0.333E+02   0.283E+02 0.286E+02 -.339E+02   -.350E+00 -.353E+00 0.518E+00   0.445E-04 -.178E-04 -.446E-05
   -.279E+02 -.282E+02 0.333E+02   0.283E+02 0.286E+02 -.338E+02   -.348E+00 -.355E+00 0.520E+00   0.323E-04 -.188E-04 0.107E-04
   0.277E+02 -.282E+02 -.335E+02   -.281E+02 0.286E+02 0.340E+02   0.371E+00 -.352E+00 -.503E+00   -.112E-03 0.257E-04 -.159E-03
   0.277E+02 -.282E+02 -.331E+02   -.281E+02 0.286E+02 0.337E+02   0.370E+00 -.352E+00 -.535E+00   -.119E-03 0.161E-04 0.145E-03
   0.279E+02 -.282E+02 -.333E+02   -.283E+02 0.286E+02 0.339E+02   0.349E+00 -.355E+00 -.518E+00   -.228E-04 -.261E-04 -.110E-05
   0.279E+02 -.282E+02 -.333E+02   -.283E+02 0.286E+02 0.338E+02   0.349E+00 -.355E+00 -.519E+00   -.380E-04 -.222E-04 0.264E-04
   -.279E+02 0.282E+02 -.333E+02   0.282E+02 -.285E+02 0.339E+02   -.356E+00 0.352E+00 -.521E+00   0.957E-04 0.122E-05 0.396E-04
   -.281E+02 0.282E+02 -.333E+02   0.284E+02 -.285E+02 0.339E+02   -.347E+00 0.353E+00 -.519E+00   0.217E-04 0.180E-04 -.393E-05
   -.279E+02 0.282E+02 -.333E+02   0.282E+02 -.285E+02 0.339E+02   -.356E+00 0.351E+00 -.517E+00   0.106E-03 0.573E-05 0.187E-04
   -.281E+02 0.282E+02 -.333E+02   0.284E+02 -.285E+02 0.339E+02   -.348E+00 0.353E+00 -.518E+00   0.231E-04 0.186E-06 0.266E-04
   0.975E+01 0.455E-01 0.174E+00   -.987E+01 -.484E-01 -.169E+00   0.128E+00 0.384E-02 -.119E-01   -.408E-04 -.156E-04 0.544E-04
   0.974E+01 0.441E-01 -.193E+00   -.987E+01 -.466E-01 0.187E+00   0.128E+00 0.345E-02 0.125E-01   -.418E-04 -.200E-04 -.803E-04
   0.990E+01 0.474E-01 0.218E-02   -.100E+02 -.473E-01 -.198E-02   0.114E+00 -.527E-03 -.358E-03   -.744E-05 0.659E-05 0.698E-05
   0.989E+01 0.479E-01 -.197E-01   -.100E+02 -.477E-01 0.196E-01   0.115E+00 -.581E-03 0.365E-03   -.137E-04 0.820E-05 -.175E-04
   -.978E+01 0.496E-01 0.992E-02   0.990E+01 -.492E-01 -.112E-01   -.120E+00 -.162E-02 0.266E-02   0.144E-03 -.523E-04 -.230E-04
   -.995E+01 0.461E-01 0.586E-02   0.101E+02 -.467E-01 -.581E-02   -.112E+00 0.518E-03 -.444E-05   -.166E-04 0.849E-05 0.571E-05
   -.978E+01 0.460E-01 0.122E-01   0.990E+01 -.458E-01 -.112E-01   -.119E+00 -.119E-02 -.257E-02   0.134E-03 -.476E-04 0.337E-05
   -.995E+01 0.478E-01 0.530E-02   0.101E+02 -.483E-01 -.582E-02   -.112E+00 0.559E-03 0.571E-03   -.249E-04 0.356E-05 -.231E-04
   0.189E+02 0.188E+02 0.185E+03   -.179E+02 -.177E+02 -.183E+03   -.106E+01 -.108E+01 -.241E+01   -.189E-04 -.588E-05 -.244E-03
   0.189E+02 0.191E+02 0.185E+03   -.179E+02 -.180E+02 -.183E+03   -.106E+01 -.109E+01 -.242E+01   0.430E-05 0.440E-04 -.351E-04
   0.190E+02 0.191E+02 0.185E+03   -.179E+02 -.180E+02 -.183E+03   -.106E+01 -.109E+01 -.240E+01   -.188E-04 -.184E-04 -.736E-04
   0.190E+02 0.188E+02 0.185E+03   -.179E+02 -.177E+02 -.183E+03   -.106E+01 -.108E+01 -.241E+01   -.407E-04 -.522E-04 0.941E-04
   -.174E+02 -.189E+02 0.185E+03   0.164E+02 0.178E+02 -.182E+03   0.102E+01 0.109E+01 -.240E+01   0.154E-03 -.157E-04 -.746E-04
   -.191E+02 -.189E+02 0.185E+03   0.181E+02 0.178E+02 -.183E+03   0.108E+01 0.108E+01 -.241E+01   -.785E-04 0.457E-04 -.384E-04
   -.188E+02 -.189E+02 0.185E+03   0.178E+02 0.178E+02 -.183E+03   0.106E+01 0.108E+01 -.241E+01   -.206E-04 0.237E-04 -.759E-04
   -.190E+02 -.189E+02 0.185E+03   0.179E+02 0.178E+02 -.183E+03   0.106E+01 0.108E+01 -.241E+01   0.729E-05 -.342E-05 -.545E-04
   0.190E+02 -.189E+02 -.185E+03   -.179E+02 0.178E+02 0.183E+03   -.106E+01 0.109E+01 0.240E+01   -.121E-03 -.683E-04 0.654E-04
   0.188E+02 -.189E+02 -.185E+03   -.178E+02 0.178E+02 0.183E+03   -.106E+01 0.108E+01 0.241E+01   0.748E-05 0.344E-04 0.851E-04
   0.190E+02 -.189E+02 -.185E+03   -.179E+02 0.178E+02 0.183E+03   -.107E+01 0.109E+01 0.241E+01   -.742E-04 0.883E-04 0.136E-03
   0.188E+02 -.189E+02 -.185E+03   -.178E+02 0.178E+02 0.183E+03   -.106E+01 0.109E+01 0.241E+01   0.120E-04 -.163E-06 0.144E-03
   -.190E+02 0.189E+02 -.185E+03   0.179E+02 -.178E+02 0.183E+03   0.106E+01 -.108E+01 0.239E+01   0.183E-03 0.375E-04 0.748E-04
   -.191E+02 0.189E+02 -.185E+03   0.180E+02 -.179E+02 0.183E+03   0.106E+01 -.109E+01 0.243E+01   0.112E-03 0.388E-04 0.250E-03
   -.190E+02 0.189E+02 -.185E+03   0.179E+02 -.179E+02 0.183E+03   0.106E+01 -.109E+01 0.241E+01   0.296E-04 0.199E-04 0.640E-04
   -.190E+02 0.189E+02 -.185E+03   0.180E+02 -.179E+02 0.183E+03   0.106E+01 -.108E+01 0.241E+01   0.463E-04 0.325E-04 0.139E-03
   -.618E-01 -.357E-01 0.209E+03   0.534E-01 0.413E-01 -.211E+03   0.722E-02 -.452E-02 0.206E+01   -.881E-04 0.137E-03 -.483E-04
   0.969E-01 -.139E+00 0.209E+03   -.894E-01 0.129E+00 -.211E+03   -.606E-02 0.897E-02 0.207E+01   -.451E-04 0.287E-05 -.805E-04
   -.934E-02 -.886E-01 0.209E+03   0.789E-02 0.868E-01 -.211E+03   0.133E-02 0.174E-02 0.206E+01   0.173E-04 -.802E-05 -.387E-04
   0.458E-01 -.420E-01 0.209E+03   -.475E-01 0.421E-01 -.211E+03   0.145E-02 0.394E-03 0.206E+01   0.402E-04 -.156E-04 -.786E-04
   0.132E+00 -.116E+00 0.199E+03   -.122E+00 0.105E+00 -.201E+03   -.820E-02 0.870E-02 0.206E+01   -.462E-04 0.243E-04 -.217E-03
   -.886E-01 -.240E-01 0.199E+03   0.788E-01 0.299E-01 -.201E+03   0.834E-02 -.491E-02 0.207E+01   -.903E-04 0.352E-04 -.237E-03
   0.693E-01 -.295E-01 0.199E+03   -.684E-01 0.300E-01 -.201E+03   -.708E-03 -.152E-04 0.206E+01   0.805E-04 0.238E-04 -.174E-03
   -.256E-01 -.660E-01 0.199E+03   0.230E-01 0.645E-01 -.201E+03   0.214E-02 0.137E-02 0.206E+01   0.567E-04 0.691E-05 -.184E-03
   -.715E+00 0.214E+01 -.198E+03   0.670E+00 -.205E+01 0.200E+03   0.721E-01 -.111E+00 -.210E+01   0.175E-03 0.233E-04 0.295E-03
   -.348E+00 -.163E+00 -.199E+03   0.338E+00 0.155E+00 0.201E+03   0.785E-02 0.651E-02 -.206E+01   -.173E-03 0.557E-04 0.116E-03
   0.633E-01 -.158E+00 -.199E+03   -.581E-01 0.156E+00 0.201E+03   -.429E-02 0.138E-02 -.206E+01   0.214E-04 -.109E-03 0.183E-03
   -.112E+00 0.484E-03 -.199E+03   0.105E+00 0.461E-02 0.201E+03   0.604E-02 -.365E-02 -.206E+01   -.371E-04 -.237E-04 0.192E-03
   -.769E+00 0.214E+01 -.210E+03   0.721E+00 -.205E+01 0.212E+03   0.761E-01 -.114E+00 -.202E+01   0.186E-03 0.149E-04 -.200E-03
   -.346E+00 -.181E+00 -.209E+03   0.337E+00 0.173E+00 0.211E+03   0.757E-02 0.676E-02 -.206E+01   -.128E-03 0.802E-04 0.112E-04
   0.637E-01 -.174E+00 -.209E+03   -.580E-01 0.172E+00 0.211E+03   -.476E-02 0.211E-02 -.206E+01   0.597E-04 -.123E-03 0.160E-04
   -.106E+00 -.176E-01 -.209E+03   0.994E-01 0.221E-01 0.211E+03   0.543E-02 -.308E-02 -.207E+01   0.298E-04 -.732E-04 -.113E-04
 -----------------------------------------------------------------------------------------------
   -.251E+00 0.281E+00 -.148E-01   -.412E-13 -.277E-13 0.568E-13   0.250E+00 -.282E+00 0.150E-01   0.942E-03 -.316E-03 -.197E-03
 
 
 POSITION                                       TOTAL-FORCE (eV/Angst)
 -----------------------------------------------------------------------------------
      2.77841      5.21785      1.58925         0.000645      0.000369      0.000936
      8.33453      5.21785      1.58910        -0.000823     -0.000884     -0.000858
      2.77841     10.77658      1.58925         0.000535      0.000298     -0.000245
      8.33453     10.77658      1.58910        -0.000164      0.000128     -0.000102
      0.00058      2.43861      1.89560        -0.000642     -0.000711      0.000790
      5.55670      2.43861      1.89545         0.000249      0.000179     -0.000796
      0.00058      7.99734      1.89560        -0.000079      0.000161     -0.000075
      5.55670      7.99734      1.89545         0.000176      0.000225      0.000325
      2.78043      5.21797      8.30298         0.010345      0.004313      0.000669
      8.33655      5.21797      8.30283        -0.001721      0.000301     -0.000065
      2.78043     10.77670      8.30298         0.000483      0.000833      0.000082
      8.33655     10.77670      8.30283        -0.000260     -0.000051      0.000004
      0.00259      2.43849      8.60933         0.009167      0.002868     -0.002086
      5.55871      2.43849      8.60919        -0.001802      0.000337      0.000046
      0.00259      7.99722      8.60933         0.000305      0.000781      0.000143
      5.55871      7.99722      8.60919        -0.000328     -0.000036     -0.000041
     -1.37640      1.05960      8.18451         0.000468      0.002007      0.000251
      4.17971      1.05960      8.18437         0.003394     -0.004406     -0.000885
     -1.37640      6.61833      8.18451         0.003149     -0.004335      0.000680
      4.17971      6.61833      8.18437         0.000623      0.002094     -0.000301
      1.39116      3.81753      8.18442        -0.107724      0.039385     -0.003625
      6.93728      3.81753      8.18427         0.002704     -0.000440     -0.000003
      1.38116      9.37626      8.18442        -0.000335     -0.000473     -0.000186
      6.93728      9.37626      8.18427         0.000451     -0.000476     -0.000032
      1.39985      1.03817      2.01416        -0.000194      0.000642     -0.000304
      6.95597      1.03817      2.01401         0.000235     -0.000628      0.000640
      1.39985      6.59689      2.01416        -0.000192     -0.000740     -0.000392
      6.95597      6.59689      2.01401         0.000246      0.000751      0.000459
      4.15741      3.83897      2.01406        -0.001324      0.000047     -0.000316
      9.71353      3.83897      2.01392         0.002544      0.000788      0.000645
      4.15741      9.39769      2.01406        -0.000437     -0.000737     -0.000072
      9.71353      9.39769      2.01392        -0.000050     -0.000042      0.000283
      1.40044      3.83812      3.78391        -0.001201      0.000062     -0.000590
      6.95656      3.83812      3.78377         0.002249     -0.000030      0.000821
      1.40044      9.39685      3.78391        -0.000270     -0.000541      0.000021
      6.95656      9.39685      3.78377         0.000204     -0.000257      0.000218
      4.15774      1.03891      3.78384        -0.000095     -0.000280     -0.000234
      9.71386      1.03891      3.78369         0.000107      0.000649      0.000672
      4.15774      6.59764      3.78384        -0.000297      0.000672     -0.000329
      9.71386      6.59764      3.78369         0.000353     -0.000345      0.000721
     -1.37674      3.81828      6.41474         0.009474      0.000818      0.008976
      4.17938      3.81828      6.41460         0.009044      0.000633     -0.008427
     -1.37674      9.37700      6.41474        -0.000056     -0.000258      0.000076
      4.17938      9.37700      6.41460        -0.000204     -0.000260     -0.000462
      1.38057      1.05876      6.41466        -0.002349     -0.000382     -0.001575
      6.93668      1.05876      6.41452         0.001289     -0.000231     -0.000149
      1.38057      6.61748      6.41466        -0.002048     -0.000898      0.001236
      6.93668      6.61748      6.41452         0.001131     -0.000005      0.000059
      1.38227      3.82822      0.00001         0.006079      0.000885     -0.006499
      6.93839      3.82822     -0.00014         0.006232      0.000973      0.006674
      1.38227      9.38694      0.00001        -0.000136     -0.000388     -0.000153
      6.93839      9.38694     -0.00014        -0.000018     -0.000395      0.000319
      1.39874      1.04885     10.19857        -0.002340     -0.001206      0.001358
      6.95485      1.04885     10.19843         0.001030     -0.000025      0.000053
      1.39874      6.60758     10.19857        -0.002236     -0.001064     -0.001549
      6.95485      6.60758     10.19843         0.000991      0.000029      0.000025
     -1.25763      1.18232      6.18371        -0.000049     -0.001784     -0.000575
      4.29848      1.18232      6.18356        -0.000729      0.001640      0.001958
     -1.25763      6.74104      6.18371        -0.000598      0.001488     -0.001692
      4.29848      6.74104      6.18356        -0.000155     -0.001167      0.000679
      1.26131      3.69462      6.18369         0.007669     -0.000259      0.003936
      6.81742      3.69462      6.18354        -0.004555     -0.000032     -0.000222
      1.26131      9.25335      6.18369         0.000247      0.000575      0.000203
      6.81742      9.25335      6.18354         0.000066      0.000067      0.000079
      1.51970      0.91526      4.01489        -0.000019     -0.000076      0.000507
      7.07582      0.91526      4.01474        -0.000474      0.000082     -0.000368
      1.51970      6.47399      4.01489         0.000104     -0.000068     -0.000346
      7.07582      6.47399      4.01474        -0.000577     -0.000111     -0.000345
      4.03864      3.96168      4.01487         0.001148     -0.000247      0.002867
      9.59476      3.96168      4.01472         0.000236      0.000114     -0.003468
      4.03864      9.52041      4.01487         0.000371      0.000153     -0.000017
      9.59476      9.52041      4.01472         0.000155      0.000078     -0.000215
      0.00035      5.21813      1.57032        -0.001250      0.001180      0.001385
      5.55647      5.21813      1.57017         0.001359     -0.001384     -0.000916
      0.00035     10.77686      1.57032        -0.000094      0.000010     -0.000096
      5.55647     10.77686      1.57017        -0.000206      0.000534     -0.000118
      2.77849      2.43869      1.57537         0.001888     -0.001406      0.000882
      8.33461      2.43869      1.57522        -0.001607      0.001075     -0.001567
      2.77849      7.99742      1.57537         0.000322      0.000515      0.000300
      8.33461      7.99742      1.57522        -0.000382     -0.000022     -0.000204
      0.00252      5.21805      8.62321         0.027478     -0.020535     -0.006935
      5.55864      5.21805      8.62307        -0.002143     -0.001096      0.000367
      0.00252     10.77678      8.62321         0.000857     -0.000218      0.000472
      5.55864     10.77678      8.62307        -0.001565      0.001432     -0.000395
      2.78066      2.43877      8.62826         0.028603     -0.021358      0.007421
      8.33677      2.43877      8.62811        -0.002158     -0.001038     -0.000379
      2.78066      7.99750      8.62826         0.000974     -0.000255     -0.000358
      8.33677      7.99750      8.62811        -0.001488      0.001406      0.000327
 -----------------------------------------------------------------------------------
    total drift:                               -0.000161     -0.001144      0.000084


--------------------------------------------------------------------------------------------------------



  FREE ENERGIE OF THE ION-ELECTRON SYSTEM (eV)
  ---------------------------------------------------
  free  energy   TOTEN  =      -489.21490729 eV

  energy  without entropy=     -489.21490729  energy(sigma->0) =     -489.21490729
 


--------------------------------------------------------------------------------------------------------


    POTLOK:  cpu time    3.3239: real time    3.3416


--------------------------------------------------------------------------------------------------------


     LOOP+:  cpu time 6346.6493: real time 6404.8442
    4ORBIT:  cpu time    0.0000: real time    0.0000

 total amount of memory used by VASP MPI-rank0  1233264. kBytes
=======================================================================

   base      :      30000. kBytes
   nonl-proj :      75226. kBytes
   fftplans  :      85054. kBytes
   grid      :      64684. kBytes
   one-center:        466. kBytes
   wavefun   :     977834. kBytes
 
  
  
 General timing and accounting informations for this job:
 ========================================================
  
                  Total CPU time used (sec):     6443.168
                            User time (sec):     6369.221
                          System time (sec):       73.947
                         Elapsed time (sec):     6503.447
  
                   Maximum memory used (kb):     1436304.
                   Average memory used (kb):           0.
  
                          Minor page faults:       864779
                          Major page faults:            4
                 Voluntary context switches:        62286
