<?xml version="1.0" encoding="ISO-8859-1"?>
<modeling>
 <generator>
  <i name="program" type="string">vasp </i>
  <i name="version" type="string">5.4.4.18Apr17-6-g9f103f2a35  </i>
  <i name="subversion" type="string">(build Oct 25 2017 14:42:18) complex            parallel </i>
  <i name="platform" type="string">LinuxIFC </i>
  <i name="date" type="string">2021 06 02 </i>
  <i name="time" type="string">15:28:05 </i>
 </generator>
 <incar>
  <i type="string" name="PREC">accurate</i>
  <i type="string" name="ALGO"> normal</i>
  <i type="logical" name="ADDGRID"> T  </i>
  <i type="int" name="ISPIN">     2</i>
  <i type="int" name="ICHARG">     1</i>
  <i type="int" name="NELM">   200</i>
  <i type="int" name="NELMIN">     8</i>
  <i name="EDIFF">      0.00000100</i>
  <i type="int" name="ISYM">     0</i>
  <i name="ENCUT">    650.00000000</i>
  <v name="MAGMOM">      0.60000000      0.60000000      0.60000000      0.60000000      0.60000000      0.60000000      0.60000000      0.60000000      0.60000000      0.60000000      0.60000000      0.60000000      0.60000000      0.60000000      0.60000000      0.60000000      0.60000000      0.60000000      0.60000000      0.60000000
      0.60000000      0.60000000      0.60000000      0.60000000      0.60000000      0.60000000      0.60000000      0.60000000      0.60000000      0.60000000      0.60000000      0.60000000      0.60000000      0.60000000      0.60000000      0.60000000      0.60000000      0.60000000      0.60000000      0.60000000
      0.60000000      0.60000000      0.60000000      0.60000000      0.60000000      0.60000000      0.60000000      0.60000000      0.60000000      0.60000000      0.60000000      0.60000000      0.60000000      0.60000000      0.60000000      0.60000000      5.00000000      5.00000000      5.00000000      5.00000000
      5.00000000      5.00000000      5.00000000      5.00000000      5.00000000      5.00000000      5.00000000      5.00000000      5.00000000      5.00000000      5.00000000      5.00000000      5.00000000      5.00000000      5.00000000      5.00000000      5.00000000      5.00000000      5.00000000      5.00000000
      5.00000000      5.00000000      5.00000000      5.00000000      5.00000000      5.00000000      5.00000000      5.00000000</v>
  <i type="logical" name="LREAL"> F  </i>
  <i type="int" name="ISMEAR">     0</i>
  <i name="SIGMA">      0.05000000</i>
  <i type="int" name="NWRITE">     1</i>
  <i type="int" name="LMAXMIX">     4</i>
  <i type="logical" name="LWAVE"> F  </i>
  <i type="logical" name="LASPH"> T  </i>
  <v type="int" name="KPOINT_BSE">    -1     0     0     0</v>
  <i type="int" name="NELM">   200</i>
  <i type="string" name="GGA"> pe</i>
  <i type="logical" name="LDAU"> T  </i>
  <v type="int" name="LDAUTYPE">     2</v>
  <v type="int" name="LDAUL">    -1    -1    -1     2</v>
  <v name="LDAUU">      0.00000000      0.00000000      0.00000000      4.00000000</v>
  <v name="LDAUJ">      0.00000000      0.00000000      0.00000000      0.00000000</v>
  <i type="logical" name="LASPH"> T  </i>
 </incar>
 <structure name="primitive_cell" >
  <crystal>
   <varray name="basis" >
    <v>      11.11223374       0.00000000      -0.00029034 </v>
    <v>       0.00000000      11.11745194       0.00000000 </v>
    <v>      -2.77510898       0.00000000      10.19872221 </v>
   </varray>
   <i name="volume">   1259.93837498 </i>
   <varray name="rec_basis" >
    <v>       0.08999155       0.00000000       0.02448702 </v>
    <v>       0.00000000       0.08994867       0.00000000 </v>
    <v>       0.00000256       0.00000000       0.09805220 </v>
   </varray>
  </crystal>
  <varray name="positions" >
   <v>       0.28894970       0.46933910       0.15583616 </v>
   <v>       0.17529533      -0.40661825       0.19749617 </v>
   <v>       0.42345029       0.34530995       0.19749407 </v>
   <v>       0.37560721      -0.40565694      -0.00000412 </v>
   <v>       0.12439279       0.34434306       0.00000412 </v>
   <v>      -0.46151602       0.46936404       0.15397331 </v>
   <v>       0.03848398       0.46936404       0.15397331 </v>
   <v>       0.28861657       0.21935690       0.15447525 </v>
   <v>       0.28861657      -0.28064310       0.15447525 </v>
   <v>       0.21868463       0.34523395       0.37102476 </v>
   <v>       0.46681660      -0.40655103       0.37102399 </v>
   <v>       0.23507288      -0.41767349       0.39367237 </v>
   <v>       0.46175575       0.35634799       0.39367694 </v>
   <v>       0.21138343       0.46935690      -0.15447525 </v>
   <v>       0.04646972       0.21934976       0.18586770 </v>
   <v>       0.04646972      -0.28065024       0.18586770 </v>
   <v>      -0.45353028       0.21934976       0.18586770 </v>
   <v>      -0.45353028      -0.28065024       0.18586770 </v>
   <v>       0.07654971      -0.40469005      -0.19749407 </v>
   <v>       0.32560457       0.34338175      -0.19749617 </v>
   <v>       0.21105030       0.21933910      -0.15583616 </v>
   <v>       0.21105030      -0.28066090      -0.15583616 </v>
   <v>      -0.07654971       0.34530995       0.19749407 </v>
   <v>      -0.32470467      -0.40661825       0.19749617 </v>
   <v>       0.17529533       0.09338175       0.19749617 </v>
   <v>       0.42345029      -0.15469005       0.19749407 </v>
   <v>       0.45353028       0.46934976      -0.18586770 </v>
   <v>      -0.04646972       0.46934976      -0.18586770 </v>
   <v>      -0.37560721       0.34434306       0.00000412 </v>
   <v>      -0.12439279      -0.40565694      -0.00000412 </v>
   <v>       0.37560721       0.09434306      -0.00000412 </v>
   <v>       0.12439279      -0.15565694       0.00000412 </v>
   <v>      -0.03318340      -0.40655103       0.37102399 </v>
   <v>      -0.28131537       0.34523395       0.37102476 </v>
   <v>       0.21868463      -0.15476605       0.37102476 </v>
   <v>       0.46681660       0.09344897       0.37102399 </v>
   <v>       0.46151602       0.21936404      -0.15397331 </v>
   <v>       0.46151602      -0.28063596      -0.15397331 </v>
   <v>      -0.03848398       0.21936404      -0.15397331 </v>
   <v>      -0.03848398      -0.28063596      -0.15397331 </v>
   <v>       0.26492712       0.33232651      -0.39367237 </v>
   <v>      -0.46175575      -0.39365201      -0.39367694 </v>
   <v>      -0.03824425       0.35634799       0.39367694 </v>
   <v>      -0.26492712      -0.41767349       0.39367237 </v>
   <v>       0.23507288       0.08232651       0.39367237 </v>
   <v>       0.46175575      -0.14365201       0.39367694 </v>
   <v>       0.28131537      -0.40476605      -0.37102476 </v>
   <v>      -0.46681660       0.34344897      -0.37102399 </v>
   <v>      -0.21105030       0.46933910       0.15583616 </v>
   <v>       0.28894970      -0.03066090       0.15583616 </v>
   <v>       0.32470467      -0.15661825      -0.19749617 </v>
   <v>       0.07654971       0.09530995      -0.19749407 </v>
   <v>      -0.42345029      -0.40469005      -0.19749407 </v>
   <v>      -0.17529533       0.34338175      -0.19749617 </v>
   <v>       0.03318340       0.34344897      -0.37102399 </v>
   <v>      -0.07654971      -0.15469005       0.19749407 </v>
   <v>      -0.32470467       0.09338175       0.19749617 </v>
   <v>       0.03824425      -0.39365201      -0.39367694 </v>
   <v>      -0.37560721      -0.15565694       0.00000412 </v>
   <v>      -0.12439279       0.09434306      -0.00000412 </v>
   <v>      -0.21138343       0.21935690       0.15447525 </v>
   <v>      -0.21138343      -0.28064310       0.15447525 </v>
   <v>      -0.46151602      -0.03063596       0.15397331 </v>
   <v>       0.03848398      -0.03063596       0.15397331 </v>
   <v>       0.26492712      -0.16767349      -0.39367237 </v>
   <v>      -0.46175575       0.10634799      -0.39367694 </v>
   <v>      -0.03318340       0.09344897       0.37102399 </v>
   <v>      -0.28131537      -0.15476605       0.37102476 </v>
   <v>      -0.23507288       0.33232651      -0.39367237 </v>
   <v>      -0.28861657       0.46935690      -0.15447525 </v>
   <v>       0.21138343      -0.03064310      -0.15447525 </v>
   <v>      -0.21868463      -0.40476605      -0.37102476 </v>
   <v>       0.28131537       0.09523395      -0.37102476 </v>
   <v>      -0.46681660      -0.15655103      -0.37102399 </v>
   <v>      -0.03824425      -0.14365201       0.39367694 </v>
   <v>      -0.26492712       0.08232651       0.39367237 </v>
   <v>      -0.42345029       0.09530995      -0.19749407 </v>
   <v>      -0.17529533      -0.15661825      -0.19749617 </v>
   <v>       0.03318340      -0.15655103      -0.37102399 </v>
   <v>      -0.28894970       0.21933910      -0.15583616 </v>
   <v>      -0.28894970      -0.28066090      -0.15583616 </v>
   <v>       0.03824425       0.10634799      -0.39367694 </v>
   <v>       0.45353028      -0.03065024      -0.18586770 </v>
   <v>      -0.04646972      -0.03065024      -0.18586770 </v>
   <v>      -0.23507288      -0.16767349      -0.39367237 </v>
   <v>      -0.21868463       0.09523395      -0.37102476 </v>
   <v>      -0.21105030      -0.03066090       0.15583616 </v>
   <v>      -0.28861657      -0.03064310      -0.15447525 </v>
  </varray>
 </structure>
 <varray name="primitive_index" >
  <v type="int" >        1 </v>
  <v type="int" >       27 </v>
  <v type="int" >       29 </v>
  <v type="int" >       55 </v>
  <v type="int" >       49 </v>
  <v type="int" >       74 </v>
  <v type="int" >       73 </v>
  <v type="int" >       77 </v>
  <v type="int" >       79 </v>
  <v type="int" >       33 </v>
  <v type="int" >       39 </v>
  <v type="int" >       67 </v>
  <v type="int" >       69 </v>
  <v type="int" >       81 </v>
  <v type="int" >        5 </v>
  <v type="int" >        7 </v>
  <v type="int" >        6 </v>
  <v type="int" >        8 </v>
  <v type="int" >       19 </v>
  <v type="int" >       21 </v>
  <v type="int" >       13 </v>
  <v type="int" >       15 </v>
  <v type="int" >       30 </v>
  <v type="int" >       28 </v>
  <v type="int" >       25 </v>
  <v type="int" >       31 </v>
  <v type="int" >        9 </v>
  <v type="int" >       10 </v>
  <v type="int" >       50 </v>
  <v type="int" >       56 </v>
  <v type="int" >       53 </v>
  <v type="int" >       51 </v>
  <v type="int" >       40 </v>
  <v type="int" >       34 </v>
  <v type="int" >       35 </v>
  <v type="int" >       37 </v>
  <v type="int" >       85 </v>
  <v type="int" >       87 </v>
  <v type="int" >       86 </v>
  <v type="int" >       88 </v>
  <v type="int" >       61 </v>
  <v type="int" >       60 </v>
  <v type="int" >       70 </v>
  <v type="int" >       68 </v>
  <v type="int" >       65 </v>
  <v type="int" >       71 </v>
  <v type="int" >       47 </v>
  <v type="int" >       42 </v>
  <v type="int" >        2 </v>
  <v type="int" >        3 </v>
  <v type="int" >       23 </v>
  <v type="int" >       17 </v>
  <v type="int" >       20 </v>
  <v type="int" >       22 </v>
  <v type="int" >       41 </v>
  <v type="int" >       32 </v>
  <v type="int" >       26 </v>
  <v type="int" >       59 </v>
  <v type="int" >       52 </v>
  <v type="int" >       54 </v>
  <v type="int" >       78 </v>
  <v type="int" >       80 </v>
  <v type="int" >       76 </v>
  <v type="int" >       75 </v>
  <v type="int" >       63 </v>
  <v type="int" >       58 </v>
  <v type="int" >       38 </v>
  <v type="int" >       36 </v>
  <v type="int" >       62 </v>
  <v type="int" >       82 </v>
  <v type="int" >       83 </v>
  <v type="int" >       48 </v>
  <v type="int" >       45 </v>
  <v type="int" >       44 </v>
  <v type="int" >       72 </v>
  <v type="int" >       66 </v>
  <v type="int" >       18 </v>
  <v type="int" >       24 </v>
  <v type="int" >       43 </v>
  <v type="int" >       14 </v>
  <v type="int" >       16 </v>
  <v type="int" >       57 </v>
  <v type="int" >       11 </v>
  <v type="int" >       12 </v>
  <v type="int" >       64 </v>
  <v type="int" >       46 </v>
  <v type="int" >        4 </v>
  <v type="int" >       84 </v>
 </varray>
 <kpoints>
  <generation param="Gamma">
   <v type="int" name="divisions">       3        3        3 </v>
   <v name="usershift">      0.00000000       0.00000000       0.00000000 </v>
   <v name="genvec1">      0.33333333       0.00000000       0.00000000 </v>
   <v name="genvec2">      0.00000000       0.33333333       0.00000000 </v>
   <v name="genvec3">      0.00000000       0.00000000       0.33333333 </v>
   <v name="shift">      0.00000000       0.00000000       0.00000000 </v>
  </generation>
  <varray name="kpointlist" >
   <v>       0.00000000       0.00000000       0.00000000 </v>
   <v>       0.33333333       0.00000000       0.00000000 </v>
   <v>       0.00000000       0.33333333       0.00000000 </v>
   <v>       0.33333333       0.33333333       0.00000000 </v>
   <v>      -0.33333333       0.33333333      -0.00000000 </v>
   <v>       0.00000000       0.00000000       0.33333333 </v>
   <v>       0.33333333       0.00000000       0.33333333 </v>
   <v>      -0.33333333       0.00000000       0.33333333 </v>
   <v>       0.00000000       0.33333333       0.33333333 </v>
   <v>       0.33333333       0.33333333       0.33333333 </v>
   <v>      -0.33333333       0.33333333       0.33333333 </v>
   <v>       0.00000000      -0.33333333       0.33333333 </v>
   <v>       0.33333333      -0.33333333       0.33333333 </v>
   <v>      -0.33333333      -0.33333333       0.33333333 </v>
  </varray>
  <varray name="weights" >
   <v>       0.03703704 </v>
   <v>       0.07407407 </v>
   <v>       0.07407407 </v>
   <v>       0.07407407 </v>
   <v>       0.07407407 </v>
   <v>       0.07407407 </v>
   <v>       0.07407407 </v>
   <v>       0.07407407 </v>
   <v>       0.07407407 </v>
   <v>       0.07407407 </v>
   <v>       0.07407407 </v>
   <v>       0.07407407 </v>
   <v>       0.07407407 </v>
   <v>       0.07407407 </v>
  </varray>
 </kpoints>
 <parameters>
  <separator name="general" >
   <i type="string" name="SYSTEM">unknown system</i>
   <i type="logical" name="LCOMPAT"> F  </i>
  </separator>
  <separator name="electronic" >
   <i type="string" name="PREC">accura</i>
   <i name="ENMAX">    650.00000000</i>
   <i name="ENAUG">    628.94500000</i>
   <i name="EDIFF">      0.00000100</i>
   <i type="int" name="IALGO">    38</i>
   <i type="int" name="IWAVPR">    10</i>
   <i type="int" name="NBANDS">   538</i>
   <i name="NELECT">    736.00000000</i>
   <i type="int" name="TURBO">     0</i>
   <i type="int" name="IRESTART">     0</i>
   <i type="int" name="NREBOOT">     0</i>
   <i type="int" name="NMIN">     0</i>
   <i name="EREF">      0.00000000</i>
   <separator name="electronic smearing" >
    <i type="int" name="ISMEAR">     0</i>
    <i name="SIGMA">      0.05000000</i>
    <i name="KSPACING">      0.50000000</i>
    <i type="logical" name="KGAMMA"> T  </i>
   </separator>
   <separator name="electronic projectors" >
    <i type="logical" name="LREAL"> F  </i>
    <v name="ROPT">      0.00000000      0.00000000      0.00000000      0.00000000</v>
    <i type="int" name="LMAXPAW">  -100</i>
    <i type="int" name="LMAXMIX">     4</i>
    <i type="logical" name="NLSPLINE"> F  </i>
   </separator>
   <separator name="electronic startup" >
    <i type="int" name="ISTART">     0</i>
    <i type="int" name="ICHARG">     1</i>
    <i type="int" name="INIWAV">     1</i>
   </separator>
   <separator name="electronic spin" >
    <i type="int" name="ISPIN">     2</i>
    <i type="logical" name="LNONCOLLINEAR"> F  </i>
    <v name="MAGMOM">      0.60000000      0.60000000      0.60000000      0.60000000      0.60000000      0.60000000      0.60000000      0.60000000      0.60000000      0.60000000      0.60000000      0.60000000      0.60000000      0.60000000      0.60000000      0.60000000      0.60000000      0.60000000      0.60000000      0.60000000
      0.60000000      0.60000000      0.60000000      0.60000000      0.60000000      0.60000000      0.60000000      0.60000000      0.60000000      0.60000000      0.60000000      0.60000000      0.60000000      0.60000000      0.60000000      0.60000000      0.60000000      0.60000000      0.60000000      0.60000000
      0.60000000      0.60000000      0.60000000      0.60000000      0.60000000      0.60000000      0.60000000      0.60000000      0.60000000      0.60000000      0.60000000      0.60000000      0.60000000      0.60000000      0.60000000      0.60000000      5.00000000      5.00000000      5.00000000      5.00000000
      5.00000000      5.00000000      5.00000000      5.00000000      5.00000000      5.00000000      5.00000000      5.00000000      5.00000000      5.00000000      5.00000000      5.00000000      5.00000000      5.00000000      5.00000000      5.00000000      5.00000000      5.00000000      5.00000000      5.00000000
      5.00000000      5.00000000      5.00000000      5.00000000      5.00000000      5.00000000      5.00000000      5.00000000</v>
    <i name="NUPDOWN">     -1.00000000</i>
    <i type="logical" name="LSORBIT"> F  </i>
    <v name="SAXIS">      0.00000000      0.00000000      1.00000000</v>
    <i type="logical" name="LSPIRAL"> F  </i>
    <v name="QSPIRAL">      0.00000000      0.00000000      0.00000000</v>
    <i type="logical" name="LZEROZ"> F  </i>
   </separator>
   <separator name="electronic exchange-correlation" >
    <i type="logical" name="LASPH"> T  </i>
    <i type="logical" name="LMETAGGA"> F  </i>
   </separator>
   <separator name="electronic convergence" >
    <i type="int" name="NELM">   200</i>
    <i type="int" name="NELMDL">     0</i>
    <i type="int" name="NELMIN">     8</i>
    <i name="ENINI">    650.00000000</i>
    <separator name="electronic convergence detail" >
     <i type="logical" name="LDIAG"> T  </i>
     <i type="logical" name="LSUBROT"> F  </i>
     <i name="WEIMIN">      0.00000000</i>
     <i name="EBREAK">      0.00000000</i>
     <i name="DEPER">      0.30000000</i>
     <i type="int" name="NRMM">     4</i>
     <i name="TIME">      0.40000000</i>
    </separator>
   </separator>
   <separator name="electronic mixer" >
    <i name="AMIX">      0.40000000</i>
    <i name="BMIX">      1.00000000</i>
    <i name="AMIN">      0.10000000</i>
    <i name="AMIX_MAG">      1.60000000</i>
    <i name="BMIX_MAG">      1.00000000</i>
    <separator name="electronic mixer details" >
     <i type="int" name="IMIX">     4</i>
     <i type="logical" name="MIXFIRST"> F  </i>
     <i type="int" name="MAXMIX">   -45</i>
     <i name="WC">    100.00000000</i>
     <i type="int" name="INIMIX">     1</i>
     <i type="int" name="MIXPRE">     1</i>
     <i type="int" name="MREMOVE">     5</i>
    </separator>
   </separator>
   <separator name="electronic dipolcorrection" >
    <i type="logical" name="LDIPOL"> F  </i>
    <i type="logical" name="LMONO"> F  </i>
    <i type="int" name="IDIPOL">     0</i>
    <i name="EPSILON">      1.00000000</i>
    <v name="DIPOL">   -100.00000000   -100.00000000   -100.00000000</v>
    <i name="EFIELD">      0.00000000</i>
   </separator>
  </separator>
  <separator name="grids" >
   <i type="int" name="NGX">    96</i>
   <i type="int" name="NGY">    96</i>
   <i type="int" name="NGZ">    90</i>
   <i type="int" name="NGXF">   192</i>
   <i type="int" name="NGYF">   192</i>
   <i type="int" name="NGZF">   180</i>
   <i type="logical" name="ADDGRID"> T  </i>
  </separator>
  <separator name="ionic" >
   <i type="int" name="NSW">     0</i>
   <i type="int" name="IBRION">    -1</i>
   <i type="int" name="MDALGO">     0</i>
   <i type="int" name="ISIF">     2</i>
   <i name="PSTRESS">      0.00000000</i>
   <i name="EDIFFG">      0.00001000</i>
   <i type="int" name="NFREE">     0</i>
   <i name="POTIM">      0.50000000</i>
   <i name="SMASS">     -3.00000000</i>
   <i name="SCALEE">      1.00000000</i>
  </separator>
  <separator name="ionic md" >
   <i name="TEBEG">      0.00010000</i>
   <i name="TEEND">      0.00010000</i>
   <i type="int" name="NBLOCK">     1</i>
   <i type="int" name="KBLOCK">     1</i>
   <i type="int" name="NPACO">   256</i>
   <i name="APACO">     16.00000000</i>
  </separator>
  <separator name="symmetry" >
   <i type="int" name="ISYM">     0</i>
   <i name="SYMPREC">      0.00001000</i>
  </separator>
  <separator name="dos" >
   <i type="int" name="LORBIT">     0</i>
   <v name="RWIGS">     -1.00000000     -1.00000000     -1.00000000     -1.00000000</v>
   <i type="int" name="NEDOS">   301</i>
   <i name="EMIN">     10.00000000</i>
   <i name="EMAX">    -10.00000000</i>
   <i name="EFERMI">      0.00000000</i>
  </separator>
  <separator name="writing" >
   <i type="int" name="NWRITE">     1</i>
   <i type="logical" name="LWAVE"> F  </i>
   <i type="logical" name="LDOWNSAMPLE"> F  </i>
   <i type="logical" name="LCHARG"> T  </i>
   <i type="logical" name="LPARD"> F  </i>
   <i type="logical" name="LVTOT"> F  </i>
   <i type="logical" name="LVHAR"> F  </i>
   <i type="logical" name="LELF"> F  </i>
   <i type="logical" name="LOPTICS"> F  </i>
   <v name="STM">      0.00000000      0.00000000      0.00000000      0.00000000      0.00000000      0.00000000      0.00000000</v>
  </separator>
  <separator name="performance" >
   <i type="int" name="NPAR">     2</i>
   <i type="int" name="NSIM">     4</i>
   <i type="int" name="NBLK">    -1</i>
   <i type="logical" name="LPLANE"> T  </i>
   <i type="logical" name="LSCALAPACK"> T  </i>
   <i type="logical" name="LSCAAWARE"> F  </i>
   <i type="logical" name="LSCALU"> F  </i>
   <i type="logical" name="LASYNC"> F  </i>
   <i type="logical" name="LORBITALREAL"> F  </i>
  </separator>
  <separator name="miscellaneous" >
   <i type="int" name="IDIOT">     3</i>
   <i type="int" name="ISPECIAL">     0</i>
   <i type="logical" name="LMUSIC"> F  </i>
   <v name="POMASS">      7.01000000     16.00000000     32.06600000     55.84700000</v>
   <v name="DARWINR">      0.00000000      0.00000000      0.00000000      0.00000000</v>
   <v name="DARWINV">      1.00000000      1.00000000      1.00000000      1.00000000</v>
   <i type="logical" name="LCORR"> T  </i>
  </separator>
  <i type="logical" name="GGA_COMPAT"> T  </i>
  <i type="logical" name="LBERRY"> F  </i>
  <i type="int" name="ICORELEVEL">     0</i>
  <i type="logical" name="LDAU"> T  </i>
  <v type="int" name="LDAUTYPE">     2</v>
  <v type="int" name="LDAUL">    -1</v>
  <v name="LDAUU">      0.00000000</v>
  <v name="LDAUJ">      0.00000000</v>
  <i type="int" name="LDAUPRINT">     0</i>
  <i type="int" name="I_CONSTRAINED_M">     0</i>
  <separator name="electronic exchange-correlation" >
   <i type="string" name="GGA">PE</i>
   <i type="int" name="VOSKOWN">     0</i>
   <i type="logical" name="LHFCALC"> F  </i>
   <i type="string" name="PRECFOCK"></i>
   <i type="logical" name="LSYMGRAD"> F  </i>
   <i type="logical" name="LHFONE"> F  </i>
   <i type="logical" name="LRHFCALC"> F  </i>
   <i type="logical" name="LTHOMAS"> F  </i>
   <i type="logical" name="LMODELHF"> F  </i>
   <i name="ENCUT4O">     -1.00000000</i>
   <i type="int" name="EXXOEP">     0</i>
   <i type="int" name="FOURORBIT">     0</i>
   <i name="AEXX">      0.00000000</i>
   <i name="HFALPHA">      0.00000000</i>
   <i name="MCALPHA">      0.00000000</i>
   <i name="ALDAX">      1.00000000</i>
   <i name="AGGAX">      1.00000000</i>
   <i name="ALDAC">      1.00000000</i>
   <i name="AGGAC">      1.00000000</i>
   <i type="int" name="NKREDX">     1</i>
   <i type="int" name="NKREDY">     1</i>
   <i type="int" name="NKREDZ">     1</i>
   <i type="logical" name="SHIFTRED"> F  </i>
   <i type="logical" name="ODDONLY"> F  </i>
   <i type="logical" name="EVENONLY"> F  </i>
   <i type="int" name="LMAXFOCK">     0</i>
   <i type="int" name="NMAXFOCKAE">     0</i>
   <i type="logical" name="LFOCKAEDFT"> F  </i>
   <i name="HFSCREEN">      0.00000000</i>
   <i name="HFSCREENC">      0.00000000</i>
   <i type="int" name="NBANDSGWLOW">     0</i>
  </separator>
  <separator name="vdW DFT" >
   <i type="logical" name="LUSE_VDW"> F  </i>
   <i name="Zab_VDW">     -0.84910000</i>
   <i name="PARAM1">      0.12340000</i>
   <i name="PARAM2">      1.00000000</i>
   <i name="PARAM3">      0.00000000</i>
  </separator>
  <separator name="model GW" >
   <i type="int" name="MODEL_GW">     0</i>
   <i name="MODEL_EPS0">      8.59048892</i>
   <i name="MODEL_ALPHA">      1.00000000</i>
  </separator>
  <separator name="linear response parameters" >
   <i type="logical" name="LEPSILON"> F  </i>
   <i type="logical" name="LRPA"> F  </i>
   <i type="logical" name="LNABLA"> F  </i>
   <i type="logical" name="LVEL"> F  </i>
   <i type="int" name="KINTER">     0</i>
   <i name="CSHIFT">      0.10000000</i>
   <i name="OMEGAMAX">     -1.00000000</i>
   <i name="DEG_THRESHOLD">      0.00200000</i>
   <i name="RTIME">     -0.10000000</i>
   <i name="WPLASMAI">      0.00000000</i>
   <v name="DFIELD">      0.00000000      0.00000000      0.00000000</v>
   <v name="WPLASMA">      0.00000000      0.00000000      0.00000000      0.00000000      0.00000000      0.00000000      0.00000000      0.00000000      0.00000000</v>
  </separator>
  <separator name="orbital magnetization" >
   <i type="logical" name="NUCIND"> F  </i>
   <v name="MAGPOS">      0.00000000      0.00000000      0.00000000</v>
   <i type="logical" name="LNICSALL"> T  </i>
   <i type="logical" name="ORBITALMAG"> F  </i>
   <i type="logical" name="LMAGBLOCH"> F  </i>
   <i type="logical" name="LCHIMAG"> F  </i>
   <i type="logical" name="LGAUGE"> T  </i>
   <i type="int" name="MAGATOM">     0</i>
   <v name="MAGDIPOL">      0.00000000      0.00000000      0.00000000</v>
   <v name="AVECCONST">      0.00000000      0.00000000      0.00000000</v>
  </separator>
  <separator name="response functions" >
   <i type="logical" name="LADDER"> F  </i>
   <i type="logical" name="LRPAFORCE"> F  </i>
   <i type="logical" name="LFXC"> F  </i>
   <i type="logical" name="LHARTREE"> T  </i>
   <i type="int" name="IBSE">     0</i>
   <v type="int" name="KPOINT">    -1     0     0     0</v>
   <i type="logical" name="LTCTE"> F  </i>
   <i type="logical" name="LTETE"> F  </i>
   <i type="logical" name="LTRIPLET"> F  </i>
   <i type="logical" name="LFXCEPS"> F  </i>
   <i type="logical" name="LFXHEG"> F  </i>
   <i type="int" name="NATURALO">     2</i>
   <i type="logical" name="L2ORDER"> F  </i>
   <i type="logical" name="LMP2LT"> F  </i>
   <i type="logical" name="LUSEW"> F  </i>
   <i name="ENCUTGW">     -2.00000000</i>
   <i name="ENCUTGWSOFT">     -2.00000000</i>
   <i name="ENCUTLF">     -1.00000000</i>
   <i type="int" name="LMAXMP2">    -1</i>
   <i name="SCISSOR">      0.00000000</i>
   <i type="int" name="NOMEGA">     0</i>
   <i type="int" name="NOMEGAR">     0</i>
   <i type="int" name="NBANDSGW">    -1</i>
   <i type="int" name="NBANDSO">    -1</i>
   <i type="int" name="NBANDSV">    -1</i>
   <i type="int" name="NELM">   200</i>
   <i type="int" name="NELMHF">     1</i>
   <i type="int" name="DIM">     3</i>
   <i type="int" name="ANTIRES">     0</i>
   <i name="OMEGAMAX">    -30.00000000</i>
   <i name="OMEGAMIN">    -30.00000000</i>
   <i name="OMEGATL">   -200.00000000</i>
   <i type="int" name="OMEGAGRID">   140</i>
   <i name="CSHIFT">     -0.10000000</i>
   <i type="logical" name="SELFENERGY"> F  </i>
   <i type="logical" name="LSPECTRAL"> F  </i>
   <i type="logical" name="LSPECTRALGW"> F  </i>
   <i type="logical" name="LSINGLES"> F  </i>
   <i type="logical" name="LFERMIGW"> F  </i>
   <i type="logical" name="ODDONLYGW"> F  </i>
   <i type="logical" name="EVENONLYGW"> F  </i>
   <i type="int" name="NKREDLFX">     1</i>
   <i type="int" name="NKREDLFY">     1</i>
   <i type="int" name="NKREDLFZ">     1</i>
   <i type="int" name="MAXMEM">  2800</i>
   <i type="int" name="TELESCOPE">     0</i>
   <i type="int" name="TAUPAR">     1</i>
   <i type="int" name="OMEGAPAR">    -1</i>
   <i name="LAMBDA">      1.00000000</i>
  </separator>
  <separator name="External order field" >
   <i name="OFIELD_KAPPA">      0.00000000</i>
   <v name="OFIELD_K">      0.00000000      0.00000000      0.00000000</v>
   <i name="OFIELD_Q6_NEAR">      0.00000000</i>
   <i name="OFIELD_Q6_FAR">      0.00000000</i>
   <i name="OFIELD_A">      0.00000000</i>
  </separator>
 </parameters>
 <atominfo>
  <atoms>      88 </atoms>
  <types>       4 </types>
  <array name="atoms" >
   <dimension dim="1">ion</dimension>
   <field type="string">element</field>
   <field type="int">atomtype</field>
   <set>
    <rc><c>Li</c><c>   1</c></rc>
    <rc><c>Li</c><c>   1</c></rc>
    <rc><c>Li</c><c>   1</c></rc>
    <rc><c>Li</c><c>   1</c></rc>
    <rc><c>Li</c><c>   1</c></rc>
    <rc><c>Li</c><c>   1</c></rc>
    <rc><c>Li</c><c>   1</c></rc>
    <rc><c>Li</c><c>   1</c></rc>
    <rc><c>Li</c><c>   1</c></rc>
    <rc><c>Li</c><c>   1</c></rc>
    <rc><c>Li</c><c>   1</c></rc>
    <rc><c>Li</c><c>   1</c></rc>
    <rc><c>Li</c><c>   1</c></rc>
    <rc><c>Li</c><c>   1</c></rc>
    <rc><c>Li</c><c>   1</c></rc>
    <rc><c>Li</c><c>   1</c></rc>
    <rc><c>O </c><c>   2</c></rc>
    <rc><c>O </c><c>   2</c></rc>
    <rc><c>O </c><c>   2</c></rc>
    <rc><c>O </c><c>   2</c></rc>
    <rc><c>O </c><c>   2</c></rc>
    <rc><c>O </c><c>   2</c></rc>
    <rc><c>O </c><c>   2</c></rc>
    <rc><c>O </c><c>   2</c></rc>
    <rc><c>O </c><c>   2</c></rc>
    <rc><c>O </c><c>   2</c></rc>
    <rc><c>O </c><c>   2</c></rc>
    <rc><c>O </c><c>   2</c></rc>
    <rc><c>O </c><c>   2</c></rc>
    <rc><c>O </c><c>   2</c></rc>
    <rc><c>O </c><c>   2</c></rc>
    <rc><c>O </c><c>   2</c></rc>
    <rc><c>S </c><c>   3</c></rc>
    <rc><c>S </c><c>   3</c></rc>
    <rc><c>S </c><c>   3</c></rc>
    <rc><c>S </c><c>   3</c></rc>
    <rc><c>S </c><c>   3</c></rc>
    <rc><c>S </c><c>   3</c></rc>
    <rc><c>S </c><c>   3</c></rc>
    <rc><c>S </c><c>   3</c></rc>
    <rc><c>S </c><c>   3</c></rc>
    <rc><c>S </c><c>   3</c></rc>
    <rc><c>S </c><c>   3</c></rc>
    <rc><c>S </c><c>   3</c></rc>
    <rc><c>S </c><c>   3</c></rc>
    <rc><c>S </c><c>   3</c></rc>
    <rc><c>S </c><c>   3</c></rc>
    <rc><c>S </c><c>   3</c></rc>
    <rc><c>S </c><c>   3</c></rc>
    <rc><c>S </c><c>   3</c></rc>
    <rc><c>S </c><c>   3</c></rc>
    <rc><c>S </c><c>   3</c></rc>
    <rc><c>S </c><c>   3</c></rc>
    <rc><c>S </c><c>   3</c></rc>
    <rc><c>S </c><c>   3</c></rc>
    <rc><c>S </c><c>   3</c></rc>
    <rc><c>Fe</c><c>   4</c></rc>
    <rc><c>Fe</c><c>   4</c></rc>
    <rc><c>Fe</c><c>   4</c></rc>
    <rc><c>Fe</c><c>   4</c></rc>
    <rc><c>Fe</c><c>   4</c></rc>
    <rc><c>Fe</c><c>   4</c></rc>
    <rc><c>Fe</c><c>   4</c></rc>
    <rc><c>Fe</c><c>   4</c></rc>
    <rc><c>Fe</c><c>   4</c></rc>
    <rc><c>Fe</c><c>   4</c></rc>
    <rc><c>Fe</c><c>   4</c></rc>
    <rc><c>Fe</c><c>   4</c></rc>
    <rc><c>Fe</c><c>   4</c></rc>
    <rc><c>Fe</c><c>   4</c></rc>
    <rc><c>Fe</c><c>   4</c></rc>
    <rc><c>Fe</c><c>   4</c></rc>
    <rc><c>Fe</c><c>   4</c></rc>
    <rc><c>Fe</c><c>   4</c></rc>
    <rc><c>Fe</c><c>   4</c></rc>
    <rc><c>Fe</c><c>   4</c></rc>
    <rc><c>Fe</c><c>   4</c></rc>
    <rc><c>Fe</c><c>   4</c></rc>
    <rc><c>Fe</c><c>   4</c></rc>
    <rc><c>Fe</c><c>   4</c></rc>
    <rc><c>Fe</c><c>   4</c></rc>
    <rc><c>Fe</c><c>   4</c></rc>
    <rc><c>Fe</c><c>   4</c></rc>
    <rc><c>Fe</c><c>   4</c></rc>
    <rc><c>Fe</c><c>   4</c></rc>
    <rc><c>Fe</c><c>   4</c></rc>
    <rc><c>Fe</c><c>   4</c></rc>
    <rc><c>Fe</c><c>   4</c></rc>
   </set>
  </array>
  <array name="atomtypes" >
   <dimension dim="1">type</dimension>
   <field type="int">atomspertype</field>
   <field type="string">element</field>
   <field>mass</field>
   <field>valence</field>
   <field type="string">pseudopotential</field>
   <set>
    <rc><c>  16</c><c>Li</c><c>      7.01000000</c><c>      3.00000000</c><c>  PAW_PBE Li_sv 10Sep2004               </c></rc>
    <rc><c>  16</c><c>O </c><c>     16.00000000</c><c>      6.00000000</c><c>  PAW_PBE O 08Apr2002                   </c></rc>
    <rc><c>  24</c><c>S </c><c>     32.06600000</c><c>      6.00000000</c><c>  PAW_PBE S 06Sep2000                   </c></rc>
    <rc><c>  32</c><c>Fe</c><c>     55.84700000</c><c>     14.00000000</c><c>  PAW_PBE Fe_pv 02Aug2007               </c></rc>
   </set>
  </array>
 </atominfo>
 <structure name="initialpos" >
  <crystal>
   <varray name="basis" >
    <v>      11.11223374       0.00000000      -0.00029034 </v>
    <v>       0.00000000      11.11745194       0.00000000 </v>
    <v>      -2.77510898       0.00000000      10.19872221 </v>
   </varray>
   <i name="volume">   1259.93837498 </i>
   <varray name="rec_basis" >
    <v>       0.08999155       0.00000000       0.02448702 </v>
    <v>       0.00000000       0.08994867       0.00000000 </v>
    <v>       0.00000256       0.00000000       0.09805220 </v>
   </varray>
  </crystal>
  <varray name="positions" >
   <v>       0.28894969       0.46933910       0.15583616 </v>
   <v>       0.78894969       0.46933910       0.15583616 </v>
   <v>       0.28894969       0.96933910       0.15583616 </v>
   <v>       0.78894969       0.96933910       0.15583616 </v>
   <v>       0.04646972       0.21934976       0.18586770 </v>
   <v>       0.54646972       0.21934976       0.18586770 </v>
   <v>       0.04646972       0.71934976       0.18586770 </v>
   <v>       0.54646972       0.71934976       0.18586770 </v>
   <v>       0.45353028       0.46934976       0.81413230 </v>
   <v>       0.95353028       0.46934976       0.81413230 </v>
   <v>       0.45353028       0.96934976       0.81413230 </v>
   <v>       0.95353028       0.96934976       0.81413230 </v>
   <v>       0.21105031       0.21933910       0.84416384 </v>
   <v>       0.71105031       0.21933910       0.84416384 </v>
   <v>       0.21105031       0.71933910       0.84416384 </v>
   <v>       0.71105031       0.71933910       0.84416384 </v>
   <v>       0.07654971       0.09530995       0.80250593 </v>
   <v>       0.57654971       0.09530995       0.80250593 </v>
   <v>       0.07654971       0.59530995       0.80250593 </v>
   <v>       0.57654971       0.59530995       0.80250593 </v>
   <v>       0.32560457       0.34338175       0.80250383 </v>
   <v>       0.82470466       0.34338175       0.80250383 </v>
   <v>       0.32470466       0.84338175       0.80250383 </v>
   <v>       0.82470466       0.84338175       0.80250383 </v>
   <v>       0.17529534       0.09338175       0.19749617 </v>
   <v>       0.67529534       0.09338175       0.19749617 </v>
   <v>       0.17529534       0.59338175       0.19749617 </v>
   <v>       0.67529534       0.59338175       0.19749617 </v>
   <v>       0.42345029       0.34530995       0.19749407 </v>
   <v>       0.92345029       0.34530995       0.19749407 </v>
   <v>       0.42345029       0.84530995       0.19749407 </v>
   <v>       0.92345029       0.84530995       0.19749407 </v>
   <v>       0.21868463       0.34523395       0.37102476 </v>
   <v>       0.71868463       0.34523395       0.37102476 </v>
   <v>       0.21868463       0.84523395       0.37102476 </v>
   <v>       0.71868463       0.84523395       0.37102476 </v>
   <v>       0.46681660       0.09344897       0.37102399 </v>
   <v>       0.96681660       0.09344897       0.37102399 </v>
   <v>       0.46681660       0.59344897       0.37102399 </v>
   <v>       0.96681660       0.59344897       0.37102399 </v>
   <v>       0.03318340       0.34344897       0.62897601 </v>
   <v>       0.53318340       0.34344897       0.62897601 </v>
   <v>       0.03318340       0.84344897       0.62897601 </v>
   <v>       0.53318340       0.84344897       0.62897601 </v>
   <v>       0.28131537       0.09523395       0.62897524 </v>
   <v>       0.78131537       0.09523395       0.62897524 </v>
   <v>       0.28131537       0.59523395       0.62897524 </v>
   <v>       0.78131537       0.59523395       0.62897524 </v>
   <v>       0.12439279       0.34434306       0.00000412 </v>
   <v>       0.62439279       0.34434306       0.00000412 </v>
   <v>       0.12439279       0.84434306       0.00000412 </v>
   <v>       0.62439279       0.84434306       0.00000412 </v>
   <v>       0.37560721       0.09434306       0.99999588 </v>
   <v>       0.87560721       0.09434306       0.99999588 </v>
   <v>       0.37560721       0.59434306       0.99999588 </v>
   <v>       0.87560721       0.59434306       0.99999588 </v>
   <v>       0.03824426       0.10634799       0.60632306 </v>
   <v>       0.53824426       0.10634799       0.60632306 </v>
   <v>       0.03824426       0.60634799       0.60632306 </v>
   <v>       0.53824426       0.60634799       0.60632306 </v>
   <v>       0.26492712       0.33232651       0.60632763 </v>
   <v>       0.76492712       0.33232651       0.60632763 </v>
   <v>       0.26492712       0.83232651       0.60632763 </v>
   <v>       0.76492712       0.83232651       0.60632763 </v>
   <v>       0.23507288       0.08232651       0.39367237 </v>
   <v>       0.73507288       0.08232651       0.39367237 </v>
   <v>       0.23507288       0.58232651       0.39367237 </v>
   <v>       0.73507288       0.58232651       0.39367237 </v>
   <v>       0.46175574       0.35634799       0.39367694 </v>
   <v>       0.96175574       0.35634799       0.39367694 </v>
   <v>       0.46175574       0.85634799       0.39367694 </v>
   <v>       0.96175574       0.85634799       0.39367694 </v>
   <v>       0.03848398       0.46936404       0.15397331 </v>
   <v>       0.53848398       0.46936404       0.15397331 </v>
   <v>       0.03848398       0.96936404       0.15397331 </v>
   <v>       0.53848398       0.96936404       0.15397331 </v>
   <v>       0.28861657       0.21935690       0.15447525 </v>
   <v>       0.78861657       0.21935690       0.15447525 </v>
   <v>       0.28861657       0.71935690       0.15447525 </v>
   <v>       0.78861657       0.71935690       0.15447525 </v>
   <v>       0.21138343       0.46935690       0.84552475 </v>
   <v>       0.71138343       0.46935690       0.84552475 </v>
   <v>       0.21138343       0.96935690       0.84552475 </v>
   <v>       0.71138343       0.96935690       0.84552475 </v>
   <v>       0.46151602       0.21936404       0.84602669 </v>
   <v>       0.96151602       0.21936404       0.84602669 </v>
   <v>       0.46151602       0.71936404       0.84602669 </v>
   <v>       0.96151602       0.71936404       0.84602669 </v>
  </varray>
 </structure>
 <calculation>
  <scstep>
   <time name="dav">  307.44  310.67</time>
   <time name="total">  310.76  314.45</time>
   <energy>
    <i name="alphaZ">   2314.49656628 </i>
    <i name="ewald"> -57723.19645674 </i>
    <i name="hartreedc"> -30348.72725456 </i>
    <i name="XCdc">   3229.29911504 </i>
    <i name="pawpsdc">  92679.89207989 </i>
    <i name="pawaedc"> -95535.38516353 </i>
    <i name="eentropy">     -0.01840400 </i>
    <i name="bandstr">    349.79923860 </i>
    <i name="atom">  95443.47970955 </i>
    <i name="e_fr_energy">  10409.63943052 </i>
    <i name="e_wo_entrp">  10409.65783452 </i>
    <i name="e_0_energy">  10409.64863252 </i>
   </energy>
  </scstep>
  <scstep>
   <time name="dav">  301.70  304.61</time>
   <time name="total">  301.71  304.62</time>
   <energy>
    <i name="e_fr_energy">   1177.48803196 </i>
    <i name="e_wo_entrp">   1177.55389101 </i>
    <i name="e_0_energy">   1177.52096149 </i>
   </energy>
  </scstep>
  <scstep>
   <time name="dav">  318.34  320.95</time>
   <time name="total">  318.34  320.95</time>
   <energy>
    <i name="e_fr_energy">   -308.05415336 </i>
    <i name="e_wo_entrp">   -308.05415336 </i>
    <i name="e_0_energy">   -308.05415336 </i>
   </energy>
  </scstep>
  <scstep>
   <time name="dav">  338.70  341.72</time>
   <time name="total">  338.71  341.72</time>
   <energy>
    <i name="e_fr_energy">   -476.29919832 </i>
    <i name="e_wo_entrp">   -476.29919832 </i>
    <i name="e_0_energy">   -476.29919832 </i>
   </energy>
  </scstep>
  <scstep>
   <time name="dav">  451.59  455.40</time>
   <time name="total">  460.86  464.70</time>
   <energy>
    <i name="e_fr_energy">   -488.73466819 </i>
    <i name="e_wo_entrp">   -488.73466819 </i>
    <i name="e_0_energy">   -488.73466819 </i>
   </energy>
  </scstep>
  <scstep>
   <time name="dav">  392.05  395.35</time>
   <time name="total">  404.70  408.11</time>
   <energy>
    <i name="e_fr_energy">   -489.20038600 </i>
    <i name="e_wo_entrp">   -489.20038600 </i>
    <i name="e_0_energy">   -489.20038600 </i>
   </energy>
  </scstep>
  <scstep>
   <time name="dav">  425.72  429.66</time>
   <time name="total">  438.46  442.49</time>
   <energy>
    <i name="e_fr_energy">   -489.21695592 </i>
    <i name="e_wo_entrp">   -489.21695592 </i>
    <i name="e_0_energy">   -489.21695592 </i>
   </energy>
  </scstep>
  <scstep>
   <time name="dav">  398.97  402.68</time>
   <time name="total">  411.69  415.45</time>
   <energy>
    <i name="e_fr_energy">   -489.21647953 </i>
    <i name="e_wo_entrp">   -489.21647953 </i>
    <i name="e_0_energy">   -489.21647953 </i>
   </energy>
  </scstep>
  <scstep>
   <time name="dav">  444.37  448.36</time>
   <time name="total">  457.06  461.16</time>
   <energy>
    <i name="e_fr_energy">   -489.21597557 </i>
    <i name="e_wo_entrp">   -489.21597557 </i>
    <i name="e_0_energy">   -489.21597557 </i>
   </energy>
  </scstep>
  <scstep>
   <time name="dav">  440.12  446.69</time>
   <time name="total">  452.82  459.46</time>
   <energy>
    <i name="e_fr_energy">   -489.21495701 </i>
    <i name="e_wo_entrp">   -489.21495701 </i>
    <i name="e_0_energy">   -489.21495701 </i>
   </energy>
  </scstep>
  <scstep>
   <time name="dav">  361.96  364.68</time>
   <time name="total">  374.61  377.48</time>
   <energy>
    <i name="e_fr_energy">   -489.21488220 </i>
    <i name="e_wo_entrp">   -489.21488220 </i>
    <i name="e_0_energy">   -489.21488220 </i>
   </energy>
  </scstep>
  <scstep>
   <time name="dav">  389.33  392.58</time>
   <time name="total">  401.96  405.30</time>
   <energy>
    <i name="e_fr_energy">   -489.21489539 </i>
    <i name="e_wo_entrp">   -489.21489539 </i>
    <i name="e_0_energy">   -489.21489539 </i>
   </energy>
  </scstep>
  <scstep>
   <time name="dav">  274.77  277.48</time>
   <time name="total">  287.43  290.16</time>
   <energy>
    <i name="e_fr_energy">   -489.21489820 </i>
    <i name="e_wo_entrp">   -489.21489820 </i>
    <i name="e_0_energy">   -489.21489820 </i>
   </energy>
  </scstep>
  <scstep>
   <time name="dav">  323.29  325.92</time>
   <time name="total">  335.82  338.53</time>
   <energy>
    <i name="e_fr_energy">   -489.21490856 </i>
    <i name="e_wo_entrp">   -489.21490856 </i>
    <i name="e_0_energy">   -489.21490856 </i>
   </energy>
  </scstep>
  <scstep>
   <time name="dav">  296.50  299.41</time>
   <time name="total">  309.22  312.16</time>
   <energy>
    <i name="e_fr_energy">   -489.21490654 </i>
    <i name="e_wo_entrp">   -489.21490654 </i>
    <i name="e_0_energy">   -489.21490654 </i>
   </energy>
  </scstep>
  <scstep>
   <time name="dav">  217.13  218.86</time>
   <time name="total">  220.48  222.23</time>
   <energy>
    <i name="alphaZ">   2314.49656628 </i>
    <i name="ewald"> -57723.19645674 </i>
    <i name="hartreedc"> -30348.71530314 </i>
    <i name="XCdc">   3229.29934350 </i>
    <i name="pawpsdc">  92679.45214287 </i>
    <i name="pawaedc"> -95534.93935361 </i>
    <i name="eentropy">     -0.00000000 </i>
    <i name="bandstr"> -10549.09155600 </i>
    <i name="atom">  95443.47970955 </i>
    <i name="e_fr_energy">   -489.21490729 </i>
    <i name="e_wo_entrp">   -489.21490729 </i>
    <i name="e_0_energy">   -489.21490729 </i>
   </energy>
  </scstep>
  <structure>
   <crystal>
    <varray name="basis" >
     <v>      11.11223374       0.00000000      -0.00029034 </v>
     <v>       0.00000000      11.11745194       0.00000000 </v>
     <v>      -2.77510898       0.00000000      10.19872221 </v>
    </varray>
    <i name="volume">   1259.93837498 </i>
    <varray name="rec_basis" >
     <v>       0.08999155       0.00000000       0.02448702 </v>
     <v>       0.00000000       0.08994867       0.00000000 </v>
     <v>       0.00000256       0.00000000       0.09805220 </v>
    </varray>
   </crystal>
   <varray name="positions" >
    <v>       0.28894969       0.46933910       0.15583616 </v>
    <v>       0.78894969       0.46933910       0.15583616 </v>
    <v>       0.28894969       0.96933910       0.15583616 </v>
    <v>       0.78894969       0.96933910       0.15583616 </v>
    <v>       0.04646972       0.21934976       0.18586770 </v>
    <v>       0.54646972       0.21934976       0.18586770 </v>
    <v>       0.04646972       0.71934976       0.18586770 </v>
    <v>       0.54646972       0.71934976       0.18586770 </v>
    <v>       0.45353028       0.46934976       0.81413230 </v>
    <v>       0.95353028       0.46934976       0.81413230 </v>
    <v>       0.45353028       0.96934976       0.81413230 </v>
    <v>       0.95353028       0.96934976       0.81413230 </v>
    <v>       0.21105031       0.21933910       0.84416384 </v>
    <v>       0.71105031       0.21933910       0.84416384 </v>
    <v>       0.21105031       0.71933910       0.84416384 </v>
    <v>       0.71105031       0.71933910       0.84416384 </v>
    <v>       0.07654971       0.09530995       0.80250593 </v>
    <v>       0.57654971       0.09530995       0.80250593 </v>
    <v>       0.07654971       0.59530995       0.80250593 </v>
    <v>       0.57654971       0.59530995       0.80250593 </v>
    <v>       0.32560457       0.34338175       0.80250383 </v>
    <v>       0.82470466       0.34338175       0.80250383 </v>
    <v>       0.32470466       0.84338175       0.80250383 </v>
    <v>       0.82470466       0.84338175       0.80250383 </v>
    <v>       0.17529534       0.09338175       0.19749617 </v>
    <v>       0.67529534       0.09338175       0.19749617 </v>
    <v>       0.17529534       0.59338175       0.19749617 </v>
    <v>       0.67529534       0.59338175       0.19749617 </v>
    <v>       0.42345029       0.34530995       0.19749407 </v>
    <v>       0.92345029       0.34530995       0.19749407 </v>
    <v>       0.42345029       0.84530995       0.19749407 </v>
    <v>       0.92345029       0.84530995       0.19749407 </v>
    <v>       0.21868463       0.34523395       0.37102476 </v>
    <v>       0.71868463       0.34523395       0.37102476 </v>
    <v>       0.21868463       0.84523395       0.37102476 </v>
    <v>       0.71868463       0.84523395       0.37102476 </v>
    <v>       0.46681660       0.09344897       0.37102399 </v>
    <v>       0.96681660       0.09344897       0.37102399 </v>
    <v>       0.46681660       0.59344897       0.37102399 </v>
    <v>       0.96681660       0.59344897       0.37102399 </v>
    <v>       0.03318340       0.34344897       0.62897601 </v>
    <v>       0.53318340       0.34344897       0.62897601 </v>
    <v>       0.03318340       0.84344897       0.62897601 </v>
    <v>       0.53318340       0.84344897       0.62897601 </v>
    <v>       0.28131537       0.09523395       0.62897524 </v>
    <v>       0.78131537       0.09523395       0.62897524 </v>
    <v>       0.28131537       0.59523395       0.62897524 </v>
    <v>       0.78131537       0.59523395       0.62897524 </v>
    <v>       0.12439279       0.34434306       0.00000412 </v>
    <v>       0.62439279       0.34434306       0.00000412 </v>
    <v>       0.12439279       0.84434306       0.00000412 </v>
    <v>       0.62439279       0.84434306       0.00000412 </v>
    <v>       0.37560721       0.09434306       0.99999588 </v>
    <v>       0.87560721       0.09434306       0.99999588 </v>
    <v>       0.37560721       0.59434306       0.99999588 </v>
    <v>       0.87560721       0.59434306       0.99999588 </v>
    <v>       0.03824426       0.10634799       0.60632306 </v>
    <v>       0.53824426       0.10634799       0.60632306 </v>
    <v>       0.03824426       0.60634799       0.60632306 </v>
    <v>       0.53824426       0.60634799       0.60632306 </v>
    <v>       0.26492712       0.33232651       0.60632763 </v>
    <v>       0.76492712       0.33232651       0.60632763 </v>
    <v>       0.26492712       0.83232651       0.60632763 </v>
    <v>       0.76492712       0.83232651       0.60632763 </v>
    <v>       0.23507288       0.08232651       0.39367237 </v>
    <v>       0.73507288       0.08232651       0.39367237 </v>
    <v>       0.23507288       0.58232651       0.39367237 </v>
    <v>       0.73507288       0.58232651       0.39367237 </v>
    <v>       0.46175574       0.35634799       0.39367694 </v>
    <v>       0.96175574       0.35634799       0.39367694 </v>
    <v>       0.46175574       0.85634799       0.39367694 </v>
    <v>       0.96175574       0.85634799       0.39367694 </v>
    <v>       0.03848398       0.46936404       0.15397331 </v>
    <v>       0.53848398       0.46936404       0.15397331 </v>
    <v>       0.03848398       0.96936404       0.15397331 </v>
    <v>       0.53848398       0.96936404       0.15397331 </v>
    <v>       0.28861657       0.21935690       0.15447525 </v>
    <v>       0.78861657       0.21935690       0.15447525 </v>
    <v>       0.28861657       0.71935690       0.15447525 </v>
    <v>       0.78861657       0.71935690       0.15447525 </v>
    <v>       0.21138343       0.46935690       0.84552475 </v>
    <v>       0.71138343       0.46935690       0.84552475 </v>
    <v>       0.21138343       0.96935690       0.84552475 </v>
    <v>       0.71138343       0.96935690       0.84552475 </v>
    <v>       0.46151602       0.21936404       0.84602669 </v>
    <v>       0.96151602       0.21936404       0.84602669 </v>
    <v>       0.46151602       0.71936404       0.84602669 </v>
    <v>       0.96151602       0.71936404       0.84602669 </v>
   </varray>
  </structure>
  <varray name="forces" >
   <v>       0.00064510       0.00036902       0.00093648 </v>
   <v>      -0.00082304      -0.00088379      -0.00085781 </v>
   <v>       0.00053505       0.00029758      -0.00024482 </v>
   <v>      -0.00016368       0.00012819      -0.00010226 </v>
   <v>      -0.00064154      -0.00071080       0.00079028 </v>
   <v>       0.00024885       0.00017904      -0.00079602 </v>
   <v>      -0.00007888       0.00016098      -0.00007529 </v>
   <v>       0.00017554       0.00022485       0.00032529 </v>
   <v>       0.01034469       0.00431348       0.00066885 </v>
   <v>      -0.00172090       0.00030067      -0.00006478 </v>
   <v>       0.00048332       0.00083269       0.00008237 </v>
   <v>      -0.00025972      -0.00005131       0.00000350 </v>
   <v>       0.00916665       0.00286811      -0.00208587 </v>
   <v>      -0.00180229       0.00033657       0.00004552 </v>
   <v>       0.00030485       0.00078096       0.00014276 </v>
   <v>      -0.00032813      -0.00003608      -0.00004096 </v>
   <v>       0.00046759       0.00200736       0.00025105 </v>
   <v>       0.00339406      -0.00440561      -0.00088516 </v>
   <v>       0.00314893      -0.00433529       0.00068013 </v>
   <v>       0.00062297       0.00209410      -0.00030140 </v>
   <v>      -0.10772383       0.03938544      -0.00362468 </v>
   <v>       0.00270445      -0.00043951      -0.00000324 </v>
   <v>      -0.00033540      -0.00047260      -0.00018574 </v>
   <v>       0.00045121      -0.00047570      -0.00003163 </v>
   <v>      -0.00019441       0.00064160      -0.00030388 </v>
   <v>       0.00023536      -0.00062761       0.00064041 </v>
   <v>      -0.00019178      -0.00073964      -0.00039175 </v>
   <v>       0.00024626       0.00075120       0.00045897 </v>
   <v>      -0.00132429       0.00004653      -0.00031560 </v>
   <v>       0.00254362       0.00078772       0.00064540 </v>
   <v>      -0.00043724      -0.00073669      -0.00007201 </v>
   <v>      -0.00005047      -0.00004216       0.00028327 </v>
   <v>      -0.00120090       0.00006225      -0.00059042 </v>
   <v>       0.00224897      -0.00003047       0.00082106 </v>
   <v>      -0.00026970      -0.00054099       0.00002123 </v>
   <v>       0.00020410      -0.00025748       0.00021808 </v>
   <v>      -0.00009501      -0.00028010      -0.00023439 </v>
   <v>       0.00010662       0.00064880       0.00067193 </v>
   <v>      -0.00029694       0.00067229      -0.00032876 </v>
   <v>       0.00035266      -0.00034543       0.00072071 </v>
   <v>       0.00947362       0.00081811       0.00897584 </v>
   <v>       0.00904382       0.00063300      -0.00842718 </v>
   <v>      -0.00005637      -0.00025752       0.00007643 </v>
   <v>      -0.00020447      -0.00026028      -0.00046199 </v>
   <v>      -0.00234892      -0.00038161      -0.00157492 </v>
   <v>       0.00128944      -0.00023072      -0.00014935 </v>
   <v>      -0.00204818      -0.00089842       0.00123559 </v>
   <v>       0.00113128      -0.00000509       0.00005855 </v>
   <v>       0.00607911       0.00088482      -0.00649915 </v>
   <v>       0.00623208       0.00097334       0.00667422 </v>
   <v>      -0.00013564      -0.00038828      -0.00015263 </v>
   <v>      -0.00001840      -0.00039464       0.00031864 </v>
   <v>      -0.00233979      -0.00120557       0.00135767 </v>
   <v>       0.00102960      -0.00002504       0.00005282 </v>
   <v>      -0.00223594      -0.00106352      -0.00154910 </v>
   <v>       0.00099143       0.00002947       0.00002533 </v>
   <v>      -0.00004897      -0.00178427      -0.00057510 </v>
   <v>      -0.00072910       0.00163979       0.00195813 </v>
   <v>      -0.00059771       0.00148795      -0.00169198 </v>
   <v>      -0.00015514      -0.00116715       0.00067933 </v>
   <v>       0.00766866      -0.00025857       0.00393650 </v>
   <v>      -0.00455526      -0.00003194      -0.00022164 </v>
   <v>       0.00024658       0.00057533       0.00020315 </v>
   <v>       0.00006562       0.00006685       0.00007895 </v>
   <v>      -0.00001926      -0.00007578       0.00050741 </v>
   <v>      -0.00047363       0.00008216      -0.00036791 </v>
   <v>       0.00010387      -0.00006844      -0.00034643 </v>
   <v>      -0.00057724      -0.00011057      -0.00034546 </v>
   <v>       0.00114807      -0.00024710       0.00286686 </v>
   <v>       0.00023637       0.00011389      -0.00346840 </v>
   <v>       0.00037095       0.00015300      -0.00001694 </v>
   <v>       0.00015463       0.00007816      -0.00021471 </v>
   <v>      -0.00124960       0.00118031       0.00138545 </v>
   <v>       0.00135863      -0.00138383      -0.00091645 </v>
   <v>      -0.00009444       0.00000997      -0.00009593 </v>
   <v>      -0.00020649       0.00053403      -0.00011849 </v>
   <v>       0.00188756      -0.00140577       0.00088166 </v>
   <v>      -0.00160719       0.00107456      -0.00156653 </v>
   <v>       0.00032154       0.00051475       0.00029969 </v>
   <v>      -0.00038249      -0.00002215      -0.00020376 </v>
   <v>       0.02747767      -0.02053467      -0.00693489 </v>
   <v>      -0.00214251      -0.00109573       0.00036722 </v>
   <v>       0.00085695      -0.00021833       0.00047238 </v>
   <v>      -0.00156477       0.00143238      -0.00039456 </v>
   <v>       0.02860317      -0.02135812       0.00742099 </v>
   <v>      -0.00215797      -0.00103768      -0.00037894 </v>
   <v>       0.00097389      -0.00025491      -0.00035808 </v>
   <v>      -0.00148776       0.00140571       0.00032691 </v>
  </varray>
  <varray name="stress" >
   <v>       2.14216603       0.00194797      -0.07234557 </v>
   <v>       0.00195046       1.88420542      -0.02509085 </v>
   <v>      -0.07260482      -0.02511850       0.49994118 </v>
  </varray>
  <energy>
   <i name="e_fr_energy">   -489.21490729 </i>
   <i name="e_wo_entrp">   -489.21490729 </i>
   <i name="e_0_energy">     -0.00000000 </i>
  </energy>
  <time name="totalsc"> 6346.65 6404.84</time>
  <eigenvalues>
   <array>
    <dimension dim="1">band</dimension>
    <dimension dim="2">kpoint</dimension>
    <dimension dim="3">spin</dimension>
    <field>eigene</field>
    <field>occ</field>
    <set>
     <set comment="spin 1">
      <set comment="kpoint 1">
       <r>  -51.0617    1.0000 </r>
       <r>  -51.0553    1.0000 </r>
       <r>  -51.0549    1.0000 </r>
       <r>  -51.0546    1.0000 </r>
       <r>  -51.0543    1.0000 </r>
       <r>  -51.0537    1.0000 </r>
       <r>  -51.0536    1.0000 </r>
       <r>  -51.0535    1.0000 </r>
       <r>  -51.0531    1.0000 </r>
       <r>  -51.0527    1.0000 </r>
       <r>  -51.0526    1.0000 </r>
       <r>  -51.0524    1.0000 </r>
       <r>  -51.0521    1.0000 </r>
       <r>  -51.0512    1.0000 </r>
       <r>  -51.0510    1.0000 </r>
       <r>  -51.0508    1.0000 </r>
       <r>  -51.0501    1.0000 </r>
       <r>  -51.0444    1.0000 </r>
       <r>  -51.0444    1.0000 </r>
       <r>  -51.0441    1.0000 </r>
       <r>  -51.0440    1.0000 </r>
       <r>  -51.0432    1.0000 </r>
       <r>  -51.0431    1.0000 </r>
       <r>  -51.0430    1.0000 </r>
       <r>  -51.0407    1.0000 </r>
       <r>  -51.0404    1.0000 </r>
       <r>  -51.0402    1.0000 </r>
       <r>  -51.0395    1.0000 </r>
       <r>  -51.0394    1.0000 </r>
       <r>  -51.0389    1.0000 </r>
       <r>  -51.0387    1.0000 </r>
       <r>  -51.0260    1.0000 </r>
       <r>  -49.7137    1.0000 </r>
       <r>  -49.7021    1.0000 </r>
       <r>  -49.7019    1.0000 </r>
       <r>  -49.7016    1.0000 </r>
       <r>  -49.7014    1.0000 </r>
       <r>  -49.7008    1.0000 </r>
       <r>  -49.7005    1.0000 </r>
       <r>  -49.7003    1.0000 </r>
       <r>  -49.6953    1.0000 </r>
       <r>  -49.6953    1.0000 </r>
       <r>  -49.6947    1.0000 </r>
       <r>  -49.6942    1.0000 </r>
       <r>  -49.6942    1.0000 </r>
       <r>  -49.6935    1.0000 </r>
       <r>  -49.6933    1.0000 </r>
       <r>  -49.6813    1.0000 </r>
       <r>  -49.5991    1.0000 </r>
       <r>  -49.5982    1.0000 </r>
       <r>  -49.5980    1.0000 </r>
       <r>  -49.5978    1.0000 </r>
       <r>  -49.5975    1.0000 </r>
       <r>  -49.5972    1.0000 </r>
       <r>  -49.5970    1.0000 </r>
       <r>  -49.5969    1.0000 </r>
       <r>  -49.5966    1.0000 </r>
       <r>  -49.5964    1.0000 </r>
       <r>  -49.5962    1.0000 </r>
       <r>  -49.5961    1.0000 </r>
       <r>  -49.5959    1.0000 </r>
       <r>  -49.5957    1.0000 </r>
       <r>  -49.5953    1.0000 </r>
       <r>  -49.5949    1.0000 </r>
       <r>  -49.5678    1.0000 </r>
       <r>  -49.5671    1.0000 </r>
       <r>  -49.5668    1.0000 </r>
       <r>  -49.5663    1.0000 </r>
       <r>  -49.5662    1.0000 </r>
       <r>  -49.5659    1.0000 </r>
       <r>  -49.5655    1.0000 </r>
       <r>  -49.5653    1.0000 </r>
       <r>  -49.5652    1.0000 </r>
       <r>  -49.5650    1.0000 </r>
       <r>  -49.5646    1.0000 </r>
       <r>  -49.5645    1.0000 </r>
       <r>  -49.5641    1.0000 </r>
       <r>  -49.5640    1.0000 </r>
       <r>  -49.5639    1.0000 </r>
       <r>  -49.5635    1.0000 </r>
       <r>  -49.5630    1.0000 </r>
       <r>  -49.5548    1.0000 </r>
       <r>  -49.5545    1.0000 </r>
       <r>  -49.5542    1.0000 </r>
       <r>  -49.5540    1.0000 </r>
       <r>  -49.5534    1.0000 </r>
       <r>  -49.5528    1.0000 </r>
       <r>  -49.5527    1.0000 </r>
       <r>  -49.5410    1.0000 </r>
       <r>  -49.5408    1.0000 </r>
       <r>  -49.5401    1.0000 </r>
       <r>  -49.5396    1.0000 </r>
       <r>  -49.5396    1.0000 </r>
       <r>  -49.5389    1.0000 </r>
       <r>  -49.5386    1.0000 </r>
       <r>  -49.5278    1.0000 </r>
       <r>  -39.8765    1.0000 </r>
       <r>  -39.8664    1.0000 </r>
       <r>  -39.8660    1.0000 </r>
       <r>  -39.8657    1.0000 </r>
       <r>  -39.8656    1.0000 </r>
       <r>  -39.8651    1.0000 </r>
       <r>  -39.8649    1.0000 </r>
       <r>  -39.8647    1.0000 </r>
       <r>  -39.8646    1.0000 </r>
       <r>  -39.8644    1.0000 </r>
       <r>  -39.8642    1.0000 </r>
       <r>  -39.8636    1.0000 </r>
       <r>  -39.8636    1.0000 </r>
       <r>  -39.8634    1.0000 </r>
       <r>  -39.8629    1.0000 </r>
       <r>  -39.8520    1.0000 </r>
       <r>  -13.2248    1.0000 </r>
       <r>  -13.2247    1.0000 </r>
       <r>  -13.2104    1.0000 </r>
       <r>  -13.1835    1.0000 </r>
       <r>  -13.1008    1.0000 </r>
       <r>  -13.0993    1.0000 </r>
       <r>  -13.0987    1.0000 </r>
       <r>  -13.0932    1.0000 </r>
       <r>  -13.0858    1.0000 </r>
       <r>  -13.0802    1.0000 </r>
       <r>  -13.0796    1.0000 </r>
       <r>  -13.0779    1.0000 </r>
       <r>  -12.9881    1.0000 </r>
       <r>  -12.9773    1.0000 </r>
       <r>  -12.9419    1.0000 </r>
       <r>  -12.9417    1.0000 </r>
       <r>   -7.6454    1.0000 </r>
       <r>   -7.4069    1.0000 </r>
       <r>   -7.3265    1.0000 </r>
       <r>   -7.3262    1.0000 </r>
       <r>   -7.3096    1.0000 </r>
       <r>   -7.3092    1.0000 </r>
       <r>   -7.3084    1.0000 </r>
       <r>   -7.3073    1.0000 </r>
       <r>   -7.1697    1.0000 </r>
       <r>   -7.1572    1.0000 </r>
       <r>   -7.1239    1.0000 </r>
       <r>   -7.1238    1.0000 </r>
       <r>   -7.0366    1.0000 </r>
       <r>   -7.0220    1.0000 </r>
       <r>   -7.0021    1.0000 </r>
       <r>   -7.0021    1.0000 </r>
       <r>   -6.9409    1.0000 </r>
       <r>   -6.9409    1.0000 </r>
       <r>   -6.8873    1.0000 </r>
       <r>   -6.8872    1.0000 </r>
       <r>   -6.8656    1.0000 </r>
       <r>   -6.8617    1.0000 </r>
       <r>   -6.8346    1.0000 </r>
       <r>   -6.8038    1.0000 </r>
       <r>   -1.9357    1.0000 </r>
       <r>   -1.9353    1.0000 </r>
       <r>   -1.9105    1.0000 </r>
       <r>   -1.8935    1.0000 </r>
       <r>   -1.6667    1.0000 </r>
       <r>   -1.6660    1.0000 </r>
       <r>   -1.6589    1.0000 </r>
       <r>   -1.6569    1.0000 </r>
       <r>   -1.6000    1.0000 </r>
       <r>   -1.5976    1.0000 </r>
       <r>   -1.5865    1.0000 </r>
       <r>   -1.5859    1.0000 </r>
       <r>   -1.2982    1.0000 </r>
       <r>   -1.1745    1.0000 </r>
       <r>   -1.1742    1.0000 </r>
       <r>   -1.1138    1.0000 </r>
       <r>   -1.1133    1.0000 </r>
       <r>   -1.1071    1.0000 </r>
       <r>   -1.0494    1.0000 </r>
       <r>   -0.9808    1.0000 </r>
       <r>   -0.9647    1.0000 </r>
       <r>   -0.9595    1.0000 </r>
       <r>   -0.9579    1.0000 </r>
       <r>   -0.9574    1.0000 </r>
       <r>   -0.9471    1.0000 </r>
       <r>   -0.9449    1.0000 </r>
       <r>   -0.9229    1.0000 </r>
       <r>   -0.8712    1.0000 </r>
       <r>   -0.8711    1.0000 </r>
       <r>   -0.8036    1.0000 </r>
       <r>   -0.8026    1.0000 </r>
       <r>   -0.8025    1.0000 </r>
       <r>   -0.7753    1.0000 </r>
       <r>   -0.7743    1.0000 </r>
       <r>   -0.7736    1.0000 </r>
       <r>   -0.7608    1.0000 </r>
       <r>   -0.7167    1.0000 </r>
       <r>   -0.7165    1.0000 </r>
       <r>   -0.7065    1.0000 </r>
       <r>   -0.7049    1.0000 </r>
       <r>   -0.6992    1.0000 </r>
       <r>   -0.6990    1.0000 </r>
       <r>   -0.6087    1.0000 </r>
       <r>   -0.6084    1.0000 </r>
       <r>   -0.5615    1.0000 </r>
       <r>   -0.5615    1.0000 </r>
       <r>   -0.5497    1.0000 </r>
       <r>   -0.5480    1.0000 </r>
       <r>   -0.4083    1.0000 </r>
       <r>   -0.4078    1.0000 </r>
       <r>   -0.3580    1.0000 </r>
       <r>   -0.3479    1.0000 </r>
       <r>   -0.3296    1.0000 </r>
       <r>   -0.3295    1.0000 </r>
       <r>   -0.2986    1.0000 </r>
       <r>   -0.2982    1.0000 </r>
       <r>   -0.2817    1.0000 </r>
       <r>   -0.2693    1.0000 </r>
       <r>   -0.2628    1.0000 </r>
       <r>   -0.2560    1.0000 </r>
       <r>   -0.2551    1.0000 </r>
       <r>   -0.2094    1.0000 </r>
       <r>   -0.2091    1.0000 </r>
       <r>   -0.1882    1.0000 </r>
       <r>   -0.1867    1.0000 </r>
       <r>   -0.1864    1.0000 </r>
       <r>   -0.1758    1.0000 </r>
       <r>   -0.1577    1.0000 </r>
       <r>   -0.1255    1.0000 </r>
       <r>   -0.1252    1.0000 </r>
       <r>   -0.1096    1.0000 </r>
       <r>   -0.0710    1.0000 </r>
       <r>   -0.0700    1.0000 </r>
       <r>   -0.0606    1.0000 </r>
       <r>   -0.0434    1.0000 </r>
       <r>   -0.0176    1.0000 </r>
       <r>   -0.0176    1.0000 </r>
       <r>   -0.0120    1.0000 </r>
       <r>    0.0015    1.0000 </r>
       <r>    0.0017    1.0000 </r>
       <r>    0.0459    1.0000 </r>
       <r>    0.0490    1.0000 </r>
       <r>    0.0498    1.0000 </r>
       <r>    0.0911    1.0000 </r>
       <r>    0.0944    1.0000 </r>
       <r>    0.1181    1.0000 </r>
       <r>    0.1187    1.0000 </r>
       <r>    0.1578    1.0000 </r>
       <r>    0.1626    1.0000 </r>
       <r>    0.1769    1.0000 </r>
       <r>    0.1790    1.0000 </r>
       <r>    0.1822    1.0000 </r>
       <r>    0.1823    1.0000 </r>
       <r>    0.1857    1.0000 </r>
       <r>    0.1891    1.0000 </r>
       <r>    0.1933    1.0000 </r>
       <r>    0.1934    1.0000 </r>
       <r>    0.2007    1.0000 </r>
       <r>    0.2011    1.0000 </r>
       <r>    0.2387    1.0000 </r>
       <r>    0.2516    1.0000 </r>
       <r>    0.2569    1.0000 </r>
       <r>    0.2570    1.0000 </r>
       <r>    0.2768    1.0000 </r>
       <r>    0.3372    1.0000 </r>
       <r>    0.3474    1.0000 </r>
       <r>    0.3584    1.0000 </r>
       <r>    0.3589    1.0000 </r>
       <r>    0.3605    1.0000 </r>
       <r>    0.3609    1.0000 </r>
       <r>    0.3878    1.0000 </r>
       <r>    0.4021    1.0000 </r>
       <r>    0.4524    1.0000 </r>
       <r>    0.4526    1.0000 </r>
       <r>    0.5782    1.0000 </r>
       <r>    0.5794    1.0000 </r>
       <r>    0.5836    1.0000 </r>
       <r>    0.6019    1.0000 </r>
       <r>    0.6020    1.0000 </r>
       <r>    0.6071    1.0000 </r>
       <r>    0.6079    1.0000 </r>
       <r>    0.6399    1.0000 </r>
       <r>    0.6504    1.0000 </r>
       <r>    0.6517    1.0000 </r>
       <r>    0.6620    1.0000 </r>
       <r>    0.6625    1.0000 </r>
       <r>    0.6655    1.0000 </r>
       <r>    0.6730    1.0000 </r>
       <r>    0.6749    1.0000 </r>
       <r>    0.6751    1.0000 </r>
       <r>    0.6972    1.0000 </r>
       <r>    0.7231    1.0000 </r>
       <r>    0.7833    1.0000 </r>
       <r>    0.8198    1.0000 </r>
       <r>    0.8291    1.0000 </r>
       <r>    0.8320    1.0000 </r>
       <r>    0.8322    1.0000 </r>
       <r>    0.8610    1.0000 </r>
       <r>    0.8613    1.0000 </r>
       <r>    0.9093    1.0000 </r>
       <r>    0.9401    1.0000 </r>
       <r>    0.9485    1.0000 </r>
       <r>    0.9485    1.0000 </r>
       <r>    0.9831    1.0000 </r>
       <r>    1.0261    1.0000 </r>
       <r>    1.0704    1.0000 </r>
       <r>    1.2693    1.0000 </r>
       <r>    1.2977    1.0000 </r>
       <r>    1.2985    1.0000 </r>
       <r>    1.3119    1.0000 </r>
       <r>    1.3330    1.0000 </r>
       <r>    1.3333    1.0000 </r>
       <r>    1.3380    1.0000 </r>
       <r>    1.3843    1.0000 </r>
       <r>    1.4048    1.0000 </r>
       <r>    1.4279    1.0000 </r>
       <r>    1.4667    1.0000 </r>
       <r>    1.4675    1.0000 </r>
       <r>    1.4686    1.0000 </r>
       <r>    1.4815    1.0000 </r>
       <r>    1.5110    1.0000 </r>
       <r>    1.5112    1.0000 </r>
       <r>    1.5403    1.0000 </r>
       <r>    1.5615    1.0000 </r>
       <r>    1.5769    1.0000 </r>
       <r>    1.6463    1.0000 </r>
       <r>    1.6557    1.0000 </r>
       <r>    1.7561    1.0000 </r>
       <r>    1.7564    1.0000 </r>
       <r>    1.7629    1.0000 </r>
       <r>    1.7785    1.0000 </r>
       <r>    1.8027    1.0000 </r>
       <r>    1.8030    1.0000 </r>
       <r>    1.8107    1.0000 </r>
       <r>    1.8233    1.0000 </r>
       <r>    1.8365    1.0000 </r>
       <r>    1.8369    1.0000 </r>
       <r>    1.8460    1.0000 </r>
       <r>    1.8467    1.0000 </r>
       <r>    1.8784    1.0000 </r>
       <r>    1.8901    1.0000 </r>
       <r>    1.9468    1.0000 </r>
       <r>    1.9928    1.0000 </r>
       <r>    1.9936    1.0000 </r>
       <r>    2.0060    1.0000 </r>
       <r>    2.0069    1.0000 </r>
       <r>    2.0099    1.0000 </r>
       <r>    2.0189    1.0000 </r>
       <r>    2.0200    1.0000 </r>
       <r>    2.0202    1.0000 </r>
       <r>    2.0396    1.0000 </r>
       <r>    2.0467    1.0000 </r>
       <r>    2.0468    1.0000 </r>
       <r>    2.0571    1.0000 </r>
       <r>    2.0688    1.0000 </r>
       <r>    2.0690    1.0000 </r>
       <r>    2.0918    1.0000 </r>
       <r>    2.1131    1.0000 </r>
       <r>    2.1907    1.0000 </r>
       <r>    2.1909    1.0000 </r>
       <r>    2.2460    1.0000 </r>
       <r>    2.2479    1.0000 </r>
       <r>    2.2701    1.0000 </r>
       <r>    2.2738    1.0000 </r>
       <r>    2.2847    1.0000 </r>
       <r>    2.4277    1.0000 </r>
       <r>    2.4658    1.0000 </r>
       <r>    2.4666    1.0000 </r>
       <r>    2.4778    1.0000 </r>
       <r>    2.5037    1.0000 </r>
       <r>    2.5275    1.0000 </r>
       <r>    2.5543    1.0000 </r>
       <r>    2.5921    1.0000 </r>
       <r>    2.6267    1.0000 </r>
       <r>    2.6270    1.0000 </r>
       <r>    2.6561    1.0000 </r>
       <r>    2.7383    1.0000 </r>
       <r>    2.7386    1.0000 </r>
       <r>    2.7611    1.0000 </r>
       <r>    2.7614    1.0000 </r>
       <r>    2.8339    1.0000 </r>
       <r>    2.8723    1.0000 </r>
       <r>    2.9263    1.0000 </r>
       <r>    2.9340    1.0000 </r>
       <r>    2.9346    1.0000 </r>
       <r>    2.9692    1.0000 </r>
       <r>    3.0272    1.0000 </r>
       <r>    3.0282    1.0000 </r>
       <r>    3.0617    1.0000 </r>
       <r>    3.0973    1.0000 </r>
       <r>    3.3075    1.0000 </r>
       <r>    3.3105    1.0000 </r>
       <r>    3.3479    1.0000 </r>
       <r>    3.3756    1.0000 </r>
       <r>    3.4214    1.0000 </r>
       <r>    3.4222    1.0000 </r>
       <r>    3.4404    1.0000 </r>
       <r>    3.4583    1.0000 </r>
       <r>    3.4587    1.0000 </r>
       <r>    3.5316    1.0000 </r>
       <r>    3.7480    1.0000 </r>
       <r>    3.8081    1.0000 </r>
       <r>    3.8089    1.0000 </r>
       <r>    3.8151    1.0000 </r>
       <r>    3.8156    1.0000 </r>
       <r>    3.8821    1.0000 </r>
       <r>    3.8831    1.0000 </r>
       <r>    3.9330    1.0000 </r>
       <r>    3.9346    1.0000 </r>
       <r>    3.9405    1.0000 </r>
       <r>    3.9408    1.0000 </r>
       <r>    4.0388    1.0000 </r>
       <r>    4.0393    1.0000 </r>
       <r>    4.0700    1.0000 </r>
       <r>    4.1389    1.0000 </r>
       <r>    4.1491    1.0000 </r>
       <r>    4.1512    1.0000 </r>
       <r>    4.3156    1.0000 </r>
       <r>    4.3176    1.0000 </r>
       <r>    4.3380    1.0000 </r>
       <r>    4.3579    1.0000 </r>
       <r>    4.3593    1.0000 </r>
       <r>    4.4283    1.0000 </r>
       <r>    4.4444    1.0000 </r>
       <r>    4.4461    1.0000 </r>
       <r>    4.4536    1.0000 </r>
       <r>    4.4563    1.0000 </r>
       <r>    4.4564    1.0000 </r>
       <r>    4.6362    1.0000 </r>
       <r>    4.6366    1.0000 </r>
       <r>    4.7322    1.0000 </r>
       <r>    4.7327    1.0000 </r>
       <r>    4.7638    1.0000 </r>
       <r>    4.7642    1.0000 </r>
       <r>    4.7692    1.0000 </r>
       <r>    4.7694    1.0000 </r>
       <r>    4.8103    1.0000 </r>
       <r>    4.8533    1.0000 </r>
       <r>    4.8533    1.0000 </r>
       <r>    4.8574    1.0000 </r>
       <r>    7.3435    0.0000 </r>
       <r>    8.1284    0.0000 </r>
       <r>    8.4450    0.0000 </r>
       <r>    8.6416    0.0000 </r>
       <r>    8.6436    0.0000 </r>
       <r>    8.8581    0.0000 </r>
       <r>    9.0838    0.0000 </r>
       <r>    9.0853    0.0000 </r>
       <r>    9.2619    0.0000 </r>
       <r>    9.2729    0.0000 </r>
       <r>    9.2885    0.0000 </r>
       <r>    9.2896    0.0000 </r>
       <r>    9.7283    0.0000 </r>
       <r>    9.7716    0.0000 </r>
       <r>    9.7726    0.0000 </r>
       <r>    9.7895    0.0000 </r>
       <r>    9.8536    0.0000 </r>
       <r>    9.8556    0.0000 </r>
       <r>    9.8590    0.0000 </r>
       <r>    9.8789    0.0000 </r>
       <r>    9.8893    0.0000 </r>
       <r>   10.0609    0.0000 </r>
       <r>   10.0826    0.0000 </r>
       <r>   10.1361    0.0000 </r>
       <r>   10.1363    0.0000 </r>
       <r>   10.3048    0.0000 </r>
       <r>   10.3070    0.0000 </r>
       <r>   10.4165    0.0000 </r>
       <r>   10.5259    0.0000 </r>
       <r>   10.5705    0.0000 </r>
       <r>   10.5718    0.0000 </r>
       <r>   10.5721    0.0000 </r>
       <r>   10.5783    0.0000 </r>
       <r>   10.5784    0.0000 </r>
       <r>   10.6761    0.0000 </r>
       <r>   10.9757    0.0000 </r>
       <r>   11.0189    0.0000 </r>
       <r>   11.0194    0.0000 </r>
       <r>   11.0401    0.0000 </r>
       <r>   11.0415    0.0000 </r>
       <r>   11.0773    0.0000 </r>
       <r>   11.1273    0.0000 </r>
       <r>   11.1781    0.0000 </r>
       <r>   11.1886    0.0000 </r>
       <r>   11.2288    0.0000 </r>
       <r>   11.2493    0.0000 </r>
       <r>   11.2502    0.0000 </r>
       <r>   11.2902    0.0000 </r>
       <r>   11.3059    0.0000 </r>
       <r>   11.4173    0.0000 </r>
       <r>   11.4178    0.0000 </r>
       <r>   11.4594    0.0000 </r>
       <r>   11.5205    0.0000 </r>
       <r>   11.5213    0.0000 </r>
       <r>   11.5301    0.0000 </r>
       <r>   11.5773    0.0000 </r>
       <r>   11.6799    0.0000 </r>
       <r>   11.6801    0.0000 </r>
       <r>   11.7972    0.0000 </r>
       <r>   11.7975    0.0000 </r>
       <r>   11.8156    0.0000 </r>
       <r>   11.8158    0.0000 </r>
       <r>   11.8824    0.0000 </r>
       <r>   11.9415    0.0000 </r>
       <r>   11.9761    0.0000 </r>
       <r>   11.9772    0.0000 </r>
       <r>   11.9808    0.0000 </r>
       <r>   12.0275    0.0000 </r>
       <r>   12.0280    0.0000 </r>
       <r>   12.0583    0.0000 </r>
       <r>   12.1613    0.0000 </r>
       <r>   12.2423    0.0000 </r>
       <r>   12.2566    0.0000 </r>
       <r>   12.2572    0.0000 </r>
       <r>   12.3158    0.0000 </r>
       <r>   12.3161    0.0000 </r>
       <r>   12.3224    0.0000 </r>
       <r>   12.3476    0.0000 </r>
       <r>   12.4615    0.0000 </r>
       <r>   12.4804    0.0000 </r>
       <r>   12.5160    0.0000 </r>
       <r>   12.5175    0.0000 </r>
       <r>   12.6142    0.0000 </r>
       <r>   12.6146    0.0000 </r>
       <r>   12.6601    0.0000 </r>
       <r>   12.6628    0.0000 </r>
       <r>   12.6643    0.0000 </r>
       <r>   12.6906    0.0000 </r>
       <r>   12.7472    0.0000 </r>
       <r>   12.8316    0.0000 </r>
       <r>   12.8714    0.0000 </r>
       <r>   12.8726    0.0000 </r>
       <r>   12.8729    0.0000 </r>
       <r>   13.1196    0.0000 </r>
       <r>   13.1210    0.0000 </r>
       <r>   13.2007    0.0000 </r>
       <r>   13.3810    0.0000 </r>
       <r>   13.4096    0.0000 </r>
       <r>   13.4104    0.0000 </r>
       <r>   13.4327    0.0000 </r>
       <r>   13.4384    0.0000 </r>
       <r>   13.4522    0.0000 </r>
       <r>   13.4911    0.0000 </r>
       <r>   13.5086    0.0000 </r>
       <r>   13.5445    0.0000 </r>
       <r>   13.5485    0.0000 </r>
      </set>
      <set comment="kpoint 2">
       <r>  -51.0617    1.0000 </r>
       <r>  -51.0553    1.0000 </r>
       <r>  -51.0548    1.0000 </r>
       <r>  -51.0545    1.0000 </r>
       <r>  -51.0544    1.0000 </r>
       <r>  -51.0539    1.0000 </r>
       <r>  -51.0539    1.0000 </r>
       <r>  -51.0536    1.0000 </r>
       <r>  -51.0532    1.0000 </r>
       <r>  -51.0526    1.0000 </r>
       <r>  -51.0522    1.0000 </r>
       <r>  -51.0522    1.0000 </r>
       <r>  -51.0518    1.0000 </r>
       <r>  -51.0513    1.0000 </r>
       <r>  -51.0512    1.0000 </r>
       <r>  -51.0509    1.0000 </r>
       <r>  -51.0502    1.0000 </r>
       <r>  -51.0443    1.0000 </r>
       <r>  -51.0443    1.0000 </r>
       <r>  -51.0441    1.0000 </r>
       <r>  -51.0440    1.0000 </r>
       <r>  -51.0432    1.0000 </r>
       <r>  -51.0431    1.0000 </r>
       <r>  -51.0430    1.0000 </r>
       <r>  -51.0407    1.0000 </r>
       <r>  -51.0404    1.0000 </r>
       <r>  -51.0402    1.0000 </r>
       <r>  -51.0395    1.0000 </r>
       <r>  -51.0394    1.0000 </r>
       <r>  -51.0389    1.0000 </r>
       <r>  -51.0387    1.0000 </r>
       <r>  -51.0260    1.0000 </r>
       <r>  -49.7137    1.0000 </r>
       <r>  -49.7021    1.0000 </r>
       <r>  -49.7019    1.0000 </r>
       <r>  -49.7016    1.0000 </r>
       <r>  -49.7014    1.0000 </r>
       <r>  -49.7008    1.0000 </r>
       <r>  -49.7005    1.0000 </r>
       <r>  -49.7003    1.0000 </r>
       <r>  -49.6953    1.0000 </r>
       <r>  -49.6953    1.0000 </r>
       <r>  -49.6947    1.0000 </r>
       <r>  -49.6942    1.0000 </r>
       <r>  -49.6942    1.0000 </r>
       <r>  -49.6935    1.0000 </r>
       <r>  -49.6933    1.0000 </r>
       <r>  -49.6813    1.0000 </r>
       <r>  -49.5990    1.0000 </r>
       <r>  -49.5982    1.0000 </r>
       <r>  -49.5980    1.0000 </r>
       <r>  -49.5979    1.0000 </r>
       <r>  -49.5976    1.0000 </r>
       <r>  -49.5971    1.0000 </r>
       <r>  -49.5970    1.0000 </r>
       <r>  -49.5969    1.0000 </r>
       <r>  -49.5965    1.0000 </r>
       <r>  -49.5964    1.0000 </r>
       <r>  -49.5962    1.0000 </r>
       <r>  -49.5961    1.0000 </r>
       <r>  -49.5959    1.0000 </r>
       <r>  -49.5957    1.0000 </r>
       <r>  -49.5953    1.0000 </r>
       <r>  -49.5949    1.0000 </r>
       <r>  -49.5677    1.0000 </r>
       <r>  -49.5671    1.0000 </r>
       <r>  -49.5668    1.0000 </r>
       <r>  -49.5665    1.0000 </r>
       <r>  -49.5660    1.0000 </r>
       <r>  -49.5658    1.0000 </r>
       <r>  -49.5655    1.0000 </r>
       <r>  -49.5653    1.0000 </r>
       <r>  -49.5652    1.0000 </r>
       <r>  -49.5650    1.0000 </r>
       <r>  -49.5647    1.0000 </r>
       <r>  -49.5645    1.0000 </r>
       <r>  -49.5641    1.0000 </r>
       <r>  -49.5640    1.0000 </r>
       <r>  -49.5639    1.0000 </r>
       <r>  -49.5635    1.0000 </r>
       <r>  -49.5630    1.0000 </r>
       <r>  -49.5548    1.0000 </r>
       <r>  -49.5545    1.0000 </r>
       <r>  -49.5542    1.0000 </r>
       <r>  -49.5540    1.0000 </r>
       <r>  -49.5534    1.0000 </r>
       <r>  -49.5528    1.0000 </r>
       <r>  -49.5527    1.0000 </r>
       <r>  -49.5410    1.0000 </r>
       <r>  -49.5408    1.0000 </r>
       <r>  -49.5401    1.0000 </r>
       <r>  -49.5396    1.0000 </r>
       <r>  -49.5396    1.0000 </r>
       <r>  -49.5389    1.0000 </r>
       <r>  -49.5386    1.0000 </r>
       <r>  -49.5278    1.0000 </r>
       <r>  -39.8765    1.0000 </r>
       <r>  -39.8664    1.0000 </r>
       <r>  -39.8660    1.0000 </r>
       <r>  -39.8658    1.0000 </r>
       <r>  -39.8656    1.0000 </r>
       <r>  -39.8651    1.0000 </r>
       <r>  -39.8649    1.0000 </r>
       <r>  -39.8648    1.0000 </r>
       <r>  -39.8646    1.0000 </r>
       <r>  -39.8644    1.0000 </r>
       <r>  -39.8642    1.0000 </r>
       <r>  -39.8636    1.0000 </r>
       <r>  -39.8636    1.0000 </r>
       <r>  -39.8634    1.0000 </r>
       <r>  -39.8629    1.0000 </r>
       <r>  -39.8520    1.0000 </r>
       <r>  -13.2074    1.0000 </r>
       <r>  -13.2073    1.0000 </r>
       <r>  -13.1950    1.0000 </r>
       <r>  -13.1701    1.0000 </r>
       <r>  -13.1590    1.0000 </r>
[...]
       <r>   -49.2883     0.0000     0.0000 </r>
       <r>   -49.0474     0.0000     0.0000 </r>
       <r>   -48.8066     0.0000     0.0000 </r>
       <r>   -48.5658     0.0000     0.0000 </r>
       <r>   -48.3249     0.0000     0.0000 </r>
       <r>   -48.0841     0.0000     0.0000 </r>
       <r>   -47.8432     0.0000     0.0000 </r>
       <r>   -47.6024     0.0000     0.0000 </r>
       <r>   -47.3615     0.0000     0.0000 </r>
       <r>   -47.1207     0.0000     0.0000 </r>
       <r>   -46.8799     0.0000     0.0000 </r>
       <r>   -46.6390     0.0000     0.0000 </r>
       <r>   -46.3982     0.2540     0.0612 </r>
       <r>   -46.1573   132.5371    31.9816 </r>
       <r>   -45.9165    54.5571    45.1212 </r>
       <r>   -45.6757   211.2540    96.0000 </r>
       <r>   -45.4348     0.0001    96.0000 </r>
       <r>   -45.1940     0.0000    96.0000 </r>
       <r>   -44.9531     0.0000    96.0000 </r>
       <r>   -44.7123     0.0000    96.0000 </r>
       <r>   -44.4715     0.0000    96.0000 </r>
       <r>   -44.2306     0.0000    96.0000 </r>
       <r>   -43.9898     0.0000    96.0000 </r>
       <r>   -43.7489     0.0000    96.0000 </r>
       <r>   -43.5081     0.0000    96.0000 </r>
       <r>   -43.2672     0.0000    96.0000 </r>
       <r>   -43.0264     0.0000    96.0000 </r>
       <r>   -42.7856     0.0000    96.0000 </r>
       <r>   -42.5447     0.0000    96.0000 </r>
       <r>   -42.3039     0.0000    96.0000 </r>
       <r>   -42.0630     0.0000    96.0000 </r>
       <r>   -41.8222     0.0000    96.0000 </r>
       <r>   -41.5814     0.0000    96.0000 </r>
       <r>   -41.3405     0.0000    96.0000 </r>
       <r>   -41.0997     0.0000    96.0000 </r>
       <r>   -40.8588     0.0000    96.0000 </r>
       <r>   -40.6180     0.0000    96.0000 </r>
       <r>   -40.3771     0.0000    96.0000 </r>
       <r>   -40.1363     0.0000    96.0000 </r>
       <r>   -39.8955    11.8151    98.8456 </r>
       <r>   -39.6546    54.6187   112.0000 </r>
       <r>   -39.4138     0.0000   112.0000 </r>
       <r>   -39.1729     0.0000   112.0000 </r>
       <r>   -38.9321     0.0000   112.0000 </r>
       <r>   -38.6913     0.0000   112.0000 </r>
       <r>   -38.4504     0.0000   112.0000 </r>
       <r>   -38.2096     0.0000   112.0000 </r>
       <r>   -37.9687     0.0000   112.0000 </r>
       <r>   -37.7279     0.0000   112.0000 </r>
       <r>   -37.4870     0.0000   112.0000 </r>
       <r>   -37.2462     0.0000   112.0000 </r>
       <r>   -37.0054     0.0000   112.0000 </r>
       <r>   -36.7645     0.0000   112.0000 </r>
       <r>   -36.5237     0.0000   112.0000 </r>
       <r>   -36.2828     0.0000   112.0000 </r>
       <r>   -36.0420     0.0000   112.0000 </r>
       <r>   -35.8012     0.0000   112.0000 </r>
       <r>   -35.5603     0.0000   112.0000 </r>
       <r>   -35.3195     0.0000   112.0000 </r>
       <r>   -35.0786     0.0000   112.0000 </r>
       <r>   -34.8378     0.0000   112.0000 </r>
       <r>   -34.5970     0.0000   112.0000 </r>
       <r>   -34.3561     0.0000   112.0000 </r>
       <r>   -34.1153     0.0000   112.0000 </r>
       <r>   -33.8744     0.0000   112.0000 </r>
       <r>   -33.6336     0.0000   112.0000 </r>
       <r>   -33.3927     0.0000   112.0000 </r>
       <r>   -33.1519     0.0000   112.0000 </r>
       <r>   -32.9111     0.0000   112.0000 </r>
       <r>   -32.6702     0.0000   112.0000 </r>
       <r>   -32.4294     0.0000   112.0000 </r>
       <r>   -32.1885     0.0000   112.0000 </r>
       <r>   -31.9477     0.0000   112.0000 </r>
       <r>   -31.7069     0.0000   112.0000 </r>
       <r>   -31.4660     0.0000   112.0000 </r>
       <r>   -31.2252     0.0000   112.0000 </r>
       <r>   -30.9843     0.0000   112.0000 </r>
       <r>   -30.7435     0.0000   112.0000 </r>
       <r>   -30.5026     0.0000   112.0000 </r>
       <r>   -30.2618     0.0000   112.0000 </r>
       <r>   -30.0210     0.0000   112.0000 </r>
       <r>   -29.7801     0.0000   112.0000 </r>
       <r>   -29.5393     0.0000   112.0000 </r>
       <r>   -29.2984     0.0000   112.0000 </r>
       <r>   -29.0576     0.0000   112.0000 </r>
       <r>   -28.8168     0.0000   112.0000 </r>
       <r>   -28.5759     0.0000   112.0000 </r>
       <r>   -28.3351     0.0000   112.0000 </r>
       <r>   -28.0942     0.0000   112.0000 </r>
       <r>   -27.8534     0.0000   112.0000 </r>
       <r>   -27.6125     0.0000   112.0000 </r>
       <r>   -27.3717     0.0000   112.0000 </r>
       <r>   -27.1309     0.0000   112.0000 </r>
       <r>   -26.8900     0.0000   112.0000 </r>
       <r>   -26.6492     0.0000   112.0000 </r>
       <r>   -26.4083     0.0000   112.0000 </r>
       <r>   -26.1675     0.0000   112.0000 </r>
       <r>   -25.9267     0.0000   112.0000 </r>
       <r>   -25.6858     0.0000   112.0000 </r>
       <r>   -25.4450     0.0000   112.0000 </r>
       <r>   -25.2041     0.0000   112.0000 </r>
       <r>   -24.9633     0.0000   112.0000 </r>
       <r>   -24.7225     0.0000   112.0000 </r>
       <r>   -24.4816     0.0000   112.0000 </r>
       <r>   -24.2408     0.0000   112.0000 </r>
       <r>   -23.9999     0.0000   112.0000 </r>
       <r>   -23.7591     0.0000   112.0000 </r>
       <r>   -23.5182     0.0000   112.0000 </r>
       <r>   -23.2774     0.0000   112.0000 </r>
       <r>   -23.0366     0.0000   112.0000 </r>
       <r>   -22.7957     0.0000   112.0000 </r>
       <r>   -22.5549     0.0000   112.0000 </r>
       <r>   -22.3140     0.0000   112.0000 </r>
       <r>   -22.0732     0.0000   112.0000 </r>
       <r>   -21.8324     0.0000   112.0000 </r>
       <r>   -21.5915     0.0000   112.0000 </r>
       <r>   -21.3507     0.0000   112.0000 </r>
       <r>   -21.1098     0.0000   112.0000 </r>
       <r>   -20.8690     0.0000   112.0000 </r>
       <r>   -20.6281     0.0000   112.0000 </r>
       <r>   -20.3873     0.0000   112.0000 </r>
       <r>   -20.1465     0.0000   112.0000 </r>
       <r>   -19.9056     0.0000   112.0000 </r>
       <r>   -19.6648     0.0000   112.0000 </r>
       <r>   -19.4239     0.0000   112.0000 </r>
       <r>   -19.1831     0.0000   112.0000 </r>
       <r>   -18.9423     0.0000   112.0000 </r>
       <r>   -18.7014     0.0000   112.0000 </r>
       <r>   -18.4606     0.0000   112.0000 </r>
       <r>   -18.2197     0.0000   112.0000 </r>
       <r>   -17.9789     0.0000   112.0000 </r>
       <r>   -17.7380     0.0000   112.0000 </r>
       <r>   -17.4972     0.0000   112.0000 </r>
       <r>   -17.2564     0.0000   112.0000 </r>
       <r>   -17.0155     0.0000   112.0000 </r>
       <r>   -16.7747     0.0000   112.0000 </r>
       <r>   -16.5338     0.0000   112.0000 </r>
       <r>   -16.2930     0.0000   112.0000 </r>
       <r>   -16.0522     0.0000   112.0000 </r>
       <r>   -15.8113     0.0000   112.0000 </r>
       <r>   -15.5705     0.0000   112.0000 </r>
       <r>   -15.3296     0.0000   112.0000 </r>
       <r>   -15.0888     0.0000   112.0000 </r>
       <r>   -14.8479     0.0000   112.0000 </r>
       <r>   -14.6071     0.0000   112.0000 </r>
       <r>   -14.3663     0.0000   112.0000 </r>
       <r>   -14.1254     0.0000   112.0000 </r>
       <r>   -13.8846     0.0000   112.0000 </r>
       <r>   -13.6437     0.0000   112.0000 </r>
       <r>   -13.4029     0.0000   112.0000 </r>
       <r>   -13.1621     0.0000   112.0000 </r>
       <r>   -12.9212     0.0065   112.0016 </r>
       <r>   -12.6804    41.8612   122.0835 </r>
       <r>   -12.4395    24.5661   128.0000 </r>
       <r>   -12.1987     0.0000   128.0000 </r>
       <r>   -11.9579     0.0000   128.0000 </r>
       <r>   -11.7170     0.0000   128.0000 </r>
       <r>   -11.4762     0.0000   128.0000 </r>
       <r>   -11.2353     0.0000   128.0000 </r>
       <r>   -10.9945     0.0000   128.0000 </r>
       <r>   -10.7536     0.0000   128.0000 </r>
       <r>   -10.5128     0.0000   128.0000 </r>
       <r>   -10.2720     0.0000   128.0000 </r>
       <r>   -10.0311     0.0000   128.0000 </r>
       <r>    -9.7903     0.0000   128.0000 </r>
       <r>    -9.5494     0.0000   128.0000 </r>
       <r>    -9.3086     0.0000   128.0000 </r>
       <r>    -9.0678     0.0000   128.0000 </r>
       <r>    -8.8269     0.0000   128.0000 </r>
       <r>    -8.5861     0.0000   128.0000 </r>
       <r>    -8.3452     0.0000   128.0000 </r>
       <r>    -8.1044     0.0000   128.0000 </r>
       <r>    -7.8635     0.0000   128.0000 </r>
       <r>    -7.6227     0.0000   128.0000 </r>
       <r>    -7.3819     0.4784   128.1152 </r>
       <r>    -7.1410    13.6963   131.4139 </r>
       <r>    -6.9002    29.4906   138.5164 </r>
       <r>    -6.6593    25.9454   144.7651 </r>
       <r>    -6.4185    29.9782   151.9851 </r>
       <r>    -6.1777     0.0617   152.0000 </r>
       <r>    -5.9368     0.0000   152.0000 </r>
       <r>    -5.6960     0.0000   152.0000 </r>
       <r>    -5.4551     0.0000   152.0000 </r>
       <r>    -5.2143     0.0000   152.0000 </r>
       <r>    -4.9734     0.0000   152.0000 </r>
       <r>    -4.7326     0.0000   152.0000 </r>
       <r>    -4.4918     0.0000   152.0000 </r>
       <r>    -4.2509     0.0000   152.0000 </r>
       <r>    -4.0101     0.0000   152.0000 </r>
       <r>    -3.7692     0.0000   152.0000 </r>
       <r>    -3.5284     0.0000   152.0000 </r>
       <r>    -3.2876     0.0000   152.0000 </r>
       <r>    -3.0467     0.0000   152.0000 </r>
       <r>    -2.8059     0.0000   152.0000 </r>
       <r>    -2.5650     0.0000   152.0000 </r>
       <r>    -2.3242     0.0000   152.0000 </r>
       <r>    -2.0834     0.0000   152.0000 </r>
       <r>    -1.8425     0.0000   152.0000 </r>
       <r>    -1.6017     0.0000   152.0000 </r>
       <r>    -1.3608     0.0000   152.0000 </r>
       <r>    -1.1200     0.0000   152.0000 </r>
       <r>    -0.8791     0.0000   152.0000 </r>
       <r>    -0.6383     0.0000   152.0000 </r>
       <r>    -0.3975     4.0626   152.9784 </r>
       <r>    -0.1566    20.3495   157.8795 </r>
       <r>     0.0842    12.2383   160.8270 </r>
       <r>     0.3251    18.4775   165.2771 </r>
       <r>     0.5659    29.5229   172.3874 </r>
       <r>     0.8067    39.1636   181.8197 </r>
       <r>     1.0476    37.3246   190.8090 </r>
       <r>     1.2884    31.3033   198.3481 </r>
       <r>     1.5293    20.7118   203.3364 </r>
       <r>     1.7701    28.9809   210.3162 </r>
       <r>     2.0110    36.8131   219.1823 </r>
       <r>     2.2518    27.7459   225.8647 </r>
       <r>     2.4926    26.9981   232.3669 </r>
       <r>     2.7335    30.5928   239.7350 </r>
       <r>     2.9743    44.3314   250.4118 </r>
       <r>     3.2152    45.5172   261.3742 </r>
       <r>     3.4560    32.3495   269.1653 </r>
       <r>     3.6968    12.5127   272.1789 </r>
       <r>     3.9377    17.5761   276.4120 </r>
       <r>     4.1785    52.5883   289.0774 </r>
       <r>     4.4194    44.7622   299.8580 </r>
       <r>     4.6602    17.1924   303.9987 </r>
       <r>     4.9011     0.0055   304.0000 </r>
       <r>     5.1419     0.0000   304.0000 </r>
       <r>     5.3827     0.0000   304.0000 </r>
       <r>     5.6236     0.0000   304.0000 </r>
       <r>     5.8644     0.0000   304.0000 </r>
       <r>     6.1053     0.0000   304.0000 </r>
       <r>     6.3461     0.3918   304.0944 </r>
       <r>     6.5869     4.1951   305.1047 </r>
       <r>     6.8278     7.8410   306.9932 </r>
       <r>     7.0686    19.1839   311.6134 </r>
       <r>     7.3095    44.1093   322.2368 </r>
       <r>     7.5503    53.3189   335.0782 </r>
       <r>     7.7911    63.3427   350.3337 </r>
       <r>     8.0320    65.8389   366.1905 </r>
       <r>     8.2728    70.0663   383.0654 </r>
       <r>     8.5137    59.2814   397.3428 </r>
       <r>     8.7545    58.6441   411.4667 </r>
       <r>     8.9954    47.9729   423.0206 </r>
       <r>     9.2362    29.9901   430.2434 </r>
       <r>     9.4770     8.9361   432.3956 </r>
       <r>     9.7179     2.9974   433.1175 </r>
       <r>     9.9587     8.3455   435.1274 </r>
       <r>    10.1996    18.6442   439.6177 </r>
       <r>    10.4404    17.9808   443.9482 </r>
       <r>    10.6812    17.1609   448.0813 </r>
       <r>    10.9221    27.5881   454.7257 </r>
       <r>    11.1629    18.9740   459.2954 </r>
       <r>    11.4038    23.9639   465.0669 </r>
       <r>    11.6446    14.8596   468.6457 </r>
       <r>    11.8855    13.7896   471.9668 </r>
       <r>    12.1263    16.0242   475.8261 </r>
       <r>    12.3671    36.6793   484.6600 </r>
       <r>    12.6080    32.6882   492.5327 </r>
       <r>    12.8488    29.9120   499.7367 </r>
       <r>    13.0897    20.2617   504.6166 </r>
       <r>    13.3305    22.1512   509.9515 </r>
       <r>    13.5713    27.2279   516.5092 </r>
       <r>    13.8122    23.7326   522.2250 </r>
       <r>    14.0530    26.2851   528.5555 </r>
       <r>    14.2939    19.2117   533.1825 </r>
       <r>    14.5347    16.7230   537.2101 </r>
       <r>    14.7756     3.2799   538.0000 </r>
       <r>    15.0164     0.0000   538.0000 </r>
       <r>    15.2572     0.0000   538.0000 </r>
       <r>    15.4981     0.0000   538.0000 </r>
       <r>    15.7389     0.0000   538.0000 </r>
       <r>    15.9798     0.0000   538.0000 </r>
       <r>    16.2206     0.0000   538.0000 </r>
       <r>    16.4614     0.0000   538.0000 </r>
       <r>    16.7023     0.0000   538.0000 </r>
       <r>    16.9431     0.0000   538.0000 </r>
       <r>    17.1840     0.0000   538.0000 </r>
       <r>    17.4248     0.0000   538.0000 </r>
       <r>    17.6657     0.0000   538.0000 </r>
       <r>    17.9065     0.0000   538.0000 </r>
      </set>
     </set>
    </array>
   </total>
  </dos>
 </calculation>
 <structure name="finalpos" >
  <crystal>
   <varray name="basis" >
    <v>      11.11223374       0.00000000      -0.00029034 </v>
    <v>       0.00000000      11.11745194       0.00000000 </v>
    <v>      -2.77510898       0.00000000      10.19872221 </v>
   </varray>
   <i name="volume">   1259.93837498 </i>
   <varray name="rec_basis" >
    <v>       0.08999155       0.00000000       0.02448702 </v>
    <v>       0.00000000       0.08994867       0.00000000 </v>
    <v>       0.00000256       0.00000000       0.09805220 </v>
   </varray>
  </crystal>
  <varray name="positions" >
   <v>       0.28894969       0.46933910       0.15583616 </v>
   <v>       0.78894969       0.46933910       0.15583616 </v>
   <v>       0.28894969       0.96933910       0.15583616 </v>
   <v>       0.78894969       0.96933910       0.15583616 </v>
   <v>       0.04646972       0.21934976       0.18586770 </v>
   <v>       0.54646972       0.21934976       0.18586770 </v>
   <v>       0.04646972       0.71934976       0.18586770 </v>
   <v>       0.54646972       0.71934976       0.18586770 </v>
   <v>       0.45353028       0.46934976       0.81413230 </v>
   <v>       0.95353028       0.46934976       0.81413230 </v>
   <v>       0.45353028       0.96934976       0.81413230 </v>
   <v>       0.95353028       0.96934976       0.81413230 </v>
   <v>       0.21105031       0.21933910       0.84416384 </v>
   <v>       0.71105031       0.21933910       0.84416384 </v>
   <v>       0.21105031       0.71933910       0.84416384 </v>
   <v>       0.71105031       0.71933910       0.84416384 </v>
   <v>       0.07654971       0.09530995       0.80250593 </v>
   <v>       0.57654971       0.09530995       0.80250593 </v>
   <v>       0.07654971       0.59530995       0.80250593 </v>
   <v>       0.57654971       0.59530995       0.80250593 </v>
   <v>       0.32560457       0.34338175       0.80250383 </v>
   <v>       0.82470466       0.34338175       0.80250383 </v>
   <v>       0.32470466       0.84338175       0.80250383 </v>
   <v>       0.82470466       0.84338175       0.80250383 </v>
   <v>       0.17529534       0.09338175       0.19749617 </v>
   <v>       0.67529534       0.09338175       0.19749617 </v>
   <v>       0.17529534       0.59338175       0.19749617 </v>
   <v>       0.67529534       0.59338175       0.19749617 </v>
   <v>       0.42345029       0.34530995       0.19749407 </v>
   <v>       0.92345029       0.34530995       0.19749407 </v>
   <v>       0.42345029       0.84530995       0.19749407 </v>
   <v>       0.92345029       0.84530995       0.19749407 </v>
   <v>       0.21868463       0.34523395       0.37102476 </v>
   <v>       0.71868463       0.34523395       0.37102476 </v>
   <v>       0.21868463       0.84523395       0.37102476 </v>
   <v>       0.71868463       0.84523395       0.37102476 </v>
   <v>       0.46681660       0.09344897       0.37102399 </v>
   <v>       0.96681660       0.09344897       0.37102399 </v>
   <v>       0.46681660       0.59344897       0.37102399 </v>
   <v>       0.96681660       0.59344897       0.37102399 </v>
   <v>       0.03318340       0.34344897       0.62897601 </v>
   <v>       0.53318340       0.34344897       0.62897601 </v>
   <v>       0.03318340       0.84344897       0.62897601 </v>
   <v>       0.53318340       0.84344897       0.62897601 </v>
   <v>       0.28131537       0.09523395       0.62897524 </v>
   <v>       0.78131537       0.09523395       0.62897524 </v>
   <v>       0.28131537       0.59523395       0.62897524 </v>
   <v>       0.78131537       0.59523395       0.62897524 </v>
   <v>       0.12439279       0.34434306       0.00000412 </v>
   <v>       0.62439279       0.34434306       0.00000412 </v>
   <v>       0.12439279       0.84434306       0.00000412 </v>
   <v>       0.62439279       0.84434306       0.00000412 </v>
   <v>       0.37560721       0.09434306       0.99999588 </v>
   <v>       0.87560721       0.09434306       0.99999588 </v>
   <v>       0.37560721       0.59434306       0.99999588 </v>
   <v>       0.87560721       0.59434306       0.99999588 </v>
   <v>       0.03824426       0.10634799       0.60632306 </v>
   <v>       0.53824426       0.10634799       0.60632306 </v>
   <v>       0.03824426       0.60634799       0.60632306 </v>
   <v>       0.53824426       0.60634799       0.60632306 </v>
   <v>       0.26492712       0.33232651       0.60632763 </v>
   <v>       0.76492712       0.33232651       0.60632763 </v>
   <v>       0.26492712       0.83232651       0.60632763 </v>
   <v>       0.76492712       0.83232651       0.60632763 </v>
   <v>       0.23507288       0.08232651       0.39367237 </v>
   <v>       0.73507288       0.08232651       0.39367237 </v>
   <v>       0.23507288       0.58232651       0.39367237 </v>
   <v>       0.73507288       0.58232651       0.39367237 </v>
   <v>       0.46175574       0.35634799       0.39367694 </v>
   <v>       0.96175574       0.35634799       0.39367694 </v>
   <v>       0.46175574       0.85634799       0.39367694 </v>
   <v>       0.96175574       0.85634799       0.39367694 </v>
   <v>       0.03848398       0.46936404       0.15397331 </v>
   <v>       0.53848398       0.46936404       0.15397331 </v>
   <v>       0.03848398       0.96936404       0.15397331 </v>
   <v>       0.53848398       0.96936404       0.15397331 </v>
   <v>       0.28861657       0.21935690       0.15447525 </v>
   <v>       0.78861657       0.21935690       0.15447525 </v>
   <v>       0.28861657       0.71935690       0.15447525 </v>
   <v>       0.78861657       0.71935690       0.15447525 </v>
   <v>       0.21138343       0.46935690       0.84552475 </v>
   <v>       0.71138343       0.46935690       0.84552475 </v>
   <v>       0.21138343       0.96935690       0.84552475 </v>
   <v>       0.71138343       0.96935690       0.84552475 </v>
   <v>       0.46151602       0.21936404       0.84602669 </v>
   <v>       0.96151602       0.21936404       0.84602669 </v>
   <v>       0.46151602       0.71936404       0.84602669 </v>
   <v>       0.96151602       0.71936404       0.84602669 </v>
  </varray>
 </structure>
</modeling>
