 144 144   0   0
  0.1325381E+02  0.1546422E-08  0.1214491E-08  0.1054520E-08  0.5000000E-15
  1.000000000000000E-004
  CAR 
 unknown system                          
     17.00883834    -54.87114914  301      5.08874041      1.00000000
    -54.871  0.0000E+00  0.0000E+00  0.0000E+00  0.0000E+00
    -54.632  0.0000E+00  0.0000E+00  0.0000E+00  0.0000E+00
    -54.392  0.0000E+00  0.0000E+00  0.0000E+00  0.0000E+00
    -54.152  0.0000E+00  0.0000E+00  0.0000E+00  0.0000E+00
    -53.913  0.0000E+00  0.0000E+00  0.0000E+00  0.0000E+00
    -53.673  0.0000E+00  0.0000E+00  0.0000E+00  0.0000E+00
    -53.434  0.0000E+00  0.0000E+00  0.0000E+00  0.0000E+00
    -53.194  0.0000E+00  0.0000E+00  0.0000E+00  0.0000E+00
    -52.954  0.0000E+00  0.0000E+00  0.0000E+00  0.0000E+00
    -52.715  0.0000E+00  0.0000E+00  0.0000E+00  0.0000E+00
    -52.475  0.0000E+00  0.0000E+00  0.0000E+00  0.0000E+00
    -52.236  0.0000E+00  0.0000E+00  0.0000E+00  0.0000E+00
    -51.996  0.0000E+00  0.0000E+00  0.0000E+00  0.0000E+00
    -51.756  0.3435E-03  0.0000E+00  0.8230E-04  0.0000E+00
    -51.517  0.4983E+02  0.0000E+00  0.1194E+02  0.0000E+00
    -51.277  0.8638E+02  0.0000E+00  0.3264E+02  0.0000E+00
    -51.038  0.1404E+02  0.0000E+00  0.3600E+02  0.0000E+00
    -50.798  0.0000E+00  0.0000E+00  0.3600E+02  0.0000E+00
    -50.558  0.0000E+00  0.0000E+00  0.3600E+02  0.0000E+00
    -50.319  0.1235E-03  0.0000E+00  0.3600E+02  0.0000E+00
    -50.079  0.6700E+02  0.0000E+00  0.5205E+02  0.0000E+00
    -49.840  0.2086E+03  0.0000E+00  0.1020E+03  0.0000E+00
    -49.600  0.2494E+02  0.0000E+00  0.1080E+03  0.0000E+00
    -49.360  0.0000E+00  0.0000E+00  0.1080E+03  0.0000E+00
    -49.121  0.0000E+00  0.0000E+00  0.1080E+03  0.0000E+00
    -48.881  0.0000E+00  0.0000E+00  0.1080E+03  0.0000E+00
    -48.642  0.0000E+00  0.0000E+00  0.1080E+03  0.0000E+00
    -48.402  0.0000E+00  0.0000E+00  0.1080E+03  0.0000E+00
    -48.162  0.0000E+00  0.0000E+00  0.1080E+03  0.0000E+00
    -47.923  0.0000E+00  0.0000E+00  0.1080E+03  0.0000E+00
    -47.683  0.0000E+00  0.0000E+00  0.1080E+03  0.0000E+00
    -47.444  0.0000E+00  0.0000E+00  0.1080E+03  0.0000E+00
    -47.204  0.0000E+00  0.0000E+00  0.1080E+03  0.0000E+00
    -46.964  0.0000E+00  0.6401E-01  0.1080E+03  0.1534E-01
    -46.725  0.0000E+00  0.5092E+02  0.1080E+03  0.1222E+02
    -46.485  0.0000E+00  0.9548E+02  0.1080E+03  0.3509E+02
    -46.246  0.0000E+00  0.1458E+03  0.1080E+03  0.7002E+02
    -46.006  0.0000E+00  0.1585E+03  0.1080E+03  0.1080E+03
    -45.766  0.0000E+00  0.4558E-02  0.1080E+03  0.1080E+03
    -45.527  0.0000E+00  0.0000E+00  0.1080E+03  0.1080E+03
    -45.287  0.0000E+00  0.0000E+00  0.1080E+03  0.1080E+03
    -45.048  0.0000E+00  0.0000E+00  0.1080E+03  0.1080E+03
    -44.808  0.0000E+00  0.0000E+00  0.1080E+03  0.1080E+03
    -44.568  0.0000E+00  0.0000E+00  0.1080E+03  0.1080E+03
    -44.329  0.0000E+00  0.0000E+00  0.1080E+03  0.1080E+03
    -44.089  0.0000E+00  0.0000E+00  0.1080E+03  0.1080E+03
    -43.850  0.0000E+00  0.0000E+00  0.1080E+03  0.1080E+03
    -43.610  0.0000E+00  0.0000E+00  0.1080E+03  0.1080E+03
    -43.370  0.0000E+00  0.0000E+00  0.1080E+03  0.1080E+03
    -43.131  0.0000E+00  0.0000E+00  0.1080E+03  0.1080E+03
    -42.891  0.0000E+00  0.0000E+00  0.1080E+03  0.1080E+03
    -42.652  0.0000E+00  0.0000E+00  0.1080E+03  0.1080E+03
    -42.412  0.0000E+00  0.0000E+00  0.1080E+03  0.1080E+03
    -42.172  0.0000E+00  0.0000E+00  0.1080E+03  0.1080E+03
    -41.933  0.0000E+00  0.0000E+00  0.1080E+03  0.1080E+03
    -41.693  0.0000E+00  0.0000E+00  0.1080E+03  0.1080E+03
    -41.454  0.0000E+00  0.0000E+00  0.1080E+03  0.1080E+03
    -41.214  0.0000E+00  0.0000E+00  0.1080E+03  0.1080E+03
    -40.974  0.0000E+00  0.0000E+00  0.1080E+03  0.1080E+03
    -40.735  0.1555E-08  0.5110E-09  0.1080E+03  0.1080E+03
    -40.495  0.2964E+02  0.2639E+02  0.1151E+03  0.1143E+03
    -40.256  0.4650E+02  0.5016E+02  0.1262E+03  0.1263E+03
    -40.016  0.1002E+03  0.1001E+03  0.1502E+03  0.1503E+03
    -39.776  0.2401E+02  0.2366E+02  0.1560E+03  0.1560E+03
    -39.537  0.0000E+00  0.0000E+00  0.1560E+03  0.1560E+03
    -39.297  0.0000E+00  0.0000E+00  0.1560E+03  0.1560E+03
    -39.058  0.0000E+00  0.0000E+00  0.1560E+03  0.1560E+03
    -38.818  0.0000E+00  0.0000E+00  0.1560E+03  0.1560E+03
    -38.578  0.0000E+00  0.0000E+00  0.1560E+03  0.1560E+03
    -38.339  0.0000E+00  0.0000E+00  0.1560E+03  0.1560E+03
    -38.099  0.0000E+00  0.0000E+00  0.1560E+03  0.1560E+03
    -37.860  0.0000E+00  0.0000E+00  0.1560E+03  0.1560E+03
    -37.620  0.0000E+00  0.0000E+00  0.1560E+03  0.1560E+03
    -37.380  0.0000E+00  0.0000E+00  0.1560E+03  0.1560E+03
    -37.141  0.0000E+00  0.0000E+00  0.1560E+03  0.1560E+03
    -36.901  0.0000E+00  0.0000E+00  0.1560E+03  0.1560E+03
    -36.662  0.0000E+00  0.0000E+00  0.1560E+03  0.1560E+03
    -36.422  0.0000E+00  0.0000E+00  0.1560E+03  0.1560E+03
    -36.182  0.0000E+00  0.0000E+00  0.1560E+03  0.1560E+03
    -35.943  0.0000E+00  0.0000E+00  0.1560E+03  0.1560E+03
    -35.703  0.0000E+00  0.0000E+00  0.1560E+03  0.1560E+03
    -35.464  0.0000E+00  0.0000E+00  0.1560E+03  0.1560E+03
    -35.224  0.0000E+00  0.0000E+00  0.1560E+03  0.1560E+03
    -34.984  0.0000E+00  0.0000E+00  0.1560E+03  0.1560E+03
    -34.745  0.0000E+00  0.0000E+00  0.1560E+03  0.1560E+03
    -34.505  0.0000E+00  0.0000E+00  0.1560E+03  0.1560E+03
    -34.266  0.0000E+00  0.0000E+00  0.1560E+03  0.1560E+03
    -34.026  0.0000E+00  0.0000E+00  0.1560E+03  0.1560E+03
    -33.786  0.0000E+00  0.0000E+00  0.1560E+03  0.1560E+03
    -33.547  0.0000E+00  0.0000E+00  0.1560E+03  0.1560E+03
    -33.307  0.0000E+00  0.0000E+00  0.1560E+03  0.1560E+03
    -33.068  0.0000E+00  0.0000E+00  0.1560E+03  0.1560E+03
    -32.828  0.0000E+00  0.0000E+00  0.1560E+03  0.1560E+03
    -32.588  0.0000E+00  0.0000E+00  0.1560E+03  0.1560E+03
    -32.349  0.0000E+00  0.0000E+00  0.1560E+03  0.1560E+03
    -32.109  0.0000E+00  0.0000E+00  0.1560E+03  0.1560E+03
    -31.870  0.0000E+00  0.0000E+00  0.1560E+03  0.1560E+03
    -31.630  0.0000E+00  0.0000E+00  0.1560E+03  0.1560E+03
    -31.390  0.0000E+00  0.0000E+00  0.1560E+03  0.1560E+03
    -31.151  0.0000E+00  0.0000E+00  0.1560E+03  0.1560E+03
    -30.911  0.0000E+00  0.0000E+00  0.1560E+03  0.1560E+03
    -30.672  0.0000E+00  0.0000E+00  0.1560E+03  0.1560E+03
    -30.432  0.0000E+00  0.0000E+00  0.1560E+03  0.1560E+03
    -30.192  0.0000E+00  0.0000E+00  0.1560E+03  0.1560E+03
    -29.953  0.0000E+00  0.0000E+00  0.1560E+03  0.1560E+03
    -29.713  0.0000E+00  0.0000E+00  0.1560E+03  0.1560E+03
    -29.474  0.0000E+00  0.0000E+00  0.1560E+03  0.1560E+03
    -29.234  0.0000E+00  0.0000E+00  0.1560E+03  0.1560E+03
    -28.994  0.0000E+00  0.0000E+00  0.1560E+03  0.1560E+03
    -28.755  0.0000E+00  0.0000E+00  0.1560E+03  0.1560E+03
    -28.515  0.0000E+00  0.0000E+00  0.1560E+03  0.1560E+03
    -28.276  0.0000E+00  0.0000E+00  0.1560E+03  0.1560E+03
    -28.036  0.0000E+00  0.0000E+00  0.1560E+03  0.1560E+03
    -27.796  0.0000E+00  0.0000E+00  0.1560E+03  0.1560E+03
    -27.557  0.0000E+00  0.0000E+00  0.1560E+03  0.1560E+03
    -27.317  0.0000E+00  0.0000E+00  0.1560E+03  0.1560E+03
    -27.078  0.0000E+00  0.0000E+00  0.1560E+03  0.1560E+03
    -26.838  0.0000E+00  0.0000E+00  0.1560E+03  0.1560E+03
    -26.598  0.0000E+00  0.0000E+00  0.1560E+03  0.1560E+03
    -26.359  0.0000E+00  0.0000E+00  0.1560E+03  0.1560E+03
    -26.119  0.0000E+00  0.0000E+00  0.1560E+03  0.1560E+03
    -25.880  0.0000E+00  0.0000E+00  0.1560E+03  0.1560E+03
    -25.640  0.0000E+00  0.0000E+00  0.1560E+03  0.1560E+03
    -25.400  0.0000E+00  0.0000E+00  0.1560E+03  0.1560E+03
    -25.161  0.0000E+00  0.0000E+00  0.1560E+03  0.1560E+03
    -24.921  0.0000E+00  0.0000E+00  0.1560E+03  0.1560E+03
    -24.682  0.0000E+00  0.0000E+00  0.1560E+03  0.1560E+03
    -24.442  0.0000E+00  0.0000E+00  0.1560E+03  0.1560E+03
    -24.202  0.0000E+00  0.0000E+00  0.1560E+03  0.1560E+03
    -23.963  0.0000E+00  0.0000E+00  0.1560E+03  0.1560E+03
    -23.723  0.0000E+00  0.0000E+00  0.1560E+03  0.1560E+03
    -23.484  0.0000E+00  0.0000E+00  0.1560E+03  0.1560E+03
    -23.244  0.0000E+00  0.0000E+00  0.1560E+03  0.1560E+03
    -23.004  0.0000E+00  0.0000E+00  0.1560E+03  0.1560E+03
    -22.765  0.0000E+00  0.0000E+00  0.1560E+03  0.1560E+03
    -22.525  0.0000E+00  0.0000E+00  0.1560E+03  0.1560E+03
    -22.286  0.0000E+00  0.0000E+00  0.1560E+03  0.1560E+03
    -22.046  0.0000E+00  0.0000E+00  0.1560E+03  0.1560E+03
    -21.806  0.0000E+00  0.0000E+00  0.1560E+03  0.1560E+03
    -21.567  0.0000E+00  0.0000E+00  0.1560E+03  0.1560E+03
    -21.327  0.0000E+00  0.0000E+00  0.1560E+03  0.1560E+03
    -21.088  0.0000E+00  0.0000E+00  0.1560E+03  0.1560E+03
    -20.848  0.0000E+00  0.0000E+00  0.1560E+03  0.1560E+03
    -20.608  0.0000E+00  0.0000E+00  0.1560E+03  0.1560E+03
    -20.369  0.0000E+00  0.0000E+00  0.1560E+03  0.1560E+03
    -20.129  0.0000E+00  0.0000E+00  0.1560E+03  0.1560E+03
    -19.890  0.0000E+00  0.0000E+00  0.1560E+03  0.1560E+03
    -19.650  0.0000E+00  0.0000E+00  0.1560E+03  0.1560E+03
    -19.410  0.0000E+00  0.0000E+00  0.1560E+03  0.1560E+03
    -19.171  0.0000E+00  0.0000E+00  0.1560E+03  0.1560E+03
    -18.931  0.0000E+00  0.0000E+00  0.1560E+03  0.1560E+03
    -18.692  0.0000E+00  0.0000E+00  0.1560E+03  0.1560E+03
    -18.452  0.0000E+00  0.0000E+00  0.1560E+03  0.1560E+03
    -18.212  0.0000E+00  0.0000E+00  0.1560E+03  0.1560E+03
    -17.973  0.0000E+00  0.0000E+00  0.1560E+03  0.1560E+03
    -17.733  0.0000E+00  0.0000E+00  0.1560E+03  0.1560E+03
    -17.494  0.0000E+00  0.0000E+00  0.1560E+03  0.1560E+03
    -17.254  0.0000E+00  0.0000E+00  0.1560E+03  0.1560E+03
    -17.014  0.0000E+00  0.0000E+00  0.1560E+03  0.1560E+03
    -16.775  0.0000E+00  0.0000E+00  0.1560E+03  0.1560E+03
    -16.535  0.0000E+00  0.0000E+00  0.1560E+03  0.1560E+03
    -16.296  0.0000E+00  0.0000E+00  0.1560E+03  0.1560E+03
    -16.056  0.0000E+00  0.0000E+00  0.1560E+03  0.1560E+03
    -15.816  0.0000E+00  0.0000E+00  0.1560E+03  0.1560E+03
    -15.577  0.0000E+00  0.0000E+00  0.1560E+03  0.1560E+03
    -15.337  0.0000E+00  0.0000E+00  0.1560E+03  0.1560E+03
    -15.098  0.0000E+00  0.0000E+00  0.1560E+03  0.1560E+03
    -14.858  0.0000E+00  0.0000E+00  0.1560E+03  0.1560E+03
    -14.618  0.0000E+00  0.0000E+00  0.1560E+03  0.1560E+03
    -14.379  0.0000E+00  0.0000E+00  0.1560E+03  0.1560E+03
    -14.139  0.0000E+00  0.0000E+00  0.1560E+03  0.1560E+03
    -13.900  0.1219E-02  0.0000E+00  0.1560E+03  0.1560E+03
    -13.660  0.2215E+02  0.5523E-13  0.1613E+03  0.1560E+03
    -13.420  0.2774E+02  0.1777E+01  0.1680E+03  0.1564E+03
    -13.181  0.8969E+01  0.4446E+02  0.1701E+03  0.1671E+03
    -12.941  0.3147E+02  0.4569E+01  0.1776E+03  0.1682E+03
    -12.702  0.9827E+01  0.4212E+02  0.1800E+03  0.1783E+03
    -12.462  0.0000E+00  0.7249E+01  0.1800E+03  0.1800E+03
    -12.222  0.0000E+00  0.0000E+00  0.1800E+03  0.1800E+03
    -11.983  0.0000E+00  0.0000E+00  0.1800E+03  0.1800E+03
    -11.743  0.0000E+00  0.0000E+00  0.1800E+03  0.1800E+03
    -11.504  0.0000E+00  0.0000E+00  0.1800E+03  0.1800E+03
    -11.264  0.0000E+00  0.0000E+00  0.1800E+03  0.1800E+03
    -11.024  0.0000E+00  0.0000E+00  0.1800E+03  0.1800E+03
    -10.785  0.0000E+00  0.0000E+00  0.1800E+03  0.1800E+03
    -10.545  0.0000E+00  0.0000E+00  0.1800E+03  0.1800E+03
    -10.306  0.0000E+00  0.0000E+00  0.1800E+03  0.1800E+03
    -10.066  0.0000E+00  0.0000E+00  0.1800E+03  0.1800E+03
     -9.826  0.0000E+00  0.0000E+00  0.1800E+03  0.1800E+03
     -9.587  0.0000E+00  0.0000E+00  0.1800E+03  0.1800E+03
     -9.347  0.0000E+00  0.0000E+00  0.1800E+03  0.1800E+03
     -9.108  0.0000E+00  0.0000E+00  0.1800E+03  0.1800E+03
     -8.868  0.0000E+00  0.0000E+00  0.1800E+03  0.1800E+03
     -8.628  0.0000E+00  0.0000E+00  0.1800E+03  0.1800E+03
     -8.389  0.0000E+00  0.0000E+00  0.1800E+03  0.1800E+03
     -8.149  0.0000E+00  0.0000E+00  0.1800E+03  0.1800E+03
     -7.910  0.2262E-02  0.0000E+00  0.1800E+03  0.1800E+03
     -7.670  0.9411E+01  0.1692E-01  0.1823E+03  0.1800E+03
     -7.430  0.2308E+02  0.1199E+02  0.1878E+03  0.1829E+03
     -7.191  0.5573E+02  0.2855E+02  0.2011E+03  0.1897E+03
     -6.951  0.5803E+02  0.5990E+02  0.2150E+03  0.2041E+03
     -6.712  0.3994E+01  0.4646E+02  0.2160E+03  0.2152E+03
     -6.472  0.0000E+00  0.3334E+01  0.2160E+03  0.2160E+03
     -6.232  0.0000E+00  0.0000E+00  0.2160E+03  0.2160E+03
     -5.993  0.0000E+00  0.0000E+00  0.2160E+03  0.2160E+03
     -5.753  0.0000E+00  0.0000E+00  0.2160E+03  0.2160E+03
     -5.514  0.0000E+00  0.0000E+00  0.2160E+03  0.2160E+03
     -5.274  0.0000E+00  0.0000E+00  0.2160E+03  0.2160E+03
     -5.034  0.0000E+00  0.0000E+00  0.2160E+03  0.2160E+03
     -4.795  0.0000E+00  0.0000E+00  0.2160E+03  0.2160E+03
     -4.555  0.0000E+00  0.0000E+00  0.2160E+03  0.2160E+03
     -4.316  0.0000E+00  0.0000E+00  0.2160E+03  0.2160E+03
     -4.076  0.0000E+00  0.0000E+00  0.2160E+03  0.2160E+03
     -3.836  0.0000E+00  0.0000E+00  0.2160E+03  0.2160E+03
     -3.597  0.0000E+00  0.0000E+00  0.2160E+03  0.2160E+03
     -3.357  0.0000E+00  0.0000E+00  0.2160E+03  0.2160E+03
     -3.118  0.0000E+00  0.0000E+00  0.2160E+03  0.2160E+03
     -2.878  0.1622E-13  0.0000E+00  0.2160E+03  0.2160E+03
     -2.638  0.8381E+00  0.0000E+00  0.2162E+03  0.2160E+03
     -2.399  0.1030E+02  0.0000E+00  0.2187E+03  0.2160E+03
     -2.159  0.2049E+02  0.0000E+00  0.2236E+03  0.2160E+03
     -1.920  0.1854E+01  0.0000E+00  0.2240E+03  0.2160E+03
     -1.680  0.3457E+02  0.0000E+00  0.2323E+03  0.2160E+03
     -1.440  0.1951E+02  0.4376E-15  0.2370E+03  0.2160E+03
     -1.201  0.4423E+02  0.8646E-01  0.2476E+03  0.2160E+03
     -0.961  0.4961E+02  0.4412E+01  0.2595E+03  0.2171E+03
     -0.722  0.7499E+02  0.1409E+02  0.2774E+03  0.2205E+03
     -0.482  0.1033E+03  0.1532E+02  0.3022E+03  0.2241E+03
     -0.242  0.8550E+02  0.1956E+02  0.3227E+03  0.2288E+03
     -0.003  0.1104E+03  0.4126E+02  0.3491E+03  0.2387E+03
      0.237  0.6979E+02  0.3395E+02  0.3658E+03  0.2468E+03
      0.476  0.3825E+02  0.4211E+02  0.3750E+03  0.2569E+03
      0.716  0.4570E+02  0.3375E+02  0.3860E+03  0.2650E+03
      0.956  0.4868E+02  0.5298E+02  0.3976E+03  0.2777E+03
      1.195  0.5552E+02  0.6041E+02  0.4109E+03  0.2922E+03
      1.435  0.6433E+02  0.4441E+02  0.4263E+03  0.3028E+03
      1.674  0.1008E+03  0.4006E+02  0.4505E+03  0.3124E+03
      1.914  0.5247E+02  0.3844E+02  0.4631E+03  0.3216E+03
      2.154  0.3881E+02  0.3739E+02  0.4724E+03  0.3306E+03
      2.393  0.4651E+02  0.3827E+02  0.4835E+03  0.3398E+03
      2.633  0.4782E+02  0.4940E+02  0.4950E+03  0.3516E+03
      2.872  0.4352E+02  0.6291E+02  0.5054E+03  0.3667E+03
      3.112  0.4012E+02  0.5876E+02  0.5150E+03  0.3807E+03
      3.352  0.4746E+02  0.4799E+02  0.5264E+03  0.3922E+03
      3.591  0.5252E+02  0.2993E+02  0.5390E+03  0.3994E+03
      3.831  0.4540E+02  0.6133E+02  0.5498E+03  0.4141E+03
      4.070  0.3198E+02  0.7330E+02  0.5575E+03  0.4317E+03
      4.310  0.4243E+02  0.1372E+01  0.5677E+03  0.4320E+03
      4.550  0.2362E+02  0.0000E+00  0.5733E+03  0.4320E+03
      4.789  0.1023E+02  0.0000E+00  0.5758E+03  0.4320E+03
      5.029  0.8966E+00  0.0000E+00  0.5760E+03  0.4320E+03
      5.268  0.0000E+00  0.0000E+00  0.5760E+03  0.4320E+03
      5.508  0.0000E+00  0.0000E+00  0.5760E+03  0.4320E+03
      5.748  0.0000E+00  0.0000E+00  0.5760E+03  0.4320E+03
      5.987  0.0000E+00  0.5020E-11  0.5760E+03  0.4320E+03
      6.227  0.0000E+00  0.1442E+00  0.5760E+03  0.4320E+03
      6.466  0.0000E+00  0.8141E+01  0.5760E+03  0.4340E+03
      6.706  0.0000E+00  0.3025E+02  0.5760E+03  0.4412E+03
      6.946  0.7373E-12  0.4341E+02  0.5760E+03  0.4516E+03
      7.185  0.1072E+00  0.7320E+02  0.5760E+03  0.4692E+03
      7.425  0.1310E+00  0.8083E+02  0.5761E+03  0.4885E+03
      7.664  0.8943E+00  0.6538E+02  0.5763E+03  0.5042E+03
      7.904  0.3501E+01  0.8791E+02  0.5771E+03  0.5253E+03
      8.144  0.4266E+01  0.7128E+02  0.5781E+03  0.5423E+03
      8.383  0.7036E+01  0.5443E+02  0.5798E+03  0.5554E+03
      8.623  0.1637E+02  0.3721E+02  0.5837E+03  0.5643E+03
      8.862  0.2528E+02  0.3917E+02  0.5898E+03  0.5737E+03
      9.102  0.1924E+02  0.1937E+02  0.5944E+03  0.5783E+03
      9.342  0.2536E+02  0.1389E+02  0.6005E+03  0.5817E+03
      9.581  0.3124E+02  0.2058E+02  0.6080E+03  0.5866E+03
      9.821  0.2661E+02  0.3000E+02  0.6143E+03  0.5938E+03
     10.060  0.2965E+02  0.2655E+02  0.6215E+03  0.6001E+03
     10.300  0.2277E+02  0.3473E+02  0.6269E+03  0.6085E+03
     10.540  0.2041E+02  0.3545E+02  0.6318E+03  0.6170E+03
     10.779  0.2853E+02  0.2794E+02  0.6386E+03  0.6236E+03
     11.019  0.3897E+02  0.2245E+02  0.6480E+03  0.6290E+03
     11.258  0.3940E+02  0.2158E+02  0.6574E+03  0.6342E+03
     11.498  0.3727E+02  0.3230E+02  0.6663E+03  0.6419E+03
     11.738  0.4484E+02  0.3874E+02  0.6771E+03  0.6512E+03
     11.977  0.3853E+02  0.4260E+02  0.6863E+03  0.6614E+03
     12.217  0.3855E+02  0.5197E+02  0.6955E+03  0.6739E+03
     12.456  0.3989E+02  0.4681E+02  0.7051E+03  0.6851E+03
     12.696  0.3652E+02  0.3597E+02  0.7139E+03  0.6937E+03
     12.936  0.3441E+02  0.4127E+02  0.7221E+03  0.7036E+03
     13.175  0.2282E+02  0.3975E+02  0.7276E+03  0.7131E+03
     13.415  0.1811E+01  0.3422E+02  0.7280E+03  0.7213E+03
     13.654  0.0000E+00  0.2396E+02  0.7280E+03  0.7271E+03
     13.894  0.0000E+00  0.3915E+01  0.7280E+03  0.7280E+03
     14.134  0.0000E+00  0.3741E-05  0.7280E+03  0.7280E+03
     14.373  0.0000E+00  0.0000E+00  0.7280E+03  0.7280E+03
     14.613  0.0000E+00  0.0000E+00  0.7280E+03  0.7280E+03
     14.852  0.0000E+00  0.0000E+00  0.7280E+03  0.7280E+03
     15.092  0.0000E+00  0.0000E+00  0.7280E+03  0.7280E+03
     15.332  0.0000E+00  0.0000E+00  0.7280E+03  0.7280E+03
     15.571  0.0000E+00  0.0000E+00  0.7280E+03  0.7280E+03
     15.811  0.0000E+00  0.0000E+00  0.7280E+03  0.7280E+03
     16.050  0.0000E+00  0.0000E+00  0.7280E+03  0.7280E+03
     16.290  0.0000E+00  0.0000E+00  0.7280E+03  0.7280E+03
     16.530  0.0000E+00  0.0000E+00  0.7280E+03  0.7280E+03
     16.769  0.0000E+00  0.0000E+00  0.7280E+03  0.7280E+03
     17.009  0.0000E+00  0.0000E+00  0.7280E+03  0.7280E+03
