  99  99   0   0
  0.1430410E+02  0.1177748E-08  0.1177748E-08  0.1058004E-08  0.5000000E-15
  1.000000000000000E-004
  CAR 
 unknown system                          
     18.03867733    -54.34146929  301      5.31183488      1.00000000
    -54.341  0.0000E+00  0.0000E+00  0.0000E+00  0.0000E+00
    -54.100  0.0000E+00  0.0000E+00  0.0000E+00  0.0000E+00
    -53.859  0.0000E+00  0.0000E+00  0.0000E+00  0.0000E+00
    -53.618  0.0000E+00  0.0000E+00  0.0000E+00  0.0000E+00
    -53.376  0.0000E+00  0.0000E+00  0.0000E+00  0.0000E+00
    -53.135  0.0000E+00  0.0000E+00  0.0000E+00  0.0000E+00
    -52.894  0.0000E+00  0.0000E+00  0.0000E+00  0.0000E+00
    -52.653  0.0000E+00  0.0000E+00  0.0000E+00  0.0000E+00
    -52.411  0.0000E+00  0.0000E+00  0.0000E+00  0.0000E+00
    -52.170  0.0000E+00  0.0000E+00  0.0000E+00  0.0000E+00
    -51.929  0.0000E+00  0.0000E+00  0.0000E+00  0.0000E+00
    -51.688  0.0000E+00  0.0000E+00  0.0000E+00  0.0000E+00
    -51.446  0.0000E+00  0.0000E+00  0.0000E+00  0.0000E+00
    -51.205  0.4587E-03  0.0000E+00  0.1107E-03  0.0000E+00
    -50.964  0.1471E+03  0.0000E+00  0.3549E+02  0.0000E+00
    -50.722  0.2106E+01  0.0000E+00  0.3600E+02  0.0000E+00
    -50.481  0.0000E+00  0.0000E+00  0.3600E+02  0.0000E+00
    -50.240  0.0000E+00  0.0000E+00  0.3600E+02  0.0000E+00
    -49.999  0.0000E+00  0.0000E+00  0.3600E+02  0.0000E+00
    -49.757  0.2019E+01  0.0000E+00  0.3649E+02  0.0000E+00
    -49.516  0.2728E+03  0.0000E+00  0.1023E+03  0.0000E+00
    -49.275  0.2363E+02  0.0000E+00  0.1080E+03  0.0000E+00
    -49.034  0.0000E+00  0.0000E+00  0.1080E+03  0.0000E+00
    -48.792  0.0000E+00  0.0000E+00  0.1080E+03  0.0000E+00
    -48.551  0.0000E+00  0.0000E+00  0.1080E+03  0.0000E+00
    -48.310  0.0000E+00  0.0000E+00  0.1080E+03  0.0000E+00
    -48.069  0.0000E+00  0.0000E+00  0.1080E+03  0.0000E+00
    -47.827  0.0000E+00  0.0000E+00  0.1080E+03  0.0000E+00
    -47.586  0.0000E+00  0.0000E+00  0.1080E+03  0.0000E+00
    -47.345  0.0000E+00  0.0000E+00  0.1080E+03  0.0000E+00
    -47.103  0.0000E+00  0.0000E+00  0.1080E+03  0.0000E+00
    -46.862  0.0000E+00  0.0000E+00  0.1080E+03  0.0000E+00
    -46.621  0.0000E+00  0.0000E+00  0.1080E+03  0.0000E+00
    -46.380  0.0000E+00  0.6218E+00  0.1080E+03  0.1500E+00
    -46.138  0.0000E+00  0.1486E+03  0.1080E+03  0.3600E+02
    -45.897  0.0000E+00  0.7979E+02  0.1080E+03  0.5525E+02
    -45.656  0.0000E+00  0.2187E+03  0.1080E+03  0.1080E+03
    -45.415  0.0000E+00  0.0000E+00  0.1080E+03  0.1080E+03
    -45.173  0.0000E+00  0.0000E+00  0.1080E+03  0.1080E+03
    -44.932  0.0000E+00  0.0000E+00  0.1080E+03  0.1080E+03
    -44.691  0.0000E+00  0.0000E+00  0.1080E+03  0.1080E+03
    -44.450  0.0000E+00  0.0000E+00  0.1080E+03  0.1080E+03
    -44.208  0.0000E+00  0.0000E+00  0.1080E+03  0.1080E+03
    -43.967  0.0000E+00  0.0000E+00  0.1080E+03  0.1080E+03
    -43.726  0.0000E+00  0.0000E+00  0.1080E+03  0.1080E+03
    -43.484  0.0000E+00  0.0000E+00  0.1080E+03  0.1080E+03
    -43.243  0.0000E+00  0.0000E+00  0.1080E+03  0.1080E+03
    -43.002  0.0000E+00  0.0000E+00  0.1080E+03  0.1080E+03
    -42.761  0.0000E+00  0.0000E+00  0.1080E+03  0.1080E+03
    -42.519  0.0000E+00  0.0000E+00  0.1080E+03  0.1080E+03
    -42.278  0.0000E+00  0.0000E+00  0.1080E+03  0.1080E+03
    -42.037  0.0000E+00  0.0000E+00  0.1080E+03  0.1080E+03
    -41.796  0.0000E+00  0.0000E+00  0.1080E+03  0.1080E+03
    -41.554  0.0000E+00  0.0000E+00  0.1080E+03  0.1080E+03
    -41.313  0.0000E+00  0.0000E+00  0.1080E+03  0.1080E+03
    -41.072  0.0000E+00  0.0000E+00  0.1080E+03  0.1080E+03
    -40.831  0.0000E+00  0.0000E+00  0.1080E+03  0.1080E+03
    -40.589  0.0000E+00  0.0000E+00  0.1080E+03  0.1080E+03
    -40.348  0.0000E+00  0.0000E+00  0.1080E+03  0.1080E+03
    -40.107  0.5333E-09  0.3429E-09  0.1080E+03  0.1080E+03
    -39.865  0.3890E+02  0.3701E+02  0.1174E+03  0.1169E+03
    -39.624  0.3571E+02  0.3760E+02  0.1260E+03  0.1260E+03
    -39.383  0.0000E+00  0.0000E+00  0.1260E+03  0.1260E+03
    -39.142  0.0000E+00  0.0000E+00  0.1260E+03  0.1260E+03
    -38.900  0.0000E+00  0.0000E+00  0.1260E+03  0.1260E+03
    -38.659  0.0000E+00  0.0000E+00  0.1260E+03  0.1260E+03
    -38.418  0.0000E+00  0.0000E+00  0.1260E+03  0.1260E+03
    -38.177  0.0000E+00  0.0000E+00  0.1260E+03  0.1260E+03
    -37.935  0.0000E+00  0.0000E+00  0.1260E+03  0.1260E+03
    -37.694  0.0000E+00  0.0000E+00  0.1260E+03  0.1260E+03
    -37.453  0.0000E+00  0.0000E+00  0.1260E+03  0.1260E+03
    -37.212  0.0000E+00  0.0000E+00  0.1260E+03  0.1260E+03
    -36.970  0.0000E+00  0.0000E+00  0.1260E+03  0.1260E+03
    -36.729  0.0000E+00  0.0000E+00  0.1260E+03  0.1260E+03
    -36.488  0.0000E+00  0.0000E+00  0.1260E+03  0.1260E+03
    -36.246  0.0000E+00  0.0000E+00  0.1260E+03  0.1260E+03
    -36.005  0.0000E+00  0.0000E+00  0.1260E+03  0.1260E+03
    -35.764  0.0000E+00  0.0000E+00  0.1260E+03  0.1260E+03
    -35.523  0.0000E+00  0.0000E+00  0.1260E+03  0.1260E+03
    -35.281  0.0000E+00  0.0000E+00  0.1260E+03  0.1260E+03
    -35.040  0.0000E+00  0.0000E+00  0.1260E+03  0.1260E+03
    -34.799  0.0000E+00  0.0000E+00  0.1260E+03  0.1260E+03
    -34.558  0.0000E+00  0.0000E+00  0.1260E+03  0.1260E+03
    -34.316  0.0000E+00  0.0000E+00  0.1260E+03  0.1260E+03
    -34.075  0.0000E+00  0.0000E+00  0.1260E+03  0.1260E+03
    -33.834  0.0000E+00  0.0000E+00  0.1260E+03  0.1260E+03
    -33.592  0.0000E+00  0.0000E+00  0.1260E+03  0.1260E+03
    -33.351  0.0000E+00  0.0000E+00  0.1260E+03  0.1260E+03
    -33.110  0.0000E+00  0.0000E+00  0.1260E+03  0.1260E+03
    -32.869  0.0000E+00  0.0000E+00  0.1260E+03  0.1260E+03
    -32.627  0.0000E+00  0.0000E+00  0.1260E+03  0.1260E+03
    -32.386  0.0000E+00  0.0000E+00  0.1260E+03  0.1260E+03
    -32.145  0.0000E+00  0.0000E+00  0.1260E+03  0.1260E+03
    -31.904  0.0000E+00  0.0000E+00  0.1260E+03  0.1260E+03
    -31.662  0.0000E+00  0.0000E+00  0.1260E+03  0.1260E+03
    -31.421  0.0000E+00  0.0000E+00  0.1260E+03  0.1260E+03
    -31.180  0.0000E+00  0.0000E+00  0.1260E+03  0.1260E+03
    -30.939  0.0000E+00  0.0000E+00  0.1260E+03  0.1260E+03
    -30.697  0.0000E+00  0.0000E+00  0.1260E+03  0.1260E+03
    -30.456  0.0000E+00  0.0000E+00  0.1260E+03  0.1260E+03
    -30.215  0.0000E+00  0.0000E+00  0.1260E+03  0.1260E+03
    -29.973  0.0000E+00  0.0000E+00  0.1260E+03  0.1260E+03
    -29.732  0.0000E+00  0.0000E+00  0.1260E+03  0.1260E+03
    -29.491  0.0000E+00  0.0000E+00  0.1260E+03  0.1260E+03
    -29.250  0.0000E+00  0.0000E+00  0.1260E+03  0.1260E+03
    -29.008  0.0000E+00  0.0000E+00  0.1260E+03  0.1260E+03
    -28.767  0.0000E+00  0.0000E+00  0.1260E+03  0.1260E+03
    -28.526  0.0000E+00  0.0000E+00  0.1260E+03  0.1260E+03
    -28.285  0.0000E+00  0.0000E+00  0.1260E+03  0.1260E+03
    -28.043  0.0000E+00  0.0000E+00  0.1260E+03  0.1260E+03
    -27.802  0.0000E+00  0.0000E+00  0.1260E+03  0.1260E+03
    -27.561  0.0000E+00  0.0000E+00  0.1260E+03  0.1260E+03
    -27.320  0.0000E+00  0.0000E+00  0.1260E+03  0.1260E+03
    -27.078  0.0000E+00  0.0000E+00  0.1260E+03  0.1260E+03
    -26.837  0.0000E+00  0.0000E+00  0.1260E+03  0.1260E+03
    -26.596  0.0000E+00  0.0000E+00  0.1260E+03  0.1260E+03
    -26.354  0.0000E+00  0.0000E+00  0.1260E+03  0.1260E+03
    -26.113  0.0000E+00  0.0000E+00  0.1260E+03  0.1260E+03
    -25.872  0.0000E+00  0.0000E+00  0.1260E+03  0.1260E+03
    -25.631  0.0000E+00  0.0000E+00  0.1260E+03  0.1260E+03
    -25.389  0.0000E+00  0.0000E+00  0.1260E+03  0.1260E+03
    -25.148  0.0000E+00  0.0000E+00  0.1260E+03  0.1260E+03
    -24.907  0.0000E+00  0.0000E+00  0.1260E+03  0.1260E+03
    -24.666  0.0000E+00  0.0000E+00  0.1260E+03  0.1260E+03
    -24.424  0.0000E+00  0.0000E+00  0.1260E+03  0.1260E+03
    -24.183  0.0000E+00  0.0000E+00  0.1260E+03  0.1260E+03
    -23.942  0.0000E+00  0.0000E+00  0.1260E+03  0.1260E+03
    -23.701  0.0000E+00  0.0000E+00  0.1260E+03  0.1260E+03
    -23.459  0.0000E+00  0.0000E+00  0.1260E+03  0.1260E+03
    -23.218  0.0000E+00  0.0000E+00  0.1260E+03  0.1260E+03
    -22.977  0.0000E+00  0.0000E+00  0.1260E+03  0.1260E+03
    -22.735  0.0000E+00  0.0000E+00  0.1260E+03  0.1260E+03
    -22.494  0.0000E+00  0.0000E+00  0.1260E+03  0.1260E+03
    -22.253  0.0000E+00  0.0000E+00  0.1260E+03  0.1260E+03
    -22.012  0.0000E+00  0.0000E+00  0.1260E+03  0.1260E+03
    -21.770  0.0000E+00  0.0000E+00  0.1260E+03  0.1260E+03
    -21.529  0.0000E+00  0.0000E+00  0.1260E+03  0.1260E+03
    -21.288  0.0000E+00  0.0000E+00  0.1260E+03  0.1260E+03
    -21.047  0.0000E+00  0.0000E+00  0.1260E+03  0.1260E+03
    -20.805  0.0000E+00  0.0000E+00  0.1260E+03  0.1260E+03
    -20.564  0.0000E+00  0.0000E+00  0.1260E+03  0.1260E+03
    -20.323  0.0000E+00  0.0000E+00  0.1260E+03  0.1260E+03
    -20.082  0.0000E+00  0.0000E+00  0.1260E+03  0.1260E+03
    -19.840  0.0000E+00  0.0000E+00  0.1260E+03  0.1260E+03
    -19.599  0.0000E+00  0.0000E+00  0.1260E+03  0.1260E+03
    -19.358  0.0000E+00  0.0000E+00  0.1260E+03  0.1260E+03
    -19.116  0.0000E+00  0.0000E+00  0.1260E+03  0.1260E+03
    -18.875  0.0000E+00  0.0000E+00  0.1260E+03  0.1260E+03
    -18.634  0.0000E+00  0.0000E+00  0.1260E+03  0.1260E+03
    -18.393  0.0000E+00  0.0000E+00  0.1260E+03  0.1260E+03
    -18.151  0.0000E+00  0.0000E+00  0.1260E+03  0.1260E+03
    -17.910  0.0000E+00  0.0000E+00  0.1260E+03  0.1260E+03
    -17.669  0.0000E+00  0.0000E+00  0.1260E+03  0.1260E+03
    -17.428  0.0000E+00  0.0000E+00  0.1260E+03  0.1260E+03
    -17.186  0.0000E+00  0.0000E+00  0.1260E+03  0.1260E+03
    -16.945  0.0000E+00  0.0000E+00  0.1260E+03  0.1260E+03
    -16.704  0.0000E+00  0.0000E+00  0.1260E+03  0.1260E+03
    -16.463  0.0000E+00  0.0000E+00  0.1260E+03  0.1260E+03
    -16.221  0.0000E+00  0.0000E+00  0.1260E+03  0.1260E+03
    -15.980  0.0000E+00  0.0000E+00  0.1260E+03  0.1260E+03
    -15.739  0.0000E+00  0.0000E+00  0.1260E+03  0.1260E+03
    -15.497  0.0000E+00  0.0000E+00  0.1260E+03  0.1260E+03
    -15.256  0.0000E+00  0.0000E+00  0.1260E+03  0.1260E+03
    -15.015  0.0000E+00  0.0000E+00  0.1260E+03  0.1260E+03
    -14.774  0.0000E+00  0.0000E+00  0.1260E+03  0.1260E+03
    -14.532  0.0000E+00  0.0000E+00  0.1260E+03  0.1260E+03
    -14.291  0.0000E+00  0.0000E+00  0.1260E+03  0.1260E+03
    -14.050  0.0000E+00  0.0000E+00  0.1260E+03  0.1260E+03
    -13.809  0.0000E+00  0.0000E+00  0.1260E+03  0.1260E+03
    -13.567  0.0000E+00  0.0000E+00  0.1260E+03  0.1260E+03
    -13.326  0.3646E-01  0.0000E+00  0.1260E+03  0.1260E+03
    -13.085  0.4090E+02  0.1171E-11  0.1359E+03  0.1260E+03
    -12.844  0.3367E+02  0.4081E+01  0.1440E+03  0.1270E+03
    -12.602  0.2566E-02  0.6696E+02  0.1440E+03  0.1431E+03
    -12.361  0.0000E+00  0.3564E+01  0.1440E+03  0.1440E+03
    -12.120  0.0000E+00  0.0000E+00  0.1440E+03  0.1440E+03
    -11.878  0.0000E+00  0.0000E+00  0.1440E+03  0.1440E+03
    -11.637  0.0000E+00  0.0000E+00  0.1440E+03  0.1440E+03
    -11.396  0.0000E+00  0.0000E+00  0.1440E+03  0.1440E+03
    -11.155  0.0000E+00  0.0000E+00  0.1440E+03  0.1440E+03
    -10.913  0.0000E+00  0.0000E+00  0.1440E+03  0.1440E+03
    -10.672  0.0000E+00  0.0000E+00  0.1440E+03  0.1440E+03
    -10.431  0.0000E+00  0.0000E+00  0.1440E+03  0.1440E+03
    -10.190  0.0000E+00  0.0000E+00  0.1440E+03  0.1440E+03
     -9.948  0.0000E+00  0.0000E+00  0.1440E+03  0.1440E+03
     -9.707  0.0000E+00  0.0000E+00  0.1440E+03  0.1440E+03
     -9.466  0.0000E+00  0.0000E+00  0.1440E+03  0.1440E+03
     -9.225  0.0000E+00  0.0000E+00  0.1440E+03  0.1440E+03
     -8.983  0.0000E+00  0.0000E+00  0.1440E+03  0.1440E+03
     -8.742  0.0000E+00  0.0000E+00  0.1440E+03  0.1440E+03
     -8.501  0.0000E+00  0.0000E+00  0.1440E+03  0.1440E+03
     -8.259  0.0000E+00  0.0000E+00  0.1440E+03  0.1440E+03
     -8.018  0.0000E+00  0.0000E+00  0.1440E+03  0.1440E+03
     -7.777  0.3630E-06  0.0000E+00  0.1440E+03  0.1440E+03
     -7.536  0.2323E+01  0.8263E-07  0.1446E+03  0.1440E+03
     -7.294  0.2503E+02  0.2263E+01  0.1506E+03  0.1445E+03
     -7.053  0.2832E+02  0.2695E+02  0.1574E+03  0.1510E+03
     -6.812  0.4496E+02  0.2642E+02  0.1683E+03  0.1574E+03
     -6.571  0.1128E+02  0.3505E+02  0.1710E+03  0.1659E+03
     -6.329  0.0000E+00  0.2122E+02  0.1710E+03  0.1710E+03
     -6.088  0.0000E+00  0.8401E-03  0.1710E+03  0.1710E+03
     -5.847  0.0000E+00  0.0000E+00  0.1710E+03  0.1710E+03
     -5.606  0.0000E+00  0.0000E+00  0.1710E+03  0.1710E+03
     -5.364  0.0000E+00  0.0000E+00  0.1710E+03  0.1710E+03
     -5.123  0.0000E+00  0.0000E+00  0.1710E+03  0.1710E+03
     -4.882  0.0000E+00  0.0000E+00  0.1710E+03  0.1710E+03
     -4.640  0.0000E+00  0.0000E+00  0.1710E+03  0.1710E+03
     -4.399  0.0000E+00  0.0000E+00  0.1710E+03  0.1710E+03
     -4.158  0.0000E+00  0.0000E+00  0.1710E+03  0.1710E+03
     -3.917  0.0000E+00  0.0000E+00  0.1710E+03  0.1710E+03
     -3.675  0.0000E+00  0.0000E+00  0.1710E+03  0.1710E+03
     -3.434  0.0000E+00  0.0000E+00  0.1710E+03  0.1710E+03
     -3.193  0.0000E+00  0.0000E+00  0.1710E+03  0.1710E+03
     -2.952  0.0000E+00  0.0000E+00  0.1710E+03  0.1710E+03
     -2.710  0.0000E+00  0.0000E+00  0.1710E+03  0.1710E+03
     -2.469  0.0000E+00  0.0000E+00  0.1710E+03  0.1710E+03
     -2.228  0.3170E-14  0.0000E+00  0.1710E+03  0.1710E+03
     -1.986  0.9702E+00  0.0000E+00  0.1712E+03  0.1710E+03
     -1.745  0.3057E+02  0.0000E+00  0.1786E+03  0.1710E+03
     -1.504  0.1738E+02  0.0000E+00  0.1828E+03  0.1710E+03
     -1.263  0.1630E+02  0.0000E+00  0.1867E+03  0.1710E+03
     -1.021  0.2752E+02  0.0000E+00  0.1934E+03  0.1710E+03
     -0.780  0.5923E+02  0.1704E-16  0.2077E+03  0.1710E+03
     -0.539  0.6176E+02  0.5144E-01  0.2226E+03  0.1710E+03
     -0.298  0.4853E+02  0.1693E+02  0.2343E+03  0.1751E+03
     -0.056  0.7951E+02  0.1658E+02  0.2535E+03  0.1791E+03
      0.185  0.9472E+02  0.1574E+02  0.2763E+03  0.1829E+03
      0.426  0.7739E+02  0.2424E+02  0.2950E+03  0.1887E+03
      0.667  0.7614E+02  0.3913E+02  0.3134E+03  0.1982E+03
      0.909  0.5022E+02  0.4558E+02  0.3255E+03  0.2092E+03
      1.150  0.3489E+02  0.3909E+02  0.3339E+03  0.2186E+03
      1.391  0.4337E+02  0.2951E+02  0.3444E+03  0.2257E+03
      1.633  0.4649E+02  0.2790E+02  0.3556E+03  0.2325E+03
      1.874  0.6577E+02  0.3369E+02  0.3714E+03  0.2406E+03
      2.115  0.7944E+02  0.3967E+02  0.3906E+03  0.2502E+03
      2.356  0.4311E+02  0.2491E+02  0.4010E+03  0.2562E+03
      2.598  0.3709E+02  0.3053E+02  0.4100E+03  0.2635E+03
      2.839  0.5047E+02  0.4470E+02  0.4221E+03  0.2743E+03
      3.080  0.1324E+02  0.4996E+02  0.4253E+03  0.2864E+03
      3.321  0.1556E+02  0.4322E+02  0.4291E+03  0.2968E+03
      3.563  0.3828E+02  0.3175E+02  0.4383E+03  0.3045E+03
      3.804  0.2706E+02  0.7280E+01  0.4448E+03  0.3062E+03
      4.045  0.4117E+02  0.3783E+02  0.4548E+03  0.3153E+03
      4.286  0.3780E+02  0.7616E+02  0.4639E+03  0.3337E+03
      4.528  0.3903E+02  0.3037E+02  0.4733E+03  0.3410E+03
      4.769  0.3199E+02  0.3938E+01  0.4810E+03  0.3420E+03
      5.010  0.1992E+02  0.0000E+00  0.4858E+03  0.3420E+03
      5.252  0.6697E+00  0.0000E+00  0.4860E+03  0.3420E+03
      5.493  0.0000E+00  0.0000E+00  0.4860E+03  0.3420E+03
      5.734  0.0000E+00  0.0000E+00  0.4860E+03  0.3420E+03
      5.975  0.0000E+00  0.0000E+00  0.4860E+03  0.3420E+03
      6.217  0.0000E+00  0.3317E-04  0.4860E+03  0.3420E+03
      6.458  0.0000E+00  0.2162E+01  0.4860E+03  0.3425E+03
      6.699  0.0000E+00  0.5298E+01  0.4860E+03  0.3438E+03
      6.940  0.0000E+00  0.1468E+02  0.4860E+03  0.3473E+03
      7.182  0.1770E-07  0.3011E+02  0.4860E+03  0.3546E+03
      7.423  0.1459E+00  0.5907E+02  0.4860E+03  0.3689E+03
      7.664  0.8217E-02  0.6751E+02  0.4860E+03  0.3851E+03
      7.905  0.6610E+00  0.6506E+02  0.4862E+03  0.4008E+03
      8.147  0.1353E+01  0.7530E+02  0.4865E+03  0.4190E+03
      8.388  0.2879E+01  0.8301E+02  0.4872E+03  0.4390E+03
      8.629  0.5371E+01  0.6552E+02  0.4885E+03  0.4548E+03
      8.871  0.1136E+02  0.6109E+02  0.4913E+03  0.4696E+03
      9.112  0.1463E+02  0.4208E+02  0.4948E+03  0.4797E+03
      9.353  0.2024E+02  0.2361E+02  0.4997E+03  0.4854E+03
      9.594  0.1588E+02  0.5552E+01  0.5035E+03  0.4868E+03
      9.836  0.1839E+02  0.7851E+01  0.5079E+03  0.4887E+03
     10.077  0.2450E+02  0.1162E+02  0.5138E+03  0.4915E+03
     10.318  0.1852E+02  0.2208E+02  0.5183E+03  0.4968E+03
     10.559  0.1960E+02  0.2137E+02  0.5230E+03  0.5020E+03
     10.801  0.1185E+02  0.2255E+02  0.5259E+03  0.5074E+03
     11.042  0.1894E+02  0.2884E+02  0.5305E+03  0.5144E+03
     11.283  0.2517E+02  0.2416E+02  0.5365E+03  0.5202E+03
     11.524  0.3214E+02  0.2111E+02  0.5443E+03  0.5253E+03
     11.766  0.2737E+02  0.1463E+02  0.5509E+03  0.5288E+03
     12.007  0.3393E+02  0.1208E+02  0.5591E+03  0.5317E+03
     12.248  0.3222E+02  0.3222E+02  0.5669E+03  0.5395E+03
     12.490  0.2279E+02  0.4597E+02  0.5724E+03  0.5506E+03
     12.731  0.2090E+02  0.3603E+02  0.5774E+03  0.5593E+03
     12.972  0.2395E+02  0.2487E+02  0.5832E+03  0.5653E+03
     13.213  0.2815E+02  0.2064E+02  0.5900E+03  0.5703E+03
     13.455  0.2783E+02  0.2927E+02  0.5967E+03  0.5773E+03
     13.696  0.2231E+02  0.3053E+02  0.6021E+03  0.5847E+03
     13.937  0.1485E+02  0.2696E+02  0.6057E+03  0.5912E+03
     14.178  0.1437E+01  0.2423E+02  0.6060E+03  0.5970E+03
     14.420  0.0000E+00  0.2243E+02  0.6060E+03  0.6024E+03
     14.661  0.0000E+00  0.1402E+02  0.6060E+03  0.6058E+03
     14.902  0.0000E+00  0.6982E+00  0.6060E+03  0.6060E+03
     15.143  0.0000E+00  0.2162E-05  0.6060E+03  0.6060E+03
     15.385  0.0000E+00  0.0000E+00  0.6060E+03  0.6060E+03
     15.626  0.0000E+00  0.0000E+00  0.6060E+03  0.6060E+03
     15.867  0.0000E+00  0.0000E+00  0.6060E+03  0.6060E+03
     16.109  0.0000E+00  0.0000E+00  0.6060E+03  0.6060E+03
     16.350  0.0000E+00  0.0000E+00  0.6060E+03  0.6060E+03
     16.591  0.0000E+00  0.0000E+00  0.6060E+03  0.6060E+03
     16.832  0.0000E+00  0.0000E+00  0.6060E+03  0.6060E+03
     17.074  0.0000E+00  0.0000E+00  0.6060E+03  0.6060E+03
     17.315  0.0000E+00  0.0000E+00  0.6060E+03  0.6060E+03
     17.556  0.0000E+00  0.0000E+00  0.6060E+03  0.6060E+03
     17.797  0.0000E+00  0.0000E+00  0.6060E+03  0.6060E+03
     18.039  0.0000E+00  0.0000E+00  0.6060E+03  0.6060E+03
