  88  88   0   0
  0.1431748E+02  0.1111223E-08  0.1111745E-08  0.1056954E-08  0.5000000E-15
  1.000000000000000E-004
  CAR 
 unknown system                          
     17.91411226    -54.34217482  301      5.20904845      1.00000000
    -54.342  0.0000E+00  0.0000E+00  0.0000E+00  0.0000E+00
    -54.101  0.0000E+00  0.0000E+00  0.0000E+00  0.0000E+00
    -53.860  0.0000E+00  0.0000E+00  0.0000E+00  0.0000E+00
    -53.620  0.0000E+00  0.0000E+00  0.0000E+00  0.0000E+00
    -53.379  0.0000E+00  0.0000E+00  0.0000E+00  0.0000E+00
    -53.138  0.0000E+00  0.0000E+00  0.0000E+00  0.0000E+00
    -52.897  0.0000E+00  0.0000E+00  0.0000E+00  0.0000E+00
    -52.656  0.0000E+00  0.0000E+00  0.0000E+00  0.0000E+00
    -52.415  0.0000E+00  0.0000E+00  0.0000E+00  0.0000E+00
    -52.174  0.0000E+00  0.0000E+00  0.0000E+00  0.0000E+00
    -51.934  0.0000E+00  0.0000E+00  0.0000E+00  0.0000E+00
    -51.693  0.0000E+00  0.0000E+00  0.0000E+00  0.0000E+00
    -51.452  0.0000E+00  0.0000E+00  0.0000E+00  0.0000E+00
    -51.211  0.3328E-03  0.0000E+00  0.8016E-04  0.0000E+00
    -50.970  0.1308E+03  0.0000E+00  0.3149E+02  0.0000E+00
    -50.729  0.2103E+01  0.0000E+00  0.3200E+02  0.0000E+00
    -50.489  0.0000E+00  0.0000E+00  0.3200E+02  0.0000E+00
    -50.248  0.0000E+00  0.0000E+00  0.3200E+02  0.0000E+00
    -50.007  0.0000E+00  0.0000E+00  0.3200E+02  0.0000E+00
    -49.766  0.1843E+01  0.0000E+00  0.3244E+02  0.0000E+00
    -49.525  0.2356E+03  0.0000E+00  0.8920E+02  0.0000E+00
    -49.284  0.2823E+02  0.0000E+00  0.9600E+02  0.0000E+00
    -49.043  0.0000E+00  0.0000E+00  0.9600E+02  0.0000E+00
    -48.803  0.0000E+00  0.0000E+00  0.9600E+02  0.0000E+00
    -48.562  0.0000E+00  0.0000E+00  0.9600E+02  0.0000E+00
    -48.321  0.0000E+00  0.0000E+00  0.9600E+02  0.0000E+00
    -48.080  0.0000E+00  0.0000E+00  0.9600E+02  0.0000E+00
    -47.839  0.0000E+00  0.0000E+00  0.9600E+02  0.0000E+00
    -47.598  0.0000E+00  0.0000E+00  0.9600E+02  0.0000E+00
    -47.357  0.0000E+00  0.0000E+00  0.9600E+02  0.0000E+00
    -47.117  0.0000E+00  0.0000E+00  0.9600E+02  0.0000E+00
    -46.876  0.0000E+00  0.0000E+00  0.9600E+02  0.0000E+00
    -46.635  0.0000E+00  0.0000E+00  0.9600E+02  0.0000E+00
    -46.394  0.0000E+00  0.3586E+00  0.9600E+02  0.8637E-01
    -46.153  0.0000E+00  0.1325E+03  0.9600E+02  0.3199E+02
    -45.912  0.0000E+00  0.5969E+02  0.9600E+02  0.4637E+02
    -45.671  0.0000E+00  0.2061E+03  0.9600E+02  0.9600E+02
    -45.431  0.0000E+00  0.0000E+00  0.9600E+02  0.9600E+02
    -45.190  0.0000E+00  0.0000E+00  0.9600E+02  0.9600E+02
    -44.949  0.0000E+00  0.0000E+00  0.9600E+02  0.9600E+02
    -44.708  0.0000E+00  0.0000E+00  0.9600E+02  0.9600E+02
    -44.467  0.0000E+00  0.0000E+00  0.9600E+02  0.9600E+02
    -44.226  0.0000E+00  0.0000E+00  0.9600E+02  0.9600E+02
    -43.985  0.0000E+00  0.0000E+00  0.9600E+02  0.9600E+02
    -43.745  0.0000E+00  0.0000E+00  0.9600E+02  0.9600E+02
    -43.504  0.0000E+00  0.0000E+00  0.9600E+02  0.9600E+02
    -43.263  0.0000E+00  0.0000E+00  0.9600E+02  0.9600E+02
    -43.022  0.0000E+00  0.0000E+00  0.9600E+02  0.9600E+02
    -42.781  0.0000E+00  0.0000E+00  0.9600E+02  0.9600E+02
    -42.540  0.0000E+00  0.0000E+00  0.9600E+02  0.9600E+02
    -42.299  0.0000E+00  0.0000E+00  0.9600E+02  0.9600E+02
    -42.059  0.0000E+00  0.0000E+00  0.9600E+02  0.9600E+02
    -41.818  0.0000E+00  0.0000E+00  0.9600E+02  0.9600E+02
    -41.577  0.0000E+00  0.0000E+00  0.9600E+02  0.9600E+02
    -41.336  0.0000E+00  0.0000E+00  0.9600E+02  0.9600E+02
    -41.095  0.0000E+00  0.0000E+00  0.9600E+02  0.9600E+02
    -40.854  0.0000E+00  0.0000E+00  0.9600E+02  0.9600E+02
    -40.613  0.0000E+00  0.0000E+00  0.9600E+02  0.9600E+02
    -40.373  0.0000E+00  0.0000E+00  0.9600E+02  0.9600E+02
    -40.132  0.1835E-11  0.1183E-11  0.9600E+02  0.9600E+02
    -39.891  0.1535E+02  0.1419E+02  0.9970E+02  0.9942E+02
    -39.650  0.5108E+02  0.5224E+02  0.1120E+03  0.1120E+03
    -39.409  0.0000E+00  0.0000E+00  0.1120E+03  0.1120E+03
    -39.168  0.0000E+00  0.0000E+00  0.1120E+03  0.1120E+03
    -38.928  0.0000E+00  0.0000E+00  0.1120E+03  0.1120E+03
    -38.687  0.0000E+00  0.0000E+00  0.1120E+03  0.1120E+03
    -38.446  0.0000E+00  0.0000E+00  0.1120E+03  0.1120E+03
    -38.205  0.0000E+00  0.0000E+00  0.1120E+03  0.1120E+03
    -37.964  0.0000E+00  0.0000E+00  0.1120E+03  0.1120E+03
    -37.723  0.0000E+00  0.0000E+00  0.1120E+03  0.1120E+03
    -37.482  0.0000E+00  0.0000E+00  0.1120E+03  0.1120E+03
    -37.242  0.0000E+00  0.0000E+00  0.1120E+03  0.1120E+03
    -37.001  0.0000E+00  0.0000E+00  0.1120E+03  0.1120E+03
    -36.760  0.0000E+00  0.0000E+00  0.1120E+03  0.1120E+03
    -36.519  0.0000E+00  0.0000E+00  0.1120E+03  0.1120E+03
    -36.278  0.0000E+00  0.0000E+00  0.1120E+03  0.1120E+03
    -36.037  0.0000E+00  0.0000E+00  0.1120E+03  0.1120E+03
    -35.796  0.0000E+00  0.0000E+00  0.1120E+03  0.1120E+03
    -35.556  0.0000E+00  0.0000E+00  0.1120E+03  0.1120E+03
    -35.315  0.0000E+00  0.0000E+00  0.1120E+03  0.1120E+03
    -35.074  0.0000E+00  0.0000E+00  0.1120E+03  0.1120E+03
    -34.833  0.0000E+00  0.0000E+00  0.1120E+03  0.1120E+03
    -34.592  0.0000E+00  0.0000E+00  0.1120E+03  0.1120E+03
    -34.351  0.0000E+00  0.0000E+00  0.1120E+03  0.1120E+03
    -34.110  0.0000E+00  0.0000E+00  0.1120E+03  0.1120E+03
    -33.870  0.0000E+00  0.0000E+00  0.1120E+03  0.1120E+03
    -33.629  0.0000E+00  0.0000E+00  0.1120E+03  0.1120E+03
    -33.388  0.0000E+00  0.0000E+00  0.1120E+03  0.1120E+03
    -33.147  0.0000E+00  0.0000E+00  0.1120E+03  0.1120E+03
    -32.906  0.0000E+00  0.0000E+00  0.1120E+03  0.1120E+03
    -32.665  0.0000E+00  0.0000E+00  0.1120E+03  0.1120E+03
    -32.424  0.0000E+00  0.0000E+00  0.1120E+03  0.1120E+03
    -32.184  0.0000E+00  0.0000E+00  0.1120E+03  0.1120E+03
    -31.943  0.0000E+00  0.0000E+00  0.1120E+03  0.1120E+03
    -31.702  0.0000E+00  0.0000E+00  0.1120E+03  0.1120E+03
    -31.461  0.0000E+00  0.0000E+00  0.1120E+03  0.1120E+03
    -31.220  0.0000E+00  0.0000E+00  0.1120E+03  0.1120E+03
    -30.979  0.0000E+00  0.0000E+00  0.1120E+03  0.1120E+03
    -30.738  0.0000E+00  0.0000E+00  0.1120E+03  0.1120E+03
    -30.498  0.0000E+00  0.0000E+00  0.1120E+03  0.1120E+03
    -30.257  0.0000E+00  0.0000E+00  0.1120E+03  0.1120E+03
    -30.016  0.0000E+00  0.0000E+00  0.1120E+03  0.1120E+03
    -29.775  0.0000E+00  0.0000E+00  0.1120E+03  0.1120E+03
    -29.534  0.0000E+00  0.0000E+00  0.1120E+03  0.1120E+03
    -29.293  0.0000E+00  0.0000E+00  0.1120E+03  0.1120E+03
    -29.052  0.0000E+00  0.0000E+00  0.1120E+03  0.1120E+03
    -28.812  0.0000E+00  0.0000E+00  0.1120E+03  0.1120E+03
    -28.571  0.0000E+00  0.0000E+00  0.1120E+03  0.1120E+03
    -28.330  0.0000E+00  0.0000E+00  0.1120E+03  0.1120E+03
    -28.089  0.0000E+00  0.0000E+00  0.1120E+03  0.1120E+03
    -27.848  0.0000E+00  0.0000E+00  0.1120E+03  0.1120E+03
    -27.607  0.0000E+00  0.0000E+00  0.1120E+03  0.1120E+03
    -27.366  0.0000E+00  0.0000E+00  0.1120E+03  0.1120E+03
    -27.126  0.0000E+00  0.0000E+00  0.1120E+03  0.1120E+03
    -26.885  0.0000E+00  0.0000E+00  0.1120E+03  0.1120E+03
    -26.644  0.0000E+00  0.0000E+00  0.1120E+03  0.1120E+03
    -26.403  0.0000E+00  0.0000E+00  0.1120E+03  0.1120E+03
    -26.162  0.0000E+00  0.0000E+00  0.1120E+03  0.1120E+03
    -25.921  0.0000E+00  0.0000E+00  0.1120E+03  0.1120E+03
    -25.681  0.0000E+00  0.0000E+00  0.1120E+03  0.1120E+03
    -25.440  0.0000E+00  0.0000E+00  0.1120E+03  0.1120E+03
    -25.199  0.0000E+00  0.0000E+00  0.1120E+03  0.1120E+03
    -24.958  0.0000E+00  0.0000E+00  0.1120E+03  0.1120E+03
    -24.717  0.0000E+00  0.0000E+00  0.1120E+03  0.1120E+03
    -24.476  0.0000E+00  0.0000E+00  0.1120E+03  0.1120E+03
    -24.235  0.0000E+00  0.0000E+00  0.1120E+03  0.1120E+03
    -23.995  0.0000E+00  0.0000E+00  0.1120E+03  0.1120E+03
    -23.754  0.0000E+00  0.0000E+00  0.1120E+03  0.1120E+03
    -23.513  0.0000E+00  0.0000E+00  0.1120E+03  0.1120E+03
    -23.272  0.0000E+00  0.0000E+00  0.1120E+03  0.1120E+03
    -23.031  0.0000E+00  0.0000E+00  0.1120E+03  0.1120E+03
    -22.790  0.0000E+00  0.0000E+00  0.1120E+03  0.1120E+03
    -22.549  0.0000E+00  0.0000E+00  0.1120E+03  0.1120E+03
    -22.309  0.0000E+00  0.0000E+00  0.1120E+03  0.1120E+03
    -22.068  0.0000E+00  0.0000E+00  0.1120E+03  0.1120E+03
    -21.827  0.0000E+00  0.0000E+00  0.1120E+03  0.1120E+03
    -21.586  0.0000E+00  0.0000E+00  0.1120E+03  0.1120E+03
    -21.345  0.0000E+00  0.0000E+00  0.1120E+03  0.1120E+03
    -21.104  0.0000E+00  0.0000E+00  0.1120E+03  0.1120E+03
    -20.863  0.0000E+00  0.0000E+00  0.1120E+03  0.1120E+03
    -20.623  0.0000E+00  0.0000E+00  0.1120E+03  0.1120E+03
    -20.382  0.0000E+00  0.0000E+00  0.1120E+03  0.1120E+03
    -20.141  0.0000E+00  0.0000E+00  0.1120E+03  0.1120E+03
    -19.900  0.0000E+00  0.0000E+00  0.1120E+03  0.1120E+03
    -19.659  0.0000E+00  0.0000E+00  0.1120E+03  0.1120E+03
    -19.418  0.0000E+00  0.0000E+00  0.1120E+03  0.1120E+03
    -19.177  0.0000E+00  0.0000E+00  0.1120E+03  0.1120E+03
    -18.937  0.0000E+00  0.0000E+00  0.1120E+03  0.1120E+03
    -18.696  0.0000E+00  0.0000E+00  0.1120E+03  0.1120E+03
    -18.455  0.0000E+00  0.0000E+00  0.1120E+03  0.1120E+03
    -18.214  0.0000E+00  0.0000E+00  0.1120E+03  0.1120E+03
    -17.973  0.0000E+00  0.0000E+00  0.1120E+03  0.1120E+03
    -17.732  0.0000E+00  0.0000E+00  0.1120E+03  0.1120E+03
    -17.491  0.0000E+00  0.0000E+00  0.1120E+03  0.1120E+03
    -17.251  0.0000E+00  0.0000E+00  0.1120E+03  0.1120E+03
    -17.010  0.0000E+00  0.0000E+00  0.1120E+03  0.1120E+03
    -16.769  0.0000E+00  0.0000E+00  0.1120E+03  0.1120E+03
    -16.528  0.0000E+00  0.0000E+00  0.1120E+03  0.1120E+03
    -16.287  0.0000E+00  0.0000E+00  0.1120E+03  0.1120E+03
    -16.046  0.0000E+00  0.0000E+00  0.1120E+03  0.1120E+03
    -15.805  0.0000E+00  0.0000E+00  0.1120E+03  0.1120E+03
    -15.565  0.0000E+00  0.0000E+00  0.1120E+03  0.1120E+03
    -15.324  0.0000E+00  0.0000E+00  0.1120E+03  0.1120E+03
    -15.083  0.0000E+00  0.0000E+00  0.1120E+03  0.1120E+03
    -14.842  0.0000E+00  0.0000E+00  0.1120E+03  0.1120E+03
    -14.601  0.0000E+00  0.0000E+00  0.1120E+03  0.1120E+03
    -14.360  0.0000E+00  0.0000E+00  0.1120E+03  0.1120E+03
    -14.120  0.0000E+00  0.0000E+00  0.1120E+03  0.1120E+03
    -13.879  0.0000E+00  0.0000E+00  0.1120E+03  0.1120E+03
    -13.638  0.0000E+00  0.0000E+00  0.1120E+03  0.1120E+03
    -13.397  0.1238E-05  0.0000E+00  0.1120E+03  0.1120E+03
    -13.156  0.2002E+02  0.0000E+00  0.1168E+03  0.1120E+03
    -12.915  0.4525E+02  0.1225E-01  0.1277E+03  0.1120E+03
    -12.674  0.1159E+01  0.4345E+02  0.1280E+03  0.1225E+03
    -12.434  0.0000E+00  0.2297E+02  0.1280E+03  0.1280E+03
    -12.193  0.0000E+00  0.0000E+00  0.1280E+03  0.1280E+03
    -11.952  0.0000E+00  0.0000E+00  0.1280E+03  0.1280E+03
    -11.711  0.0000E+00  0.0000E+00  0.1280E+03  0.1280E+03
    -11.470  0.0000E+00  0.0000E+00  0.1280E+03  0.1280E+03
    -11.229  0.0000E+00  0.0000E+00  0.1280E+03  0.1280E+03
    -10.988  0.0000E+00  0.0000E+00  0.1280E+03  0.1280E+03
    -10.748  0.0000E+00  0.0000E+00  0.1280E+03  0.1280E+03
    -10.507  0.0000E+00  0.0000E+00  0.1280E+03  0.1280E+03
    -10.266  0.0000E+00  0.0000E+00  0.1280E+03  0.1280E+03
    -10.025  0.0000E+00  0.0000E+00  0.1280E+03  0.1280E+03
     -9.784  0.0000E+00  0.0000E+00  0.1280E+03  0.1280E+03
     -9.543  0.0000E+00  0.0000E+00  0.1280E+03  0.1280E+03
     -9.302  0.0000E+00  0.0000E+00  0.1280E+03  0.1280E+03
     -9.062  0.0000E+00  0.0000E+00  0.1280E+03  0.1280E+03
     -8.821  0.0000E+00  0.0000E+00  0.1280E+03  0.1280E+03
     -8.580  0.0000E+00  0.0000E+00  0.1280E+03  0.1280E+03
     -8.339  0.0000E+00  0.0000E+00  0.1280E+03  0.1280E+03
     -8.098  0.0000E+00  0.0000E+00  0.1280E+03  0.1280E+03
     -7.857  0.1622E-09  0.0000E+00  0.1280E+03  0.1280E+03
     -7.616  0.6587E+00  0.3029E-10  0.1282E+03  0.1280E+03
     -7.376  0.1300E+02  0.5877E+00  0.1313E+03  0.1281E+03
     -7.135  0.3024E+02  0.1430E+02  0.1386E+03  0.1316E+03
     -6.894  0.3478E+02  0.2939E+02  0.1470E+03  0.1387E+03
     -6.653  0.2097E+02  0.2666E+02  0.1520E+03  0.1451E+03
     -6.412  0.1147E-04  0.2867E+02  0.1520E+03  0.1520E+03
     -6.171  0.0000E+00  0.4070E-01  0.1520E+03  0.1520E+03
     -5.930  0.0000E+00  0.0000E+00  0.1520E+03  0.1520E+03
     -5.690  0.0000E+00  0.0000E+00  0.1520E+03  0.1520E+03
     -5.449  0.0000E+00  0.0000E+00  0.1520E+03  0.1520E+03
     -5.208  0.0000E+00  0.0000E+00  0.1520E+03  0.1520E+03
     -4.967  0.0000E+00  0.0000E+00  0.1520E+03  0.1520E+03
     -4.726  0.0000E+00  0.0000E+00  0.1520E+03  0.1520E+03
     -4.485  0.0000E+00  0.0000E+00  0.1520E+03  0.1520E+03
     -4.244  0.0000E+00  0.0000E+00  0.1520E+03  0.1520E+03
     -4.004  0.0000E+00  0.0000E+00  0.1520E+03  0.1520E+03
     -3.763  0.0000E+00  0.0000E+00  0.1520E+03  0.1520E+03
     -3.522  0.0000E+00  0.0000E+00  0.1520E+03  0.1520E+03
     -3.281  0.0000E+00  0.0000E+00  0.1520E+03  0.1520E+03
     -3.040  0.0000E+00  0.0000E+00  0.1520E+03  0.1520E+03
     -2.799  0.0000E+00  0.0000E+00  0.1520E+03  0.1520E+03
     -2.559  0.0000E+00  0.0000E+00  0.1520E+03  0.1520E+03
     -2.318  0.0000E+00  0.0000E+00  0.1520E+03  0.1520E+03
     -2.077  0.4743E-04  0.0000E+00  0.1520E+03  0.1520E+03
     -1.836  0.1658E+02  0.0000E+00  0.1560E+03  0.1520E+03
     -1.595  0.1933E+02  0.0000E+00  0.1606E+03  0.1520E+03
     -1.354  0.1463E+02  0.0000E+00  0.1642E+03  0.1520E+03
     -1.113  0.1730E+02  0.0000E+00  0.1683E+03  0.1520E+03
     -0.873  0.4654E+02  0.0000E+00  0.1795E+03  0.1520E+03
     -0.632  0.5911E+02  0.1898E-05  0.1938E+03  0.1520E+03
     -0.391  0.3873E+02  0.4566E+01  0.2031E+03  0.1531E+03
     -0.150  0.6847E+02  0.2031E+02  0.2196E+03  0.1580E+03
      0.091  0.7347E+02  0.1226E+02  0.2373E+03  0.1609E+03
      0.332  0.7764E+02  0.1878E+02  0.2560E+03  0.1655E+03
      0.573  0.7005E+02  0.2967E+02  0.2729E+03  0.1726E+03
      0.813  0.5465E+02  0.3940E+02  0.2860E+03  0.1821E+03
      1.054  0.3630E+02  0.3729E+02  0.2948E+03  0.1911E+03
      1.295  0.3076E+02  0.3084E+02  0.3022E+03  0.1985E+03
      1.536  0.4503E+02  0.2083E+02  0.3130E+03  0.2035E+03
      1.777  0.4287E+02  0.2879E+02  0.3234E+03  0.2105E+03
      2.018  0.6912E+02  0.3733E+02  0.3400E+03  0.2195E+03
      2.259  0.5682E+02  0.2708E+02  0.3537E+03  0.2260E+03
      2.499  0.2704E+02  0.2709E+02  0.3602E+03  0.2325E+03
      2.740  0.4281E+02  0.3131E+02  0.3705E+03  0.2400E+03
      2.981  0.2929E+02  0.4462E+02  0.3776E+03  0.2508E+03
      3.222  0.8738E+01  0.4543E+02  0.3797E+03  0.2617E+03
      3.463  0.2852E+02  0.3138E+02  0.3865E+03  0.2693E+03
      3.704  0.2684E+02  0.1217E+02  0.3930E+03  0.2722E+03
      3.945  0.3114E+02  0.1836E+02  0.4005E+03  0.2766E+03
      4.185  0.3590E+02  0.5211E+02  0.4092E+03  0.2892E+03
      4.426  0.3639E+02  0.4536E+02  0.4179E+03  0.3001E+03
      4.667  0.3004E+02  0.1609E+02  0.4252E+03  0.3040E+03
      4.908  0.2562E+02  0.2947E-02  0.4313E+03  0.3040E+03
      5.149  0.2782E+01  0.0000E+00  0.4320E+03  0.3040E+03
      5.390  0.0000E+00  0.0000E+00  0.4320E+03  0.3040E+03
      5.631  0.0000E+00  0.0000E+00  0.4320E+03  0.3040E+03
      5.871  0.0000E+00  0.0000E+00  0.4320E+03  0.3040E+03
      6.112  0.0000E+00  0.1016E-08  0.4320E+03  0.3040E+03
      6.353  0.0000E+00  0.4368E+00  0.4320E+03  0.3041E+03
      6.594  0.0000E+00  0.4214E+01  0.4320E+03  0.3051E+03
      6.835  0.0000E+00  0.8019E+01  0.4320E+03  0.3071E+03
      7.076  0.2697E-14  0.1987E+02  0.4320E+03  0.3118E+03
      7.317  0.3412E-01  0.4458E+02  0.4320E+03  0.3226E+03
      7.557  0.1196E+00  0.5387E+02  0.4320E+03  0.3356E+03
      7.798  0.2841E+00  0.6300E+02  0.4321E+03  0.3507E+03
      8.039  0.7086E+00  0.6624E+02  0.4323E+03  0.3667E+03
      8.280  0.2227E+01  0.7043E+02  0.4328E+03  0.3836E+03
      8.521  0.2657E+01  0.5865E+02  0.4335E+03  0.3978E+03
      8.762  0.8974E+01  0.5882E+02  0.4356E+03  0.4119E+03
      9.003  0.1263E+02  0.4710E+02  0.4387E+03  0.4233E+03
      9.243  0.1316E+02  0.2927E+02  0.4418E+03  0.4303E+03
      9.484  0.1813E+02  0.8636E+01  0.4462E+03  0.4324E+03
      9.725  0.1613E+02  0.3158E+01  0.4501E+03  0.4332E+03
      9.966  0.1574E+02  0.8458E+01  0.4539E+03  0.4352E+03
     10.207  0.2248E+02  0.1884E+02  0.4593E+03  0.4397E+03
     10.448  0.1487E+02  0.1797E+02  0.4629E+03  0.4441E+03
     10.688  0.1523E+02  0.1732E+02  0.4665E+03  0.4482E+03
     10.929  0.1334E+02  0.2754E+02  0.4697E+03  0.4549E+03
     11.170  0.2070E+02  0.1895E+02  0.4747E+03  0.4594E+03
     11.411  0.2503E+02  0.2408E+02  0.4808E+03  0.4652E+03
     11.652  0.2700E+02  0.1448E+02  0.4873E+03  0.4687E+03
     11.893  0.2498E+02  0.1390E+02  0.4933E+03  0.4721E+03
     12.134  0.3315E+02  0.1631E+02  0.5013E+03  0.4760E+03
     12.374  0.1982E+02  0.3721E+02  0.5060E+03  0.4850E+03
     12.615  0.2309E+02  0.3248E+02  0.5116E+03  0.4928E+03
     12.856  0.2154E+02  0.2940E+02  0.5168E+03  0.4999E+03
     13.097  0.2001E+02  0.2019E+02  0.5216E+03  0.5047E+03
     13.338  0.2441E+02  0.2249E+02  0.5275E+03  0.5101E+03
     13.579  0.2387E+02  0.2727E+02  0.5332E+03  0.5167E+03
     13.820  0.1326E+02  0.2373E+02  0.5364E+03  0.5224E+03
     14.060  0.6523E+01  0.2616E+02  0.5380E+03  0.5287E+03
     14.301  0.1099E-01  0.1914E+02  0.5380E+03  0.5333E+03
     14.542  0.0000E+00  0.1635E+02  0.5380E+03  0.5373E+03
     14.783  0.0000E+00  0.2993E+01  0.5380E+03  0.5380E+03
     15.024  0.0000E+00  0.2240E-05  0.5380E+03  0.5380E+03
     15.265  0.0000E+00  0.0000E+00  0.5380E+03  0.5380E+03
     15.506  0.0000E+00  0.0000E+00  0.5380E+03  0.5380E+03
     15.746  0.0000E+00  0.0000E+00  0.5380E+03  0.5380E+03
     15.987  0.0000E+00  0.0000E+00  0.5380E+03  0.5380E+03
     16.228  0.0000E+00  0.0000E+00  0.5380E+03  0.5380E+03
     16.469  0.0000E+00  0.0000E+00  0.5380E+03  0.5380E+03
     16.710  0.0000E+00  0.0000E+00  0.5380E+03  0.5380E+03
     16.951  0.0000E+00  0.0000E+00  0.5380E+03  0.5380E+03
     17.192  0.0000E+00  0.0000E+00  0.5380E+03  0.5380E+03
     17.432  0.0000E+00  0.0000E+00  0.5380E+03  0.5380E+03
     17.673  0.0000E+00  0.0000E+00  0.5380E+03  0.5380E+03
     17.914  0.0000E+00  0.0000E+00  0.5380E+03  0.5380E+03
