 160 160   0   0
  0.1215613E+02  0.1537564E-08  0.1124787E-08  0.1124760E-08  0.5000000E-15
  1.000000000000000E-004
  CAR 
 unknown system                          
     17.04871049    -54.79180109  301      4.89569062      1.00000000
    -54.792  0.0000E+00  0.0000E+00  0.0000E+00  0.0000E+00
    -54.552  0.0000E+00  0.0000E+00  0.0000E+00  0.0000E+00
    -54.313  0.0000E+00  0.0000E+00  0.0000E+00  0.0000E+00
    -54.073  0.0000E+00  0.0000E+00  0.0000E+00  0.0000E+00
    -53.834  0.0000E+00  0.0000E+00  0.0000E+00  0.0000E+00
    -53.594  0.0000E+00  0.0000E+00  0.0000E+00  0.0000E+00
    -53.355  0.0000E+00  0.0000E+00  0.0000E+00  0.0000E+00
    -53.116  0.0000E+00  0.0000E+00  0.0000E+00  0.0000E+00
    -52.876  0.0000E+00  0.0000E+00  0.0000E+00  0.0000E+00
    -52.637  0.0000E+00  0.0000E+00  0.0000E+00  0.0000E+00
    -52.397  0.0000E+00  0.0000E+00  0.0000E+00  0.0000E+00
    -52.158  0.0000E+00  0.0000E+00  0.0000E+00  0.0000E+00
    -51.918  0.0000E+00  0.0000E+00  0.0000E+00  0.0000E+00
    -51.679  0.3130E-03  0.0000E+00  0.7496E-04  0.0000E+00
    -51.439  0.8078E+02  0.0000E+00  0.1934E+02  0.0000E+00
    -51.200  0.5285E+02  0.0000E+00  0.3200E+02  0.0000E+00
    -50.960  0.0000E+00  0.0000E+00  0.3200E+02  0.0000E+00
    -50.721  0.0000E+00  0.0000E+00  0.3200E+02  0.0000E+00
    -50.481  0.3910E-13  0.0000E+00  0.3200E+02  0.0000E+00
    -50.242  0.7142E+01  0.0000E+00  0.3371E+02  0.0000E+00
    -50.002  0.1658E+03  0.0000E+00  0.7342E+02  0.0000E+00
    -49.763  0.9430E+02  0.0000E+00  0.9600E+02  0.0000E+00
    -49.523  0.0000E+00  0.0000E+00  0.9600E+02  0.0000E+00
    -49.284  0.0000E+00  0.0000E+00  0.9600E+02  0.0000E+00
    -49.045  0.0000E+00  0.0000E+00  0.9600E+02  0.0000E+00
    -48.805  0.0000E+00  0.0000E+00  0.9600E+02  0.0000E+00
    -48.566  0.0000E+00  0.0000E+00  0.9600E+02  0.0000E+00
    -48.326  0.0000E+00  0.0000E+00  0.9600E+02  0.0000E+00
    -48.087  0.0000E+00  0.0000E+00  0.9600E+02  0.0000E+00
    -47.847  0.0000E+00  0.0000E+00  0.9600E+02  0.0000E+00
    -47.608  0.0000E+00  0.0000E+00  0.9600E+02  0.0000E+00
    -47.368  0.0000E+00  0.0000E+00  0.9600E+02  0.0000E+00
    -47.129  0.0000E+00  0.0000E+00  0.9600E+02  0.0000E+00
    -46.889  0.0000E+00  0.1691E+00  0.9600E+02  0.4048E-01
    -46.650  0.0000E+00  0.1047E+03  0.9600E+02  0.2512E+02
    -46.410  0.0000E+00  0.1041E+03  0.9600E+02  0.5004E+02
    -46.171  0.0000E+00  0.1916E+03  0.9600E+02  0.9591E+02
    -45.931  0.0000E+00  0.3623E+00  0.9600E+02  0.9600E+02
    -45.692  0.0000E+00  0.0000E+00  0.9600E+02  0.9600E+02
    -45.453  0.0000E+00  0.0000E+00  0.9600E+02  0.9600E+02
    -45.213  0.0000E+00  0.0000E+00  0.9600E+02  0.9600E+02
    -44.974  0.0000E+00  0.0000E+00  0.9600E+02  0.9600E+02
    -44.734  0.0000E+00  0.0000E+00  0.9600E+02  0.9600E+02
    -44.495  0.0000E+00  0.0000E+00  0.9600E+02  0.9600E+02
    -44.255  0.0000E+00  0.0000E+00  0.9600E+02  0.9600E+02
    -44.016  0.0000E+00  0.0000E+00  0.9600E+02  0.9600E+02
    -43.776  0.0000E+00  0.0000E+00  0.9600E+02  0.9600E+02
    -43.537  0.0000E+00  0.0000E+00  0.9600E+02  0.9600E+02
    -43.297  0.0000E+00  0.0000E+00  0.9600E+02  0.9600E+02
    -43.058  0.0000E+00  0.0000E+00  0.9600E+02  0.9600E+02
    -42.818  0.0000E+00  0.0000E+00  0.9600E+02  0.9600E+02
    -42.579  0.0000E+00  0.0000E+00  0.9600E+02  0.9600E+02
    -42.339  0.0000E+00  0.0000E+00  0.9600E+02  0.9600E+02
    -42.100  0.0000E+00  0.0000E+00  0.9600E+02  0.9600E+02
    -41.861  0.0000E+00  0.0000E+00  0.9600E+02  0.9600E+02
    -41.621  0.0000E+00  0.0000E+00  0.9600E+02  0.9600E+02
    -41.382  0.0000E+00  0.0000E+00  0.9600E+02  0.9600E+02
    -41.142  0.0000E+00  0.0000E+00  0.9600E+02  0.9600E+02
    -40.903  0.0000E+00  0.0000E+00  0.9600E+02  0.9600E+02
    -40.663  0.2318E-15  0.2318E-15  0.9600E+02  0.9600E+02
    -40.424  0.3374E+01  0.2961E+01  0.9681E+02  0.9671E+02
    -40.184  0.1776E+03  0.1800E+03  0.1393E+03  0.1398E+03
    -39.945  0.8633E+02  0.8431E+02  0.1600E+03  0.1600E+03
    -39.705  0.0000E+00  0.0000E+00  0.1600E+03  0.1600E+03
    -39.466  0.0000E+00  0.0000E+00  0.1600E+03  0.1600E+03
    -39.226  0.0000E+00  0.0000E+00  0.1600E+03  0.1600E+03
    -38.987  0.0000E+00  0.0000E+00  0.1600E+03  0.1600E+03
    -38.747  0.0000E+00  0.0000E+00  0.1600E+03  0.1600E+03
    -38.508  0.0000E+00  0.0000E+00  0.1600E+03  0.1600E+03
    -38.268  0.0000E+00  0.0000E+00  0.1600E+03  0.1600E+03
    -38.029  0.0000E+00  0.0000E+00  0.1600E+03  0.1600E+03
    -37.790  0.0000E+00  0.0000E+00  0.1600E+03  0.1600E+03
    -37.550  0.0000E+00  0.0000E+00  0.1600E+03  0.1600E+03
    -37.311  0.0000E+00  0.0000E+00  0.1600E+03  0.1600E+03
    -37.071  0.0000E+00  0.0000E+00  0.1600E+03  0.1600E+03
    -36.832  0.0000E+00  0.0000E+00  0.1600E+03  0.1600E+03
    -36.592  0.0000E+00  0.0000E+00  0.1600E+03  0.1600E+03
    -36.353  0.0000E+00  0.0000E+00  0.1600E+03  0.1600E+03
    -36.113  0.0000E+00  0.0000E+00  0.1600E+03  0.1600E+03
    -35.874  0.0000E+00  0.0000E+00  0.1600E+03  0.1600E+03
    -35.634  0.0000E+00  0.0000E+00  0.1600E+03  0.1600E+03
    -35.395  0.0000E+00  0.0000E+00  0.1600E+03  0.1600E+03
    -35.155  0.0000E+00  0.0000E+00  0.1600E+03  0.1600E+03
    -34.916  0.0000E+00  0.0000E+00  0.1600E+03  0.1600E+03
    -34.676  0.0000E+00  0.0000E+00  0.1600E+03  0.1600E+03
    -34.437  0.0000E+00  0.0000E+00  0.1600E+03  0.1600E+03
    -34.198  0.0000E+00  0.0000E+00  0.1600E+03  0.1600E+03
    -33.958  0.0000E+00  0.0000E+00  0.1600E+03  0.1600E+03
    -33.719  0.0000E+00  0.0000E+00  0.1600E+03  0.1600E+03
    -33.479  0.0000E+00  0.0000E+00  0.1600E+03  0.1600E+03
    -33.240  0.0000E+00  0.0000E+00  0.1600E+03  0.1600E+03
    -33.000  0.0000E+00  0.0000E+00  0.1600E+03  0.1600E+03
    -32.761  0.0000E+00  0.0000E+00  0.1600E+03  0.1600E+03
    -32.521  0.0000E+00  0.0000E+00  0.1600E+03  0.1600E+03
    -32.282  0.0000E+00  0.0000E+00  0.1600E+03  0.1600E+03
    -32.042  0.0000E+00  0.0000E+00  0.1600E+03  0.1600E+03
    -31.803  0.0000E+00  0.0000E+00  0.1600E+03  0.1600E+03
    -31.563  0.0000E+00  0.0000E+00  0.1600E+03  0.1600E+03
    -31.324  0.0000E+00  0.0000E+00  0.1600E+03  0.1600E+03
    -31.084  0.0000E+00  0.0000E+00  0.1600E+03  0.1600E+03
    -30.845  0.0000E+00  0.0000E+00  0.1600E+03  0.1600E+03
    -30.605  0.0000E+00  0.0000E+00  0.1600E+03  0.1600E+03
    -30.366  0.0000E+00  0.0000E+00  0.1600E+03  0.1600E+03
    -30.127  0.0000E+00  0.0000E+00  0.1600E+03  0.1600E+03
    -29.887  0.0000E+00  0.0000E+00  0.1600E+03  0.1600E+03
    -29.648  0.0000E+00  0.0000E+00  0.1600E+03  0.1600E+03
    -29.408  0.0000E+00  0.0000E+00  0.1600E+03  0.1600E+03
    -29.169  0.0000E+00  0.0000E+00  0.1600E+03  0.1600E+03
    -28.929  0.0000E+00  0.0000E+00  0.1600E+03  0.1600E+03
    -28.690  0.0000E+00  0.0000E+00  0.1600E+03  0.1600E+03
    -28.450  0.0000E+00  0.0000E+00  0.1600E+03  0.1600E+03
    -28.211  0.0000E+00  0.0000E+00  0.1600E+03  0.1600E+03
    -27.971  0.0000E+00  0.0000E+00  0.1600E+03  0.1600E+03
    -27.732  0.0000E+00  0.0000E+00  0.1600E+03  0.1600E+03
    -27.492  0.0000E+00  0.0000E+00  0.1600E+03  0.1600E+03
    -27.253  0.0000E+00  0.0000E+00  0.1600E+03  0.1600E+03
    -27.013  0.0000E+00  0.0000E+00  0.1600E+03  0.1600E+03
    -26.774  0.0000E+00  0.0000E+00  0.1600E+03  0.1600E+03
    -26.535  0.0000E+00  0.0000E+00  0.1600E+03  0.1600E+03
    -26.295  0.0000E+00  0.0000E+00  0.1600E+03  0.1600E+03
    -26.056  0.0000E+00  0.0000E+00  0.1600E+03  0.1600E+03
    -25.816  0.0000E+00  0.0000E+00  0.1600E+03  0.1600E+03
    -25.577  0.0000E+00  0.0000E+00  0.1600E+03  0.1600E+03
    -25.337  0.0000E+00  0.0000E+00  0.1600E+03  0.1600E+03
    -25.098  0.0000E+00  0.0000E+00  0.1600E+03  0.1600E+03
    -24.858  0.0000E+00  0.0000E+00  0.1600E+03  0.1600E+03
    -24.619  0.0000E+00  0.0000E+00  0.1600E+03  0.1600E+03
    -24.379  0.0000E+00  0.0000E+00  0.1600E+03  0.1600E+03
    -24.140  0.0000E+00  0.0000E+00  0.1600E+03  0.1600E+03
    -23.900  0.0000E+00  0.0000E+00  0.1600E+03  0.1600E+03
    -23.661  0.0000E+00  0.0000E+00  0.1600E+03  0.1600E+03
    -23.421  0.0000E+00  0.0000E+00  0.1600E+03  0.1600E+03
    -23.182  0.0000E+00  0.0000E+00  0.1600E+03  0.1600E+03
    -22.943  0.0000E+00  0.0000E+00  0.1600E+03  0.1600E+03
    -22.703  0.0000E+00  0.0000E+00  0.1600E+03  0.1600E+03
    -22.464  0.0000E+00  0.0000E+00  0.1600E+03  0.1600E+03
    -22.224  0.0000E+00  0.0000E+00  0.1600E+03  0.1600E+03
    -21.985  0.0000E+00  0.0000E+00  0.1600E+03  0.1600E+03
    -21.745  0.0000E+00  0.0000E+00  0.1600E+03  0.1600E+03
    -21.506  0.0000E+00  0.0000E+00  0.1600E+03  0.1600E+03
    -21.266  0.0000E+00  0.0000E+00  0.1600E+03  0.1600E+03
    -21.027  0.0000E+00  0.0000E+00  0.1600E+03  0.1600E+03
    -20.787  0.0000E+00  0.0000E+00  0.1600E+03  0.1600E+03
    -20.548  0.0000E+00  0.0000E+00  0.1600E+03  0.1600E+03
    -20.308  0.0000E+00  0.0000E+00  0.1600E+03  0.1600E+03
    -20.069  0.0000E+00  0.0000E+00  0.1600E+03  0.1600E+03
    -19.829  0.0000E+00  0.0000E+00  0.1600E+03  0.1600E+03
    -19.590  0.0000E+00  0.0000E+00  0.1600E+03  0.1600E+03
    -19.350  0.0000E+00  0.0000E+00  0.1600E+03  0.1600E+03
    -19.111  0.0000E+00  0.0000E+00  0.1600E+03  0.1600E+03
    -18.872  0.0000E+00  0.0000E+00  0.1600E+03  0.1600E+03
    -18.632  0.0000E+00  0.0000E+00  0.1600E+03  0.1600E+03
    -18.393  0.0000E+00  0.0000E+00  0.1600E+03  0.1600E+03
    -18.153  0.0000E+00  0.0000E+00  0.1600E+03  0.1600E+03
    -17.914  0.0000E+00  0.0000E+00  0.1600E+03  0.1600E+03
    -17.674  0.0000E+00  0.0000E+00  0.1600E+03  0.1600E+03
    -17.435  0.0000E+00  0.0000E+00  0.1600E+03  0.1600E+03
    -17.195  0.0000E+00  0.0000E+00  0.1600E+03  0.1600E+03
    -16.956  0.0000E+00  0.0000E+00  0.1600E+03  0.1600E+03
    -16.716  0.0000E+00  0.0000E+00  0.1600E+03  0.1600E+03
    -16.477  0.0000E+00  0.0000E+00  0.1600E+03  0.1600E+03
    -16.237  0.0000E+00  0.0000E+00  0.1600E+03  0.1600E+03
    -15.998  0.0000E+00  0.0000E+00  0.1600E+03  0.1600E+03
    -15.758  0.0000E+00  0.0000E+00  0.1600E+03  0.1600E+03
    -15.519  0.0000E+00  0.0000E+00  0.1600E+03  0.1600E+03
    -15.280  0.0000E+00  0.0000E+00  0.1600E+03  0.1600E+03
    -15.040  0.0000E+00  0.0000E+00  0.1600E+03  0.1600E+03
    -14.801  0.0000E+00  0.0000E+00  0.1600E+03  0.1600E+03
    -14.561  0.0000E+00  0.0000E+00  0.1600E+03  0.1600E+03
    -14.322  0.0000E+00  0.0000E+00  0.1600E+03  0.1600E+03
    -14.082  0.0000E+00  0.0000E+00  0.1600E+03  0.1600E+03
    -13.843  0.0000E+00  0.0000E+00  0.1600E+03  0.1600E+03
    -13.603  0.1704E-01  0.0000E+00  0.1600E+03  0.1600E+03
    -13.364  0.5267E+02  0.1778E-05  0.1726E+03  0.1600E+03
    -13.124  0.7227E+02  0.2846E+02  0.1899E+03  0.1668E+03
    -12.885  0.8675E+01  0.1002E+03  0.1920E+03  0.1908E+03
    -12.645  0.0000E+00  0.4943E+01  0.1920E+03  0.1920E+03
    -12.406  0.0000E+00  0.0000E+00  0.1920E+03  0.1920E+03
    -12.166  0.0000E+00  0.0000E+00  0.1920E+03  0.1920E+03
    -11.927  0.0000E+00  0.0000E+00  0.1920E+03  0.1920E+03
    -11.687  0.0000E+00  0.0000E+00  0.1920E+03  0.1920E+03
    -11.448  0.0000E+00  0.0000E+00  0.1920E+03  0.1920E+03
    -11.209  0.0000E+00  0.0000E+00  0.1920E+03  0.1920E+03
    -10.969  0.0000E+00  0.0000E+00  0.1920E+03  0.1920E+03
    -10.730  0.0000E+00  0.0000E+00  0.1920E+03  0.1920E+03
    -10.490  0.0000E+00  0.0000E+00  0.1920E+03  0.1920E+03
    -10.251  0.0000E+00  0.0000E+00  0.1920E+03  0.1920E+03
    -10.011  0.0000E+00  0.0000E+00  0.1920E+03  0.1920E+03
     -9.772  0.0000E+00  0.0000E+00  0.1920E+03  0.1920E+03
     -9.532  0.0000E+00  0.0000E+00  0.1920E+03  0.1920E+03
     -9.293  0.0000E+00  0.0000E+00  0.1920E+03  0.1920E+03
     -9.053  0.0000E+00  0.0000E+00  0.1920E+03  0.1920E+03
     -8.814  0.0000E+00  0.0000E+00  0.1920E+03  0.1920E+03
     -8.574  0.0000E+00  0.0000E+00  0.1920E+03  0.1920E+03
     -8.335  0.0000E+00  0.0000E+00  0.1920E+03  0.1920E+03
     -8.095  0.0000E+00  0.0000E+00  0.1920E+03  0.1920E+03
     -7.856  0.3569E-10  0.0000E+00  0.1920E+03  0.1920E+03
     -7.617  0.1492E+01  0.3530E-07  0.1924E+03  0.1920E+03
     -7.377  0.4658E+02  0.7481E+01  0.2035E+03  0.1938E+03
     -7.138  0.6534E+02  0.6066E+02  0.2192E+03  0.2083E+03
     -6.898  0.2021E+02  0.5451E+02  0.2240E+03  0.2214E+03
     -6.659  0.1077E-01  0.1098E+02  0.2240E+03  0.2240E+03
     -6.419  0.0000E+00  0.4015E-02  0.2240E+03  0.2240E+03
     -6.180  0.0000E+00  0.0000E+00  0.2240E+03  0.2240E+03
     -5.940  0.0000E+00  0.0000E+00  0.2240E+03  0.2240E+03
     -5.701  0.0000E+00  0.0000E+00  0.2240E+03  0.2240E+03
     -5.461  0.0000E+00  0.0000E+00  0.2240E+03  0.2240E+03
     -5.222  0.0000E+00  0.0000E+00  0.2240E+03  0.2240E+03
     -4.982  0.0000E+00  0.0000E+00  0.2240E+03  0.2240E+03
     -4.743  0.0000E+00  0.0000E+00  0.2240E+03  0.2240E+03
     -4.503  0.0000E+00  0.0000E+00  0.2240E+03  0.2240E+03
     -4.264  0.0000E+00  0.0000E+00  0.2240E+03  0.2240E+03
     -4.025  0.0000E+00  0.0000E+00  0.2240E+03  0.2240E+03
     -3.785  0.0000E+00  0.0000E+00  0.2240E+03  0.2240E+03
     -3.546  0.0000E+00  0.0000E+00  0.2240E+03  0.2240E+03
     -3.306  0.0000E+00  0.0000E+00  0.2240E+03  0.2240E+03
     -3.067  0.0000E+00  0.0000E+00  0.2240E+03  0.2240E+03
     -2.827  0.3735E-15  0.0000E+00  0.2240E+03  0.2240E+03
     -2.588  0.3822E+00  0.0000E+00  0.2241E+03  0.2240E+03
     -2.348  0.3085E+02  0.0000E+00  0.2315E+03  0.2240E+03
     -2.109  0.1154E+02  0.0000E+00  0.2342E+03  0.2240E+03
     -1.869  0.1290E+02  0.0000E+00  0.2373E+03  0.2240E+03
     -1.630  0.1133E+02  0.0000E+00  0.2400E+03  0.2240E+03
     -1.390  0.1560E+02  0.0000E+00  0.2438E+03  0.2240E+03
     -1.151  0.6274E+02  0.2023E-05  0.2588E+03  0.2240E+03
     -0.911  0.7648E+02  0.3342E+01  0.2771E+03  0.2248E+03
     -0.672  0.6754E+02  0.3285E+02  0.2933E+03  0.2327E+03
     -0.432  0.7776E+02  0.1891E+02  0.3119E+03  0.2372E+03
     -0.193  0.1060E+03  0.1910E+02  0.3373E+03  0.2418E+03
      0.046  0.7874E+02  0.1220E+02  0.3562E+03  0.2447E+03
      0.286  0.5348E+02  0.3168E+02  0.3690E+03  0.2523E+03
      0.525  0.4755E+02  0.8127E+02  0.3804E+03  0.2717E+03
      0.765  0.4627E+02  0.6835E+02  0.3914E+03  0.2881E+03
      1.004  0.4661E+02  0.6982E+02  0.4026E+03  0.3048E+03
      1.244  0.7666E+02  0.6354E+02  0.4210E+03  0.3200E+03
      1.483  0.8761E+02  0.2169E+02  0.4419E+03  0.3252E+03
      1.723  0.5836E+02  0.5068E+02  0.4559E+03  0.3374E+03
      1.962  0.4006E+02  0.5158E+02  0.4655E+03  0.3497E+03
      2.202  0.4713E+02  0.3062E+02  0.4768E+03  0.3571E+03
      2.441  0.4169E+02  0.3899E+02  0.4868E+03  0.3664E+03
      2.681  0.5331E+02  0.6454E+02  0.4995E+03  0.3819E+03
      2.920  0.5381E+02  0.7223E+02  0.5124E+03  0.3991E+03
      3.160  0.5659E+02  0.6009E+02  0.5260E+03  0.4135E+03
      3.399  0.5308E+02  0.1614E+02  0.5387E+03  0.4174E+03
      3.638  0.5331E+02  0.3608E+02  0.5515E+03  0.4260E+03
      3.878  0.3995E+02  0.5941E+02  0.5610E+03  0.4403E+03
      4.117  0.3550E+02  0.3223E+02  0.5695E+03  0.4480E+03
      4.357  0.1927E+02  0.4537E-01  0.5741E+03  0.4480E+03
      4.596  0.7451E+01  0.0000E+00  0.5759E+03  0.4480E+03
      4.836  0.3256E+00  0.0000E+00  0.5760E+03  0.4480E+03
      5.075  0.0000E+00  0.0000E+00  0.5760E+03  0.4480E+03
      5.315  0.0000E+00  0.0000E+00  0.5760E+03  0.4480E+03
      5.554  0.0000E+00  0.0000E+00  0.5760E+03  0.4480E+03
      5.794  0.0000E+00  0.0000E+00  0.5760E+03  0.4480E+03
      6.033  0.0000E+00  0.0000E+00  0.5760E+03  0.4480E+03
      6.273  0.0000E+00  0.1545E-15  0.5760E+03  0.4480E+03
      6.512  0.0000E+00  0.6535E-01  0.5760E+03  0.4480E+03
      6.752  0.0000E+00  0.2418E+02  0.5760E+03  0.4538E+03
      6.991  0.6459E-06  0.7764E+02  0.5760E+03  0.4724E+03
      7.231  0.2290E+00  0.6327E+02  0.5761E+03  0.4875E+03
      7.470  0.1846E+00  0.6379E+02  0.5761E+03  0.5028E+03
      7.709  0.1388E+01  0.6309E+02  0.5764E+03  0.5179E+03
      7.949  0.3011E+01  0.9494E+02  0.5772E+03  0.5407E+03
      8.188  0.6540E+01  0.7283E+02  0.5787E+03  0.5581E+03
      8.428  0.9480E+01  0.4923E+02  0.5810E+03  0.5699E+03
      8.667  0.1871E+02  0.2507E+02  0.5855E+03  0.5759E+03
      8.907  0.2337E+02  0.7269E+01  0.5911E+03  0.5776E+03
      9.146  0.3138E+02  0.8594E+01  0.5986E+03  0.5797E+03
      9.386  0.2850E+02  0.1779E+02  0.6054E+03  0.5840E+03
      9.625  0.2980E+02  0.2681E+02  0.6125E+03  0.5904E+03
      9.865  0.2621E+02  0.3189E+02  0.6188E+03  0.5980E+03
     10.104  0.1756E+02  0.3784E+02  0.6230E+03  0.6071E+03
     10.344  0.2594E+02  0.3351E+02  0.6292E+03  0.6151E+03
     10.583  0.3627E+02  0.2857E+02  0.6379E+03  0.6219E+03
     10.823  0.4024E+02  0.3307E+02  0.6476E+03  0.6299E+03
     11.062  0.3297E+02  0.2823E+02  0.6555E+03  0.6366E+03
     11.301  0.4923E+02  0.2601E+02  0.6672E+03  0.6429E+03
     11.541  0.4117E+02  0.2919E+02  0.6771E+03  0.6498E+03
     11.780  0.4153E+02  0.5090E+02  0.6870E+03  0.6620E+03
     12.020  0.3403E+02  0.5025E+02  0.6952E+03  0.6741E+03
     12.259  0.3279E+02  0.5608E+02  0.7031E+03  0.6875E+03
     12.499  0.3250E+02  0.3155E+02  0.7108E+03  0.6951E+03
     12.738  0.3681E+02  0.3266E+02  0.7196E+03  0.7029E+03
     12.978  0.3451E+02  0.3215E+02  0.7279E+03  0.7106E+03
     13.217  0.1563E+02  0.3813E+02  0.7317E+03  0.7197E+03
     13.457  0.1086E+01  0.3354E+02  0.7319E+03  0.7277E+03
     13.696  0.3632E+00  0.1701E+02  0.7320E+03  0.7318E+03
     13.936  0.0000E+00  0.7771E+00  0.7320E+03  0.7320E+03
     14.175  0.0000E+00  0.3475E-05  0.7320E+03  0.7320E+03
     14.415  0.0000E+00  0.0000E+00  0.7320E+03  0.7320E+03
     14.654  0.0000E+00  0.0000E+00  0.7320E+03  0.7320E+03
     14.893  0.0000E+00  0.0000E+00  0.7320E+03  0.7320E+03
     15.133  0.0000E+00  0.0000E+00  0.7320E+03  0.7320E+03
     15.372  0.0000E+00  0.0000E+00  0.7320E+03  0.7320E+03
     15.612  0.0000E+00  0.0000E+00  0.7320E+03  0.7320E+03
     15.851  0.0000E+00  0.0000E+00  0.7320E+03  0.7320E+03
     16.091  0.0000E+00  0.0000E+00  0.7320E+03  0.7320E+03
     16.330  0.0000E+00  0.0000E+00  0.7320E+03  0.7320E+03
     16.570  0.0000E+00  0.0000E+00  0.7320E+03  0.7320E+03
     16.809  0.0000E+00  0.0000E+00  0.7320E+03  0.7320E+03
     17.049  0.0000E+00  0.0000E+00  0.7320E+03  0.7320E+03
