  99  99   0   0
  0.1430410E+02  0.1177748E-08  0.1177748E-08  0.1058004E-08  0.5000000E-15
  1.000000000000000E-004
  CAR 
 unknown system                          
     17.99176419    -54.33905259  301      5.27359557      1.00000000
    -54.339  0.0000E+00  0.0000E+00  0.0000E+00  0.0000E+00
    -54.098  0.0000E+00  0.0000E+00  0.0000E+00  0.0000E+00
    -53.857  0.0000E+00  0.0000E+00  0.0000E+00  0.0000E+00
    -53.616  0.0000E+00  0.0000E+00  0.0000E+00  0.0000E+00
    -53.375  0.0000E+00  0.0000E+00  0.0000E+00  0.0000E+00
    -53.134  0.0000E+00  0.0000E+00  0.0000E+00  0.0000E+00
    -52.892  0.0000E+00  0.0000E+00  0.0000E+00  0.0000E+00
    -52.651  0.0000E+00  0.0000E+00  0.0000E+00  0.0000E+00
    -52.410  0.0000E+00  0.0000E+00  0.0000E+00  0.0000E+00
    -52.169  0.0000E+00  0.0000E+00  0.0000E+00  0.0000E+00
    -51.928  0.0000E+00  0.0000E+00  0.0000E+00  0.0000E+00
    -51.687  0.0000E+00  0.0000E+00  0.0000E+00  0.0000E+00
    -51.446  0.0000E+00  0.0000E+00  0.0000E+00  0.0000E+00
    -51.205  0.4475E-03  0.0000E+00  0.1079E-03  0.0000E+00
    -50.964  0.1472E+03  0.0000E+00  0.3549E+02  0.0000E+00
    -50.723  0.2104E+01  0.0000E+00  0.3600E+02  0.0000E+00
    -50.481  0.0000E+00  0.0000E+00  0.3600E+02  0.0000E+00
    -50.240  0.0000E+00  0.0000E+00  0.3600E+02  0.0000E+00
    -49.999  0.0000E+00  0.0000E+00  0.3600E+02  0.0000E+00
    -49.758  0.2051E+01  0.0000E+00  0.3649E+02  0.0000E+00
    -49.517  0.2717E+03  0.0000E+00  0.1020E+03  0.0000E+00
    -49.276  0.2492E+02  0.0000E+00  0.1080E+03  0.0000E+00
    -49.035  0.0000E+00  0.0000E+00  0.1080E+03  0.0000E+00
    -48.794  0.0000E+00  0.0000E+00  0.1080E+03  0.0000E+00
    -48.553  0.0000E+00  0.0000E+00  0.1080E+03  0.0000E+00
    -48.311  0.0000E+00  0.0000E+00  0.1080E+03  0.0000E+00
    -48.070  0.0000E+00  0.0000E+00  0.1080E+03  0.0000E+00
    -47.829  0.0000E+00  0.0000E+00  0.1080E+03  0.0000E+00
    -47.588  0.0000E+00  0.0000E+00  0.1080E+03  0.0000E+00
    -47.347  0.0000E+00  0.0000E+00  0.1080E+03  0.0000E+00
    -47.106  0.0000E+00  0.0000E+00  0.1080E+03  0.0000E+00
    -46.865  0.0000E+00  0.0000E+00  0.1080E+03  0.0000E+00
    -46.624  0.0000E+00  0.0000E+00  0.1080E+03  0.0000E+00
    -46.383  0.0000E+00  0.4532E+00  0.1080E+03  0.1093E+00
    -46.142  0.0000E+00  0.1488E+03  0.1080E+03  0.3600E+02
    -45.900  0.0000E+00  0.7493E+02  0.1080E+03  0.5406E+02
    -45.659  0.0000E+00  0.2237E+03  0.1080E+03  0.1080E+03
    -45.418  0.0000E+00  0.0000E+00  0.1080E+03  0.1080E+03
    -45.177  0.0000E+00  0.0000E+00  0.1080E+03  0.1080E+03
    -44.936  0.0000E+00  0.0000E+00  0.1080E+03  0.1080E+03
    -44.695  0.0000E+00  0.0000E+00  0.1080E+03  0.1080E+03
    -44.454  0.0000E+00  0.0000E+00  0.1080E+03  0.1080E+03
    -44.213  0.0000E+00  0.0000E+00  0.1080E+03  0.1080E+03
    -43.972  0.0000E+00  0.0000E+00  0.1080E+03  0.1080E+03
    -43.731  0.0000E+00  0.0000E+00  0.1080E+03  0.1080E+03
    -43.489  0.0000E+00  0.0000E+00  0.1080E+03  0.1080E+03
    -43.248  0.0000E+00  0.0000E+00  0.1080E+03  0.1080E+03
    -43.007  0.0000E+00  0.0000E+00  0.1080E+03  0.1080E+03
    -42.766  0.0000E+00  0.0000E+00  0.1080E+03  0.1080E+03
    -42.525  0.0000E+00  0.0000E+00  0.1080E+03  0.1080E+03
    -42.284  0.0000E+00  0.0000E+00  0.1080E+03  0.1080E+03
    -42.043  0.0000E+00  0.0000E+00  0.1080E+03  0.1080E+03
    -41.802  0.0000E+00  0.0000E+00  0.1080E+03  0.1080E+03
    -41.561  0.0000E+00  0.0000E+00  0.1080E+03  0.1080E+03
    -41.320  0.0000E+00  0.0000E+00  0.1080E+03  0.1080E+03
    -41.078  0.0000E+00  0.0000E+00  0.1080E+03  0.1080E+03
    -40.837  0.0000E+00  0.0000E+00  0.1080E+03  0.1080E+03
    -40.596  0.0000E+00  0.0000E+00  0.1080E+03  0.1080E+03
    -40.355  0.0000E+00  0.0000E+00  0.1080E+03  0.1080E+03
    -40.114  0.5109E-10  0.3336E-10  0.1080E+03  0.1080E+03
    -39.873  0.2908E+02  0.2742E+02  0.1150E+03  0.1146E+03
    -39.632  0.4557E+02  0.4724E+02  0.1260E+03  0.1260E+03
    -39.391  0.0000E+00  0.0000E+00  0.1260E+03  0.1260E+03
    -39.150  0.0000E+00  0.0000E+00  0.1260E+03  0.1260E+03
    -38.908  0.0000E+00  0.0000E+00  0.1260E+03  0.1260E+03
    -38.667  0.0000E+00  0.0000E+00  0.1260E+03  0.1260E+03
    -38.426  0.0000E+00  0.0000E+00  0.1260E+03  0.1260E+03
    -38.185  0.0000E+00  0.0000E+00  0.1260E+03  0.1260E+03
    -37.944  0.0000E+00  0.0000E+00  0.1260E+03  0.1260E+03
    -37.703  0.0000E+00  0.0000E+00  0.1260E+03  0.1260E+03
    -37.462  0.0000E+00  0.0000E+00  0.1260E+03  0.1260E+03
    -37.221  0.0000E+00  0.0000E+00  0.1260E+03  0.1260E+03
    -36.980  0.0000E+00  0.0000E+00  0.1260E+03  0.1260E+03
    -36.739  0.0000E+00  0.0000E+00  0.1260E+03  0.1260E+03
    -36.497  0.0000E+00  0.0000E+00  0.1260E+03  0.1260E+03
    -36.256  0.0000E+00  0.0000E+00  0.1260E+03  0.1260E+03
    -36.015  0.0000E+00  0.0000E+00  0.1260E+03  0.1260E+03
    -35.774  0.0000E+00  0.0000E+00  0.1260E+03  0.1260E+03
    -35.533  0.0000E+00  0.0000E+00  0.1260E+03  0.1260E+03
    -35.292  0.0000E+00  0.0000E+00  0.1260E+03  0.1260E+03
    -35.051  0.0000E+00  0.0000E+00  0.1260E+03  0.1260E+03
    -34.810  0.0000E+00  0.0000E+00  0.1260E+03  0.1260E+03
    -34.569  0.0000E+00  0.0000E+00  0.1260E+03  0.1260E+03
    -34.328  0.0000E+00  0.0000E+00  0.1260E+03  0.1260E+03
    -34.086  0.0000E+00  0.0000E+00  0.1260E+03  0.1260E+03
    -33.845  0.0000E+00  0.0000E+00  0.1260E+03  0.1260E+03
    -33.604  0.0000E+00  0.0000E+00  0.1260E+03  0.1260E+03
    -33.363  0.0000E+00  0.0000E+00  0.1260E+03  0.1260E+03
    -33.122  0.0000E+00  0.0000E+00  0.1260E+03  0.1260E+03
    -32.881  0.0000E+00  0.0000E+00  0.1260E+03  0.1260E+03
    -32.640  0.0000E+00  0.0000E+00  0.1260E+03  0.1260E+03
    -32.399  0.0000E+00  0.0000E+00  0.1260E+03  0.1260E+03
    -32.158  0.0000E+00  0.0000E+00  0.1260E+03  0.1260E+03
    -31.916  0.0000E+00  0.0000E+00  0.1260E+03  0.1260E+03
    -31.675  0.0000E+00  0.0000E+00  0.1260E+03  0.1260E+03
    -31.434  0.0000E+00  0.0000E+00  0.1260E+03  0.1260E+03
    -31.193  0.0000E+00  0.0000E+00  0.1260E+03  0.1260E+03
    -30.952  0.0000E+00  0.0000E+00  0.1260E+03  0.1260E+03
    -30.711  0.0000E+00  0.0000E+00  0.1260E+03  0.1260E+03
    -30.470  0.0000E+00  0.0000E+00  0.1260E+03  0.1260E+03
    -30.229  0.0000E+00  0.0000E+00  0.1260E+03  0.1260E+03
    -29.988  0.0000E+00  0.0000E+00  0.1260E+03  0.1260E+03
    -29.747  0.0000E+00  0.0000E+00  0.1260E+03  0.1260E+03
    -29.505  0.0000E+00  0.0000E+00  0.1260E+03  0.1260E+03
    -29.264  0.0000E+00  0.0000E+00  0.1260E+03  0.1260E+03
    -29.023  0.0000E+00  0.0000E+00  0.1260E+03  0.1260E+03
    -28.782  0.0000E+00  0.0000E+00  0.1260E+03  0.1260E+03
    -28.541  0.0000E+00  0.0000E+00  0.1260E+03  0.1260E+03
    -28.300  0.0000E+00  0.0000E+00  0.1260E+03  0.1260E+03
    -28.059  0.0000E+00  0.0000E+00  0.1260E+03  0.1260E+03
    -27.818  0.0000E+00  0.0000E+00  0.1260E+03  0.1260E+03
    -27.577  0.0000E+00  0.0000E+00  0.1260E+03  0.1260E+03
    -27.336  0.0000E+00  0.0000E+00  0.1260E+03  0.1260E+03
    -27.094  0.0000E+00  0.0000E+00  0.1260E+03  0.1260E+03
    -26.853  0.0000E+00  0.0000E+00  0.1260E+03  0.1260E+03
    -26.612  0.0000E+00  0.0000E+00  0.1260E+03  0.1260E+03
    -26.371  0.0000E+00  0.0000E+00  0.1260E+03  0.1260E+03
    -26.130  0.0000E+00  0.0000E+00  0.1260E+03  0.1260E+03
    -25.889  0.0000E+00  0.0000E+00  0.1260E+03  0.1260E+03
    -25.648  0.0000E+00  0.0000E+00  0.1260E+03  0.1260E+03
    -25.407  0.0000E+00  0.0000E+00  0.1260E+03  0.1260E+03
    -25.166  0.0000E+00  0.0000E+00  0.1260E+03  0.1260E+03
    -24.925  0.0000E+00  0.0000E+00  0.1260E+03  0.1260E+03
    -24.683  0.0000E+00  0.0000E+00  0.1260E+03  0.1260E+03
    -24.442  0.0000E+00  0.0000E+00  0.1260E+03  0.1260E+03
    -24.201  0.0000E+00  0.0000E+00  0.1260E+03  0.1260E+03
    -23.960  0.0000E+00  0.0000E+00  0.1260E+03  0.1260E+03
    -23.719  0.0000E+00  0.0000E+00  0.1260E+03  0.1260E+03
    -23.478  0.0000E+00  0.0000E+00  0.1260E+03  0.1260E+03
    -23.237  0.0000E+00  0.0000E+00  0.1260E+03  0.1260E+03
    -22.996  0.0000E+00  0.0000E+00  0.1260E+03  0.1260E+03
    -22.755  0.0000E+00  0.0000E+00  0.1260E+03  0.1260E+03
    -22.513  0.0000E+00  0.0000E+00  0.1260E+03  0.1260E+03
    -22.272  0.0000E+00  0.0000E+00  0.1260E+03  0.1260E+03
    -22.031  0.0000E+00  0.0000E+00  0.1260E+03  0.1260E+03
    -21.790  0.0000E+00  0.0000E+00  0.1260E+03  0.1260E+03
    -21.549  0.0000E+00  0.0000E+00  0.1260E+03  0.1260E+03
    -21.308  0.0000E+00  0.0000E+00  0.1260E+03  0.1260E+03
    -21.067  0.0000E+00  0.0000E+00  0.1260E+03  0.1260E+03
    -20.826  0.0000E+00  0.0000E+00  0.1260E+03  0.1260E+03
    -20.585  0.0000E+00  0.0000E+00  0.1260E+03  0.1260E+03
    -20.344  0.0000E+00  0.0000E+00  0.1260E+03  0.1260E+03
    -20.102  0.0000E+00  0.0000E+00  0.1260E+03  0.1260E+03
    -19.861  0.0000E+00  0.0000E+00  0.1260E+03  0.1260E+03
    -19.620  0.0000E+00  0.0000E+00  0.1260E+03  0.1260E+03
    -19.379  0.0000E+00  0.0000E+00  0.1260E+03  0.1260E+03
    -19.138  0.0000E+00  0.0000E+00  0.1260E+03  0.1260E+03
    -18.897  0.0000E+00  0.0000E+00  0.1260E+03  0.1260E+03
    -18.656  0.0000E+00  0.0000E+00  0.1260E+03  0.1260E+03
    -18.415  0.0000E+00  0.0000E+00  0.1260E+03  0.1260E+03
    -18.174  0.0000E+00  0.0000E+00  0.1260E+03  0.1260E+03
    -17.933  0.0000E+00  0.0000E+00  0.1260E+03  0.1260E+03
    -17.691  0.0000E+00  0.0000E+00  0.1260E+03  0.1260E+03
    -17.450  0.0000E+00  0.0000E+00  0.1260E+03  0.1260E+03
    -17.209  0.0000E+00  0.0000E+00  0.1260E+03  0.1260E+03
    -16.968  0.0000E+00  0.0000E+00  0.1260E+03  0.1260E+03
    -16.727  0.0000E+00  0.0000E+00  0.1260E+03  0.1260E+03
    -16.486  0.0000E+00  0.0000E+00  0.1260E+03  0.1260E+03
    -16.245  0.0000E+00  0.0000E+00  0.1260E+03  0.1260E+03
    -16.004  0.0000E+00  0.0000E+00  0.1260E+03  0.1260E+03
    -15.763  0.0000E+00  0.0000E+00  0.1260E+03  0.1260E+03
    -15.522  0.0000E+00  0.0000E+00  0.1260E+03  0.1260E+03
    -15.280  0.0000E+00  0.0000E+00  0.1260E+03  0.1260E+03
    -15.039  0.0000E+00  0.0000E+00  0.1260E+03  0.1260E+03
    -14.798  0.0000E+00  0.0000E+00  0.1260E+03  0.1260E+03
    -14.557  0.0000E+00  0.0000E+00  0.1260E+03  0.1260E+03
    -14.316  0.0000E+00  0.0000E+00  0.1260E+03  0.1260E+03
    -14.075  0.0000E+00  0.0000E+00  0.1260E+03  0.1260E+03
    -13.834  0.0000E+00  0.0000E+00  0.1260E+03  0.1260E+03
    -13.593  0.0000E+00  0.0000E+00  0.1260E+03  0.1260E+03
    -13.352  0.3662E-02  0.0000E+00  0.1260E+03  0.1260E+03
    -13.110  0.3610E+02  0.4878E-14  0.1347E+03  0.1260E+03
    -12.869  0.3853E+02  0.1249E+01  0.1440E+03  0.1263E+03
    -12.628  0.2787E-01  0.6499E+02  0.1440E+03  0.1420E+03
    -12.387  0.0000E+00  0.8414E+01  0.1440E+03  0.1440E+03
    -12.146  0.0000E+00  0.0000E+00  0.1440E+03  0.1440E+03
    -11.905  0.0000E+00  0.0000E+00  0.1440E+03  0.1440E+03
    -11.664  0.0000E+00  0.0000E+00  0.1440E+03  0.1440E+03
    -11.423  0.0000E+00  0.0000E+00  0.1440E+03  0.1440E+03
    -11.182  0.0000E+00  0.0000E+00  0.1440E+03  0.1440E+03
    -10.941  0.0000E+00  0.0000E+00  0.1440E+03  0.1440E+03
    -10.699  0.0000E+00  0.0000E+00  0.1440E+03  0.1440E+03
    -10.458  0.0000E+00  0.0000E+00  0.1440E+03  0.1440E+03
    -10.217  0.0000E+00  0.0000E+00  0.1440E+03  0.1440E+03
     -9.976  0.0000E+00  0.0000E+00  0.1440E+03  0.1440E+03
     -9.735  0.0000E+00  0.0000E+00  0.1440E+03  0.1440E+03
     -9.494  0.0000E+00  0.0000E+00  0.1440E+03  0.1440E+03
     -9.253  0.0000E+00  0.0000E+00  0.1440E+03  0.1440E+03
     -9.012  0.0000E+00  0.0000E+00  0.1440E+03  0.1440E+03
     -8.771  0.0000E+00  0.0000E+00  0.1440E+03  0.1440E+03
     -8.530  0.0000E+00  0.0000E+00  0.1440E+03  0.1440E+03
     -8.288  0.0000E+00  0.0000E+00  0.1440E+03  0.1440E+03
     -8.047  0.0000E+00  0.0000E+00  0.1440E+03  0.1440E+03
     -7.806  0.4476E-08  0.0000E+00  0.1440E+03  0.1440E+03
     -7.565  0.1284E+01  0.7434E-09  0.1443E+03  0.1440E+03
     -7.324  0.2128E+02  0.1170E+01  0.1494E+03  0.1443E+03
     -7.083  0.3053E+02  0.2333E+02  0.1568E+03  0.1499E+03
     -6.842  0.3918E+02  0.2869E+02  0.1662E+03  0.1568E+03
     -6.601  0.1970E+02  0.2946E+02  0.1710E+03  0.1639E+03
     -6.360  0.0000E+00  0.2932E+02  0.1710E+03  0.1710E+03
     -6.119  0.0000E+00  0.1390E-01  0.1710E+03  0.1710E+03
     -5.877  0.0000E+00  0.0000E+00  0.1710E+03  0.1710E+03
     -5.636  0.0000E+00  0.0000E+00  0.1710E+03  0.1710E+03
     -5.395  0.0000E+00  0.0000E+00  0.1710E+03  0.1710E+03
     -5.154  0.0000E+00  0.0000E+00  0.1710E+03  0.1710E+03
     -4.913  0.0000E+00  0.0000E+00  0.1710E+03  0.1710E+03
     -4.672  0.0000E+00  0.0000E+00  0.1710E+03  0.1710E+03
     -4.431  0.0000E+00  0.0000E+00  0.1710E+03  0.1710E+03
     -4.190  0.0000E+00  0.0000E+00  0.1710E+03  0.1710E+03
     -3.949  0.0000E+00  0.0000E+00  0.1710E+03  0.1710E+03
     -3.707  0.0000E+00  0.0000E+00  0.1710E+03  0.1710E+03
     -3.466  0.0000E+00  0.0000E+00  0.1710E+03  0.1710E+03
     -3.225  0.0000E+00  0.0000E+00  0.1710E+03  0.1710E+03
     -2.984  0.0000E+00  0.0000E+00  0.1710E+03  0.1710E+03
     -2.743  0.0000E+00  0.0000E+00  0.1710E+03  0.1710E+03
     -2.502  0.0000E+00  0.0000E+00  0.1710E+03  0.1710E+03
     -2.261  0.0000E+00  0.0000E+00  0.1710E+03  0.1710E+03
     -2.020  0.1159E+00  0.0000E+00  0.1710E+03  0.1710E+03
     -1.779  0.2827E+02  0.0000E+00  0.1778E+03  0.1710E+03
     -1.538  0.1825E+02  0.0000E+00  0.1822E+03  0.1710E+03
     -1.296  0.1520E+02  0.0000E+00  0.1859E+03  0.1710E+03
     -1.055  0.2493E+02  0.0000E+00  0.1919E+03  0.1710E+03
     -0.814  0.5762E+02  0.0000E+00  0.2058E+03  0.1710E+03
     -0.573  0.6229E+02  0.4350E-02  0.2208E+03  0.1710E+03
     -0.332  0.4323E+02  0.1296E+02  0.2313E+03  0.1741E+03
     -0.091  0.8153E+02  0.1916E+02  0.2509E+03  0.1787E+03
      0.150  0.9144E+02  0.1418E+02  0.2730E+03  0.1822E+03
      0.391  0.8186E+02  0.2414E+02  0.2927E+03  0.1880E+03
      0.632  0.7316E+02  0.3447E+02  0.3103E+03  0.1963E+03
      0.873  0.5612E+02  0.4682E+02  0.3239E+03  0.2076E+03
      1.115  0.3720E+02  0.4025E+02  0.3328E+03  0.2173E+03
      1.356  0.3891E+02  0.3209E+02  0.3422E+03  0.2250E+03
      1.597  0.4858E+02  0.2603E+02  0.3539E+03  0.2313E+03
      1.838  0.5901E+02  0.3264E+02  0.3681E+03  0.2392E+03
      2.079  0.7707E+02  0.4095E+02  0.3867E+03  0.2490E+03
      2.320  0.5534E+02  0.2536E+02  0.4001E+03  0.2552E+03
      2.561  0.3380E+02  0.3014E+02  0.4082E+03  0.2624E+03
      2.802  0.5076E+02  0.4270E+02  0.4205E+03  0.2727E+03
      3.043  0.1939E+02  0.4757E+02  0.4251E+03  0.2842E+03
      3.284  0.1231E+02  0.4541E+02  0.4281E+03  0.2951E+03
      3.526  0.3885E+02  0.3751E+02  0.4375E+03  0.3042E+03
      3.767  0.2586E+02  0.6850E+01  0.4437E+03  0.3058E+03
      4.008  0.3948E+02  0.2901E+02  0.4532E+03  0.3128E+03
      4.249  0.3816E+02  0.7594E+02  0.4624E+03  0.3311E+03
      4.490  0.3892E+02  0.3700E+02  0.4718E+03  0.3401E+03
      4.731  0.3432E+02  0.8072E+01  0.4801E+03  0.3420E+03
      4.972  0.2276E+02  0.0000E+00  0.4856E+03  0.3420E+03
      5.213  0.1776E+01  0.0000E+00  0.4860E+03  0.3420E+03
      5.454  0.0000E+00  0.0000E+00  0.4860E+03  0.3420E+03
      5.696  0.0000E+00  0.0000E+00  0.4860E+03  0.3420E+03
      5.937  0.0000E+00  0.0000E+00  0.4860E+03  0.3420E+03
      6.178  0.0000E+00  0.1561E-06  0.4860E+03  0.3420E+03
      6.419  0.0000E+00  0.1803E+01  0.4860E+03  0.3424E+03
      6.660  0.0000E+00  0.5134E+01  0.4860E+03  0.3437E+03
      6.901  0.0000E+00  0.1248E+02  0.4860E+03  0.3467E+03
      7.142  0.2280E-10  0.2377E+02  0.4860E+03  0.3524E+03
      7.383  0.1072E+00  0.6145E+02  0.4860E+03  0.3672E+03
      7.624  0.4638E-01  0.6364E+02  0.4860E+03  0.3826E+03
      7.865  0.6164E+00  0.6304E+02  0.4862E+03  0.3978E+03
      8.107  0.9417E+00  0.7562E+02  0.4864E+03  0.4160E+03
      8.348  0.2607E+01  0.8221E+02  0.4870E+03  0.4358E+03
      8.589  0.4732E+01  0.6757E+02  0.4882E+03  0.4521E+03
      8.830  0.1048E+02  0.6329E+02  0.4907E+03  0.4674E+03
      9.071  0.1449E+02  0.4286E+02  0.4942E+03  0.4777E+03
      9.312  0.1828E+02  0.2967E+02  0.4986E+03  0.4849E+03
      9.553  0.1843E+02  0.7570E+01  0.5031E+03  0.4867E+03
      9.794  0.1693E+02  0.6324E+01  0.5071E+03  0.4882E+03
     10.035  0.2487E+02  0.1190E+02  0.5131E+03  0.4911E+03
     10.276  0.1700E+02  0.1913E+02  0.5172E+03  0.4957E+03
     10.518  0.2144E+02  0.2206E+02  0.5224E+03  0.5010E+03
     10.759  0.1214E+02  0.2287E+02  0.5253E+03  0.5065E+03
     11.000  0.1643E+02  0.2460E+02  0.5293E+03  0.5125E+03
     11.241  0.2411E+02  0.2873E+02  0.5351E+03  0.5194E+03
     11.482  0.3259E+02  0.2018E+02  0.5430E+03  0.5242E+03
     11.723  0.2761E+02  0.1700E+02  0.5496E+03  0.5283E+03
     11.964  0.3393E+02  0.1131E+02  0.5578E+03  0.5311E+03
     12.205  0.3475E+02  0.2843E+02  0.5662E+03  0.5379E+03
     12.446  0.2220E+02  0.4615E+02  0.5715E+03  0.5491E+03
     12.688  0.1945E+02  0.3486E+02  0.5762E+03  0.5575E+03
     12.929  0.2447E+02  0.2919E+02  0.5821E+03  0.5645E+03
     13.170  0.2723E+02  0.2079E+02  0.5887E+03  0.5695E+03
     13.411  0.2844E+02  0.2599E+02  0.5955E+03  0.5758E+03
     13.652  0.2421E+02  0.3251E+02  0.6014E+03  0.5836E+03
     13.893  0.1676E+02  0.2596E+02  0.6054E+03  0.5899E+03
     14.134  0.2446E+01  0.2520E+02  0.6060E+03  0.5960E+03
     14.375  0.1862E-05  0.2334E+02  0.6060E+03  0.6016E+03
     14.616  0.0000E+00  0.1709E+02  0.6060E+03  0.6057E+03
     14.857  0.0000E+00  0.1233E+01  0.6060E+03  0.6060E+03
     15.099  0.0000E+00  0.2192E-05  0.6060E+03  0.6060E+03
     15.340  0.0000E+00  0.0000E+00  0.6060E+03  0.6060E+03
     15.581  0.0000E+00  0.0000E+00  0.6060E+03  0.6060E+03
     15.822  0.0000E+00  0.0000E+00  0.6060E+03  0.6060E+03
     16.063  0.0000E+00  0.0000E+00  0.6060E+03  0.6060E+03
     16.304  0.0000E+00  0.0000E+00  0.6060E+03  0.6060E+03
     16.545  0.0000E+00  0.0000E+00  0.6060E+03  0.6060E+03
     16.786  0.0000E+00  0.0000E+00  0.6060E+03  0.6060E+03
     17.027  0.0000E+00  0.0000E+00  0.6060E+03  0.6060E+03
     17.268  0.0000E+00  0.0000E+00  0.6060E+03  0.6060E+03
     17.510  0.0000E+00  0.0000E+00  0.6060E+03  0.6060E+03
     17.751  0.0000E+00  0.0000E+00  0.6060E+03  0.6060E+03
     17.992  0.0000E+00  0.0000E+00  0.6060E+03  0.6060E+03
