 vasp.5.4.4.18Apr17-6-g9f103f2a35 (build Oct 25 2017 14:42:18) complex          
  
 executed on             LinuxIFC date 2021.05.28  05:11:04
 running on   24 total cores
 distrk:  each k-point on   12 cores,    2 groups
 distr:  one band on NCORES_PER_BAND=   6 cores,    2 groups


--------------------------------------------------------------------------------------------------------


 INCAR:
 POTCAR:    PAW_PBE Li_sv 10Sep2004               
 POTCAR:    PAW_PBE O 08Apr2002                   
 POTCAR:    PAW_PBE S 06Sep2000                   
 POTCAR:    PAW_PBE Fe_pv 02Aug2007               

 ----------------------------------------------------------------------------- 
|                                                                             |
|           W    W    AA    RRRRR   N    N  II  N    N   GGGG   !!!           |
|           W    W   A  A   R    R  NN   N  II  NN   N  G    G  !!!           |
|           W    W  A    A  R    R  N N  N  II  N N  N  G       !!!           |
|           W WW W  AAAAAA  RRRRR   N  N N  II  N  N N  G  GGG   !            |
|           WW  WW  A    A  R   R   N   NN  II  N   NN  G    G                |
|           W    W  A    A  R    R  N    N  II  N    N   GGGG   !!!           |
|                                                                             |
|      You have enabled k-point parallelism (KPAR>1).                         |
|      This developmental code was originally  written by Paul Kent at ORNL,  |
|      and carefully double checked in Vienna.                                |
|      GW as well as linear response parallelism added by Martijn Marsman     |
|      and Georg Kresse.                                                      |
|      Carefully verify results versus KPAR=1.                                |
|      Report problems to Paul Kent and Vienna.                               |
|                                                                             |
 ----------------------------------------------------------------------------- 

 POTCAR:    PAW_PBE Li_sv 10Sep2004               
  local pseudopotential read in
  atomic valenz-charges read in
  non local Contribution for L=           0  read in
    real space projection operators read in
  non local Contribution for L=           0  read in
    real space projection operators read in
  non local Contribution for L=           1  read in
    real space projection operators read in
    PAW grid and wavefunctions read in
 
   number of l-projection  operators is LMAX  =           3
   number of lm-projection operators is LMMAX =           5
 
 POTCAR:    PAW_PBE O 08Apr2002                   
  local pseudopotential read in
  partial core-charges read in
  partial kinetic energy density read in
  kinetic energy density of atom read in
  atomic valenz-charges read in
  non local Contribution for L=           0  read in
    real space projection operators read in
  non local Contribution for L=           0  read in
    real space projection operators read in
  non local Contribution for L=           1  read in
    real space projection operators read in
  non local Contribution for L=           1  read in
    real space projection operators read in
    PAW grid and wavefunctions read in
 
   number of l-projection  operators is LMAX  =           4
   number of lm-projection operators is LMMAX =           8
 
 POTCAR:    PAW_PBE S 06Sep2000                   
  local pseudopotential read in
  partial core-charges read in
  partial kinetic energy density read in
  atomic valenz-charges read in
  non local Contribution for L=           0  read in
    real space projection operators read in
  non local Contribution for L=           0  read in
    real space projection operators read in
  non local Contribution for L=           1  read in
    real space projection operators read in
  non local Contribution for L=           1  read in
    real space projection operators read in
    PAW grid and wavefunctions read in
 
   number of l-projection  operators is LMAX  =           4
   number of lm-projection operators is LMMAX =           8
 
 POTCAR:    PAW_PBE Fe_pv 02Aug2007               
  local pseudopotential read in
  partial core-charges read in
  partial kinetic energy density read in
  atomic valenz-charges read in
  non local Contribution for L=           1  read in
    real space projection operators read in
  non local Contribution for L=           1  read in
    real space projection operators read in
  non local Contribution for L=           2  read in
    real space projection operators read in
  non local Contribution for L=           2  read in
    real space projection operators read in
  non local Contribution for L=           0  read in
    real space projection operators read in
  non local Contribution for L=           0  read in
    real space projection operators read in
    PAW grid and wavefunctions read in
 
   number of l-projection  operators is LMAX  =           6
   number of lm-projection operators is LMMAX =          18
 

 ----------------------------------------------------------------------------- 
|                                                                             |
|  ADVICE TO THIS USER RUNNING 'VASP/VAMP'   (HEAR YOUR MASTER'S VOICE ...):  |
|                                                                             |
|      You have a (more or less) 'large supercell' and for larger cells       |
|      it might be more efficient to use real space projection opertators     |
|      So try LREAL= Auto  in the INCAR   file.                               |
|      Mind:          For very  accurate calculation you might also keep the  |
|      reciprocal projection scheme          (i.e. LREAL=.FALSE.)             |
|                                                                             |
 ----------------------------------------------------------------------------- 

  PAW_PBE Li_sv 10Sep2004               :
 energy of atom  1       EATOM= -202.7858
 kinetic energy error for atom=    0.0072 (will be added to EATOM!!)
  PAW_PBE O 08Apr2002                   :
 energy of atom  2       EATOM= -432.3788
 kinetic energy error for atom=    0.0129 (will be added to EATOM!!)
  PAW_PBE S 06Sep2000                   :
 energy of atom  3       EATOM= -276.8230
 kinetic energy error for atom=    0.0008 (will be added to EATOM!!)
  PAW_PBE Fe_pv 02Aug2007               :
 energy of atom  4       EATOM=-2457.4239
 kinetic energy error for atom=    0.0041 (will be added to EATOM!!)
 
 
 POSCAR: # Compound: Li18O18S27Fe36. Old comment:
  positions in direct lattice
  No initial velocities read in
 exchange correlation table for  LEXCH =        8
   RHO(1)=    0.500       N(1)  =     2000
   RHO(2)=  100.500       N(2)  =     4000
 


--------------------------------------------------------------------------------------------------------


 ion  position               nearest neighbor table
   1  0.202  0.242  0.832-  31 1.98  28 1.99  56 2.61  55 2.61
   2  0.536  0.242  0.832-  32 1.98  29 1.99  57 2.61  56 2.61
   3  0.869  0.242  0.832-  33 1.98  30 1.99  55 2.61  57 2.61
   4  0.202  0.575  0.832-  34 1.98  31 1.99  59 2.61  58 2.61
   5  0.536  0.575  0.832-  35 1.98  32 1.99  60 2.61  59 2.61
   6  0.869  0.575  0.832-  36 1.98  33 1.99  58 2.61  60 2.61
   7  0.202  0.909  0.832-  28 1.98  34 1.99  62 2.61  61 2.61
   8  0.536  0.909  0.832-  29 1.98  35 1.99  63 2.61  62 2.61
   9  0.869  0.909  0.832-  30 1.98  36 1.99  61 2.61  63 2.61
  10  0.091  0.131  0.168-  21 1.98  19 1.99  61 2.61  55 2.61
  11  0.425  0.131  0.168-  19 1.98  20 1.99  62 2.61  56 2.61
  12  0.758  0.131  0.168-  20 1.98  21 1.99  63 2.61  57 2.61
  13  0.091  0.464  0.168-  24 1.98  22 1.99  55 2.61  58 2.61
  14  0.425  0.464  0.168-  22 1.98  23 1.99  56 2.61  59 2.61
  15  0.758  0.464  0.168-  23 1.98  24 1.99  57 2.61  60 2.61
  16  0.091  0.798  0.168-  27 1.98  25 1.99  58 2.61  61 2.61
  17  0.425  0.798  0.168-  25 1.98  26 1.99  59 2.61  62 2.61
  18  0.758  0.798  0.168-  26 1.98  27 1.99  60 2.61  63 2.61
  19  0.263  0.136  0.198-  11 1.98  10 1.99  64 2.00  97 2.01  91 2.02
  20  0.596  0.136  0.197-  12 1.98  11 1.99  98 2.01  65 2.01  92 2.01
  21  0.930  0.136  0.197-  10 1.98  12 1.99  99 2.01  66 2.01  93 2.01
  22  0.263  0.469  0.197-  14 1.98  13 1.99  91 2.01  67 2.01  94 2.01
  23  0.596  0.469  0.197-  15 1.98  14 1.99  92 2.01  68 2.01  95 2.01
  24  0.930  0.469  0.197-  13 1.98  15 1.99  93 2.01  69 2.01  96 2.01
  25  0.263  0.803  0.197-  17 1.98  16 1.99  94 2.01  70 2.01  97 2.01
  26  0.596  0.803  0.197-  18 1.98  17 1.99  95 2.01  71 2.01  98 2.01
  27  0.930  0.803  0.197-  16 1.98  18 1.99  96 2.01  72 2.01  99 2.01
  28  0.197  0.070  0.803-   7 1.98   1 1.99  83 2.01  73 2.01  82 2.01
  29  0.531  0.070  0.803-   8 1.98   2 1.99  84 2.01  74 2.01  83 2.01
  30  0.864  0.070  0.803-   9 1.98   3 1.99  82 2.01  75 2.01  84 2.01
  31  0.197  0.404  0.803-   1 1.98   4 1.99  86 2.01  76 2.01  85 2.01
  32  0.531  0.404  0.803-   2 1.98   5 1.99  87 2.01  77 2.01  86 2.01
  33  0.864  0.404  0.803-   3 1.98   6 1.99  85 2.01  78 2.01  87 2.01
  34  0.197  0.737  0.803-   4 1.98   7 1.99  89 2.01  79 2.01  88 2.01
  35  0.531  0.737  0.803-   5 1.98   8 1.99  90 2.01  80 2.01  89 2.01
  36  0.864  0.737  0.803-   6 1.98   9 1.99  88 2.01  81 2.01  90 2.01
  37  0.003  0.207  0.629-  66 2.41  73 2.70  75 2.76
  38  0.336  0.207  0.629-  64 2.41  74 2.70  73 2.76
  39  0.669  0.207  0.629-  65 2.41  75 2.70  74 2.76
  40  0.003  0.540  0.629-  69 2.41  76 2.70  78 2.76
  41  0.336  0.540  0.629-  67 2.41  77 2.70  76 2.76
  42  0.669  0.540  0.629-  68 2.41  78 2.70  77 2.76
  43  0.003  0.873  0.629-  72 2.41  79 2.70  81 2.76
  44  0.336  0.873  0.629-  70 2.41  80 2.70  79 2.76
  45  0.669  0.873  0.629-  71 2.41  81 2.70  80 2.76
  46  0.127  0.331  0.371-  76 2.41  64 2.70  67 2.76
  47  0.460  0.331  0.371-  77 2.41  65 2.70  68 2.76
  48  0.793  0.331  0.371-  78 2.41  66 2.70  69 2.76
  49  0.127  0.664  0.371-  79 2.41  67 2.70  70 2.76
  50  0.460  0.664  0.371-  80 2.41  68 2.70  71 2.76
  51  0.793  0.664  0.371-  81 2.41  69 2.70  72 2.76
  52  0.127  0.997  0.371-  73 2.41  70 2.70  64 2.76
  53  0.460  0.997  0.371-  74 2.41  71 2.70  65 2.76
  54  0.793  0.997  0.371-  75 2.41  72 2.70  66 2.76
  55  0.064  0.270  0.000-  85 2.52  93 2.52  82 2.52  91 2.52  13 2.61   3 2.61  10 2.61   1 2.61

  56  0.397  0.270  0.000-  86 2.52  91 2.52  83 2.52  92 2.52  14 2.61   1 2.61  11 2.61   2 2.61

  57  0.730  0.270  0.000-  87 2.52  92 2.52  84 2.52  93 2.52  15 2.61   2 2.61  12 2.61   3 2.61

  58  0.064  0.603  0.000-  88 2.52  96 2.52  85 2.52  94 2.52  16 2.61   6 2.61  13 2.61   4 2.61

  59  0.397  0.603  0.000-  89 2.52  94 2.52  86 2.52  95 2.52  17 2.61   4 2.61  14 2.61   5 2.61

  60  0.730  0.603  0.000-  90 2.52  95 2.52  87 2.52  96 2.52  18 2.61   5 2.61  15 2.61   6 2.61

  61  0.064  0.936  0.000-  82 2.52  99 2.52  88 2.52  97 2.52  10 2.61   9 2.61  16 2.61   7 2.61

  62  0.397  0.936  0.000-  83 2.52  97 2.52  89 2.52  98 2.52  11 2.61   7 2.61  17 2.61   8 2.61

  63  0.730  0.936  0.000-  84 2.52  98 2.52  90 2.52  99 2.52  12 2.61   8 2.61  18 2.61   9 2.61

  64  0.290  0.172  0.394-  19 2.00  38 2.41  46 2.70  52 2.76
  65  0.624  0.172  0.394-  20 2.01  39 2.41  47 2.70  53 2.76
  66  0.957  0.172  0.394-  21 2.01  37 2.41  48 2.70  54 2.76
  67  0.290  0.505  0.394-  22 2.01  41 2.41  49 2.70  46 2.76
  68  0.624  0.505  0.394-  23 2.01  42 2.41  50 2.70  47 2.76
  69  0.957  0.505  0.394-  24 2.01  40 2.41  51 2.70  48 2.76
  70  0.290  0.839  0.394-  25 2.01  44 2.41  52 2.70  49 2.76
  71  0.624  0.839  0.394-  26 2.01  45 2.41  53 2.70  50 2.76
  72  0.957  0.839  0.394-  27 2.01  43 2.41  54 2.70  51 2.76
  73  0.161  0.043  0.606-  28 2.01  52 2.41  37 2.70  38 2.76
  74  0.495  0.043  0.606-  29 2.01  53 2.41  38 2.70  39 2.76
  75  0.828  0.043  0.606-  30 2.01  54 2.41  39 2.70  37 2.76
  76  0.161  0.376  0.606-  31 2.01  46 2.41  40 2.70  41 2.76
  77  0.495  0.376  0.606-  32 2.01  47 2.41  41 2.70  42 2.76
  78  0.828  0.376  0.606-  33 2.01  48 2.41  42 2.70  40 2.76
  79  0.161  0.710  0.606-  34 2.01  49 2.41  43 2.70  44 2.76
  80  0.495  0.710  0.606-  35 2.01  50 2.41  44 2.70  45 2.76
  81  0.828  0.710  0.606-  36 2.01  51 2.41  45 2.70  43 2.76
  82  0.038  0.077  0.845-  30 2.01  28 2.01  61 2.52  55 2.52
  83  0.371  0.077  0.845-  28 2.01  29 2.01  62 2.52  56 2.52
  84  0.704  0.077  0.845-  29 2.01  30 2.01  63 2.52  57 2.52
  85  0.038  0.411  0.845-  33 2.01  31 2.01  55 2.52  58 2.52
  86  0.371  0.411  0.845-  31 2.01  32 2.01  56 2.52  59 2.52
  87  0.704  0.411  0.845-  32 2.01  33 2.01  57 2.52  60 2.52
  88  0.038  0.744  0.845-  36 2.01  34 2.01  58 2.52  61 2.52
  89  0.371  0.744  0.845-  34 2.01  35 2.01  59 2.52  62 2.52
  90  0.704  0.744  0.845-  35 2.01  36 2.01  60 2.52  63 2.52
  91  0.256  0.296  0.155-  22 2.01  19 2.02  56 2.52  55 2.52
  92  0.589  0.296  0.155-  23 2.01  20 2.01  57 2.52  56 2.52
  93  0.923  0.296  0.155-  24 2.01  21 2.01  55 2.52  57 2.52
  94  0.256  0.629  0.155-  25 2.01  22 2.01  59 2.52  58 2.52
  95  0.589  0.629  0.155-  26 2.01  23 2.01  60 2.52  59 2.52
  96  0.923  0.629  0.155-  27 2.01  24 2.01  58 2.52  60 2.52
  97  0.256  0.962  0.155-  19 2.01  25 2.01  62 2.52  61 2.52
  98  0.589  0.962  0.155-  20 2.01  26 2.01  63 2.52  62 2.52
  99  0.923  0.962  0.155-  21 2.01  27 2.01  61 2.52  63 2.52
 

IMPORTANT INFORMATION: All symmetrisations will be switched off!
NOSYMM: (Re-)initialisation of all symmetry stuff for point group C_1.

 
 
 KPOINTS: # No comment                            

Automatic generation of k-mesh.
Space group operators:
 irot       det(A)        alpha          n_x          n_y          n_z        tau_x        tau_y        tau_z
    1     1.000000     0.000001     1.000000     0.000000     0.000000     0.000000     0.000000     0.000000
 
 Subroutine IBZKPT returns following result:
 ===========================================
 
 Found     14 irreducible k-points:
 
 Following reciprocal coordinates:
            Coordinates               Weight
  0.000000  0.000000  0.000000      1.000000
  0.333333 -0.000000 -0.000000      2.000000
  0.000000  0.333333  0.000000      2.000000
  0.333333  0.333333  0.000000      2.000000
 -0.333333  0.333333  0.000000      2.000000
 -0.000000 -0.000000  0.333333      2.000000
  0.333333 -0.000000  0.333333      2.000000
 -0.333333 -0.000000  0.333333      2.000000
 -0.000000  0.333333  0.333333      2.000000
  0.333333  0.333333  0.333333      2.000000
 -0.333333  0.333333  0.333333      2.000000
 -0.000000 -0.333333  0.333333      2.000000
  0.333333 -0.333333  0.333333      2.000000
 -0.333333 -0.333333  0.333333      2.000000
 
 Following cartesian coordinates:
            Coordinates               Weight
  0.000000  0.000000  0.000000      1.000000
  0.028270  0.000040  0.005614      2.000000
 -0.000053  0.028270  0.005614      2.000000
  0.028217  0.028310  0.011229      2.000000
 -0.028323  0.028230 -0.000000      2.000000
 -0.000192 -0.000192  0.032649      2.000000
  0.028078 -0.000153  0.038263      2.000000
 -0.028462 -0.000232  0.027035      2.000000
 -0.000245  0.028078  0.038263      2.000000
  0.028025  0.028117  0.043878      2.000000
 -0.028515  0.028038  0.032649      2.000000
 -0.000138 -0.028462  0.027035      2.000000
  0.028132 -0.028423  0.032649      2.000000
 -0.028408 -0.028502  0.021421      2.000000
 


--------------------------------------------------------------------------------------------------------




 Dimension of arrays:
   k-points           NKPTS =     14   k-points in BZ     NKDIM =     14   number of bands    NBANDS=    606
   number of dos      NEDOS =    301   number of ions     NIONS =     99
   non local maximal  LDIM  =      6   non local SUM 2l+1 LMDIM =     18
   total plane-waves  NPLWV = 864360
   max r-space proj   IRMAX =      1   max aug-charges    IRDMAX= 154021
   dimension x,y,z NGX =    98 NGY =   98 NGZ =   90
   dimension x,y,z NGXF=   196 NGYF=  196 NGZF=  180
   support grid    NGXF=   392 NGYF=  392 NGZF=  360
   ions per type =              18  18  27  36
   NGX,Y,Z   is equivalent  to a cutoff of  13.83, 13.83, 14.14 a.u.
   NGXF,Y,Z  is equivalent  to a cutoff of  27.67, 27.67, 28.28 a.u.

 SYSTEM =  unknown system                          
 POSCAR =  # Compound: Li18O18S27Fe36. Old comment:

 Startparameter for this run:
   NWRITE =      1    write-flag & timer
   PREC   = accura    normal or accurate (medium, high low for compatibility)
   ISTART =      0    job   : 0-new  1-cont  2-samecut
   ICHARG =      1    charge: 1-file 2-atom 10-const
   ISPIN  =      2    spin polarized calculation?
   LNONCOLLINEAR =      F non collinear calculations
   LSORBIT =      F    spin-orbit coupling
   INIWAV =      1    electr: 0-lowe 1-rand  2-diag
   LASPH  =      T    aspherical Exc in radial PAW
   METAGGA=      F    non-selfconsistent MetaGGA calc.

 Electronic Relaxation 1
   ENCUT  =  650.0 eV  47.77 Ry    6.91 a.u.  24.48 24.48 21.99*2*pi/ulx,y,z
   ENINI  =  650.0     initial cutoff
   ENAUG  =  628.9 eV  augmentation charge cutoff
   NELM   =    200;   NELMIN=  8; NELMDL=  0     # of ELM steps 
   EDIFF  = 0.1E-05   stopping-criterion for ELM
   LREAL  =      F    real-space projection
   NLSPLINE    = F    spline interpolate recip. space projectors
   LCOMPAT=      F    compatible to vasp.4.4
   GGA_COMPAT  = T    GGA compatible to vasp.4.4-vasp.4.6
   LMAXPAW     = -100 max onsite density
   LMAXMIX     =    4 max onsite mixed and CHGCAR
   VOSKOWN=      0    Vosko Wilk Nusair interpolation
   ROPT   =    0.00000   0.00000   0.00000   0.00000
 Ionic relaxation
   EDIFFG = 0.1E-04   stopping-criterion for IOM
   NSW    =      0    number of steps for IOM
   NBLOCK =      1;   KBLOCK =      1    inner block; outer block 
   IBRION =     -1    ionic relax: 0-MD 1-quasi-New 2-CG
   NFREE  =      0    steps in history (QN), initial steepest desc. (CG)
   ISIF   =      2    stress and relaxation
   IWAVPR =     10    prediction:  0-non 1-charg 2-wave 3-comb
   ISYM   =      0    0-nonsym 1-usesym 2-fastsym
   LCORR  =      T    Harris-Foulkes like correction to forces

   POTIM  = 0.5000    time-step for ionic-motion
   TEIN   =    0.0    initial temperature
   TEBEG  =    0.0;   TEEND  =   0.0 temperature during run
   SMASS  =  -3.00    Nose mass-parameter (am)
   estimated Nose-frequenzy (Omega)   =  0.10E-29 period in steps =****** mass=  -0.317E-26a.u.
   SCALEE = 1.0000    scale energy and forces
   NPACO  =    256;   APACO  = 16.0  distance and # of slots for P.C.
   PSTRESS=    0.0 pullay stress

  Mass of Ions in am
   POMASS =   7.01 16.00 32.07 55.85
  Ionic Valenz
   ZVAL   =   3.00  6.00  6.00 14.00
  Atomic Wigner-Seitz radii
   RWIGS  =  -1.00 -1.00 -1.00 -1.00
  virtual crystal weights 
   VCA    =   1.00  1.00  1.00  1.00
   NELECT =     828.0000    total number of electrons
   NUPDOWN=      -1.0000    fix difference up-down

 DOS related values:
   EMIN   =  10.00;   EMAX   =-10.00  energy-range for DOS
   EFERMI =   0.00
   ISMEAR =     0;   SIGMA  =   0.05  broadening in eV -4-tet -1-fermi 0-gaus

 Electronic relaxation 2 (details)
   IALGO  =     38    algorithm
   LDIAG  =      T    sub-space diagonalisation (order eigenvalues)
   LSUBROT=      F    optimize rotation matrix (better conditioning)
   TURBO    =      0    0=normal 1=particle mesh
   IRESTART =      0    0=no restart 2=restart with 2 vectors
   NREBOOT  =      0    no. of reboots
   NMIN     =      0    reboot dimension
   EREF     =   0.00    reference energy to select bands
   IMIX   =      4    mixing-type and parameters
     AMIX     =   0.40;   BMIX     =  1.00
     AMIX_MAG =   1.60;   BMIX_MAG =  1.00
     AMIN     =   0.10
     WC   =   100.;   INIMIX=   1;  MIXPRE=   1;  MAXMIX= -45

 Intra band minimization:
   WEIMIN = 0.0000     energy-eigenvalue tresh-hold
   EBREAK =  0.41E-09  absolut break condition
   DEPER  =   0.30     relativ break condition  

   TIME   =   0.40     timestep for ELM

  volume/ion in A,a.u.               =      14.30        96.53
  Fermi-wavevector in a.u.,A,eV,Ry     =   1.368946  2.586933 25.497507  1.874014
  Thomas-Fermi vector in A             =   2.494865
 
 Write flags
   LWAVE        =      F    write WAVECAR
   LDOWNSAMPLE  =      F    k-point downsampling of WAVECAR
   LCHARG       =      T    write CHGCAR
   LVTOT        =      F    write LOCPOT, total local potential
   LVHAR        =      F    write LOCPOT, Hartree potential only
   LELF         =      F    write electronic localiz. function (ELF)
   LORBIT       =      0    0 simple, 1 ext, 2 COOP (PROOUT), +10 PAW based schemes


 Dipole corrections
   LMONO  =      F    monopole corrections only (constant potential shift)
   LDIPOL =      F    correct potential (dipole corrections)
   IDIPOL =      0    1-x, 2-y, 3-z, 4-all directions 
   EPSILON=  1.0000000 bulk dielectric constant

 LDA+U is selected, type is set to LDAUTYPE =  2
   angular momentum for each species LDAUL =    -1   -1   -1    2
   U (eV)           for each species LDAUU =   0.0  0.0  0.0  4.0
   J (eV)           for each species LDAUJ =   0.0  0.0  0.0  0.0
 Exchange correlation treatment:
   GGA     =    PE    GGA type
   LEXCH   =     8    internal setting for exchange type
   VOSKOWN=      0    Vosko Wilk Nusair interpolation
   LHFCALC =     F    Hartree Fock is set to
   LHFONE  =     F    Hartree Fock one center treatment
   AEXX    =    0.0000 exact exchange contribution

 Linear response parameters
   LEPSILON=     F    determine dielectric tensor
   LRPA    =     F    only Hartree local field effects (RPA)
   LNABLA  =     F    use nabla operator in PAW spheres
   LVEL    =     F    velocity operator in full k-point grid
   LINTERFAST=   F  fast interpolation
   KINTER  =     0    interpolate to denser k-point grid
   CSHIFT  =0.1000    complex shift for real part using Kramers Kronig
   OMEGAMAX=  -1.0    maximum frequency
   DEG_THRESHOLD= 0.2000000E-02 threshold for treating states as degnerate
   RTIME   =   -0.100 relaxation time in fs
  (WPLASMAI=    0.000 imaginary part of plasma frequency in eV, 0.658/RTIME)
   DFIELD  = 0.0000000 0.0000000 0.0000000 field for delta impulse in time
 
 Orbital magnetization related:
   ORBITALMAG=     F  switch on orbital magnetization
   LCHIMAG   =     F  perturbation theory with respect to B field
   DQ        =  0.001000  dq finite difference perturbation B field
   LLRAUG    =     F  two centre corrections for induced B field



--------------------------------------------------------------------------------------------------------


 Static calculation
 charge density and potential will be updated during run
 spin polarized calculation
 Variant of blocked Davidson
 Davidson routine will perform the subspace rotation
 perform sub-space diagonalisation
    after iterative eigenvector-optimisation
 modified Broyden-mixing scheme, WC =      100.0
 initial mixing is a Kerker type mixing with AMIX =  0.4000 and BMIX =      1.0000
 Hartree-type preconditioning will be used
 using additional bands          192
 reciprocal scheme for non local part
 use partial core corrections
 calculate Harris-corrections to forces 
   (improved forces if not selfconsistent)
 use gradient corrections 
 use of overlap-Matrix (Vanderbilt PP)
 Gauss-broadening in eV      SIGMA  =   0.05


--------------------------------------------------------------------------------------------------------


  energy-cutoff  :      650.00
  volume of cell :     1416.11
      direct lattice vectors                 reciprocal lattice vectors
    11.777269740  0.008488710  0.069233160     0.084810225  0.000119058  0.016842962
    -0.030282480 11.777233860  0.069233160    -0.000160141  0.084810158  0.016842962
    -2.020002310 -2.026663200 10.185746220    -0.000575372 -0.000577269  0.097947445

  length of vectors
    11.777476292 11.777476285 10.580037765     0.086466605  0.086466605  0.097950836


 
 k-points in units of 2pi/SCALE and weight: # No comment                            
   0.00000000  0.00000000  0.00000000       0.037
   0.02827008  0.00003969  0.00561432       0.074
  -0.00005338  0.02827005  0.00561432       0.074
   0.02821669  0.02830974  0.01122864       0.074
  -0.02832346  0.02823037 -0.00000000       0.074
  -0.00019179 -0.00019242  0.03264915       0.074
   0.02807828 -0.00015274  0.03826347       0.074
  -0.02846187 -0.00023211  0.02703483       0.074
  -0.00024517  0.02807763  0.03826347       0.074
   0.02802490  0.02811732  0.04387779       0.074
  -0.02851525  0.02803794  0.03264915       0.074
  -0.00013841 -0.02846248  0.02703483       0.074
   0.02813166 -0.02842279  0.03264915       0.074
  -0.02840849 -0.02850216  0.02142051       0.074
 
 k-points in reciprocal lattice and weights: # No comment                            
   0.00000000  0.00000000  0.00000000       0.037
   0.33333333 -0.00000000 -0.00000000       0.074
   0.00000000  0.33333333  0.00000000       0.074
   0.33333333  0.33333333  0.00000000       0.074
  -0.33333333  0.33333333  0.00000000       0.074
  -0.00000000 -0.00000000  0.33333333       0.074
   0.33333333 -0.00000000  0.33333333       0.074
  -0.33333333 -0.00000000  0.33333333       0.074
  -0.00000000  0.33333333  0.33333333       0.074
   0.33333333  0.33333333  0.33333333       0.074
  -0.33333333  0.33333333  0.33333333       0.074
  -0.00000000 -0.33333333  0.33333333       0.074
   0.33333333 -0.33333333  0.33333333       0.074
  -0.33333333 -0.33333333  0.33333333       0.074
 
 position of ions in fractional coordinates (direct lattice) 
   0.20224939  0.24206952  0.83183419
   0.53558272  0.24206952  0.83183419
   0.86891606  0.24206952  0.83183419
   0.20224939  0.57540285  0.83183419
   0.53558272  0.57540285  0.83183419
   0.86891606  0.57540285  0.83183419
   0.20224939  0.90873619  0.83183419
   0.53558272  0.90873619  0.83183419
   0.86891606  0.90873619  0.83183419
   0.09126381  0.13108394  0.16816581
   0.42459715  0.13108394  0.16816581
   0.75793048  0.13108394  0.16816581
   0.09126381  0.46441728  0.16816581
   0.42459715  0.46441728  0.16816581
   0.75793048  0.46441728  0.16816581
   0.09126381  0.79775061  0.16816581
   0.42459715  0.79775061  0.16816581
   0.75793048  0.79775061  0.16816581
   0.26311007  0.13598816  0.19780607
   0.59644341  0.13598816  0.19686089
   0.92977674  0.13598816  0.19686089
   0.26311007  0.46932149  0.19686089
   0.59644341  0.46932149  0.19686089
   0.92977674  0.46932149  0.19686089
   0.26311007  0.80265483  0.19686089
   0.59644341  0.80265483  0.19686089
   0.92977674  0.80265483  0.19686089
   0.19734517  0.07022326  0.80313911
   0.53067851  0.07022326  0.80313911
   0.86401184  0.07022326  0.80313911
   0.19734517  0.40355659  0.80313911
   0.53067851  0.40355659  0.80313911
   0.86401184  0.40355659  0.80313911
   0.19734517  0.73688993  0.80313911
   0.53067851  0.73688993  0.80313911
   0.86401184  0.73688993  0.80313911
   0.00253935  0.20657296  0.62920335
   0.33587268  0.20657296  0.62920335
   0.66920601  0.20657296  0.62920335
   0.00253935  0.53990630  0.62920335
   0.33587268  0.53990630  0.62920335
   0.66920601  0.53990630  0.62920335
   0.00253935  0.87323963  0.62920335
   0.33587268  0.87323963  0.62920335
   0.66920601  0.87323963  0.62920335
   0.12676037  0.33079399  0.37079665
   0.46009370  0.33079399  0.37079665
   0.79342704  0.33079399  0.37079665
   0.12676037  0.66412732  0.37079665
   0.46009370  0.66412732  0.37079665
   0.79342704  0.66412732  0.37079665
   0.12676037  0.99746065  0.37079665
   0.46009370  0.99746065  0.37079665
   0.79342704  0.99746065  0.37079665
   0.06350899  0.26982435  0.00000000
   0.39684232  0.26982435  0.00000000
   0.73017565  0.26982435  0.00000000
   0.06350899  0.60315768  0.00000000
   0.39684232  0.60315768  0.00000000
   0.73017565  0.60315768  0.00000000
   0.06350899  0.93649101  0.00000000
   0.39684232  0.93649101  0.00000000
   0.73017565  0.93649101  0.00000000
   0.29027274  0.17214940  0.39352170
   0.62360607  0.17214940  0.39352170
   0.95693941  0.17214940  0.39352170
   0.29027274  0.50548273  0.39352170
   0.62360607  0.50548273  0.39352170
   0.95693941  0.50548273  0.39352170
   0.29027274  0.83881607  0.39352170
   0.62360607  0.83881607  0.39352170
   0.95693941  0.83881607  0.39352170
   0.16118393  0.04306059  0.60647830
   0.49451727  0.04306059  0.60647830
   0.82785060  0.04306059  0.60647830
   0.16118393  0.37639393  0.60647830
   0.49451727  0.37639393  0.60647830
   0.82785060  0.37639393  0.60647830
   0.16118393  0.70972726  0.60647830
   0.49451727  0.70972726  0.60647830
   0.82785060  0.70972726  0.60647830
   0.03761391  0.07731307  0.84542777
   0.37094724  0.07731307  0.84542777
   0.70428057  0.07731307  0.84542777
   0.03761391  0.41064640  0.84542777
   0.37094724  0.41064640  0.84542777
   0.70428057  0.41064640  0.84542777
   0.03761391  0.74397973  0.84542777
   0.37094724  0.74397973  0.84542777
   0.70428057  0.74397973  0.84542777
   0.25602027  0.29571943  0.15457223
   0.58935360  0.29571943  0.15457223
   0.92268693  0.29571943  0.15457223
   0.25602027  0.62905276  0.15457223
   0.58935360  0.62905276  0.15457223
   0.92268693  0.62905276  0.15457223
   0.25602027  0.96238609  0.15457223
   0.58935360  0.96238609  0.15457223
   0.92268693  0.96238609  0.15457223
 
 position of ions in cartesian coordinates  (Angst):
   0.69430817  1.16677844  8.50361356
   4.62006475  1.16960801  8.52669128
   8.54582133  1.17243758  8.54976900
   0.68421401  5.09252306  8.52669128
   4.60997059  5.09535263  8.54976900
   8.53572717  5.09818220  8.57284672
   0.67411985  9.01826768  8.54976900
   4.59987643  9.02109725  8.57284672
   8.52563301  9.02392682  8.59592444
   0.73117368  1.20376551  1.72828810
   4.65693026  1.20659508  1.75136582
   8.58268684  1.20942465  1.77444354
   0.72107952  5.12951013  1.75136582
   4.64683610  5.13233970  1.77444354
   8.57259268  5.13516927  1.79752126
   0.71098536  9.05525475  1.77444354
   4.63674194  9.05808432  1.79752126
   8.56249852  9.06091389  1.82059898
   2.69503154  1.20291155  2.04243322
   6.62269737  1.20765668  2.05588362
  10.54845395  1.21048625  2.07896134
   2.68684663  5.13057173  2.05588362
   6.61260321  5.13340130  2.07896134
  10.53835979  5.13623087  2.10203906
   2.67675247  9.05631635  2.07896134
   6.60250905  9.05914592  2.10203906
  10.52826563  9.06197549  2.12511678
   0.69971795 -0.79898152  8.19909576
   4.62547453 -0.79615195  8.22217348
   8.55123111 -0.79332238  8.24525120
   0.68962379  3.12676310  8.22217348
   4.61538037  3.12959267  8.24525120
   8.54113695  3.13242224  8.26832892
   0.67952963  7.05250772  8.24525120
   4.60528621  7.05533729  8.26832892
   8.53104279  7.05816686  8.29140664
  -1.24734119  1.15769638  6.42338315
   2.67841539  1.16052595  6.44646087
   6.60417197  1.16335552  6.46953859
  -1.25743535  5.08344100  6.44646087
   2.66832123  5.08627057  6.46953859
   6.59407781  5.08910014  6.49261631
  -1.26752951  9.00918562  6.46953859
   2.65822707  9.01201519  6.49261631
   6.58398365  9.01484476  6.51569403
   0.73386372  3.14543425  3.80851851
   4.65962030  3.14826382  3.83159623
   8.58537688  3.15109339  3.85467395
   0.72376956  7.07117887  3.83159623
   4.64952614  7.07400844  3.85467395
   8.57528272  7.07683801  3.87775167
   0.71367540 10.99692349  3.85467395
   4.63943198 10.99975306  3.87775167
   8.56518856 11.00258263  3.90082939
   0.73979152  3.17832354  0.02307772
   4.66554810  3.18115311  0.04615544
   8.59130468  3.18398268  0.06923316
   0.72969736  7.10406816  0.04615544
   4.65545394  7.10689773  0.06923316
   8.58121052  7.10972730  0.09231088
   0.71960320 11.02981278  0.06923316
   4.64535978 11.03264235  0.09231088
   8.57111636 11.03547192  0.11538860
   2.61849250  1.23237184  4.04032711
   6.54424908  1.23520141  4.06340483
  10.47000566  1.23803098  4.08648255
   2.60839834  5.15811646  4.06340483
   6.53415492  5.16094603  4.08648255
  10.45991150  5.16377560  4.10956027
   2.59830418  9.08386108  4.08648255
   6.52406076  9.08669065  4.10956027
  10.44981734  9.08952022  4.13263799
   0.67191511 -0.72062433  6.19157455
   4.59767169 -0.71779476  6.21465227
   8.52342827 -0.71496519  6.23772999
   0.66182095  3.20512029  6.21465227
   4.58757753  3.20794986  6.23772999
   8.51333411  3.21077943  6.26080771
   0.65172679  7.13086491  6.23772999
   4.57748337  7.13369448  6.26080771
   8.50323995  7.13652405  6.28388543
  -1.26711815 -0.80254399  8.61926947
   2.65863843 -0.79971442  8.64234719
   6.58439500 -0.79688485  8.66542491
  -1.27721231  3.12320063  8.64234719
   2.64854427  3.12603020  8.66542491
   6.57430084  3.12885977  8.68850263
  -1.28730647  7.04894525  8.66542491
   2.63845011  7.05177482  8.68850263
   6.56420668  7.05460439  8.71158035
   2.69402836  3.17166428  1.61263219
   6.61978494  3.17449385  1.63570991
  10.54554152  3.17732342  1.65878763
   2.68393420  7.09740890  1.63570991
   6.60969078  7.10023847  1.65878763
  10.53544736  7.10306804  1.68186535
   2.67384004 11.02315352  1.65878763
   6.59959662 11.02598309  1.68186535
  10.52535320 11.02881266  1.70494307
 


--------------------------------------------------------------------------------------------------------


 k-point  1 :   0.0000 0.0000 0.0000  plane waves:   53279
 k-point  2 :   0.3333-0.0000-0.0000  plane waves:   53283
 k-point  3 :   0.0000 0.3333 0.0000  plane waves:   53283
 k-point  4 :   0.3333 0.3333 0.0000  plane waves:   53248
 k-point  5 :  -0.3333 0.3333 0.0000  plane waves:   53268
 k-point  6 :  -0.0000-0.0000 0.3333  plane waves:   53317
 k-point  7 :   0.3333-0.0000 0.3333  plane waves:   53290
 k-point  8 :  -0.3333-0.0000 0.3333  plane waves:   53280
 k-point  9 :  -0.0000 0.3333 0.3333  plane waves:   53290
 k-point 10 :   0.3333 0.3333 0.3333  plane waves:   53292
 k-point 11 :  -0.3333 0.3333 0.3333  plane waves:   53261
 k-point 12 :  -0.0000-0.3333 0.3333  plane waves:   53280
 k-point 13 :   0.3333-0.3333 0.3333  plane waves:   53261
 k-point 14 :  -0.3333-0.3333 0.3333  plane waves:   53313

 maximum and minimum number of plane-waves per node :      8936     8841

 maximum number of plane-waves:     53317
 maximum index in each direction: 
   IXMAX=   24   IYMAX=   24   IZMAX=   21
   IXMIN=  -24   IYMIN=  -24   IZMIN=  -22


 parallel 3D FFT for wavefunctions:
    minimum data exchange during FFTs selected (reduces bandwidth)
 parallel 3D FFT for charge:
    minimum data exchange during FFTs selected (reduces bandwidth)


 total amount of memory used by VASP MPI-rank0  1508757. kBytes
=======================================================================

   base      :      30000. kBytes
   nonl-proj :      85790. kBytes
   fftplans  :      89726. kBytes
   grid      :      70158. kBytes
   one-center:        528. kBytes
   wavefun   :    1232555. kBytes
 
     INWAV:  cpu time    0.0000: real time    0.0000
 Broyden mixing: mesh for mixing (old mesh)
   NGX = 49   NGY = 49   NGZ = 43
  (NGX  =196   NGY  =196   NGZ  =180)
  gives a total of 103243 points

 initial charge density was supplied:
 number of electron     828.0000017 magnetization     144.0000076
 keeping initial charge density in first step


--------------------------------------------------------------------------------------------------------


 Maximum index for augmentation-charges        13331 (set IRDMAX)


--------------------------------------------------------------------------------------------------------


 First call to EWALD:  gamma=   0.158
 Maximum number of real-space cells 3x 3x 3
 Maximum number of reciprocal cells 3x 3x 3

    FEWALD:  cpu time    0.0252: real time    0.0252


--------------------------------------- Iteration      1(   1)  ---------------------------------------


    POTLOK:  cpu time    1.1393: real time    1.1476
    SETDIJ:  cpu time    2.5557: real time    2.5694
     EDDAV:  cpu time  442.0782: real time  446.4518
       DOS:  cpu time    0.0086: real time    0.0086
    --------------------------------------------
      LOOP:  cpu time  445.7819: real time  450.1774

 eigenvalue-minimisations  : 34880
 total energy-change (2. order) : 0.1170604E+05  (-0.4628332E+05)
 number of electron     828.0000017 magnetization     144.0000076
 augmentation part      828.0000017 magnetization     144.0000076

 Free energy of the ion-electron system (eV)
  ---------------------------------------------------
  alpha Z        PSCENC =      2606.24521607
  Ewald energy   TEWEN  =    -65006.45245229
  -Hartree energ DENC   =    -34083.08269115
  -exchange      EXHF   =         0.00000000
  -V(xc)+E(xc)   XCENC  =      3632.84183536
  PAW double counting   =    104149.30743192  -107360.85880398
  entropy T*S    EENTRO =        -0.01713185
  eigenvalues    EBANDS =       394.13794277
  atomic energy  EATOM  =    107373.91467324
  Solvation  Ediel_sol  =         0.00000000
  ---------------------------------------------------
  free energy    TOTEN  =     11706.03602010 eV

  energy without entropy =    11706.05315194  energy(sigma->0) =    11706.04458602


--------------------------------------------------------------------------------------------------------




--------------------------------------- Iteration      1(   2)  ---------------------------------------


     EDDAV:  cpu time  433.2701: real time  438.1197
       DOS:  cpu time    0.0095: real time    0.0095
    --------------------------------------------
      LOOP:  cpu time  433.2795: real time  438.1292

 eigenvalue-minimisations  : 33936
 total energy-change (2. order) :-0.1037733E+05  (-0.9729394E+04)
 number of electron     828.0000017 magnetization     144.0000076
 augmentation part      828.0000017 magnetization     144.0000076

 Free energy of the ion-electron system (eV)
  ---------------------------------------------------
  alpha Z        PSCENC =      2606.24521607
  Ewald energy   TEWEN  =    -65006.45245229
  -Hartree energ DENC   =    -34083.08269115
  -exchange      EXHF   =         0.00000000
  -V(xc)+E(xc)   XCENC  =      3632.84183536
  PAW double counting   =    104149.30743192  -107360.85880398
  entropy T*S    EENTRO =        -0.06747115
  eigenvalues    EBANDS =     -9983.13761389
  atomic energy  EATOM  =    107373.91467324
  Solvation  Ediel_sol  =         0.00000000
  ---------------------------------------------------
  free energy    TOTEN  =      1328.71012413 eV

  energy without entropy =     1328.77759529  energy(sigma->0) =     1328.74385971


--------------------------------------------------------------------------------------------------------




--------------------------------------- Iteration      1(   3)  ---------------------------------------


     EDDAV:  cpu time  457.0495: real time  461.1244
       DOS:  cpu time    0.0029: real time    0.0029
    --------------------------------------------
      LOOP:  cpu time  457.0524: real time  461.1274

 eigenvalue-minimisations  : 36392
 total energy-change (2. order) :-0.1674295E+04  (-0.1441991E+04)
 number of electron     828.0000017 magnetization     144.0000076
 augmentation part      828.0000017 magnetization     144.0000076

 Free energy of the ion-electron system (eV)
  ---------------------------------------------------
  alpha Z        PSCENC =      2606.24521607
  Ewald energy   TEWEN  =    -65006.45245229
  -Hartree energ DENC   =    -34083.08269115
  -exchange      EXHF   =         0.00000000
  -V(xc)+E(xc)   XCENC  =      3632.84183536
  PAW double counting   =    104149.30743192  -107360.85880398
  entropy T*S    EENTRO =        -0.00000000
  eigenvalues    EBANDS =    -11657.50051284
  atomic energy  EATOM  =    107373.91467324
  Solvation  Ediel_sol  =         0.00000000
  ---------------------------------------------------
  free energy    TOTEN  =      -345.58530366 eV

  energy without entropy =     -345.58530366  energy(sigma->0) =     -345.58530366


--------------------------------------------------------------------------------------------------------




--------------------------------------- Iteration      1(   4)  ---------------------------------------


     EDDAV:  cpu time  489.0621: real time  494.0337
       DOS:  cpu time    0.0031: real time    0.0035
    --------------------------------------------
      LOOP:  cpu time  489.0651: real time  494.0372

 eigenvalue-minimisations  : 39776
 total energy-change (2. order) :-0.1903031E+03  (-0.1871657E+03)
 number of electron     828.0000017 magnetization     144.0000076
 augmentation part      828.0000017 magnetization     144.0000076

 Free energy of the ion-electron system (eV)
  ---------------------------------------------------
  alpha Z        PSCENC =      2606.24521607
  Ewald energy   TEWEN  =    -65006.45245229
  -Hartree energ DENC   =    -34083.08269115
  -exchange      EXHF   =         0.00000000
  -V(xc)+E(xc)   XCENC  =      3632.84183536
  PAW double counting   =    104149.30743192  -107360.85880398
  entropy T*S    EENTRO =        -0.00000000
  eigenvalues    EBANDS =    -11847.80357235
  atomic energy  EATOM  =    107373.91467324
  Solvation  Ediel_sol  =         0.00000000
  ---------------------------------------------------
  free energy    TOTEN  =      -535.88836317 eV

  energy without entropy =     -535.88836317  energy(sigma->0) =     -535.88836317


--------------------------------------------------------------------------------------------------------




--------------------------------------- Iteration      1(   5)  ---------------------------------------


     EDDAV:  cpu time  639.8872: real time  646.0917
       DOS:  cpu time    0.0030: real time    0.0031
    CHARGE:  cpu time   12.3318: real time   12.5243
    MIXING:  cpu time    0.0335: real time    0.0340
    --------------------------------------------
      LOOP:  cpu time  652.2556: real time  658.6531

 eigenvalue-minimisations  : 55296
 total energy-change (2. order) :-0.1390454E+02  (-0.1376400E+02)
 number of electron     828.0000017 magnetization     144.0000050
 augmentation part      313.2930398 magnetization      94.6597209

 Broyden mixing:
  rms(total) = 0.20662E+00    rms(broyden)= 0.20650E+00
  rms(prec ) = 0.21020E+00
  weight for this iteration     100.00

 Free energy of the ion-electron system (eV)
  ---------------------------------------------------
  alpha Z        PSCENC =      2606.24521607
  Ewald energy   TEWEN  =    -65006.45245229
  -Hartree energ DENC   =    -34083.08269115
  -exchange      EXHF   =         0.00000000
  -V(xc)+E(xc)   XCENC  =      3632.84183536
  PAW double counting   =    104149.30743192  -107360.85880398
  entropy T*S    EENTRO =        -0.00000000
  eigenvalues    EBANDS =    -11861.70811640
  atomic energy  EATOM  =    107373.91467324
  Solvation  Ediel_sol  =         0.00000000
  ---------------------------------------------------
  free energy    TOTEN  =      -549.79290723 eV

  energy without entropy =     -549.79290723  energy(sigma->0) =     -549.79290723


--------------------------------------------------------------------------------------------------------




--------------------------------------- Iteration      1(   6)  ---------------------------------------


    POTLOK:  cpu time    1.1279: real time    1.1435
    SETDIJ:  cpu time    2.5593: real time    2.5865
     EDDAV:  cpu time  572.4591: real time  578.4447
       DOS:  cpu time    0.0031: real time    0.0031
    CHARGE:  cpu time   12.2293: real time   12.4191
    MIXING:  cpu time    0.0296: real time    0.0313
    --------------------------------------------
      LOOP:  cpu time  588.4083: real time  594.6281

 eigenvalue-minimisations  : 48264
 total energy-change (2. order) :-0.5300361E+00  (-0.5451922E+00)
 number of electron     828.0000017 magnetization     144.0000039
 augmentation part      312.7274854 magnetization      94.7042842

 Broyden mixing:
  rms(total) = 0.10289E+00    rms(broyden)= 0.10276E+00
  rms(prec ) = 0.10364E+00
  weight for this iteration     100.00

 eigenvalues of (default mixing * dielectric matrix)
  average eigenvalue GAMMA=   0.6321
  0.6321

 Free energy of the ion-electron system (eV)
  ---------------------------------------------------
  alpha Z        PSCENC =      2606.24521607
  Ewald energy   TEWEN  =    -65006.45245229
  -Hartree energ DENC   =    -34081.26023322
  -exchange      EXHF   =         0.00000000
  -V(xc)+E(xc)   XCENC  =      3632.52291429
  PAW double counting   =    103986.77418843  -107196.53823552
  entropy T*S    EENTRO =        -0.00000000
  eigenvalues    EBANDS =    -11865.52901430
  atomic energy  EATOM  =    107373.91467324
  Solvation  Ediel_sol  =         0.00000000
  ---------------------------------------------------
  free energy    TOTEN  =      -550.32294329 eV

  energy without entropy =     -550.32294329  energy(sigma->0) =     -550.32294329


--------------------------------------------------------------------------------------------------------




--------------------------------------- Iteration      1(   7)  ---------------------------------------


    POTLOK:  cpu time    1.1108: real time    1.1563
    SETDIJ:  cpu time    2.5238: real time    2.5747
     EDDAV:  cpu time  611.8736: real time  618.8355
       DOS:  cpu time    0.0030: real time    0.0030
    CHARGE:  cpu time   12.2786: real time   12.4409
    MIXING:  cpu time    0.0301: real time    0.0317
    --------------------------------------------
      LOOP:  cpu time  627.8200: real time  635.0421

 eigenvalue-minimisations  : 52160
 total energy-change (2. order) :-0.1800727E-01  (-0.1905183E-01)
 number of electron     828.0000017 magnetization     144.0000034
 augmentation part      312.6392251 magnetization      94.6959817

 Broyden mixing:
  rms(total) = 0.61446E-01    rms(broyden)= 0.61415E-01
  rms(prec ) = 0.62859E-01
  weight for this iteration     100.00

 eigenvalues of (default mixing * dielectric matrix)
  average eigenvalue GAMMA=   0.5784
  0.5784  0.5784

 Free energy of the ion-electron system (eV)
  ---------------------------------------------------
  alpha Z        PSCENC =      2606.24521607
  Ewald energy   TEWEN  =    -65006.45245229
  -Hartree energ DENC   =    -34082.18474734
  -exchange      EXHF   =         0.00000000
  -V(xc)+E(xc)   XCENC  =      3632.60769022
  PAW double counting   =    104045.43445404  -107255.81650874
  entropy T*S    EENTRO =        -0.00000000
  eigenvalues    EBANDS =    -11864.08927576
  atomic energy  EATOM  =    107373.91467324
  Solvation  Ediel_sol  =         0.00000000
  ---------------------------------------------------
  free energy    TOTEN  =      -550.34095056 eV

  energy without entropy =     -550.34095056  energy(sigma->0) =     -550.34095056


--------------------------------------------------------------------------------------------------------




--------------------------------------- Iteration      1(   8)  ---------------------------------------


    POTLOK:  cpu time    1.1171: real time    1.1563
    SETDIJ:  cpu time    2.5265: real time    2.5626
     EDDAV:  cpu time  576.6257: real time  582.3390
       DOS:  cpu time    0.0035: real time    0.0084
    CHARGE:  cpu time   12.2584: real time   12.4698
    MIXING:  cpu time    0.0377: real time    0.0396
    --------------------------------------------
      LOOP:  cpu time  592.5689: real time  598.5757

 eigenvalue-minimisations  : 48616
 total energy-change (2. order) : 0.5098823E-03  (-0.3737756E-03)
 number of electron     828.0000017 magnetization     144.0000031
 augmentation part      312.6316579 magnetization      94.6986270

 Broyden mixing:
  rms(total) = 0.53349E-01    rms(broyden)= 0.53347E-01
  rms(prec ) = 0.54602E-01
  weight for this iteration     100.00

 eigenvalues of (default mixing * dielectric matrix)
  average eigenvalue GAMMA=   0.5823
  0.6504  0.6504  0.4461

 Free energy of the ion-electron system (eV)
  ---------------------------------------------------
  alpha Z        PSCENC =      2606.24521607
  Ewald energy   TEWEN  =    -65006.45245229
  -Hartree energ DENC   =    -34082.15564779
  -exchange      EXHF   =         0.00000000
  -V(xc)+E(xc)   XCENC  =      3632.64027289
  PAW double counting   =    104060.32573122  -107270.85410739
  entropy T*S    EENTRO =        -0.00000000
  eigenvalues    EBANDS =    -11864.00412663
  atomic energy  EATOM  =    107373.91467324
  Solvation  Ediel_sol  =         0.00000000
  ---------------------------------------------------
  free energy    TOTEN  =      -550.34044067 eV

  energy without entropy =     -550.34044067  energy(sigma->0) =     -550.34044067


--------------------------------------------------------------------------------------------------------




--------------------------------------- Iteration      1(   9)  ---------------------------------------


    POTLOK:  cpu time    1.1240: real time    1.1293
    SETDIJ:  cpu time    2.5715: real time    2.5916
     EDDAV:  cpu time  635.7854: real time  642.3064
       DOS:  cpu time    0.0033: real time    0.0033
    CHARGE:  cpu time   12.4896: real time   12.6932
    MIXING:  cpu time    0.0333: real time    0.0333
    --------------------------------------------
      LOOP:  cpu time  652.0072: real time  658.7571

 eigenvalue-minimisations  : 54880
 total energy-change (2. order) : 0.5380192E-03  (-0.2501523E-04)
 number of electron     828.0000017 magnetization     144.0000016
 augmentation part      312.6345964 magnetization      94.6988177

 Broyden mixing:
  rms(total) = 0.45720E-01    rms(broyden)= 0.45719E-01
  rms(prec ) = 0.46750E-01
  weight for this iteration     100.00

 eigenvalues of (default mixing * dielectric matrix)
  average eigenvalue GAMMA=   0.8385
  1.1225  1.1225  0.5544  0.5544

 Free energy of the ion-electron system (eV)
  ---------------------------------------------------
  alpha Z        PSCENC =      2606.24521607
  Ewald energy   TEWEN  =    -65006.45245229
  -Hartree energ DENC   =    -34082.25874405
  -exchange      EXHF   =         0.00000000
  -V(xc)+E(xc)   XCENC  =      3632.67133589
  PAW double counting   =    104070.93875922  -107281.61013609
  entropy T*S    EENTRO =        -0.00000000
  eigenvalues    EBANDS =    -11863.78855464
  atomic energy  EATOM  =    107373.91467324
  Solvation  Ediel_sol  =         0.00000000
  ---------------------------------------------------
  free energy    TOTEN  =      -550.33990266 eV

  energy without entropy =     -550.33990266  energy(sigma->0) =     -550.33990266


--------------------------------------------------------------------------------------------------------




--------------------------------------- Iteration      1(  10)  ---------------------------------------


    POTLOK:  cpu time    1.1212: real time    1.1377
    SETDIJ:  cpu time    2.5297: real time    2.5685
     EDDAV:  cpu time  624.1686: real time  630.4603
       DOS:  cpu time    0.0034: real time    0.0034
    CHARGE:  cpu time   12.3658: real time   12.4696
    MIXING:  cpu time    0.0334: real time    0.0340
    --------------------------------------------
      LOOP:  cpu time  640.2220: real time  646.6736

 eigenvalue-minimisations  : 53600
 total energy-change (2. order) : 0.1114234E-02  (-0.1113092E-03)
 number of electron     828.0000017 magnetization     144.0000009
 augmentation part      312.6487838 magnetization      94.7004723

 Broyden mixing:
  rms(total) = 0.18029E-01    rms(broyden)= 0.18029E-01
  rms(prec ) = 0.18222E-01
  weight for this iteration     100.00

 eigenvalues of (default mixing * dielectric matrix)
  average eigenvalue GAMMA=   0.9366
  1.5000  1.5000  0.6135  0.6135  0.4562

 Free energy of the ion-electron system (eV)
  ---------------------------------------------------
  alpha Z        PSCENC =      2606.24521607
  Ewald energy   TEWEN  =    -65006.45245229
  -Hartree energ DENC   =    -34082.88255925
  -exchange      EXHF   =         0.00000000
  -V(xc)+E(xc)   XCENC  =      3632.79616564
  PAW double counting   =    104114.98610877  -107326.24902120
  entropy T*S    EENTRO =        -0.00000000
  eigenvalues    EBANDS =    -11862.69691940
  atomic energy  EATOM  =    107373.91467324
  Solvation  Ediel_sol  =         0.00000000
  ---------------------------------------------------
  free energy    TOTEN  =      -550.33878842 eV

  energy without entropy =     -550.33878842  energy(sigma->0) =     -550.33878842


--------------------------------------------------------------------------------------------------------




--------------------------------------- Iteration      1(  11)  ---------------------------------------


    POTLOK:  cpu time    1.1191: real time    1.1476
    SETDIJ:  cpu time    2.5386: real time    2.5740
     EDDAV:  cpu time  506.5615: real time  512.1826
       DOS:  cpu time    0.0032: real time    0.0038
    CHARGE:  cpu time   12.4368: real time   12.5184
    MIXING:  cpu time    0.0386: real time    0.0409
    --------------------------------------------
      LOOP:  cpu time  522.6977: real time  528.4674

 eigenvalue-minimisations  : 41472
 total energy-change (2. order) : 0.6017489E-04  (-0.5054607E-04)
 number of electron     828.0000017 magnetization     144.0000009
 augmentation part      312.6546121 magnetization      94.7007611

 Broyden mixing:
  rms(total) = 0.64790E-02    rms(broyden)= 0.64770E-02
  rms(prec ) = 0.65188E-02
  weight for this iteration     100.00

 eigenvalues of (default mixing * dielectric matrix)
  average eigenvalue GAMMA=   0.8872
  1.5120  1.5120  0.6055  0.6055  0.5440  0.5440

 Free energy of the ion-electron system (eV)
  ---------------------------------------------------
  alpha Z        PSCENC =      2606.24521607
  Ewald energy   TEWEN  =    -65006.45245229
  -Hartree energ DENC   =    -34083.15565546
  -exchange      EXHF   =         0.00000000
  -V(xc)+E(xc)   XCENC  =      3632.84917015
  PAW double counting   =    104137.51096050  -107349.03978629
  entropy T*S    EENTRO =        -0.00000000
  eigenvalues    EBANDS =    -11862.21085418
  atomic energy  EATOM  =    107373.91467324
  Solvation  Ediel_sol  =         0.00000000
  ---------------------------------------------------
  free energy    TOTEN  =      -550.33872825 eV

  energy without entropy =     -550.33872825  energy(sigma->0) =     -550.33872825


--------------------------------------------------------------------------------------------------------




--------------------------------------- Iteration      1(  12)  ---------------------------------------


    POTLOK:  cpu time    1.1135: real time    1.1499
    SETDIJ:  cpu time    2.5132: real time    2.5705
     EDDAV:  cpu time  554.8727: real time  560.3123
       DOS:  cpu time    0.0031: real time    0.0031
    CHARGE:  cpu time   12.2029: real time   12.2496
    MIXING:  cpu time    0.0325: real time    0.0325
    --------------------------------------------
      LOOP:  cpu time  570.7378: real time  576.3179

 eigenvalue-minimisations  : 46472
 total energy-change (2. order) :-0.1142274E-04  (-0.1120892E-04)
 number of electron     828.0000017 magnetization     144.0000008
 augmentation part      312.6572034 magnetization      94.7006609

 Broyden mixing:
  rms(total) = 0.55259E-02    rms(broyden)= 0.55244E-02
  rms(prec ) = 0.55761E-02
  weight for this iteration     100.00

 eigenvalues of (default mixing * dielectric matrix)
  average eigenvalue GAMMA=   0.9737
  1.4857  1.4857  1.0792  1.0792  0.5891  0.5891  0.5078

 Free energy of the ion-electron system (eV)
  ---------------------------------------------------
  alpha Z        PSCENC =      2606.24521607
  Ewald energy   TEWEN  =    -65006.45245229
  -Hartree energ DENC   =    -34083.15566272
  -exchange      EXHF   =         0.00000000
  -V(xc)+E(xc)   XCENC  =      3632.84798301
  PAW double counting   =    104139.87661750  -107351.40520156
  entropy T*S    EENTRO =        -0.00000000
  eigenvalues    EBANDS =    -11862.20991292
  atomic energy  EATOM  =    107373.91467324
  Solvation  Ediel_sol  =         0.00000000
  ---------------------------------------------------
  free energy    TOTEN  =      -550.33873967 eV

  energy without entropy =     -550.33873967  energy(sigma->0) =     -550.33873967


--------------------------------------------------------------------------------------------------------




--------------------------------------- Iteration      1(  13)  ---------------------------------------


    POTLOK:  cpu time    1.1228: real time    1.1268
    SETDIJ:  cpu time    2.5672: real time    2.5758
     EDDAV:  cpu time  398.5210: real time  402.3617
       DOS:  cpu time    0.0030: real time    0.0030
    CHARGE:  cpu time   12.1283: real time   12.4048
    MIXING:  cpu time    0.0487: real time    0.0504
    --------------------------------------------
      LOOP:  cpu time  414.3910: real time  418.5226

 eigenvalue-minimisations  : 30400
 total energy-change (2. order) :-0.3344729E-05  (-0.3667591E-06)
 number of electron     828.0000017 magnetization     144.0000005
 augmentation part      312.6571980 magnetization      94.7005260

 Broyden mixing:
  rms(total) = 0.38424E-02    rms(broyden)= 0.38406E-02
  rms(prec ) = 0.38574E-02
  weight for this iteration     100.00

 eigenvalues of (default mixing * dielectric matrix)
  average eigenvalue GAMMA=   1.1643
  2.3525  2.3525  1.0904  1.0904  0.6673  0.6673  0.5471  0.5471

 Free energy of the ion-electron system (eV)
  ---------------------------------------------------
  alpha Z        PSCENC =      2606.24521607
  Ewald energy   TEWEN  =    -65006.45245229
  -Hartree energ DENC   =    -34083.12461060
  -exchange      EXHF   =         0.00000000
  -V(xc)+E(xc)   XCENC  =      3632.84170039
  PAW double counting   =    104142.39242898  -107353.90479748
  entropy T*S    EENTRO =        -0.00000000
  eigenvalues    EBANDS =    -11862.25090132
  atomic energy  EATOM  =    107373.91467324
  Solvation  Ediel_sol  =         0.00000000
  ---------------------------------------------------
  free energy    TOTEN  =      -550.33874301 eV

  energy without entropy =     -550.33874301  energy(sigma->0) =     -550.33874301


--------------------------------------------------------------------------------------------------------




--------------------------------------- Iteration      1(  14)  ---------------------------------------


    POTLOK:  cpu time    1.1102: real time    1.1535
    SETDIJ:  cpu time    2.5097: real time    2.5706
     EDDAV:  cpu time  444.6361: real time  448.9788
       DOS:  cpu time    0.0044: real time    0.0044
    CHARGE:  cpu time   12.0887: real time   12.2446
    MIXING:  cpu time    0.0971: real time    0.0975
    --------------------------------------------
      LOOP:  cpu time  460.4462: real time  465.0494

 eigenvalue-minimisations  : 35192
 total energy-change (2. order) :-0.7137365E-05  (-0.5892019E-06)
 number of electron     828.0000017 magnetization     144.0000005
 augmentation part      312.6560728 magnetization      94.7004117

 Broyden mixing:
  rms(total) = 0.10984E-02    rms(broyden)= 0.10921E-02
  rms(prec ) = 0.11209E-02
  weight for this iteration     100.00

 eigenvalues of (default mixing * dielectric matrix)
  average eigenvalue GAMMA=   1.1178
  2.7817  1.5808  1.5808  0.9050  0.7481  0.7481  0.5478  0.5840  0.5840

 Free energy of the ion-electron system (eV)
  ---------------------------------------------------
  alpha Z        PSCENC =      2606.24521607
  Ewald energy   TEWEN  =    -65006.45245229
  -Hartree energ DENC   =    -34083.16536432
  -exchange      EXHF   =         0.00000000
  -V(xc)+E(xc)   XCENC  =      3632.84088268
  PAW double counting   =    104149.02281550  -107360.55920506
  entropy T*S    EENTRO =        -0.00000000
  eigenvalues    EBANDS =    -11862.18531597
  atomic energy  EATOM  =    107373.91467324
  Solvation  Ediel_sol  =         0.00000000
  ---------------------------------------------------
  free energy    TOTEN  =      -550.33875015 eV

  energy without entropy =     -550.33875015  energy(sigma->0) =     -550.33875015


--------------------------------------------------------------------------------------------------------




--------------------------------------- Iteration      1(  15)  ---------------------------------------


    POTLOK:  cpu time    1.1686: real time    1.1874
    SETDIJ:  cpu time    2.4748: real time    2.5160
     EDDAV:  cpu time  362.4038: real time  366.2844
       DOS:  cpu time    0.0038: real time    0.0049
    CHARGE:  cpu time   12.3250: real time   12.4507
    MIXING:  cpu time    0.0470: real time    0.0470
    --------------------------------------------
      LOOP:  cpu time  378.4230: real time  382.4904

 eigenvalue-minimisations  : 26808
 total energy-change (2. order) : 0.2070505E-05  (-0.2531646E-06)
 number of electron     828.0000017 magnetization     144.0000005
 augmentation part      312.6557246 magnetization      94.7005207

 Broyden mixing:
  rms(total) = 0.47945E-03    rms(broyden)= 0.46507E-03
  rms(prec ) = 0.48393E-03
  weight for this iteration     100.00

 eigenvalues of (default mixing * dielectric matrix)
  average eigenvalue GAMMA=   1.0714
  2.6466  1.6275  1.6275  0.9938  0.8186  0.8186  0.5892  0.5892  0.5154  0.4881

 Free energy of the ion-electron system (eV)
  ---------------------------------------------------
  alpha Z        PSCENC =      2606.24521607
  Ewald energy   TEWEN  =    -65006.45245229
  -Hartree energ DENC   =    -34083.18395246
  -exchange      EXHF   =         0.00000000
  -V(xc)+E(xc)   XCENC  =      3632.84530097
  PAW double counting   =    104150.62978708  -107362.18985710
  entropy T*S    EENTRO =        -0.00000000
  eigenvalues    EBANDS =    -11862.14746359
  atomic energy  EATOM  =    107373.91467324
  Solvation  Ediel_sol  =         0.00000000
  ---------------------------------------------------
  free energy    TOTEN  =      -550.33874808 eV

  energy without entropy =     -550.33874808  energy(sigma->0) =     -550.33874808


--------------------------------------------------------------------------------------------------------




--------------------------------------- Iteration      1(  16)  ---------------------------------------


    POTLOK:  cpu time    1.1181: real time    1.1365
    SETDIJ:  cpu time    2.5017: real time    2.5751
     EDDAV:  cpu time  314.9866: real time  318.3417
       DOS:  cpu time    0.0030: real time    0.0050
    --------------------------------------------
      LOOP:  cpu time  318.6094: real time  322.0583

 eigenvalue-minimisations  : 21824
 total energy-change (2. order) :-0.9511132E-07  (-0.7700887E-07)
 number of electron     828.0000017 magnetization     144.0000005
 augmentation part      312.6557246 magnetization      94.7005207

 Free energy of the ion-electron system (eV)
  ---------------------------------------------------
  alpha Z        PSCENC =      2606.24521607
  Ewald energy   TEWEN  =    -65006.45245229
  -Hartree energ DENC   =    -34083.17718480
  -exchange      EXHF   =         0.00000000
  -V(xc)+E(xc)   XCENC  =      3632.84486514
  PAW double counting   =    104150.62624864  -107362.18593666
  entropy T*S    EENTRO =        -0.00000000
  eigenvalues    EBANDS =    -11862.15417752
  atomic energy  EATOM  =    107373.91467324
  Solvation  Ediel_sol  =         0.00000000
  ---------------------------------------------------
  free energy    TOTEN  =      -550.33874818 eV

  energy without entropy =     -550.33874818  energy(sigma->0) =     -550.33874818


--------------------------------------------------------------------------------------------------------




 average (electrostatic) potential at core
  the test charge radii are     0.7079  0.7215  0.9698  0.9500
  (the norm of the test charge is              1.0000)
       1 -58.9467       2 -58.9465       3 -58.9464       4 -58.9457       5 -58.9458
       6 -58.9457       7 -58.9466       8 -58.9460       9 -58.9460      10 -58.9469
      11 -58.9532      12 -58.9455      13 -58.9463      14 -58.9463      15 -58.9456
      16 -58.9455      17 -58.9456      18 -58.9451      19 -69.8265      20 -69.8195
      21 -69.8190      22 -69.8205      23 -69.8191      24 -69.8189      25 -69.8191
      26 -69.8188      27 -69.8185      28 -69.8200      29 -69.8193      30 -69.8195
      31 -69.8195      32 -69.8194      33 -69.8195      34 -69.8195      35 -69.8194
      36 -69.8191      37 -85.5584      38 -85.5567      39 -85.5583      40 -85.5582
      41 -85.5584      42 -85.5583      43 -85.5581      44 -85.5583      45 -85.5581
      46 -85.5560      47 -85.5572      48 -85.5582      49 -85.5581      50 -85.5583
      51 -85.5582      52 -85.5546      53 -85.5558      54 -85.5580      55 -85.6497
      56 -85.6504      57 -85.6467      58 -85.6466      59 -85.6467      60 -85.6461
      61 -85.6481      62 -85.6490      63 -85.6463      64 -78.5526      65 -78.5660
      66 -78.5659      67 -78.5663      68 -78.5660      69 -78.5658      70 -78.5657
      71 -78.5655      72 -78.5654      73 -78.5656      74 -78.5657      75 -78.5664
      76 -78.5659      77 -78.5662      78 -78.5665      79 -78.5664      80 -78.5665
      81 -78.5663      82 -78.5840      83 -78.5841      84 -78.5829      85 -78.5838
      86 -78.5839      87 -78.5829      88 -78.5834      89 -78.5837      90 -78.5828
      91 -78.5915      92 -78.5836      93 -78.5833      94 -78.5833      95 -78.5828
      96 -78.5827      97 -78.5852      98 -78.5831      99 -78.5828
 
 
 
 E-fermi :   5.2736     XC(G=0): -10.4947     alpha+bet :-11.8267


 spin component 1

 k-point     1 :       0.0000    0.0000    0.0000
  band No.  band energies     occupation 
      1     -51.0512      1.00000
      2     -51.0497      1.00000
      3     -51.0496      1.00000
      4     -51.0495      1.00000
      5     -51.0495      1.00000
      6     -51.0494      1.00000
      7     -51.0493      1.00000
      8     -51.0491      1.00000
      9     -51.0490      1.00000
     10     -51.0489      1.00000
     11     -51.0488      1.00000
     12     -51.0487      1.00000
     13     -51.0476      1.00000
     14     -51.0469      1.00000
     15     -51.0466      1.00000
     16     -51.0464      1.00000
     17     -51.0458      1.00000
     18     -51.0451      1.00000
     19     -51.0402      1.00000
     20     -51.0379      1.00000
     21     -51.0378      1.00000
     22     -51.0375      1.00000
     23     -51.0374      1.00000
     24     -51.0371      1.00000
     25     -51.0366      1.00000
     26     -51.0366      1.00000
     27     -51.0365      1.00000
     28     -51.0364      1.00000
     29     -51.0362      1.00000
     30     -51.0361      1.00000
     31     -51.0360      1.00000
     32     -51.0359      1.00000
     33     -51.0359      1.00000
     34     -51.0358      1.00000
     35     -51.0356      1.00000
     36     -51.0301      1.00000
     37     -49.6979      1.00000
     38     -49.6916      1.00000
     39     -49.6904      1.00000
     40     -49.6903      1.00000
     41     -49.6903      1.00000
     42     -49.6901      1.00000
     43     -49.6900      1.00000
     44     -49.6896      1.00000
     45     -49.6896      1.00000
     46     -49.6895      1.00000
     47     -49.6894      1.00000
     48     -49.6894      1.00000
     49     -49.6894      1.00000
     50     -49.6893      1.00000
     51     -49.6892      1.00000
     52     -49.6889      1.00000
     53     -49.6887      1.00000
     54     -49.6886      1.00000
     55     -49.5907      1.00000
     56     -49.5906      1.00000
     57     -49.5906      1.00000
     58     -49.5903      1.00000
     59     -49.5902      1.00000
     60     -49.5900      1.00000
     61     -49.5898      1.00000
     62     -49.5894      1.00000
     63     -49.5893      1.00000
     64     -49.5881      1.00000
     65     -49.5880      1.00000
     66     -49.5877      1.00000
     67     -49.5876      1.00000
     68     -49.5875      1.00000
     69     -49.5875      1.00000
     70     -49.5873      1.00000
     71     -49.5871      1.00000
     72     -49.5750      1.00000
     73     -49.5612      1.00000
     74     -49.5609      1.00000
     75     -49.5606      1.00000
     76     -49.5606      1.00000
     77     -49.5603      1.00000
     78     -49.5598      1.00000
     79     -49.5593      1.00000
     80     -49.5592      1.00000
     81     -49.5589      1.00000
     82     -49.5589      1.00000
     83     -49.5587      1.00000
     84     -49.5586      1.00000
     85     -49.5582      1.00000
     86     -49.5580      1.00000
     87     -49.5571      1.00000
     88     -49.5569      1.00000
     89     -49.5566      1.00000
     90     -49.5555      1.00000
     91     -49.5502      1.00000
     92     -49.5494      1.00000
     93     -49.5492      1.00000
     94     -49.5489      1.00000
     95     -49.5488      1.00000
     96     -49.5486      1.00000
     97     -49.5477      1.00000
     98     -49.5476      1.00000
     99     -49.5475      1.00000
    100     -49.5474      1.00000
    101     -49.5473      1.00000
    102     -49.5471      1.00000
    103     -49.5470      1.00000
    104     -49.5470      1.00000
    105     -49.5469      1.00000
    106     -49.5468      1.00000
    107     -49.5467      1.00000
    108     -49.5445      1.00000
    109     -39.8698      1.00000
    110     -39.8636      1.00000
    111     -39.8635      1.00000
    112     -39.8632      1.00000
    113     -39.8632      1.00000
    114     -39.8631      1.00000
    115     -39.8630      1.00000
    116     -39.8626      1.00000
    117     -39.8626      1.00000
    118     -39.8625      1.00000
    119     -39.8624      1.00000
    120     -39.8623      1.00000
    121     -39.8621      1.00000
    122     -39.8621      1.00000
    123     -39.8620      1.00000
    124     -39.8619      1.00000
    125     -39.8619      1.00000
    126     -39.8614      1.00000
    127     -13.2376      1.00000
    128     -13.2352      1.00000
    129     -13.2350      1.00000
    130     -13.2346      1.00000
    131     -13.2264      1.00000
    132     -13.1994      1.00000
    133     -13.0588      1.00000
    134     -13.0556      1.00000
    135     -13.0547      1.00000
    136     -13.0544      1.00000
    137     -13.0447      1.00000
    138     -13.0423      1.00000
    139     -13.0415      1.00000
    140     -13.0413      1.00000
    141     -13.0210      1.00000
    142     -13.0189      1.00000
    143     -13.0188      1.00000
    144     -13.0186      1.00000
    145      -7.6143      1.00000
    146      -7.4125      1.00000
    147      -7.3763      1.00000
    148      -7.3763      1.00000
    149      -7.3755      1.00000
    150      -7.3752      1.00000
    151      -7.1825      1.00000
    152      -7.1822      1.00000
    153      -7.1730      1.00000
    154      -7.1726      1.00000
    155      -7.1512      1.00000
    156      -7.1510      1.00000
    157      -7.1506      1.00000
    158      -7.1503      1.00000
    159      -6.9836      1.00000
    160      -6.9644      1.00000
    161      -6.9639      1.00000
    162      -6.9299      1.00000
    163      -6.9296      1.00000
    164      -6.8710      1.00000
    165      -6.8705      1.00000
    166      -6.8704      1.00000
    167      -6.8700      1.00000
    168      -6.8065      1.00000
    169      -6.8060      1.00000
    170      -6.7798      1.00000
    171      -6.7794      1.00000
    172      -1.8377      1.00000
    173      -1.8371      1.00000
    174      -1.8369      1.00000
    175      -1.8365      1.00000
    176      -1.8169      1.00000
    177      -1.8162      1.00000
    178      -1.8042      1.00000
    179      -1.8035      1.00000
    180      -1.7670      1.00000
    181      -1.7662      1.00000
    182      -1.7541      1.00000
    183      -1.7535      1.00000
    184      -1.2817      1.00000
    185      -1.2003      1.00000
    186      -1.1973      1.00000
    187      -1.1971      1.00000
    188      -1.1970      1.00000
    189      -1.0053      1.00000
    190      -1.0049      1.00000
    191      -0.9745      1.00000
    192      -0.9741      1.00000
    193      -0.9592      1.00000
    194      -0.9589      1.00000
    195      -0.9482      1.00000
    196      -0.9397      1.00000
    197      -0.9322      1.00000
    198      -0.9288      1.00000
    199      -0.9284      1.00000
    200      -0.8888      1.00000
    201      -0.8845      1.00000
    202      -0.8845      1.00000
    203      -0.8842      1.00000
    204      -0.8718      1.00000
    205      -0.8715      1.00000
    206      -0.8684      1.00000
    207      -0.8672      1.00000
    208      -0.8669      1.00000
    209      -0.8667      1.00000
    210      -0.8595      1.00000
    211      -0.8594      1.00000
    212      -0.7013      1.00000
    213      -0.7006      1.00000
    214      -0.7003      1.00000
    215      -0.7002      1.00000
    216      -0.6713      1.00000
    217      -0.6712      1.00000
    218      -0.6228      1.00000
    219      -0.6226      1.00000
    220      -0.6224      1.00000
    221      -0.6223      1.00000
    222      -0.6220      1.00000
    223      -0.6218      1.00000
    224      -0.3527      1.00000
    225      -0.3524      1.00000
    226      -0.3520      1.00000
    227      -0.3519      1.00000
    228      -0.3216      1.00000
    229      -0.3215      1.00000
    230      -0.2910      1.00000
    231      -0.2909      1.00000
    232      -0.2643      1.00000
    233      -0.2638      1.00000
    234      -0.2637      1.00000
    235      -0.2630      1.00000
    236      -0.2602      1.00000
    237      -0.2596      1.00000
    238      -0.2581      1.00000
    239      -0.2479      1.00000
    240      -0.2475      1.00000
    241      -0.2426      1.00000
    242      -0.2210      1.00000
    243      -0.1405      1.00000
    244      -0.1401      1.00000
    245      -0.1398      1.00000
    246      -0.1393      1.00000
    247      -0.1391      1.00000
    248      -0.1383      1.00000
    249      -0.1242      1.00000
    250      -0.1236      1.00000
    251      -0.1231      1.00000
    252      -0.1229      1.00000
    253      -0.1198      1.00000
    254      -0.1193      1.00000
    255      -0.0775      1.00000
    256      -0.0770      1.00000
    257      -0.0592      1.00000
    258      -0.0116      1.00000
    259      -0.0110      1.00000
    260       0.0154      1.00000
    261       0.0158      1.00000
    262       0.0263      1.00000
    263       0.0266      1.00000
    264       0.0432      1.00000
    265       0.0434      1.00000
    266       0.0435      1.00000
    267       0.0444      1.00000
    268       0.0606      1.00000
    269       0.0613      1.00000
    270       0.1500      1.00000
    271       0.1504      1.00000
    272       0.1506      1.00000
    273       0.1516      1.00000
    274       0.1575      1.00000
    275       0.1633      1.00000
    276       0.1650      1.00000
    277       0.1822      1.00000
    278       0.1827      1.00000
    279       0.1914      1.00000
    280       0.1969      1.00000
    281       0.1971      1.00000
    282       0.2081      1.00000
    283       0.2085      1.00000
    284       0.2577      1.00000
    285       0.2578      1.00000
    286       0.2584      1.00000
    287       0.2592      1.00000
    288       0.2782      1.00000
    289       0.2789      1.00000
    290       0.3388      1.00000
    291       0.3390      1.00000
    292       0.3594      1.00000
    293       0.3597      1.00000
    294       0.3600      1.00000
    295       0.3602      1.00000
    296       0.3808      1.00000
    297       0.3838      1.00000
    298       0.4894      1.00000
    299       0.4895      1.00000
    300       0.4898      1.00000
    301       0.4901      1.00000
    302       0.5175      1.00000
    303       0.5176      1.00000
    304       0.5182      1.00000
    305       0.5187      1.00000
    306       0.5584      1.00000
    307       0.5590      1.00000
    308       0.6081      1.00000
    309       0.6087      1.00000
    310       0.6161      1.00000
    311       0.6313      1.00000
    312       0.6315      1.00000
    313       0.6320      1.00000
    314       0.6325      1.00000
    315       0.7529      1.00000
    316       0.7535      1.00000
    317       0.7615      1.00000
    318       0.7621      1.00000
    319       0.7624      1.00000
    320       0.7635      1.00000
    321       0.7912      1.00000
    322       0.7917      1.00000
    323       0.7947      1.00000
    324       0.8460      1.00000
    325       0.8461      1.00000
    326       0.8550      1.00000
    327       0.8555      1.00000
    328       0.9687      1.00000
    329       0.9693      1.00000
    330       0.9695      1.00000
    331       0.9698      1.00000
    332       0.9792      1.00000
    333       1.2392      1.00000
    334       1.2396      1.00000
    335       1.2401      1.00000
    336       1.2403      1.00000
    337       1.2643      1.00000
    338       1.2923      1.00000
    339       1.2926      1.00000
    340       1.3305      1.00000
    341       1.3309      1.00000
    342       1.3584      1.00000
    343       1.3589      1.00000
    344       1.3590      1.00000
    345       1.3599      1.00000
    346       1.4369      1.00000
    347       1.4373      1.00000
    348       1.4647      1.00000
    349       1.4762      1.00000
    350       1.4876      1.00000
    351       1.4881      1.00000
    352       1.5480      1.00000
    353       1.6793      1.00000
    354       1.6795      1.00000
    355       1.6801      1.00000
    356       1.7231      1.00000
    357       1.7237      1.00000
    358       1.7240      1.00000
    359       1.7245      1.00000
    360       1.7649      1.00000
    361       1.7654      1.00000
    362       1.8143      1.00000
    363       1.8144      1.00000
    364       1.8148      1.00000
    365       1.8160      1.00000
    366       1.8275      1.00000
    367       1.8281      1.00000
    368       1.8282      1.00000
    369       1.8294      1.00000
    370       1.8397      1.00000
    371       1.8764      1.00000
    372       1.8871      1.00000
    373       1.9026      1.00000
    374       1.9028      1.00000
    375       1.9173      1.00000
    376       1.9176      1.00000
    377       1.9634      1.00000
    378       1.9638      1.00000
    379       1.9901      1.00000
    380       1.9905      1.00000
    381       1.9991      1.00000
    382       1.9994      1.00000
    383       1.9995      1.00000
    384       2.0006      1.00000
    385       2.0713      1.00000
    386       2.0717      1.00000
    387       2.0812      1.00000
    388       2.0814      1.00000
    389       2.0816      1.00000
    390       2.0850      1.00000
    391       2.0948      1.00000
    392       2.0956      1.00000
    393       2.1168      1.00000
    394       2.1169      1.00000
    395       2.1170      1.00000
    396       2.1180      1.00000
    397       2.1954      1.00000
    398       2.1964      1.00000
    399       2.2878      1.00000
    400       2.2883      1.00000
    401       2.4164      1.00000
    402       2.4165      1.00000
    403       2.4399      1.00000
    404       2.4406      1.00000
    405       2.4408      1.00000
    406       2.4411      1.00000
    407       2.4991      1.00000
    408       2.5160      1.00000
    409       2.5164      1.00000
    410       2.5165      1.00000
    411       2.5167      1.00000
    412       2.5592      1.00000
    413       2.5595      1.00000
    414       2.5658      1.00000
    415       2.7178      1.00000
[...]
   -.228E+01 0.672E+01 -.125E+03   0.235E+01 -.701E+01 0.129E+03   -.773E-01 0.286E+00 -.453E+01   -.370E-04 0.293E-04 0.785E-04
   -.225E+01 0.673E+01 -.124E+03   0.232E+01 -.701E+01 0.129E+03   -.783E-01 0.285E+00 -.454E+01   -.330E-04 -.290E-04 0.145E-03
   -.230E+01 0.672E+01 -.124E+03   0.238E+01 -.701E+01 0.129E+03   -.750E-01 0.286E+00 -.454E+01   -.565E-04 0.336E-04 0.169E-03
   -.227E+01 0.675E+01 -.124E+03   0.235E+01 -.704E+01 0.129E+03   -.774E-01 0.284E+00 -.454E+01   -.438E-04 -.536E-04 0.137E-03
   -.227E+01 0.673E+01 -.124E+03   0.235E+01 -.701E+01 0.129E+03   -.789E-01 0.284E+00 -.454E+01   -.514E-04 -.287E-04 0.145E-03
   -.229E+01 0.673E+01 -.124E+03   0.236E+01 -.701E+01 0.129E+03   -.746E-01 0.284E+00 -.454E+01   -.237E-04 -.786E-04 0.143E-03
   -.228E+01 0.669E+01 -.124E+03   0.235E+01 -.698E+01 0.129E+03   -.763E-01 0.286E+00 -.454E+01   -.485E-04 -.291E-04 0.182E-03
   -.227E+01 0.671E+01 -.124E+03   0.234E+01 -.700E+01 0.129E+03   -.791E-01 0.287E+00 -.454E+01   -.572E-04 -.121E-04 0.161E-03
   -.228E+01 0.671E+01 -.124E+03   0.236E+01 -.700E+01 0.129E+03   -.756E-01 0.286E+00 -.454E+01   -.225E-04 -.222E-04 0.145E-03
   0.470E+01 -.113E+02 -.319E+02   -.478E+01 0.114E+02 0.324E+02   0.826E-01 -.134E+00 -.497E+00   0.147E-04 -.686E-05 0.676E-04
   0.468E+01 -.113E+02 -.320E+02   -.476E+01 0.114E+02 0.325E+02   0.836E-01 -.134E+00 -.494E+00   0.152E-05 0.445E-04 -.116E-03
   0.465E+01 -.113E+02 -.319E+02   -.474E+01 0.114E+02 0.324E+02   0.840E-01 -.134E+00 -.498E+00   -.149E-04 -.109E-04 0.658E-04
   0.468E+01 -.113E+02 -.319E+02   -.477E+01 0.114E+02 0.324E+02   0.829E-01 -.134E+00 -.497E+00   0.749E-05 -.193E-04 0.831E-04
   0.468E+01 -.113E+02 -.319E+02   -.476E+01 0.114E+02 0.324E+02   0.835E-01 -.134E+00 -.498E+00   -.212E-04 -.373E-04 0.848E-04
   0.467E+01 -.113E+02 -.319E+02   -.475E+01 0.114E+02 0.324E+02   0.835E-01 -.134E+00 -.498E+00   0.148E-05 -.177E-04 0.751E-04
   0.468E+01 -.113E+02 -.319E+02   -.476E+01 0.114E+02 0.324E+02   0.826E-01 -.135E+00 -.496E+00   0.446E-05 0.119E-04 0.735E-04
   0.469E+01 -.113E+02 -.319E+02   -.477E+01 0.114E+02 0.324E+02   0.834E-01 -.135E+00 -.497E+00   -.139E-04 0.144E-04 0.743E-04
   0.467E+01 -.113E+02 -.319E+02   -.475E+01 0.114E+02 0.324E+02   0.839E-01 -.135E+00 -.497E+00   0.327E-05 0.149E-04 0.746E-04
   0.114E+02 -.480E+01 0.319E+02   -.116E+02 0.488E+01 -.324E+02   0.126E+00 -.708E-01 0.501E+00   0.512E-04 -.175E-03 -.546E-04
   0.112E+02 -.474E+01 0.319E+02   -.113E+02 0.482E+01 -.324E+02   0.141E+00 -.757E-01 0.498E+00   -.400E-04 -.115E-03 -.169E-04
   0.113E+02 -.465E+01 0.319E+02   -.115E+02 0.473E+01 -.324E+02   0.134E+00 -.830E-01 0.499E+00   0.160E-04 -.171E-04 -.977E-04
   0.113E+02 -.463E+01 0.319E+02   -.114E+02 0.471E+01 -.324E+02   0.135E+00 -.836E-01 0.498E+00   -.209E-04 0.300E-04 -.657E-04
   0.113E+02 -.463E+01 0.319E+02   -.114E+02 0.471E+01 -.324E+02   0.134E+00 -.836E-01 0.498E+00   0.441E-04 0.234E-04 -.844E-04
   0.113E+02 -.464E+01 0.319E+02   -.114E+02 0.472E+01 -.324E+02   0.135E+00 -.832E-01 0.499E+00   0.156E-05 0.157E-04 -.848E-04
   0.115E+02 -.446E+01 0.318E+02   -.116E+02 0.455E+01 -.323E+02   0.121E+00 -.981E-01 0.506E+00   0.926E-04 0.172E-03 -.126E-03
   0.112E+02 -.453E+01 0.319E+02   -.113E+02 0.462E+01 -.324E+02   0.145E+00 -.925E-01 0.502E+00   -.834E-04 0.113E-03 -.853E-04
   0.113E+02 -.463E+01 0.319E+02   -.115E+02 0.472E+01 -.324E+02   0.134E+00 -.824E-01 0.499E+00   0.161E-04 0.841E-05 -.985E-04
   -.160E+00 0.120E+00 -.259E-01   0.158E+00 -.120E+00 0.233E-01   0.740E-02 -.372E-02 0.638E-02   -.903E-04 0.378E-05 -.350E-04
   0.141E+00 0.168E+00 -.793E-01   -.130E+00 -.167E+00 0.751E-01   -.160E-01 -.618E-02 0.967E-02   0.601E-04 0.637E-04 -.566E-04
   -.649E-02 0.204E-01 0.178E-02   0.988E-02 -.237E-01 -.208E-02   -.348E-02 0.330E-02 0.254E-03   0.107E-04 -.176E-04 0.110E-04
   -.226E-01 0.235E-01 0.798E-02   0.257E-01 -.264E-01 -.767E-02   -.289E-02 0.269E-02 -.360E-03   -.138E-04 0.284E-04 -.330E-04
   -.838E-02 0.225E-01 0.246E-02   0.118E-01 -.256E-01 -.209E-02   -.348E-02 0.282E-02 -.470E-03   -.301E-05 0.333E-04 -.809E-05
   -.124E-01 0.165E-01 0.182E-02   0.158E-01 -.197E-01 -.168E-02   -.338E-02 0.306E-02 -.330E-03   -.108E-04 0.210E-04 0.126E-04
   -.115E+00 -.848E-01 0.247E-01   0.114E+00 0.787E-01 -.257E-01   0.343E-02 0.891E-02 0.263E-02   -.334E-04 -.294E-04 0.303E-04
   0.935E-01 -.129E+00 -.255E-01   -.850E-01 0.122E+00 0.234E-01   -.118E-01 0.110E-01 0.504E-02   0.570E-05 -.900E-04 0.145E-04
   -.557E-02 0.643E-02 0.752E-02   0.900E-02 -.980E-02 -.767E-02   -.354E-02 0.341E-02 0.327E-04   0.289E-05 0.209E-04 0.273E-04
   -.282E+01 0.388E+01 -.188E+03   0.213E+01 -.350E+01 0.186E+03   0.684E+00 -.372E+00 0.248E+01   -.127E-04 -.105E-03 -.531E-03
   -.283E+01 0.421E+01 -.185E+03   0.214E+01 -.382E+01 0.183E+03   0.691E+00 -.388E+00 0.229E+01   -.103E-03 -.398E-04 -.485E-04
   -.253E+01 0.421E+01 -.185E+03   0.185E+01 -.382E+01 0.183E+03   0.685E+00 -.388E+00 0.230E+01   0.505E-04 -.382E-04 -.139E-03
   -.273E+01 0.413E+01 -.185E+03   0.204E+01 -.374E+01 0.183E+03   0.690E+00 -.388E+00 0.229E+01   0.120E-04 -.733E-04 0.272E-03
   -.273E+01 0.421E+01 -.185E+03   0.204E+01 -.383E+01 0.183E+03   0.692E+00 -.386E+00 0.230E+01   -.184E-04 -.469E-04 -.165E-03
   -.268E+01 0.420E+01 -.185E+03   0.200E+01 -.381E+01 0.183E+03   0.684E+00 -.386E+00 0.230E+01   -.556E-04 -.526E-04 -.263E-04
   -.273E+01 0.443E+01 -.185E+03   0.204E+01 -.404E+01 0.183E+03   0.690E+00 -.394E+00 0.230E+01   0.861E-05 0.646E-04 0.211E-04
   -.275E+01 0.427E+01 -.185E+03   0.206E+01 -.387E+01 0.183E+03   0.694E+00 -.395E+00 0.230E+01   -.317E-04 0.408E-04 -.148E-03
   -.266E+01 0.428E+01 -.185E+03   0.198E+01 -.388E+01 0.183E+03   0.682E+00 -.396E+00 0.230E+01   -.433E-04 0.632E-04 -.123E-03
   -.415E+01 0.278E+01 0.185E+03   0.376E+01 -.209E+01 -.183E+03   0.390E+00 -.687E+00 -.228E+01   0.322E-04 0.141E-03 -.314E-04
   -.431E+01 0.277E+01 0.185E+03   0.391E+01 -.208E+01 -.183E+03   0.393E+00 -.688E+00 -.229E+01   -.335E-04 0.155E-03 -.970E-04
   -.425E+01 0.271E+01 0.185E+03   0.386E+01 -.202E+01 -.183E+03   0.392E+00 -.687E+00 -.229E+01   0.329E-04 0.878E-04 0.888E-04
   -.417E+01 0.263E+01 0.185E+03   0.378E+01 -.195E+01 -.183E+03   0.390E+00 -.687E+00 -.229E+01   0.864E-04 -.574E-04 0.168E-04
   -.430E+01 0.263E+01 0.185E+03   0.391E+01 -.195E+01 -.183E+03   0.393E+00 -.686E+00 -.229E+01   -.102E-03 -.973E-04 -.483E-04
   -.424E+01 0.269E+01 0.185E+03   0.385E+01 -.201E+01 -.183E+03   0.392E+00 -.687E+00 -.229E+01   0.523E-04 -.939E-05 0.444E-04
   -.423E+01 0.269E+01 0.185E+03   0.383E+01 -.200E+01 -.183E+03   0.391E+00 -.688E+00 -.229E+01   0.615E-05 -.312E-04 0.154E-03
   -.424E+01 0.270E+01 0.185E+03   0.385E+01 -.201E+01 -.183E+03   0.392E+00 -.688E+00 -.229E+01   -.145E-04 -.585E-05 0.380E-04
   -.424E+01 0.270E+01 0.185E+03   0.385E+01 -.201E+01 -.183E+03   0.391E+00 -.688E+00 -.230E+01   0.539E-04 -.153E-04 0.494E-04
   0.359E+01 0.505E+01 -.202E+03   -.367E+01 -.506E+01 0.204E+03   0.819E-01 0.153E-01 -.197E+01   -.823E-04 0.313E-04 0.226E-03
   0.398E+01 0.506E+01 -.202E+03   -.406E+01 -.508E+01 0.204E+03   0.782E-01 0.134E-01 -.197E+01   -.298E-04 0.508E-04 0.215E-03
   0.378E+01 0.507E+01 -.202E+03   -.386E+01 -.508E+01 0.204E+03   0.809E-01 0.132E-01 -.198E+01   0.147E-03 0.110E-04 0.223E-03
   0.375E+01 0.514E+01 -.202E+03   -.383E+01 -.514E+01 0.204E+03   0.791E-01 0.565E-02 -.198E+01   0.659E-04 -.131E-03 0.224E-03
   0.382E+01 0.514E+01 -.202E+03   -.390E+01 -.514E+01 0.204E+03   0.814E-01 0.544E-02 -.197E+01   -.843E-04 -.123E-03 0.211E-03
   0.377E+01 0.508E+01 -.202E+03   -.386E+01 -.509E+01 0.204E+03   0.807E-01 0.120E-01 -.198E+01   0.269E-04 -.123E-03 0.193E-03
   0.375E+01 0.502E+01 -.202E+03   -.383E+01 -.503E+01 0.203E+03   0.804E-01 0.161E-01 -.198E+01   0.930E-04 0.755E-04 0.286E-03
   0.381E+01 0.500E+01 -.202E+03   -.389E+01 -.502E+01 0.204E+03   0.811E-01 0.180E-01 -.198E+01   -.147E-03 0.395E-04 0.295E-03
   0.378E+01 0.506E+01 -.202E+03   -.386E+01 -.507E+01 0.203E+03   0.798E-01 0.127E-01 -.198E+01   0.670E-04 0.388E-04 0.236E-03
   -.534E+01 -.229E+01 0.203E+03   0.534E+01 0.246E+01 -.204E+03   -.496E-02 -.173E+00 0.196E+01   -.491E-04 -.425E-03 -.226E-03
   -.495E+01 -.376E+01 0.202E+03   0.496E+01 0.384E+01 -.204E+03   -.166E-01 -.811E-01 0.198E+01   0.624E-04 0.305E-04 -.218E-03
   -.507E+01 -.381E+01 0.202E+03   0.508E+01 0.389E+01 -.204E+03   -.931E-02 -.803E-01 0.197E+01   0.593E-04 -.184E-03 -.219E-03
   -.507E+01 -.375E+01 0.202E+03   0.508E+01 0.384E+01 -.204E+03   -.120E-01 -.844E-01 0.198E+01   0.154E-04 0.263E-03 -.307E-03
   -.505E+01 -.378E+01 0.202E+03   0.506E+01 0.386E+01 -.203E+03   -.135E-01 -.812E-01 0.198E+01   0.499E-04 0.273E-04 -.172E-03
   -.505E+01 -.378E+01 0.202E+03   0.507E+01 0.386E+01 -.204E+03   -.115E-01 -.813E-01 0.198E+01   0.119E-04 0.113E-03 -.208E-03
   -.534E+01 -.423E+01 0.203E+03   0.534E+01 0.428E+01 -.205E+03   -.467E-02 -.571E-01 0.194E+01   -.412E-04 0.120E-03 0.283E-04
   -.500E+01 -.385E+01 0.202E+03   0.502E+01 0.393E+01 -.204E+03   -.148E-01 -.788E-01 0.198E+01   0.354E-04 -.604E-04 -.198E-03
   -.502E+01 -.379E+01 0.202E+03   0.503E+01 0.387E+01 -.204E+03   -.115E-01 -.795E-01 0.198E+01   0.699E-04 0.733E-04 -.198E-03
 -----------------------------------------------------------------------------------------------
   -.944E+01 0.951E+01 -.136E+00   0.568E-13 0.420E-12 -.824E-12   0.944E+01 -.951E+01 0.136E+00   0.116E-04 -.222E-03 -.429E-04
 
 
 POSITION                                       TOTAL-FORCE (eV/Angst)
 -----------------------------------------------------------------------------------
      0.69431      1.16678      8.50361         0.000235      0.000787     -0.001479
      4.62006      1.16961      8.52669         0.000577      0.000353     -0.001141
      8.54582      1.17244      8.54977        -0.000718      0.000412     -0.000749
      0.68421      5.09252      8.52669         0.000014     -0.000587     -0.000254
      4.60997      5.09535      8.54977         0.000199     -0.000576     -0.000188
      8.53573      5.09818      8.57285        -0.000162     -0.000495     -0.000210
      0.67412      9.01827      8.54977        -0.000078      0.000152     -0.000792
      4.59988      9.02110      8.57285         0.000596      0.000518     -0.000564
      8.52563      9.02393      8.59592        -0.000416      0.000366     -0.000483
      0.73117      1.20377      1.72829        -0.003588     -0.001091      0.004204
      4.65693      1.20660      1.75137        -0.001505     -0.001047      0.005204
      8.58269      1.20942      1.77444        -0.000398     -0.000021      0.000144
      0.72108      5.12951      1.75137        -0.000885      0.000322      0.000949
      4.64684      5.13234      1.77444         0.001106      0.000541      0.001057
      8.57259      5.13517      1.79752        -0.000455      0.000073      0.000129
      0.71099      9.05525      1.77444        -0.000528      0.000052      0.000930
      4.63674      9.05808      1.79752         0.000748     -0.000209      0.001062
      8.56250      9.06091      1.82060        -0.000442     -0.000090      0.000111
      2.69503      1.20291      2.04243         0.015690      0.026273     -0.100681
      6.62270      1.20766      2.05588        -0.001018      0.000435     -0.001502
     10.54845      1.21049      2.07896        -0.000321      0.000464     -0.001328
      2.68685      5.13057      2.05588         0.000141     -0.002548     -0.002180
      6.61260      5.13340      2.07896        -0.000181     -0.000310     -0.001251
     10.53836      5.13623      2.10204        -0.000442     -0.000127     -0.001326
      2.67675      9.05632      2.07896         0.000137     -0.000468     -0.001762
      6.60251      9.05915      2.10204         0.000002     -0.000174     -0.001258
     10.52827      9.06198      2.12512        -0.000646     -0.000392     -0.001332
      0.69972     -0.79898      8.19910        -0.000148      0.000298      0.002827
      4.62547     -0.79615      8.22217        -0.000359      0.000256      0.001525
      8.55123     -0.79332      8.24525         0.000662      0.000586      0.000958
      0.68962      3.12676      8.22217        -0.000143     -0.000059      0.001516
      4.61538      3.12959      8.24525        -0.000572     -0.000156      0.001438
      8.54114      3.13242      8.26833         0.000794     -0.000314      0.001019
      0.67953      7.05251      8.24525         0.000273      0.000423      0.000855
      4.60529      7.05534      8.26833        -0.000685      0.000526      0.000882
      8.53104      7.05817      8.29141         0.000455      0.000382      0.000830
     -1.24734      1.15770      6.42338        -0.000345      0.000235      0.001146
      2.67842      1.16053      6.44646         0.000174      0.000123      0.003675
      6.60417      1.16336      6.46954         0.000274      0.000284      0.000520
     -1.25744      5.08344      6.44646        -0.000230      0.000283      0.000910
      2.66832      5.08627      6.46954         0.000100      0.000317      0.000572
      6.59408      5.08910      6.49262         0.000084      0.000128      0.000566
     -1.26753      9.00919      6.46954        -0.000384     -0.000402      0.001348
      2.65823      9.01202      6.49262         0.000050     -0.000352      0.001082
      6.58398      9.01484      6.51569         0.000289     -0.000275      0.000816
      0.73386      3.14543      3.80852        -0.004832      0.006103      0.001412
      4.65962      3.14826      3.83160         0.003423      0.004017     -0.000662
      8.58538      3.15109      3.85467        -0.000131     -0.000035     -0.000160
      0.72377      7.07118      3.83160         0.000361     -0.000242     -0.000202
      4.64953      7.07401      3.85467        -0.000231     -0.000244     -0.000234
      8.57528      7.07684      3.87775        -0.000063     -0.000101     -0.000046
      0.71368     10.99692      3.85467        -0.007078     -0.007279      0.003987
      4.63943     10.99975      3.87775         0.005417     -0.004981      0.001701
      8.56519     11.00258      3.90083        -0.000135      0.000285     -0.000078
      0.73979      3.17832      0.02308         0.004461     -0.003530      0.003746
      4.66555      3.18115      0.04616        -0.005220     -0.004727      0.005394
      8.59130      3.18398      0.06923        -0.000080      0.000009     -0.000037
      0.72970      7.10407      0.04616         0.000152     -0.000253     -0.000078
      4.65545      7.10690      0.06923        -0.000067     -0.000194     -0.000103
      8.58121      7.10973      0.09231        -0.000036     -0.000100     -0.000179
      0.71960     11.02981      0.06923         0.002641      0.002775      0.001691
      4.64536     11.03264      0.09231        -0.003329      0.003802      0.003006
      8.57112     11.03547      0.11539        -0.000103      0.000067     -0.000088
      2.61849      1.23237      4.04033        -0.003550     -0.000755      0.060325
      6.54425      1.23520      4.06340        -0.000608     -0.000559      0.000317
     10.47001      1.23803      4.08648         0.001060     -0.000494     -0.000147
      2.60840      5.15812      4.06340        -0.000308     -0.000577      0.000934
      6.53415      5.16095      4.08648        -0.000546     -0.000732      0.000105
     10.45991      5.16378      4.10956         0.001035     -0.000976      0.000005
      2.59830      9.08386      4.08648        -0.000314      0.001410     -0.000057
      6.52406      9.08669      4.10956        -0.001018      0.001302      0.000173
     10.44982      9.08952      4.13264         0.001572      0.001548      0.000030
      0.67192     -0.72062      6.19157         0.000273      0.000130     -0.003025
      4.59767     -0.71779      6.21465        -0.000443      0.000337     -0.001645
      8.52343     -0.71497      6.23773        -0.000029     -0.000168     -0.000437
      0.66182      3.20512      6.21465         0.000233     -0.000581     -0.001722
      4.58758      3.20795      6.23773        -0.000482     -0.000811     -0.000843
      8.51333      3.21078      6.26081         0.000005     -0.000303     -0.000326
      0.65173      7.13086      6.23773        -0.000182     -0.000147     -0.000384
      4.57748      7.13369      6.26081        -0.000008     -0.000133     -0.000227
      8.50324      7.13652      6.28389         0.000068     -0.000100     -0.000096
     -1.26712     -0.80254      8.61927        -0.000450     -0.000667     -0.002090
      2.65864     -0.79971      8.64235         0.000854      0.000009     -0.003016
      6.58440     -0.79688      8.66542         0.000070     -0.000228     -0.000330
     -1.27721      3.12320      8.64235         0.000396      0.001247     -0.001516
      2.64854      3.12603      8.66542        -0.000129      0.000946     -0.002300
      6.57430      3.12886      8.68850         0.000156      0.000138     -0.000176
     -1.28731      7.04895      8.66542         0.000063     -0.000688     -0.001229
      2.63845      7.05177      8.68850        -0.000072     -0.001000     -0.001515
      6.56421      7.05460      8.71158         0.000418     -0.000082     -0.000222
      2.69403      3.17166      1.61263        -0.001226     -0.011929      0.009497
      6.61978      3.17449      1.63571         0.000916      0.000058      0.001653
     10.54554      3.17732      1.65879        -0.000379     -0.000174      0.001758
      2.68393      7.09741      1.63571        -0.000011      0.000920      0.000219
      6.60969      7.10024      1.65879         0.000298      0.000102      0.000306
     10.53545      7.10307      1.68187        -0.000106      0.000110      0.000344
      2.67384     11.02315      1.65879        -0.001265     -0.006471      0.005724
      6.59960     11.02598      1.68187         0.000454     -0.000590      0.001478
     10.52535     11.02881      1.70494         0.000150     -0.000359      0.001567
 -----------------------------------------------------------------------------------
    total drift:                                0.000112     -0.000125     -0.000020


--------------------------------------------------------------------------------------------------------



  FREE ENERGIE OF THE ION-ELECTRON SYSTEM (eV)
  ---------------------------------------------------
  free  energy   TOTEN  =      -550.33874818 eV

  energy  without entropy=     -550.33874818  energy(sigma->0) =     -550.33874818
 


--------------------------------------------------------------------------------------------------------


    POTLOK:  cpu time    3.6882: real time    3.7074


--------------------------------------------------------------------------------------------------------


     LOOP+:  cpu time 8993.6772: real time 9083.7711
    4ORBIT:  cpu time    0.0000: real time    0.0000

 total amount of memory used by VASP MPI-rank0  1508757. kBytes
=======================================================================

   base      :      30000. kBytes
   nonl-proj :      85790. kBytes
   fftplans  :      89726. kBytes
   grid      :      70158. kBytes
   one-center:        528. kBytes
   wavefun   :    1232555. kBytes
 
  
  
 General timing and accounting informations for this job:
 ========================================================
  
                  Total CPU time used (sec):     9117.038
                            User time (sec):     9021.639
                          System time (sec):       95.399
                         Elapsed time (sec):     9211.291
  
                   Maximum memory used (kb):     1708060.
                   Average memory used (kb):           0.
  
                          Minor page faults:      1392226
                          Major page faults:           21
                 Voluntary context switches:        88772
