# epsilon and Z* of atoms 1 3 5 7 8 10
   6.31411045    0.01614555   -0.00361543    0.01614555    6.31421676   -0.00362736   -0.00361536   -0.00362729    6.38162452 
   1.33877391    0.00029902    0.00077901    0.00038625    0.99556009    0.00530664    0.00212165   -0.00132978    1.39884998 
  -1.92637195   -0.00044322    0.01419680    0.00064129   -3.33950052   -0.01218835    0.03083406   -0.01897290   -2.54211091 
  -2.38267354   -0.01485176   -0.01194125   -0.01288551   -2.49211902    0.01321342   -0.01988484    0.02010145   -2.36416575 
  -1.74035074    0.00275941    0.00511799    0.00275941   -1.74033257    0.00513487    0.00592441    0.00594395   -2.59100614 
   2.42206722    0.01788103    0.02009263    0.01753283    2.40655760   -0.03344065    0.00995169   -0.02753026    2.36120733 
   2.59708108   -0.00139095   -0.00087491   -0.00216772    2.12096678   -0.00018823    0.00570834   -0.00682942    2.44172242 