  99   99
1 1
     2.572157253630145     0.008258138082814     0.031756477961220
     0.008389444413464     5.829689018833235     0.077328901045741
     0.039859210682329     0.089940883832903     0.954308593132406
1 2
    -0.123056145361966    -0.000635196514794     0.018371767829306
     0.000364378520112     0.042033842839677     0.000822293079447
    -0.025819005672548     0.001342048290801     0.129619763771387
1 3
    -0.123669591400419     0.000605980850977    -0.027000082492853
     0.000128190839676     0.042060709695103     0.000916647434674
     0.020129515066396     0.001482398064043     0.129532425578339
1 4
     0.038252736084379     0.001762526297410    -0.001099032412189
     0.000837542307991    -0.149228602170229    -0.002326063399378
     0.001077007857183     0.002817469573595     0.012025247263744
1 5
    -0.006708594121830    -0.012322173341540    -0.001031505207195
    -0.011925566657923    -0.011387081971890     0.000436684389014
    -0.001093502388693    -0.002353590245847     0.009810833502222
1 6
    -0.008873959023393     0.013131282565936    -0.002643733785936
     0.011924720001632    -0.012463423972918     0.000795604774067
     0.000545817745265    -0.001883010254015     0.009800900400823
1 7
     0.038575102809573     0.001694594560399    -0.001036173743760
     0.001378133017731    -0.149485898127511    -0.000869464372174
     0.001289529185737    -0.002606421633887     0.011020316745584
1 8
    -0.009282185167840     0.014208916235066    -0.001181669414293
     0.011231437418138    -0.012507571098346    -0.002150281115335
    -0.001628454877372     0.000824690443261     0.009815281887787
1 9
    -0.006763325128560    -0.012104556570023    -0.003555236470272
    -0.012263187722843    -0.011324863351117    -0.002211955228060
     0.000603103161952     0.000766660672499     0.009401886445819
1 10
     0.034071259421706    -0.072052505994297     0.069385164831490
    -0.019110400759667     0.033160578149801     0.010836385934742
     0.010140805182890     0.068443626802352    -0.066898450876865
1 11
     0.017063143996569     0.073040867171324    -0.055522280976326
     0.019146411873260     0.022335448510511     0.010414653599695
    -0.005723404032236     0.069374787157895    -0.063486122656165
1 12
    -0.039593231868494     0.001009561006014    -0.007804239184239
    -0.000185477889267     0.005201995560286     0.002109895425375
    -0.004904165237340     0.018237383170878    -0.015211254282302
1 13
     0.022597163707182     0.072532137005026     0.070914578090165
     0.019112038226985     0.016222887712896    -0.005694049874563
     0.009859328177016    -0.058443712277467    -0.063831648330938
1 14
     0.021396720728419    -0.076714713662872    -0.059213475497080
    -0.021785289199098     0.022064738877149    -0.011068393338053
    -0.010996723529410    -0.062012240633441    -0.062275960568049
1 15
    -0.031366473222192     0.006401780724477    -0.006121352030349
     0.002654894968495     0.004152207040468    -0.003181842849058
     0.000511969867216    -0.010574440131973    -0.013177308573939
1 16
     0.005075756899406     0.000062728054374     0.019596124756777
     0.000006723752352    -0.039297744818589    -0.004597741472610
     0.002097032124982    -0.010020143907543    -0.014879331559359
1 17
     0.004030745596363     0.005748234066404    -0.009204103645822
     0.002958231899247    -0.033225218015069     0.000180525832986
    -0.003454502022657    -0.007516608336377    -0.013215737766707
1 18
    -0.007250254574888    -0.006287002534636    -0.006082429135874
    -0.002886909605266    -0.008914666353692     0.000568459698096
     0.001056094161244    -0.008196465164546    -0.008945788368596
1 19
    -0.091369408836947    -0.003121490294110    -0.039106944035704
     0.000626227008785    -0.033911101303351    -0.034467863197450
    -0.007849866379948    -0.133559765523268     0.137553754533072
1 20
     0.071978969960234    -0.087490076208182     0.063296070893387
     0.007166594246315    -0.031973201099138     0.007062944977883
     0.034469536471623    -0.097290007999636     0.077562873212158
1 21
     0.046274292581337     0.082479910889653    -0.030808822569522
    -0.007167851424484    -0.045688832698199     0.007295910261746
    -0.031949771690637    -0.096630058471851     0.104793773227411
1 22
    -0.090259109418359    -0.002063357612131    -0.003314775348123
     0.003700640970416    -0.009913976416473     0.023915489321453
    -0.008019274427293     0.113885192489936     0.111505807109472
1 23
     0.072486949393348     0.081493690592575     0.065498841940602
    -0.007008637794599    -0.030883595747897    -0.005915780469990
     0.033916053926604     0.073148387512405     0.080645682931691
1 24
     0.047705192977774    -0.092087677669596    -0.065350380198277
     0.003351501472258    -0.022457989348527    -0.017617324738517
    -0.032112605595067     0.075317532569594     0.075943974100514
1 25
    -0.032100184015162    -0.004226460210512    -0.002504619346710
    -0.004924808639442     0.056325002833050     0.009302380895903
    -0.005924934838560     0.019186967501580     0.023708792043292
1 26
     0.034168229388481    -0.000393133563045     0.013114551381986
     0.000172111769935     0.038965249066320    -0.002515322940042
     0.003188908550556     0.022887400070030     0.021432830724580
1 27
     0.004210828096115     0.003009804415706    -0.013618584794348
     0.004006551435478     0.047031857179793     0.009074865249395
     0.001336749590655     0.019537467373778     0.017913802544936
1 28
    -0.641856912730890     0.002652655099053    -0.003006058248000
     0.006715467366449    -1.344280642280706     0.067703957010012
    -0.000796866048426    -0.237598434072495    -0.502989538671054
1 29
     0.144299963236576    -0.064037245332703    -0.022065813574398
    -0.101303641186605    -0.003562917424491     0.032316795148709
     0.000949723678708    -0.003710126258338    -0.098812990281147
1 30
     0.144769605649532     0.062682376950378     0.030159112333272
     0.101599621211424    -0.003692789819633     0.034463178106055
     0.005138196860992    -0.001380643120322    -0.097376726688838
1 31
    -0.639375245959939     0.002898447276681    -0.006744983665420
    -0.004882126255984    -1.451168963208832    -0.060784270125809
    -0.000841808187390     0.218773293442601    -0.491086927212813
1 32
     0.141840598349389     0.064415063306110    -0.020081155020458
     0.101481046253888    -0.004294124528744    -0.032717190522166
     0.002678596953137     0.004535460930180    -0.093411892443451
1 33
     0.145427816176592    -0.064542725688853     0.030204609836045
    -0.102146532939877    -0.003943971107702    -0.034517346350522
     0.003292924705918     0.002200651512940    -0.094191941950663
1 34
    -0.051633708692697     0.000948513637745    -0.000488604875790
    -0.001347563763639     0.071811172462950     0.001764955818372
    -0.001994677538459     0.005400163045190    -0.019252700486475
1 35
     0.029941505258078     0.001535324428859    -0.006676223100550
     0.000742516795852     0.035263887752670     0.001375747849008
     0.001613469283243     0.005066953311476    -0.016226346774053
1 36
     0.031716319068418     0.001732414742404     0.009220521280099
     0.000485172135683     0.035609237394296     0.000818174104809
     0.002362443700553     0.005179947535210    -0.016407297776125
1 37
    -0.011075062288537     0.004067528762223     0.261730591146419
     0.002298359395020    -0.214156347113054     0.006319652833398
     0.162579166759916    -0.005716234913433     0.119920319761296
1 38
    -0.016393243298747    -0.003521802513094    -0.279373509074474
    -0.001222012355118    -0.219716681234082     0.002555954696903
    -0.174138689770685    -0.006191560282946     0.115552339256078
1 39
     0.088669718513320    -0.003318801157710     0.004782222134534
    -0.000797938779737    -0.020333850653253     0.000018948455805
     0.004152751262862    -0.010819415956539    -0.011338373494456
1 40
    -0.016286659983863    -0.021455309895526     0.002580624254315
    -0.068689673457637     0.081209103771090    -0.071497789951913
     0.003552471121722    -0.023152154283373    -0.000773401590003
1 41
    -0.034245714839447     0.018586384766990    -0.016384264931159
     0.068036270630234     0.079885570993022    -0.065873940236204
    -0.006961619106842    -0.020351829928546     0.001948945279632
1 42
     0.040047811300656     0.003822550025674     0.003890313908027
     0.000714610440760     0.009011492198133    -0.012214306443692
     0.003466225974312    -0.004078990450189    -0.000415437122186
1 43
    -0.020141462480118     0.018611612164010     0.008096236691926
     0.066248215202800     0.083150283080106     0.069227733316517
     0.006695709575642     0.032369657794923    -0.004336380421972
1 44
    -0.026571717246235    -0.019021331750317    -0.016651975719715
    -0.065790846462606     0.082228553282490     0.065080747509724
    -0.008051372090650     0.030999949480708    -0.005992032462892
1 45
     0.036286332005674     0.001525929964996    -0.001319735862802
     0.000332242058653     0.012474574628118     0.011948752060917
     0.001882288367171     0.013456916994448    -0.005171347018569
1 46
    -0.084491097205480     0.000818452372287    -0.065929385102494
     0.002977346643202    -0.021973747617971    -0.054172908419100
    -0.014124592878443    -0.044331552050515     0.131629259550640
1 47
     0.027565292671813     0.035679769776007     0.030747816975595
    -0.002420608838538    -0.021329928209929     0.004040332385099
    -0.023911891122560    -0.037300780338401     0.114453910344666
1 48
     0.079216725271696    -0.037840932252087     0.044624230139048
     0.002322241160890    -0.017963883331900     0.004539051214448
     0.033085364233183    -0.039174318181327     0.082382590196795
1 49
    -0.023338827896716    -0.003945441568902    -0.006222929485265
    -0.002594851510155     0.031816069610447     0.011651316740472
    -0.006074940295150     0.016916176386750     0.024823359092404
1 50
    -0.002562577325233     0.005933490587179     0.012429046628482
     0.002884517080564     0.024023952794612     0.011283651501806
     0.003054101337253     0.016976962971266     0.022801733611176
1 51
     0.026410191428282     0.001211291678729     0.005637267179481
    -0.000031888985407     0.021785035089186     0.002515527832293
     0.001921383931758     0.014464358064408     0.019821355045535
1 52
    -0.075676580095959     0.003844388876578    -0.008010067145874
    -0.000854967829659    -0.008698742518708     0.040829746487974
    -0.008698040470614     0.028400102907793     0.080293154232593
1 53
     0.038646839642446    -0.041413315888088    -0.030515019753398
    -0.000354231230252    -0.011750783668999    -0.016759870198406
    -0.029668859827726     0.021019029789875     0.061676999170227
1 54
     0.065525033616921     0.040860563406473     0.047688600788967
    -0.001919559342575    -0.015233885229519    -0.008382331869064
     0.034277661070632     0.026390200300816     0.061713200702260
1 55
    -0.158754397803187    -0.002486519770258     0.002916127680007
    -0.001166170561289    -0.211020808094332    -0.005572056255209
     0.042945783238964    -0.002199378118438    -0.161362676699971
1 56
    -0.159474190424947    -0.001148539391093    -0.012915871486248
     0.003170913957918    -0.211224061619263     0.000489508380553
    -0.051781085327093    -0.003272863551234    -0.169298019027242
1 57
     0.115706962148494    -0.002264809531866     0.007338479310812
    -0.001337050291643    -0.012381772260103    -0.000356544869154
     0.002046598210959    -0.002603740645838    -0.027914496425951
1 58
    -0.005651545969727    -0.044013859639689    -0.009313773866883
    -0.051573211597204     0.067147522229297     0.062056446755066
     0.001210977736660     0.025294240580141    -0.016691026137387
1 59
    -0.005157941847623     0.043327401650246     0.007843116429282
     0.050797044381629     0.065916412641441     0.062803203893144
    -0.000724850237571     0.026426824795203    -0.015692058537720
1 60
     0.028008384123588    -0.000926893430615     0.001318008110179
     0.000059953071965     0.007013939304727     0.005790666746862
     0.000351092165118     0.009155803867514    -0.005555670791132
1 61
    -0.008604690891740     0.042893320397060    -0.007861508688871
     0.051069695564679     0.065116129599734    -0.054781196070985
     0.003441576505661    -0.021009172003189    -0.009551041427426
1 62
    -0.004135145131434    -0.044637883362976     0.003450784480595
    -0.051814116946774     0.065509190384249    -0.060536281388822
    -0.003501262318437    -0.022984978691903    -0.011923568384594
1 63
     0.028771802164131     0.000232290150804     0.006693640255164
     0.001576444878062     0.006341084256729    -0.005496340984355
     0.001202053755839    -0.007120338177429    -0.000520772906754
1 64
     0.078109866764192    -0.004675435083080     0.188647804621638
    -0.002009655326825     0.005192474741538     0.012669943859200
    -0.019656312085657     0.031659869397793    -0.224401137746956
1 65
    -0.046667411544943     0.010513876267294    -0.034522162636361
     0.000912591274478     0.005750488439791    -0.000468668700622
    -0.004433943700868     0.020951725813061    -0.047904737733605
1 66
     0.033456512465144     0.006605076049159    -0.147932070333875
     0.001117778410114    -0.001003300476570    -0.004265503975063
     0.026838533319301     0.026837560666660    -0.207784748917301
1 67
     0.034944307795975    -0.001325196918910     0.017751482836619
    -0.002080497918931    -0.004398341724775     0.025809448099120
     0.008047136439005    -0.001557587737469    -0.060521842664247
1 68
    -0.036820920952876    -0.009586890438390    -0.034695565023207
    -0.001216851974243     0.002096181680403     0.012747784006643
    -0.005162554295523     0.003778463938524    -0.028618408806566
1 69
     0.006923019968033     0.009536853267405     0.022716965404687
     0.004542066382205    -0.002228444682518     0.043852486988653
     0.002182164291123     0.002963399366795    -0.037539570831193
1 70
     0.026017465243273     0.004317258699719     0.018516921187534
     0.004165993997915    -0.013729894939836    -0.038747017269698
     0.006887608211457    -0.023524456843791    -0.012702221583149
1 71
    -0.036030861249313     0.001714686057656    -0.007932149851632
     0.000269827428022    -0.007796214839431    -0.012101377295584
    -0.003566447138566    -0.024417508573293     0.000549959478055
1 72
     0.013171231649349    -0.003299593356207    -0.002465229466804
    -0.004999339434462    -0.009510570050875    -0.040963392753472
    -0.001683668387851    -0.023069002467670    -0.009745629621465
1 73
     0.229741766976008    -0.010416401053315     0.003384026340681
    -0.009114302452870    -0.181274887875857    -0.708759264793566
     0.001587398251731    -0.524140340178905    -0.342628980501170
1 74
    -0.088672001447919     0.068205378119326     0.012144881064697
    -0.003053705369795     0.038958934843539    -0.041325741271861
     0.074279482887712    -0.107726226013715     0.027578380294500
1 75
    -0.095793321608607    -0.068572202177613    -0.024565127996906
     0.004606968061248     0.036819482054208    -0.042944195845955
    -0.079558369705717    -0.104456049093780     0.027668839475375
1 76
     0.194608730796475     0.007548975472174     0.017954407068858
     0.009661862325780    -0.187899044261506     0.655351096068359
     0.001653223359266     0.461957210460977    -0.285014797835357
1 77
    -0.078325714282305    -0.071019005782921    -0.002557611365787
    -0.001930164150168     0.044276958629215     0.045904388149723
     0.066213476666896     0.101276448344411     0.002548390836549
1 78
    -0.084046685185034     0.059274858277750    -0.026067878668598
     0.000117273258833     0.040552790886758     0.044434493409177
    -0.068363971592985     0.096531181640828     0.013250965894070
1 79
     0.040329560596899     0.001404308792436     0.003756145991346
     0.000493415253843    -0.068013526319001    -0.006128305175451
     0.001325363467643    -0.005913624362843    -0.006747216510110
1 80
    -0.016348370614399     0.000134053692070    -0.003078651420151
     0.001805719503303    -0.062719100267497    -0.004719512087977
     0.009574382639710    -0.005757660656191    -0.005869067440636
1 81
    -0.023991396996224    -0.000439536070387    -0.007751653772802
    -0.002854779759192    -0.059392188416941    -0.002004935372847
    -0.012412508554417    -0.005726733283954    -0.003408576067816
1 82
    -0.366969406295892    -0.796421675247192    -0.074179719444360
    -1.011505400638947    -0.502050173612563     0.064053834934683
    -0.003994087565736     0.096465145049359     0.333634767037833
1 83
    -0.371718516185711     0.797449915830168     0.068424604355237
     1.011003732296629    -0.501185700684832     0.078424978739595
    -0.001903905162254     0.105011468652289     0.335220063478218
1 84
    -0.109358594919033     0.002146584326287    -0.004744061970819
     0.000629604772457     0.006807612787523     0.012794808530275
    -0.002343615112960     0.024249075639729     0.038659389324824
1 85
    -0.382950055439262     0.807879287113990    -0.063089405854076
     1.016183851503776    -0.497627558304325    -0.074587811188447
     0.003303033378110    -0.098401922136835     0.334112442127976
1 86
    -0.374801875517473    -0.813225563568490     0.059099154020907
    -1.030202232237739    -0.514652816583948    -0.089947607462633
    -0.009725585471934    -0.107895775477566     0.337881088588865
1 87
    -0.108627724038364     0.004720498067124    -0.004405728509096
     0.000432195717260     0.006695516383611    -0.013056158414085
    -0.002805604969902    -0.019433926696770     0.038115837179638
1 88
     0.008007534777332    -0.000849127378468    -0.023213375827894
     0.000718516139740    -0.067805062506055    -0.002021153770681
    -0.001941369255209    -0.006126878580936     0.030777816713908
1 89
     0.009583381516140    -0.001665823878784     0.025696551476042
     0.000653338771069    -0.066363776103572    -0.001392359921112
     0.002180112816800    -0.006612831087877     0.030518779518386
1 90
    -0.018901392499279    -0.004776676352956    -0.002932933868975
    -0.001209056967017    -0.016033760961778    -0.000721458496389
    -0.001287341080521    -0.005418269406936     0.012146497540878
1 91
     0.285370875536042    -0.011663189378229     0.009285514915052
    -0.009950254573301     0.071674161597759     0.010338391449119
     0.010683280678189     0.014685042459934    -0.393608588598020
1 92
    -0.211332786823873     0.002660589093005    -0.120347176380660
     0.000661026517531    -0.033168705956729    -0.000254193226115
    -0.125951145066257     0.001422857250003    -0.193121219375224
1 93
    -0.180340145807449     0.017558487568345     0.114443875669461
     0.009039023838000    -0.025206360168561     0.007855452495431
     0.120094506652957     0.014712762356456    -0.190446936794451
1 94
     0.040045673182392    -0.000549835318750     0.000997346013173
     0.000337687433654    -0.034185082253097    -0.047804046219576
     0.001069288246838    -0.060055949347238    -0.006782988357085
1 95
    -0.025300840190020    -0.030720195612159    -0.006111608794372
    -0.024800336012309     0.008415593612713    -0.029568135993777
    -0.005822719568630    -0.035538143781563    -0.005900704009828
1 96
    -0.020610357681943     0.028187185105837     0.003411253579569
     0.025055084402480    -0.005526931135574    -0.029246216606576
     0.004412323281221    -0.035248682422322    -0.005463068809471
1 97
     0.048015398808770     0.014669835022411     0.006798319975873
     0.010438753546263    -0.020377809808065     0.039417902861063
     0.006620716019165     0.046289463515578    -0.020262444322913
1 98
    -0.046807106789421     0.029722111527078    -0.004543298613308
     0.023881567154492     0.001115839562711     0.030630807144878
    -0.006366817499506     0.034806099657599    -0.019794114070316
1 99
    -0.011087892750394    -0.044688643058851    -0.001418457222630
    -0.034967130296020     0.008628633129965     0.022363499485693
    -0.001207611684419     0.021287996002191    -0.019594717471076
2 1
    -0.123669591400419     0.000605980850977    -0.027000082492853
     0.000128190839676     0.042060709695103     0.000916647434674
     0.020129515066396     0.001482398064043     0.129532425578339
2 2
     2.572157253630144     0.008258138082814     0.031756477961220
     0.008389444413464     5.829689018833235     0.077328901045741
     0.039859210682329     0.089940883832903     0.954308593132406
2 3
    -0.123056145361966    -0.000635196514794     0.018371767829306
     0.000364378520112     0.042033842839677     0.000822293079447
    -0.025819005672548     0.001342048290801     0.129619763771387
2 4
    -0.008873959023393     0.013131282565936    -0.002643733785936
     0.011924720001632    -0.012463423972918     0.000795604774067
     0.000545817745265    -0.001883010254015     0.009800900400823
2 5
     0.038252736084378     0.001762526297410    -0.001099032412189
     0.000837542307991    -0.149228602170229    -0.002326063399378
     0.001077007857183     0.002817469573595     0.012025247263744
2 6
    -0.006708594121830    -0.012322173341540    -0.001031505207195
    -0.011925566657923    -0.011387081971890     0.000436684389014
    -0.001093502388693    -0.002353590245847     0.009810833502222
2 7
    -0.006763325128560    -0.012104556570023    -0.003555236470272
    -0.012263187722843    -0.011324863351117    -0.002211955228060
     0.000603103161952     0.000766660672499     0.009401886445819
2 8
     0.038575102809573     0.001694594560399    -0.001036173743760
     0.001378133017731    -0.149485898127511    -0.000869464372174
     0.001289529185737    -0.002606421633887     0.011020316745584
2 9
    -0.009282185167840     0.014208916235066    -0.001181669414293
     0.011231437418138    -0.012507571098346    -0.002150281115335
    -0.001628454877372     0.000824690443261     0.009815281887787
2 10
    -0.039593231868494     0.001009561006014    -0.007804239184239
    -0.000185477889267     0.005201995560286     0.002109895425375
    -0.004904165237340     0.018237383170878    -0.015211254282302
2 11
     0.034071259421706    -0.072052505994297     0.069385164831490
    -0.019110400759667     0.033160578149801     0.010836385934742
     0.010140805182890     0.068443626802352    -0.066898450876865
2 12
     0.017063143996569     0.073040867171324    -0.055522280976326
     0.019146411873260     0.022335448510511     0.010414653599695
    -0.005723404032236     0.069374787157895    -0.063486122656165
2 13
    -0.031366473222192     0.006401780724477    -0.006121352030349
     0.002654894968495     0.004152207040468    -0.003181842849058
     0.000511969867216    -0.010574440131973    -0.013177308573939
2 14
     0.022597163707182     0.072532137005026     0.070914578090165
     0.019112038226985     0.016222887712896    -0.005694049874563
     0.009859328177016    -0.058443712277467    -0.063831648330938
2 15
     0.021396720728419    -0.076714713662872    -0.059213475497080
    -0.021785289199098     0.022064738877149    -0.011068393338053
    -0.010996723529410    -0.062012240633441    -0.062275960568049
2 16
    -0.007250254574888    -0.006287002534636    -0.006082429135874
    -0.002886909605266    -0.008914666353692     0.000568459698096
     0.001056094161244    -0.008196465164546    -0.008945788368596
2 17
     0.005075756899406     0.000062728054374     0.019596124756777
     0.000006723752352    -0.039297744818589    -0.004597741472610
     0.002097032124982    -0.010020143907543    -0.014879331559359
2 18
     0.004030745596363     0.005748234066404    -0.009204103645822
     0.002958231899247    -0.033225218015069     0.000180525832986
    -0.003454502022657    -0.007516608336377    -0.013215737766707
2 19
     0.046274292581337     0.082479910889653    -0.030808822569522
    -0.007167851424484    -0.045688832698199     0.007295910261746
    -0.031949771690637    -0.096630058471851     0.104793773227411
2 20
    -0.091369408836947    -0.003121490294110    -0.039106944035704
     0.000626227008785    -0.033911101303351    -0.034467863197450
    -0.007849866379948    -0.133559765523268     0.137553754533072
2 21
     0.071978969960234    -0.087490076208182     0.063296070893387
     0.007166594246315    -0.031973201099138     0.007062944977883
     0.034469536471623    -0.097290007999636     0.077562873212158
2 22
     0.047705192977774    -0.092087677669596    -0.065350380198277
     0.003351501472258    -0.022457989348527    -0.017617324738517
    -0.032112605595067     0.075317532569594     0.075943974100514
2 23
    -0.090259109418359    -0.002063357612131    -0.003314775348123
     0.003700640970416    -0.009913976416473     0.023915489321453
    -0.008019274427293     0.113885192489936     0.111505807109472
2 24
     0.072486949393348     0.081493690592575     0.065498841940602
    -0.007008637794599    -0.030883595747897    -0.005915780469990
     0.033916053926604     0.073148387512405     0.080645682931691
2 25
     0.004210828096115     0.003009804415706    -0.013618584794348
     0.004006551435478     0.047031857179793     0.009074865249395
     0.001336749590655     0.019537467373778     0.017913802544936
2 26
    -0.032100184015162    -0.004226460210512    -0.002504619346710
    -0.004924808639442     0.056325002833050     0.009302380895903
    -0.005924934838560     0.019186967501580     0.023708792043292
2 27
     0.034168229388481    -0.000393133563045     0.013114551381986
     0.000172111769935     0.038965249066320    -0.002515322940042
     0.003188908550556     0.022887400070030     0.021432830724580
2 28
     0.144769605649532     0.062682376950378     0.030159112333272
     0.101599621211424    -0.003692789819633     0.034463178106055
     0.005138196860992    -0.001380643120322    -0.097376726688838
2 29
    -0.641856912730890     0.002652655099053    -0.003006058248000
     0.006715467366449    -1.344280642280706     0.067703957010012
    -0.000796866048426    -0.237598434072495    -0.502989538671054
2 30
     0.144299963236576    -0.064037245332703    -0.022065813574398
    -0.101303641186605    -0.003562917424491     0.032316795148709
     0.000949723678708    -0.003710126258338    -0.098812990281147
2 31
     0.145427816176592    -0.064542725688853     0.030204609836045
    -0.102146532939877    -0.003943971107702    -0.034517346350522
     0.003292924705918     0.002200651512940    -0.094191941950663
2 32
    -0.639375245959939     0.002898447276681    -0.006744983665420
    -0.004882126255984    -1.451168963208832    -0.060784270125809
    -0.000841808187390     0.218773293442601    -0.491086927212813
2 33
     0.141840598349389     0.064415063306110    -0.020081155020458
     0.101481046253888    -0.004294124528744    -0.032717190522166
     0.002678596953137     0.004535460930180    -0.093411892443451
2 34
     0.031716319068418     0.001732414742404     0.009220521280099
     0.000485172135683     0.035609237394296     0.000818174104809
     0.002362443700553     0.005179947535210    -0.016407297776125
2 35
    -0.051633708692697     0.000948513637745    -0.000488604875790
    -0.001347563763639     0.071811172462950     0.001764955818372
    -0.001994677538459     0.005400163045190    -0.019252700486475
2 36
     0.029941505258078     0.001535324428859    -0.006676223100550
     0.000742516795852     0.035263887752670     0.001375747849008
     0.001613469283243     0.005066953311476    -0.016226346774053
2 37
     0.088669718513320    -0.003318801157710     0.004782222134534
    -0.000797938779737    -0.020333850653253     0.000018948455805
     0.004152751262862    -0.010819415956539    -0.011338373494456
2 38
    -0.011075062288537     0.004067528762223     0.261730591146419
     0.002298359395020    -0.214156347113054     0.006319652833398
     0.162579166759916    -0.005716234913433     0.119920319761296
2 39
    -0.016393243298747    -0.003521802513094    -0.279373509074474
    -0.001222012355118    -0.219716681234082     0.002555954696903
    -0.174138689770685    -0.006191560282946     0.115552339256078
2 40
     0.040047811300656     0.003822550025674     0.003890313908027
     0.000714610440760     0.009011492198133    -0.012214306443692
     0.003466225974312    -0.004078990450189    -0.000415437122186
2 41
    -0.016286659983863    -0.021455309895526     0.002580624254315
    -0.068689673457637     0.081209103771090    -0.071497789951913
     0.003552471121722    -0.023152154283373    -0.000773401590003
2 42
    -0.034245714839447     0.018586384766990    -0.016384264931159
     0.068036270630234     0.079885570993022    -0.065873940236204
    -0.006961619106842    -0.020351829928546     0.001948945279632
2 43
     0.036286332005674     0.001525929964996    -0.001319735862802
     0.000332242058653     0.012474574628118     0.011948752060917
     0.001882288367171     0.013456916994448    -0.005171347018569
2 44
    -0.020141462480118     0.018611612164010     0.008096236691926
     0.066248215202800     0.083150283080106     0.069227733316517
     0.006695709575642     0.032369657794923    -0.004336380421972
2 45
    -0.026571717246235    -0.019021331750317    -0.016651975719715
    -0.065790846462606     0.082228553282490     0.065080747509724
    -0.008051372090650     0.030999949480708    -0.005992032462892
2 46
     0.079216725271696    -0.037840932252087     0.044624230139048
     0.002322241160890    -0.017963883331900     0.004539051214448
     0.033085364233183    -0.039174318181327     0.082382590196795
2 47
    -0.084491097205480     0.000818452372287    -0.065929385102494