99   
33   

1    
  0.0099998246208561   0.0000072075797813   0.0000587843764499
  -0.0259633600    0.0003899500   -0.0003936600
   0.0013028700    0.0005293500   -0.0000811600
   0.0011751100    0.0005298500    0.0003788200
  -0.0003387400   -0.0006022000   -0.0000456200
   0.0001160200   -0.0004647700   -0.0000506600
  -0.0000031800   -0.0007067700   -0.0000353200
  -0.0003353800    0.0003925000    0.0001032800
   0.0001255400    0.0002634600    0.0000879500
  -0.0000202000    0.0005056900    0.0001146100
  -0.0007168200    0.0007893200   -0.0007004400
   0.0004445900   -0.0006236300    0.0006834400
  -0.0001278900    0.0000698900    0.0000237000
  -0.0005925400   -0.0007453900   -0.0007156500
   0.0003793700    0.0007081100    0.0007201000
  -0.0001949600   -0.0001027200    0.0000101800
  -0.0004356600   -0.0000659300   -0.0002261700
   0.0005609400   -0.0001184600    0.0002144100
  -0.0004244500    0.0000060800   -0.0000049100
   0.0007460900    0.0000030600    0.0003583700
  -0.0008498700    0.0008338900   -0.0006644400
  -0.0007878600   -0.0008349800    0.0002675000
   0.0007332700   -0.0000494500   -0.0000004200
  -0.0008484900   -0.0008599500   -0.0006763900
  -0.0008177800    0.0008409800    0.0006086400
   0.0001427200    0.0000186300    0.0000217000
  -0.0004673900   -0.0000178900   -0.0001492600
  -0.0003716300   -0.0000415800    0.0001059000
   0.0063942300    0.0004217800    0.0000983800
  -0.0013638000    0.0010741200    0.0002769000
  -0.0013883200   -0.0003076100   -0.0002639500
   0.0063749600    0.0000887600    0.0001054400
  -0.0013485200   -0.0005369300    0.0002218000
  -0.0014043700    0.0008586700   -0.0002865700
   0.0005964900    0.0002390600    0.0000119700
  -0.0002102400    0.0002240800    0.0000879400
  -0.0002587600    0.0002311000   -0.0000848900
   0.0001076200    0.0000448100   -0.0026395800
   0.0002317800    0.0001206700    0.0026886000
  -0.0008804700    0.0001177400   -0.0001050100
   0.0001680300    0.0003147600   -0.0000751600
   0.0003579000   -0.0000980200    0.0001171800
  -0.0003928500    0.0000578000   -0.0000854200
   0.0002052700   -0.0000989400   -0.0001291300
   0.0002741400    0.0002851700    0.0001248800
  -0.0003555400    0.0000851400   -0.0000355100
   0.0008778000    0.0000393900    0.0007387100
  -0.0002467000   -0.0003150200   -0.0002300100
  -0.0007754100    0.0004234800   -0.0003586500
   0.0002625000    0.0000920000    0.0001571400
   0.0000461000   -0.0000061700   -0.0000348200
  -0.0002378200    0.0000417800    0.0000359400
   0.0007813000    0.0000056800    0.0001629500
  -0.0003563700    0.0004674600    0.0003792100
  -0.0006286300   -0.0003572400   -0.0003918300
   0.0016390000    0.0000029600    0.0000039600
   0.0017807000   -0.0000082000    0.0002653000
  -0.0011402400    0.0000111700   -0.0000730200
   0.0000636200    0.0004267000    0.0000930500
   0.0000582400   -0.0004522000   -0.0000685800
  -0.0002605200   -0.0000182000   -0.0000158100
   0.0000988600   -0.0004508000    0.0000769900
   0.0000427700    0.0004357300   -0.0000148500
  -0.0002734000   -0.0000214700   -0.0000629200
  -0.0007057900   -0.0000449300   -0.0019315900
   0.0005667600   -0.0001823700    0.0002972200
  -0.0003181700   -0.0001222800    0.0013841200
  -0.0002702300   -0.0000897200   -0.0002554300
   0.0004785900   -0.0000218700    0.0002889300
  -0.0000474900   -0.0002166800   -0.0003478800
  -0.0001791700    0.0000306300   -0.0002370800
   0.0004511700    0.0000390800    0.0000556100
  -0.0001051000    0.0000965700   -0.0000555700
  -0.0024669000   -0.0000458200    0.0000894100
   0.0008861500   -0.0008450900   -0.0000029500
   0.0009103800    0.0005117600    0.0003442000
  -0.0021103200   -0.0003627300   -0.0001112200
   0.0007863700    0.0004247700    0.0000835400
   0.0008104800   -0.0008569500    0.0003245700
  -0.0005866700   -0.0002701600    0.0000166300
   0.0001679100   -0.0002527000    0.0001093400
   0.0002341800   -0.0002463900    0.0001507800
   0.0037653400    0.0078120100    0.0007053900
   0.0038576500   -0.0080590700   -0.0007286800
   0.0012879100   -0.0000787700    0.0000618300
   0.0039102900   -0.0079838900    0.0006315100
   0.0038870900    0.0081476000   -0.0006085400
   0.0013100700   -0.0000599100    0.0000908600
   0.0000264600   -0.0000905800    0.0002123000
   0.0000282000   -0.0000882000   -0.0003032900
   0.0003982700   -0.0000428400    0.0000383900
  -0.0027607500   -0.0000721000   -0.0001984800
   0.0021187000   -0.0001965200    0.0010409100
   0.0018367800   -0.0003266300   -0.0012474400
  -0.0002986600   -0.0000991500   -0.0000912000
   0.0002857300    0.0001811500   -0.0000393900
   0.0002777400   -0.0004125700   -0.0001229100
  -0.0003776700   -0.0002318900   -0.0001552200
   0.0004782800   -0.0003887900   -0.0000669700
   0.0001967700    0.0003587800   -0.0000668500

1    
 -0.0099998246208561  -0.0000072075797813  -0.0000587843764499
   0.0254836900    0.0006497200    0.0003547700
  -0.0011612400    0.0005174100    0.0003015200
  -0.0012958700    0.0005427500   -0.0001459300
   0.0004264400   -0.0005687700   -0.0000662200
  -0.0000184500   -0.0007116500   -0.0000701300
  -0.0001804200   -0.0004445500   -0.0000870300
   0.0004362800    0.0004239300    0.0000838400
  -0.0000601300    0.0005475500    0.0000654400
  -0.0001555700    0.0002635300    0.0000445800
  -0.0000344900   -0.0006431800    0.0006795300
   0.0007854500    0.0008456400   -0.0004343000
  -0.0009203200    0.0000923000   -0.0001341400
  -0.0001391700    0.0006985900    0.0006950300
   0.0008056900   -0.0008331300   -0.0004716300
  -0.0008221800    0.0000241300   -0.0001138400
  -0.0003339000   -0.0000664200    0.0001639300
   0.0006411900   -0.0000048600    0.0000287800
  -0.0005693700   -0.0001207500   -0.0001276000
  -0.0010821800   -0.0000755600   -0.0004080800
   0.0005938400   -0.0009277800    0.0006106800
   0.0001337500    0.0008025700   -0.0003362400
  -0.0010727700   -0.0000774700   -0.0000532600
   0.0006051100    0.0007780500    0.0006429600
   0.0001325800   -0.0009922100   -0.0006896700
  -0.0005000400   -0.0000628300   -0.0000254700
   0.0002163400   -0.0000225000    0.0001155100
  -0.0002872000    0.0000215900   -0.0001642300
  -0.0064426800    0.0004275200   -0.0000199000
   0.0015208000   -0.0002070900   -0.0001755600
   0.0015090900    0.0009458000    0.0003282700
  -0.0064124900    0.0001515300   -0.0000880700
   0.0014900200    0.0007518200   -0.0001912700
   0.0015030500   -0.0004319600    0.0003059400
  -0.0004364200    0.0002597000   -0.0000000400
   0.0003887800    0.0002558900   -0.0000474700
   0.0003758400    0.0002668700    0.0000976000
  -0.0000947300    0.0001224000    0.0026091300
  -0.0001165700    0.0000463400   -0.0028851500
   0.0008933700    0.0000498000   -0.0000107000
  -0.0001582700   -0.0001158900   -0.0000246700
  -0.0003268400    0.0002724600   -0.0002112200
   0.0004085100    0.0001339000   -0.0000078400
  -0.0001958100    0.0002782900    0.0000332800
  -0.0002591800   -0.0000904200   -0.0002079200
   0.0003704000    0.0001174200   -0.0000623400
  -0.0008136100    0.0000502300   -0.0005651600
   0.0003017500    0.0003938700    0.0003984500
   0.0008128200   -0.0003381900    0.0005435700
  -0.0002050200    0.0000155400    0.0000357700
  -0.0000047500    0.0001148400    0.0002166000
   0.0002906000    0.0000680200    0.0001510500
  -0.0007332400    0.0000857800    0.0000127800
   0.0004130600   -0.0003584900   -0.0002240700
   0.0006858500    0.0004628400    0.0005690600
  -0.0015310000   -0.0000500700    0.0000432300
  -0.0014147700   -0.0000346000   -0.0000129100
   0.0011740800   -0.0000346100    0.0000704600
  -0.0000500100   -0.0004496200   -0.0000942900
  -0.0000442700    0.0004183900    0.0000873400
   0.0002996800   -0.0000355600    0.0000099800
  -0.0000720900    0.0004055200   -0.0000821500
  -0.0000410900   -0.0004587700    0.0000518900
   0.0003021900   -0.0000175700    0.0000708100
   0.0008540400   -0.0001346400    0.0018151000
  -0.0003670800    0.0000304500   -0.0003988500
   0.0003541200    0.0000129600   -0.0015989600
   0.0004295600   -0.0001164700    0.0000928500
  -0.0002584400   -0.0002131300   -0.0004081500
   0.0000912900   -0.0000256300    0.0001026700
   0.0003420400    0.0001140100    0.0001312000
  -0.0002698500    0.0000703900   -0.0001031400
   0.0001580500    0.0000277300   -0.0001066100
   0.0021279100   -0.0003183800    0.0001065900
  -0.0008785700    0.0005068900    0.0002425900
  -0.0010147400   -0.0008714100   -0.0001444600
   0.0017821200   -0.0001601500    0.0002238000
  -0.0007723600   -0.0009830400    0.0000333500
  -0.0008784600    0.0003404600   -0.0001945800
   0.0002200700   -0.0002437500    0.0000908700
  -0.0001579000   -0.0002516000    0.0000470100
  -0.0002471400   -0.0002567100   -0.0000046800
  -0.0035889700   -0.0081120400   -0.0007380300
  -0.0035622400    0.0078947700    0.0006803300
  -0.0008994900   -0.0000328900   -0.0000283200
  -0.0037335400    0.0081546700   -0.0005920500
  -0.0036248100   -0.0081367300    0.0006118500
  -0.0008627700    0.0000323100    0.0000070400
   0.0001863900   -0.0001092600   -0.0002483700
   0.0002201300   -0.0001232500    0.0002142000
   0.0000200800   -0.0001392400   -0.0000188500
   0.0029476800   -0.0003026000   -0.0000589000
  -0.0021226800   -0.0001436200   -0.0013887000
  -0.0017557100    0.0000259000    0.0010191200
   0.0005023700   -0.0001177000   -0.0000727400
  -0.0002213200   -0.0004373000   -0.0001627400
  -0.0001335800    0.0001469400   -0.0000557500
   0.0005835500    0.0000666500   -0.0000210700
  -0.0004582500    0.0002097500   -0.0001597200
  -0.0000256300   -0.0005323500   -0.0000972000

1    
 -0.0000257121978141   0.0099997941618798   0.0000587843764849
   0.0000397500   -0.0579491800   -0.0004547400
   0.0000416700    0.0001153600    0.0001167900
  -0.0000763900    0.0001169800    0.0001264900
   0.0000546900    0.0009066300   -0.0000208700
   0.0001810400   -0.0004670400   -0.0000501900
  -0.0002065000   -0.0004615800   -0.0000543100
   0.0000558900    0.0018907800    0.0001202600
  -0.0000667600    0.0005088200    0.0001228900
   0.0000436400    0.0005045900    0.0001156500
  -0.0001813400   -0.0002592500   -0.0001366400
   0.0004150700   -0.0001327400    0.0000103100
  -0.0005232300    0.0000200600   -0.0000940200
  -0.0005600100   -0.0001984500    0.0000304100
   0.0008227900   -0.0002730900    0.0002225100
  -0.0005488000   -0.0000878500   -0.0000334400
  -0.0003819900    0.0003298100    0.0000007200
   0.0005778200    0.0002744600    0.0001043300
  -0.0004827300    0.0000377500   -0.0000803900
  -0.0001897600    0.0003431200    0.0003186900
  -0.0002034900    0.0003221500   -0.0000982900
  -0.0002580300    0.0004598700   -0.0001155100
  -0.0002296300    0.0000680700   -0.0002784500
  -0.0000403500    0.0002900300    0.0000296600
  -0.0003739500    0.0001996500    0.0001192700
  -0.0001384200   -0.0005787100   -0.0001082500
  -0.0001298000   -0.0004103000    0.0000096100
  -0.0003715200   -0.0004846700   -0.0001288700
  -0.0000316300    0.0131626700   -0.0007144400
   0.0010742800    0.0004276800   -0.0002673800
  -0.0009751500    0.0004091200   -0.0003000500
   0.0000774600    0.0153243000    0.0005491900
  -0.0009612000    0.0002101000    0.0003611300
   0.0010613700    0.0002158100    0.0003780500
   0.0000554000   -0.0004854200   -0.0000013000
   0.0000515800   -0.0001249400    0.0000165300
   0.0000276800   -0.0001179000    0.0000151700
  -0.0000134900    0.0022305700   -0.0000648700
   0.0000265800    0.0022844100   -0.0000454500
   0.0000199700    0.0002944100   -0.0000122400
   0.0006978200   -0.0007200600    0.0007107000
  -0.0006693700   -0.0007037200    0.0006523800
   0.0000014800    0.0000030700    0.0001139300
  -0.0006505500   -0.0007401000   -0.0006967100
   0.0006682800   -0.0007313500   -0.0006546000
   0.0000057000   -0.0000351200   -0.0001255500
  -0.0000063600    0.0002722600    0.0005796100
   0.0000495700    0.0002654100    0.0000009400
  -0.0000001500    0.0002294500    0.0000001300
   0.0000499300   -0.0002717500   -0.0000773800
  -0.0000069600   -0.0001957800   -0.0000704900
   0.0000273900   -0.0001729500    0.0000193100
   0.0000292600    0.0001295700   -0.0003717400
   0.0000277100    0.0001622200    0.0002057200
   0.0000412700    0.0001979900    0.0001273800
   0.0000339400    0.0021081100    0.0000585900
  -0.0000283500    0.0021071400   -0.0000057200
   0.0000211500    0.0001216100    0.0000043600
   0.0005303700   -0.0006863900   -0.0006153800
  -0.0004932800   -0.0006749700   -0.0006241500
   0.0000090700   -0.0000832300   -0.0000554400
  -0.0004978100   -0.0006562300    0.0005486300
   0.0005330300   -0.0006617600    0.0006038700
  -0.0000038000   -0.0000689400    0.0000528700
   0.0001024600   -0.0001874800   -0.0001872800
   0.0000671700   -0.0001847500   -0.0000569600
  -0.0000548400   -0.0001058200   -0.0000458000
   0.0001012200   -0.0000561000   -0.0003340600
   0.0000965300   -0.0001292600   -0.0001959800
  -0.0000790300   -0.0000847700   -0.0005562500
   0.0000451700    0.0002034200    0.0003209900
   0.0000645200    0.0001322300    0.0000742300
   0.0000225400    0.0001509300    0.0003247100
  -0.0000676300    0.0016928200    0.0071824200
   0.0000169200   -0.0005103100    0.0005429700
  -0.0000395200   -0.0004857700    0.0005334000
  -0.0002495700    0.0016243400   -0.0064989500
   0.0000107900   -0.0007098700   -0.0003836700
   0.0000171300   -0.0006577500   -0.0003743800
  -0.0001747600    0.0004228400    0.0001391200
  -0.0000255500    0.0003776900    0.0001382500
   0.0000555300    0.0003424700    0.0001047600
   0.0101621900    0.0048804900   -0.0006778600
  -0.0099407000    0.0049306600   -0.0008263200
   0.0002021000   -0.0001341000   -0.0001094900
  -0.0101121800    0.0049988100    0.0007410600
   0.0104614000    0.0051116400    0.0008732900
   0.0002226300   -0.0001140600    0.0001771200
   0.0001052700    0.0006116300    0.0000065600
   0.0001055800    0.0005931800   -0.0000205000
   0.0002421500    0.0000992500    0.0000202800
   0.0001751100   -0.0009411900   -0.0002091200
   0.0000431000    0.0001249600   -0.0001512900
  -0.0000302000    0.0000555700   -0.0002007300
   0.0000710900    0.0002548800    0.0003983600
   0.0003014000   -0.0001907200    0.0001956500
  -0.0001830500   -0.0000521400    0.0002055100
  -0.0000297500    0.0001137000   -0.0004862600
  -0.0001946300   -0.0001100200   -0.0004354800
   0.0004375800   -0.0001780000   -0.0003175000

1    
  0.0000257121978141  -0.0099997941618798  -0.0000587843764849
   0.0000799500    0.0586523500    0.0012023700
   0.0000522500    0.0009562100    0.0001475300
  -0.0000651000    0.0009583200    0.0001614400
   0.0000696000   -0.0020776400   -0.0000659200
  -0.0000572500   -0.0006944200   -0.0000402500
   0.0000325100   -0.0007117400   -0.0000371100
   0.0000816200   -0.0010992700    0.0001042200
   0.0001581500    0.0002580400    0.0000811000
  -0.0002012000    0.0002788100    0.0000727000
  -0.0005641000    0.0004157000    0.0000686500
   0.0007964400    0.0003183600    0.0002139900
  -0.0005254800    0.0001261900   -0.0000532100
  -0.0001777800    0.0001154000   -0.0000946200
   0.0003847000    0.0001648500   -0.0000031300
  -0.0004940300   -0.0000063800   -0.0000983100
  -0.0003818700   -0.0004573100   -0.0000939900
   0.0006363700   -0.0003912100    0.0001068600
  -0.0005399700   -0.0001411800   -0.0000697600
  -0.0001734600   -0.0003506300   -0.0003524700
  -0.0000598100   -0.0003242400    0.0000488300
  -0.0004075200   -0.0004694900    0.0000443100
  -0.0001519200   -0.0001167100    0.0002131300
  -0.0001802600   -0.0003232200   -0.0000825400
  -0.0003131500   -0.0002359100   -0.0002207800
  -0.0002359600    0.0005502400    0.0000807100
  -0.0001277400    0.0003717000   -0.0000388500
  -0.0002914500    0.0004580900    0.0000554300
   0.0001355900   -0.0137504600    0.0005806300
  -0.0009590600    0.0003592800    0.0003684600
   0.0010499600    0.0003318800    0.0003762000
   0.0000126000   -0.0136729100   -0.0007238600
   0.0010614000    0.0001214400   -0.0003031500
  -0.0009886100    0.0001405100   -0.0003249100
   0.0000308700    0.0009513600    0.0000317600
   0.0000650800    0.0005808400    0.0000424800
   0.0000360300    0.0005947900    0.0000291300
   0.0000521600   -0.0020533500    0.0000621600
  -0.0000174900   -0.0021103800    0.0000336200
  -0.0000000600   -0.0001133600   -0.0000134400
  -0.0006746900    0.0009024700   -0.0007194500
   0.0006922700    0.0008906100   -0.0006640000
   0.0000141200    0.0001826200   -0.0001306000
   0.0006762100    0.0009257200    0.0006868900
  -0.0006470900    0.0009178100    0.0006471400
   0.0000107000    0.0002158700    0.0001128800
   0.0000558700   -0.0001724600   -0.0004849600
  -0.0000030700   -0.0001674000    0.0000936200
   0.0000461100   -0.0001324800    0.0000983000
  -0.0000014800    0.0003667500    0.0001588800
   0.0000512200    0.0002863800    0.0001572200
   0.0000256200    0.0002643800    0.0000716600
   0.0000150300   -0.0000412600    0.0004546900
   0.0000151500   -0.0000681900   -0.0001206500
   0.0000035400   -0.0001056800   -0.0000354600
   0.0000238300   -0.0021123500   -0.0000719700
   0.0000371800   -0.0021175800   -0.0000151700
  -0.0000113000   -0.0001262100   -0.0000064300
  -0.0005006400    0.0006617700    0.0006242400
   0.0005228200    0.0006442100    0.0006296400
   0.0000088700    0.0000581700    0.0000596500
   0.0005244100    0.0006413900   -0.0005476900
  -0.0005034300    0.0006479900   -0.0006084100
   0.0000263900    0.0000570300   -0.0000574600
   0.0000559400   -0.0000796700    0.0000300300
   0.0000873000   -0.0000678200   -0.0000701900
  -0.0000310500   -0.0001230700   -0.0001479300
   0.0000587600   -0.0001441800    0.0001740900
   0.0000734800   -0.0000864000    0.0000573900
   0.0000117100   -0.0001294800    0.0003152000
   0.0001279600   -0.0000741600   -0.0004563800
   0.0000713500   -0.0000266500   -0.0001673200
  -0.0000783200   -0.0000418200   -0.0004955600
  -0.0002615400   -0.0019936900   -0.0070329300
  -0.0000308600    0.0002526800   -0.0002809100
   0.0000481900    0.0002418500   -0.0003209500
  -0.0000661500   -0.0020796400    0.0065733700
  -0.0000160000    0.0001912100    0.0005348300
   0.0000157600    0.0001615900    0.0005171900
  -0.0001668100   -0.0009381700    0.0000155700
   0.0000125300   -0.0008773500    0.0000433300
  -0.0000017900   -0.0008460000    0.0000646600
  -0.0100491000   -0.0051080100    0.0006462300
   0.0102978500   -0.0051215100    0.0007780400
   0.0002200400    0.0000047900    0.0001511900
   0.0102311600   -0.0050066500   -0.0007081400
  -0.0101240900   -0.0051520700   -0.0008889400
   0.0002365300    0.0000173200   -0.0000792900
   0.0001190000   -0.0007451200   -0.0000290500
   0.0001184100   -0.0007347600   -0.0000460800
   0.0002187900   -0.0002218100    0.0000074300
  -0.0000373100    0.0004945900   -0.0000491100
   0.0000523800   -0.0005383700   -0.0001728900
   0.0001739700   -0.0004477200   -0.0000719000
   0.0000759100   -0.0004358400   -0.0005585500
  -0.0001939800   -0.0000250100   -0.0003960800
   0.0003196200   -0.0001682700   -0.0003802200
   0.0001773300   -0.0002891600    0.0002993500
   0.0002846500   -0.0000851400    0.0001750300
  -0.0002613200   -0.0000006300    0.0001275300

1    
 -0.0019092581281796  -0.0019155538429470   0.0096273250113804
   0.0046658200    0.0107516600   -0.0089178900
   0.0000519000    0.0005868800   -0.0011195000
  -0.0005175700    0.0006050400   -0.0012034600
   0.0001319600   -0.0008922400   -0.0001976500
   0.0000244900   -0.0005892400   -0.0001740700
  -0.0000907800   -0.0005556500   -0.0001745700
   0.0001369300    0.0001588800   -0.0000350300
   0.0000526100    0.0004032100   -0.0000445500
  -0.0001327900    0.0003478400   -0.0000419000
  -0.0004630200   -0.0006423000    0.0008000100
   0.0007324700   -0.0003753000    0.0006737500
  -0.0005675700   -0.0000756600    0.0001024000
  -0.0003988000    0.0007060200    0.0007407000
   0.0006670100    0.0004425700    0.0006176600
  -0.0005604500    0.0000877300    0.0000685700
  -0.0004032500   -0.0000490800    0.0001567800
   0.0006389000   -0.0000465500    0.0002451600
  -0.0005361800   -0.0000061500    0.0000305300
  -0.0003048300    0.0011475700   -0.0015180400
  -0.0002968800    0.0006367400   -0.0006546100
   0.0000562300    0.0009435500   -0.0011224600
  -0.0002904500   -0.0012198400   -0.0010758000
  -0.0003189700   -0.0006917000   -0.0006842900
   0.0000640000   -0.0010523400   -0.0009471200
  -0.0002154100   -0.0001183300   -0.0002281400
  -0.0000756800   -0.0001706000   -0.0002116600
  -0.0003266200   -0.0000980800   -0.0002322300
  -0.0011536100    0.0001356500    0.0050222500
   0.0002079300    0.0002851600    0.0010249700
   0.0005320900    0.0004788400    0.0011236900
  -0.0011538800   -0.0046804500    0.0046163300
   0.0005637200    0.0002231100    0.0008097700
   0.0001419800    0.0000113500    0.0009272200
  -0.0000197000    0.0003497300    0.0002066600
   0.0001786600    0.0002751400    0.0001711100
   0.0001401900    0.0002855800    0.0001974200
  -0.0016039800   -0.0002623200   -0.0007539200
   0.0016508800   -0.0002806200   -0.0017456800
   0.0001422900    0.0001363100    0.0000322500
  -0.0002102600    0.0004381500   -0.0002023400
   0.0001229500    0.0004722500   -0.0002681600
   0.0000674900    0.0001671800   -0.0000861400
   0.0000082300   -0.0000211800    0.0001207200
  -0.0001170600   -0.0000770100    0.0000668700
   0.0000706000    0.0000106900   -0.0000078600
  -0.0000111200    0.0004317800   -0.0013681600
   0.0003002400    0.0004174400   -0.0009216200
  -0.0001356700    0.0003156000   -0.0005670400
   0.0000142000   -0.0000461100   -0.0000930800
  -0.0000179800   -0.0000381600   -0.0000398400
   0.0000701700   -0.0000274300   -0.0000369600
  -0.0000648900   -0.0002334100   -0.0005927500
   0.0003825300   -0.0002369400   -0.0005717000
  -0.0001682300   -0.0001470200   -0.0003936100
  -0.0007704200   -0.0004283500    0.0016183400
   0.0002336700   -0.0004125800    0.0016434900
   0.0002405700   -0.0000228600    0.0002824700
  -0.0001027900   -0.0002201900    0.0002700300
   0.0001125300   -0.0000555200    0.0002896000
   0.0000936600   -0.0001159100    0.0000658500
   0.0000776900    0.0003857400   -0.0000246400
  -0.0000675500    0.0002387700    0.0000247700
   0.0000803200    0.0000529000    0.0000198600
   0.0004056300   -0.0003477500    0.0025119100
   0.0000545800   -0.0002054500    0.0003629400
  -0.0001413000   -0.0002610700    0.0016515100
   0.0000611200   -0.0001019200    0.0006076800
   0.0000925100   -0.0001756900    0.0001908000
   0.0000637300   -0.0001379300    0.0003878500
   0.0000667000    0.0002913200    0.0000635700
   0.0000573900    0.0002860100   -0.0000393000
   0.0000964100    0.0002684600   -0.0000436800
   0.0002241900    0.0044242100    0.0020006300
  -0.0008868600    0.0010210600   -0.0002158200
   0.0004881600    0.0007296800   -0.0003363200
   0.0001918700   -0.0050262400    0.0040371700
  -0.0007837900   -0.0013126000    0.0001023200
   0.0004150900   -0.0010090400   -0.0000656700
  -0.0001229800   -0.0003229100    0.0000884900
  -0.0001190000   -0.0003108600    0.0000952800
   0.0000101300   -0.0003108100    0.0000583000
  -0.0024821700   -0.0034699400   -0.0032654100
   0.0013718700   -0.0004686900   -0.0029797000
  -0.0000471800   -0.0002608200   -0.0003394700
   0.0013096200    0.0015687000   -0.0034695300
  -0.0024746300   -0.0014930600   -0.0032990800
  -0.0000089900    0.0002326000   -0.0003506100
   0.0001377800   -0.0001971400   -0.0003633600
   0.0001342800   -0.0002024000   -0.0002789100
   0.0001411700   -0.0001015500   -0.0001166500
   0.0005501400   -0.0001840600    0.0037279900
   0.0007791000   -0.0002143500    0.0014624200
  -0.0014371600   -0.0002759500    0.0019512600
   0.0001927500    0.0003898100   -0.0001090800
  -0.0000470400    0.0001592700   -0.0001240500
   0.0000163400    0.0002414100   -0.0000926000
   0.0001712300   -0.0005359400    0.0001997900
  -0.0000270100   -0.0003618800    0.0001276000
  -0.0000122000   -0.0003644500    0.0001489600

1    
  0.0019092581281796   0.0019155538429470  -0.0096273250113804
  -0.0044206700   -0.0098822600    0.0090394700
   0.0000232600    0.0004541100    0.0013029800
   0.0003417600    0.0004701300    0.0013902300
   0.0000034200   -0.0002730100    0.0000470000
   0.0000747400   -0.0005438800    0.0000171000
  -0.0000920700   -0.0005943000    0.0000211900
   0.0000091800    0.0006749200    0.0001844500
   0.0000136700    0.0004127500    0.0001571900
  -0.0000483700    0.0004522100    0.0001611800
  -0.0003246500    0.0008236500   -0.0007945600
   0.0004837600    0.0005960100   -0.0003765400
  -0.0005101000    0.0002517100   -0.0001687700
  -0.0003684700   -0.0007584100   -0.0007373300
   0.0004570300   -0.0005430500   -0.0003129300
  -0.0004409900   -0.0001562300   -0.0001495900
  -0.0003822800   -0.0000917000   -0.0001869300
   0.0005456600   -0.0000859400    0.0000251500
  -0.0004771000   -0.0001058100   -0.0001206700
  -0.0001094800   -0.0012822400    0.0014118900
   0.0000645100   -0.0007799700    0.0005700800
  -0.0007081900   -0.0010569400    0.0009850000
  -0.0001143800    0.0010188400    0.0009922400
   0.0000841300    0.0005238800    0.0006410700
  -0.0007493200    0.0008355500    0.0008321900
  -0.0001880500    0.0000514600    0.0002022900
  -0.0001454100    0.0001223100    0.0001605800
  -0.0003323100    0.0000864300    0.0001299300
   0.0012562600    0.0007007300   -0.0049105400
   0.0000633100    0.0004719000   -0.0009171900
  -0.0003110200    0.0002270500   -0.0009984600
   0.0012900800    0.0050804700   -0.0045807500
  -0.0003151100    0.0000809200   -0.0007868200
   0.0000414000    0.0003152900   -0.0008695100
   0.0001442200    0.0001749700   -0.0001689400
   0.0000925500    0.0002317400   -0.0001211000
   0.0000627100    0.0002422800   -0.0001568400
   0.0015599100    0.0004325400    0.0005314700
  -0.0016348200    0.0004553700    0.0015362400
  -0.0001132800    0.0000185600   -0.0002044000
   0.0001834900   -0.0002368300    0.0000468300
  -0.0001409800   -0.0002966400    0.0000843000
  -0.0000214300    0.0000395200   -0.0000622000
  -0.0000397400    0.0002124600   -0.0002589100
   0.0000814300    0.0002774900   -0.0002342500
  -0.0000329900    0.0002161800   -0.0001481700
   0.0000281400   -0.0003407500    0.0016256100
  -0.0002561600   -0.0003553000    0.0011492600
   0.0001899900   -0.0002253700    0.0008314200
  -0.0000037100    0.0001727800    0.0003640100
   0.0000395600    0.0001740300    0.0003085100
   0.0000064400    0.0001629900    0.0003135300
   0.0000598800    0.0003320700    0.0008274300
  -0.0003349500    0.0003709300    0.0007966000
   0.0002489200    0.0002634500    0.0006446700
   0.0006671600    0.0003472400   -0.0014784300
  -0.0001665500    0.0003380100   -0.0015688400
  -0.0001567300   -0.0000169100   -0.0002816700
   0.0001396900    0.0001776600   -0.0002535300
  -0.0000763400    0.0000353400   -0.0002831000
  -0.0000067600    0.0000370500   -0.0000683400
  -0.0000188400   -0.0004320400    0.0000313500
   0.0000793300   -0.0002843200    0.0000139300
  -0.0000124400   -0.0001093800    0.0000053300
  -0.0002634100    0.0002598100   -0.0025777500
   0.0001439100    0.0001357900   -0.0004258300
   0.0002434300    0.0002343000   -0.0017680900
   0.0000906000   -0.0001100000   -0.0007243100
   0.0001383700   -0.0000743600   -0.0002765900
   0.0000619100   -0.0001087500   -0.0005897100
   0.0000840100   -0.0001255200   -0.0001032700
   0.0001252700   -0.0001608200    0.0000479400
   0.0000328500   -0.0001266900   -0.0000649800
  -0.0005876000   -0.0049336700   -0.0018941600
   0.0008936600   -0.0014628700    0.0004271400
  -0.0006955700   -0.0011608000    0.0004547600
  -0.0005564300    0.0045596200   -0.0040299700
   0.0007976100    0.0007390000   -0.0000147100
  -0.0005807500    0.0004679300    0.0001187800
  -0.0002533500   -0.0001815700   -0.0000322900
   0.0001208600   -0.0001819500    0.0000121100
  -0.0001263200   -0.0001918600    0.0000299500
   0.0027173900    0.0033520200    0.0031964700
  -0.0011186400    0.0004282900    0.0029131100
   0.0003228700    0.0001718100    0.0003740000
  -0.0010575900   -0.0015044300    0.0034903500
   0.0027161100    0.0015064500    0.0033256300
   0.0003501300   -0.0001852700    0.0004501400
   0.0000670700   -0.0000521000    0.0003256400
   0.0001371600   -0.0000691200    0.0002159300
   0.0001931900   -0.0001262100    0.0001311900
  -0.0002957300   -0.0001313600   -0.0039258700
  -0.0008416000   -0.0000700400   -0.0017955400
   0.0015292200    0.0000368600   -0.0021828300
   0.0000591300   -0.0006334800   -0.0000603500
   0.0000324700   -0.0004399400   -0.0001010500
   0.0000840100   -0.0005237500   -0.0000987700
   0.0000753700    0.0003774000   -0.0003673300
  -0.0000623600    0.0001905300   -0.0003535300
   0.0001408500    0.0001830300   -0.0003085900

19   
  0.0099998246208561   0.0000072075797813   0.0000587843764499
   0.0009870200    0.0005177000    0.0001814700
  -0.0004251400    0.0006093800    0.0004204300
  -0.0008368400    0.0004657400   -0.0002851100
   0.0003755000   -0.0005398000   -0.0000192600
   0.0000236300   -0.0006090900   -0.0001149400
  -0.0004392200   -0.0005841300   -0.0000991400
   0.0009981100    0.0003592200    0.0001576300
  -0.0004378700    0.0003469500    0.0003880300
  -0.0008554100    0.0004544200   -0.0003092700
   0.0123267500    0.0000854300    0.0022917600
   0.0156635300    0.0000980100   -0.0023862900
  -0.0012940200    0.0000853100   -0.0000993700
  -0.0003304900    0.0006344500    0.0000452600
   0.0006356700   -0.0007342400    0.0001038000
  -0.0009190900   -0.0000577900   -0.0000787900
  -0.0003398600   -0.0007267600    0.0000445100
   0.0006283400    0.0006069400    0.0000836800
  -0.0009015700   -0.0000646300   -0.0000926300
  -0.0680569000    0.0000491200    0.0025812500
   0.0024213000   -0.0000205500    0.0005404500