phonopy:
  version: 2.9.3
  frequency_unit_conversion_factor: 15.633302
  symmetry_tolerance: 1.00000e-05
  nac_unit_conversion_factor: 14.399652

physical_unit:
  atomic_mass: "AMU"

primitive_matrix:
- [  1.000000000000000,  0.000000000000000,  0.000000000000000 ]
- [  0.000000000000000,  1.000000000000000,  0.000000000000000 ]
- [  0.000000000000000,  0.000000000000000,  1.000000000000000 ]

supercell_matrix:
- [   3,   0,   0 ]
- [   0,   3,   0 ]
- [   0,   0,   1 ]

primitive_cell:
  lattice:
  - [     3.925756580000000,     0.002829570000000,     0.023077720000000 ] # a
  - [    -0.010094160000000,     3.925744620000000,     0.023077720000000 ] # b
  - [    -2.020002310000000,    -2.026663200000000,    10.185746220000000 ] # c
  points:
  - symbol: Li # 1
    coordinates: [  0.606748169999999,  0.726208559999993,  0.831834189999998 ]
    mass: 6.941000
  - symbol: Li # 2
    coordinates: [  0.273791440000000,  0.393251829999990,  0.168165810000002 ]
    mass: 6.941000
  - symbol: O  # 3
    coordinates: [  0.789330220000010,  0.407964480000010,  0.196860889999998 ]
    mass: 15.999400
  - symbol: O  # 4
    coordinates: [  0.592035520000000,  0.210669780000002,  0.803139110000002 ]
    mass: 15.999400
  - symbol: S  # 5
    coordinates: [  0.007618040000003,  0.619718890000000,  0.629203349999996 ]
    mass: 32.065000
  - symbol: S  # 6
    coordinates: [  0.380281110000002,  0.992381960000002,  0.370796650000004 ]
    mass: 32.065000
  - symbol: S  # 7
    coordinates: [  0.190526960000000,  0.809473040000012,  0.000000000000000 ]
    mass: 32.065000
  - symbol: Fe # 8
    coordinates: [  0.870818219999986,  0.516448199999996,  0.393521699999996 ]
    mass: 55.845000
  - symbol: Fe # 9
    coordinates: [  0.483551800000003,  0.129181780000002,  0.606478300000003 ]
    mass: 55.845000
  - symbol: Fe # 10
    coordinates: [  0.112841719999999,  0.231939199999998,  0.845427769999997 ]
    mass: 55.845000
  - symbol: Fe # 11
    coordinates: [  0.768060800000010,  0.887158280000008,  0.154572230000003 ]
    mass: 55.845000
  reciprocal_lattice: # without 2pi
  - [     0.254430675332351,     0.000357173624123,     0.050528887273438 ] # a*
  - [    -0.000480422131407,     0.254430472614642,     0.050528887218975 ] # b*
  - [    -0.000575371966935,    -0.000577269238047,     0.097947444932163 ] # c*

unit_cell:
  lattice:
  - [     3.925756580000000,     0.002829570000000,     0.023077720000000 ] # a
  - [    -0.010094160000000,     3.925744620000000,     0.023077720000000 ] # b
  - [    -2.020002310000000,    -2.026663200000000,    10.185746220000000 ] # c
  points:
  - symbol: Li # 1
    coordinates: [  0.606748169999999,  0.726208559999993,  0.831834189999998 ]
    mass: 6.941000
    reduced_to: 1
  - symbol: Li # 2
    coordinates: [  0.273791440000000,  0.393251829999990,  0.168165810000002 ]
    mass: 6.941000
    reduced_to: 2
  - symbol: O  # 3
    coordinates: [  0.789330220000011,  0.407964480000010,  0.196860889999998 ]
    mass: 15.999400
    reduced_to: 3
  - symbol: O  # 4
    coordinates: [  0.592035520000000,  0.210669780000002,  0.803139110000002 ]
    mass: 15.999400
    reduced_to: 4
  - symbol: S  # 5
    coordinates: [  0.007618040000003,  0.619718890000000,  0.629203349999996 ]
    mass: 32.065000
    reduced_to: 5
  - symbol: S  # 6
    coordinates: [  0.380281110000002,  0.992381960000002,  0.370796650000004 ]
    mass: 32.065000
    reduced_to: 6
  - symbol: S  # 7
    coordinates: [  0.190526960000000,  0.809473040000012, -0.000000000000000 ]
    mass: 32.065000
    reduced_to: 7
  - symbol: Fe # 8
    coordinates: [  0.870818219999986,  0.516448199999996,  0.393521699999996 ]
    mass: 55.845000
    reduced_to: 8
  - symbol: Fe # 9
    coordinates: [  0.483551800000003,  0.129181780000002,  0.606478300000003 ]
    mass: 55.845000
    reduced_to: 9
  - symbol: Fe # 10
    coordinates: [  0.112841719999999,  0.231939199999998,  0.845427769999997 ]
    mass: 55.845000
    reduced_to: 10
  - symbol: Fe # 11
    coordinates: [  0.768060800000010,  0.887158280000008,  0.154572230000003 ]
    mass: 55.845000
    reduced_to: 11

supercell:
  lattice:
  - [    11.777269739999999,     0.008488710000000,     0.069233160000000 ] # a
  - [    -0.030282480000000,    11.777233860000001,     0.069233160000000 ] # b
  - [    -2.020002310000000,    -2.026663200000000,    10.185746220000000 ] # c
  points:
  - symbol: Li # 1
    coordinates: [  0.202249390000000,  0.242069519999998,  0.831834189999998 ]
    mass: 6.941000
    reduced_to: 1
  - symbol: Li # 2
    coordinates: [  0.535582723333333,  0.242069519999998,  0.831834189999998 ]
    mass: 6.941000
    reduced_to: 1
  - symbol: Li # 3
    coordinates: [  0.868916056666666,  0.242069519999998,  0.831834189999998 ]
    mass: 6.941000
    reduced_to: 1
  - symbol: Li # 4
    coordinates: [  0.202249390000000,  0.575402853333331,  0.831834189999998 ]
    mass: 6.941000
    reduced_to: 1
  - symbol: Li # 5
    coordinates: [  0.535582723333333,  0.575402853333331,  0.831834189999998 ]
    mass: 6.941000
    reduced_to: 1
  - symbol: Li # 6
    coordinates: [  0.868916056666666,  0.575402853333331,  0.831834189999998 ]
    mass: 6.941000
    reduced_to: 1
  - symbol: Li # 7
    coordinates: [  0.202249390000000,  0.908736186666664,  0.831834189999998 ]
    mass: 6.941000
    reduced_to: 1
  - symbol: Li # 8
    coordinates: [  0.535582723333333,  0.908736186666664,  0.831834189999998 ]
    mass: 6.941000
    reduced_to: 1
  - symbol: Li # 9
    coordinates: [  0.868916056666666,  0.908736186666664,  0.831834189999998 ]
    mass: 6.941000
    reduced_to: 1
  - symbol: Li # 10
    coordinates: [  0.091263813333333,  0.131083943333330,  0.168165810000002 ]
    mass: 6.941000
    reduced_to: 10
  - symbol: Li # 11
    coordinates: [  0.424597146666667,  0.131083943333330,  0.168165810000002 ]
    mass: 6.941000
    reduced_to: 10
  - symbol: Li # 12
    coordinates: [  0.757930480000000,  0.131083943333330,  0.168165810000002 ]
    mass: 6.941000
    reduced_to: 10
  - symbol: Li # 13
    coordinates: [  0.091263813333333,  0.464417276666663,  0.168165810000002 ]
    mass: 6.941000
    reduced_to: 10
  - symbol: Li # 14
    coordinates: [  0.424597146666667,  0.464417276666663,  0.168165810000002 ]
    mass: 6.941000
    reduced_to: 10
  - symbol: Li # 15
    coordinates: [  0.757930480000000,  0.464417276666663,  0.168165810000002 ]
    mass: 6.941000
    reduced_to: 10
  - symbol: Li # 16
    coordinates: [  0.091263813333333,  0.797750609999997,  0.168165810000002 ]
    mass: 6.941000
    reduced_to: 10
  - symbol: Li # 17
    coordinates: [  0.424597146666667,  0.797750609999997,  0.168165810000002 ]
    mass: 6.941000
    reduced_to: 10
  - symbol: Li # 18
    coordinates: [  0.757930480000000,  0.797750609999997,  0.168165810000002 ]
    mass: 6.941000
    reduced_to: 10
  - symbol: O  # 19
    coordinates: [  0.263110073333337,  0.135988160000003,  0.196860889999998 ]
    mass: 15.999400
    reduced_to: 19
  - symbol: O  # 20
    coordinates: [  0.596443406666670,  0.135988160000003,  0.196860889999998 ]
    mass: 15.999400
    reduced_to: 19
  - symbol: O  # 21
    coordinates: [  0.929776740000004,  0.135988160000003,  0.196860889999998 ]
    mass: 15.999400
    reduced_to: 19
  - symbol: O  # 22
    coordinates: [  0.263110073333337,  0.469321493333337,  0.196860889999998 ]
    mass: 15.999400
    reduced_to: 19
  - symbol: O  # 23
    coordinates: [  0.596443406666670,  0.469321493333337,  0.196860889999998 ]
    mass: 15.999400
    reduced_to: 19
  - symbol: O  # 24
    coordinates: [  0.929776740000004,  0.469321493333337,  0.196860889999998 ]
    mass: 15.999400
    reduced_to: 19
  - symbol: O  # 25
    coordinates: [  0.263110073333337,  0.802654826666670,  0.196860889999998 ]
    mass: 15.999400
    reduced_to: 19
  - symbol: O  # 26
    coordinates: [  0.596443406666670,  0.802654826666670,  0.196860889999998 ]
    mass: 15.999400
    reduced_to: 19
  - symbol: O  # 27
    coordinates: [  0.929776740000004,  0.802654826666670,  0.196860889999998 ]
    mass: 15.999400
    reduced_to: 19
  - symbol: O  # 28
    coordinates: [  0.197345173333333,  0.070223260000001,  0.803139110000002 ]
    mass: 15.999400
    reduced_to: 28
  - symbol: O  # 29
    coordinates: [  0.530678506666667,  0.070223260000001,  0.803139110000002 ]
    mass: 15.999400
    reduced_to: 28
  - symbol: O  # 30
    coordinates: [  0.864011840000000,  0.070223260000001,  0.803139110000002 ]
    mass: 15.999400
    reduced_to: 28
  - symbol: O  # 31
    coordinates: [  0.197345173333333,  0.403556593333334,  0.803139110000002 ]
    mass: 15.999400
    reduced_to: 28
  - symbol: O  # 32
    coordinates: [  0.530678506666667,  0.403556593333334,  0.803139110000002 ]
    mass: 15.999400
    reduced_to: 28
  - symbol: O  # 33
    coordinates: [  0.864011840000000,  0.403556593333334,  0.803139110000002 ]
    mass: 15.999400
    reduced_to: 28
  - symbol: O  # 34
    coordinates: [  0.197345173333333,  0.736889926666667,  0.803139110000002 ]
    mass: 15.999400
    reduced_to: 28
  - symbol: O  # 35
    coordinates: [  0.530678506666667,  0.736889926666667,  0.803139110000002 ]
    mass: 15.999400
    reduced_to: 28
  - symbol: O  # 36
    coordinates: [  0.864011840000000,  0.736889926666667,  0.803139110000002 ]
    mass: 15.999400
    reduced_to: 28
  - symbol: S  # 37
    coordinates: [  0.002539346666668,  0.206572963333333,  0.629203349999996 ]
    mass: 32.065000
    reduced_to: 37
  - symbol: S  # 38
    coordinates: [  0.335872680000001,  0.206572963333333,  0.629203349999996 ]
    mass: 32.065000
    reduced_to: 37
  - symbol: S  # 39
    coordinates: [  0.669206013333334,  0.206572963333333,  0.629203349999996 ]
    mass: 32.065000
    reduced_to: 37
  - symbol: S  # 40
    coordinates: [  0.002539346666668,  0.539906296666667,  0.629203349999996 ]
    mass: 32.065000
    reduced_to: 37
  - symbol: S  # 41
    coordinates: [  0.335872680000001,  0.539906296666667,  0.629203349999996 ]
    mass: 32.065000
    reduced_to: 37
  - symbol: S  # 42
    coordinates: [  0.669206013333334,  0.539906296666667,  0.629203349999996 ]
    mass: 32.065000
    reduced_to: 37
  - symbol: S  # 43
    coordinates: [  0.002539346666668,  0.873239630000000,  0.629203349999996 ]
    mass: 32.065000
    reduced_to: 37
  - symbol: S  # 44
    coordinates: [  0.335872680000001,  0.873239630000000,  0.629203349999996 ]
    mass: 32.065000
    reduced_to: 37
  - symbol: S  # 45
    coordinates: [  0.669206013333334,  0.873239630000000,  0.629203349999996 ]
    mass: 32.065000
    reduced_to: 37
  - symbol: S  # 46
    coordinates: [  0.126760370000001,  0.330793986666667,  0.370796650000004 ]
    mass: 32.065000
    reduced_to: 46
  - symbol: S  # 47
    coordinates: [  0.460093703333334,  0.330793986666667,  0.370796650000004 ]
    mass: 32.065000
    reduced_to: 46
  - symbol: S  # 48
    coordinates: [  0.793427036666667,  0.330793986666667,  0.370796650000004 ]
    mass: 32.065000
    reduced_to: 46
  - symbol: S  # 49
    coordinates: [  0.126760370000001,  0.664127320000001,  0.370796650000004 ]
    mass: 32.065000
    reduced_to: 46
  - symbol: S  # 50
    coordinates: [  0.460093703333334,  0.664127320000001,  0.370796650000004 ]
    mass: 32.065000
    reduced_to: 46
  - symbol: S  # 51
    coordinates: [  0.793427036666667,  0.664127320000001,  0.370796650000004 ]
    mass: 32.065000
    reduced_to: 46
  - symbol: S  # 52
    coordinates: [  0.126760370000001,  0.997460653333334,  0.370796650000004 ]
    mass: 32.065000
    reduced_to: 46
  - symbol: S  # 53
    coordinates: [  0.460093703333334,  0.997460653333334,  0.370796650000004 ]
    mass: 32.065000
    reduced_to: 46
  - symbol: S  # 54
    coordinates: [  0.793427036666667,  0.997460653333334,  0.370796650000004 ]
    mass: 32.065000
    reduced_to: 46
  - symbol: S  # 55
    coordinates: [  0.063508986666667,  0.269824346666671,  1.000000000000000 ]
    mass: 32.065000
    reduced_to: 55
  - symbol: S  # 56
    coordinates: [  0.396842320000000,  0.269824346666671,  1.000000000000000 ]
    mass: 32.065000
    reduced_to: 55
  - symbol: S  # 57
    coordinates: [  0.730175653333333,  0.269824346666671,  1.000000000000000 ]
    mass: 32.065000
    reduced_to: 55
  - symbol: S  # 58
    coordinates: [  0.063508986666667,  0.603157680000004,  1.000000000000000 ]
    mass: 32.065000
    reduced_to: 55
  - symbol: S  # 59
    coordinates: [  0.396842320000000,  0.603157680000004,  1.000000000000000 ]
    mass: 32.065000
    reduced_to: 55
  - symbol: S  # 60
    coordinates: [  0.730175653333333,  0.603157680000004,  1.000000000000000 ]
    mass: 32.065000
    reduced_to: 55
  - symbol: S  # 61
    coordinates: [  0.063508986666667,  0.936491013333337,  1.000000000000000 ]
    mass: 32.065000
    reduced_to: 55
  - symbol: S  # 62
    coordinates: [  0.396842320000000,  0.936491013333337,  1.000000000000000 ]
    mass: 32.065000
    reduced_to: 55
  - symbol: S  # 63
    coordinates: [  0.730175653333333,  0.936491013333337,  1.000000000000000 ]
    mass: 32.065000
    reduced_to: 55
  - symbol: Fe # 64
    coordinates: [  0.290272739999995,  0.172149399999999,  0.393521699999996 ]
    mass: 55.845000
    reduced_to: 64
  - symbol: Fe # 65
    coordinates: [  0.623606073333329,  0.172149399999999,  0.393521699999996 ]
    mass: 55.845000
    reduced_to: 64
  - symbol: Fe # 66
    coordinates: [  0.956939406666662,  0.172149399999999,  0.393521699999996 ]
    mass: 55.845000
    reduced_to: 64
  - symbol: Fe # 67
    coordinates: [  0.290272739999995,  0.505482733333332,  0.393521699999996 ]
    mass: 55.845000
    reduced_to: 64
  - symbol: Fe # 68
    coordinates: [  0.623606073333329,  0.505482733333332,  0.393521699999996 ]
    mass: 55.845000
    reduced_to: 64
  - symbol: Fe # 69
    coordinates: [  0.956939406666662,  0.505482733333332,  0.393521699999996 ]
    mass: 55.845000
    reduced_to: 64
  - symbol: Fe # 70
    coordinates: [  0.290272739999995,  0.838816066666665,  0.393521699999996 ]
    mass: 55.845000
    reduced_to: 64
  - symbol: Fe # 71
    coordinates: [  0.623606073333329,  0.838816066666665,  0.393521699999996 ]
    mass: 55.845000
    reduced_to: 64
  - symbol: Fe # 72
    coordinates: [  0.956939406666662,  0.838816066666665,  0.393521699999996 ]
    mass: 55.845000
    reduced_to: 64
  - symbol: Fe # 73
    coordinates: [  0.161183933333334,  0.043060593333334,  0.606478300000003 ]
    mass: 55.845000
    reduced_to: 73
  - symbol: Fe # 74
    coordinates: [  0.494517266666668,  0.043060593333334,  0.606478300000003 ]
    mass: 55.845000
    reduced_to: 73
  - symbol: Fe # 75
    coordinates: [  0.827850600000001,  0.043060593333334,  0.606478300000003 ]
    mass: 55.845000
    reduced_to: 73
  - symbol: Fe # 76
    coordinates: [  0.161183933333334,  0.376393926666667,  0.606478300000003 ]
    mass: 55.845000
    reduced_to: 73
  - symbol: Fe # 77
    coordinates: [  0.494517266666668,  0.376393926666667,  0.606478300000003 ]
    mass: 55.845000
    reduced_to: 73
  - symbol: Fe # 78
    coordinates: [  0.827850600000001,  0.376393926666667,  0.606478300000003 ]
    mass: 55.845000
    reduced_to: 73
  - symbol: Fe # 79
    coordinates: [  0.161183933333334,  0.709727260000001,  0.606478300000003 ]
    mass: 55.845000
    reduced_to: 73
  - symbol: Fe # 80
    coordinates: [  0.494517266666668,  0.709727260000001,  0.606478300000003 ]
    mass: 55.845000
    reduced_to: 73
  - symbol: Fe # 81
    coordinates: [  0.827850600000001,  0.709727260000001,  0.606478300000003 ]
    mass: 55.845000
    reduced_to: 73
  - symbol: Fe # 82
    coordinates: [  0.037613906666666,  0.077313066666666,  0.845427769999997 ]
    mass: 55.845000
    reduced_to: 82
  - symbol: Fe # 83
    coordinates: [  0.370947240000000,  0.077313066666666,  0.845427769999997 ]
    mass: 55.845000
    reduced_to: 82
  - symbol: Fe # 84
    coordinates: [  0.704280573333333,  0.077313066666666,  0.845427769999997 ]
    mass: 55.845000
    reduced_to: 82
  - symbol: Fe # 85
    coordinates: [  0.037613906666666,  0.410646399999999,  0.845427769999997 ]
    mass: 55.845000
    reduced_to: 82
  - symbol: Fe # 86
    coordinates: [  0.370947240000000,  0.410646399999999,  0.845427769999997 ]
    mass: 55.845000
    reduced_to: 82
  - symbol: Fe # 87
    coordinates: [  0.704280573333333,  0.410646399999999,  0.845427769999997 ]
    mass: 55.845000
    reduced_to: 82
  - symbol: Fe # 88
    coordinates: [  0.037613906666666,  0.743979733333333,  0.845427769999997 ]
    mass: 55.845000
    reduced_to: 82
  - symbol: Fe # 89
    coordinates: [  0.370947240000000,  0.743979733333333,  0.845427769999997 ]
    mass: 55.845000
    reduced_to: 82
  - symbol: Fe # 90
    coordinates: [  0.704280573333333,  0.743979733333333,  0.845427769999997 ]
    mass: 55.845000
    reduced_to: 82
  - symbol: Fe # 91
    coordinates: [  0.256020266666670,  0.295719426666669,  0.154572230000003 ]
    mass: 55.845000
    reduced_to: 91
  - symbol: Fe # 92
    coordinates: [  0.589353600000003,  0.295719426666669,  0.154572230000003 ]
    mass: 55.845000
    reduced_to: 91
  - symbol: Fe # 93
    coordinates: [  0.922686933333337,  0.295719426666669,  0.154572230000003 ]
    mass: 55.845000
    reduced_to: 91
  - symbol: Fe # 94
    coordinates: [  0.256020266666670,  0.629052760000003,  0.154572230000003 ]
    mass: 55.845000
    reduced_to: 91
  - symbol: Fe # 95
    coordinates: [  0.589353600000003,  0.629052760000003,  0.154572230000003 ]
    mass: 55.845000
    reduced_to: 91
  - symbol: Fe # 96
    coordinates: [  0.922686933333337,  0.629052760000003,  0.154572230000003 ]
    mass: 55.845000
    reduced_to: 91
  - symbol: Fe # 97
    coordinates: [  0.256020266666670,  0.962386093333336,  0.154572230000003 ]
    mass: 55.845000
    reduced_to: 91
  - symbol: Fe # 98
    coordinates: [  0.589353600000003,  0.962386093333336,  0.154572230000003 ]
    mass: 55.845000
    reduced_to: 91
  - symbol: Fe # 99
    coordinates: [  0.922686933333337,  0.962386093333336,  0.154572230000003 ]
    mass: 55.845000
    reduced_to: 91

born_effective_charge:
- # 1 (Li)
  - [  1.338773908886212,  0.000299024963878,  0.000779008713086 ]
  - [  0.000386254964226,  0.995560092022506,  0.005306641124870 ]
  - [  0.002121651268250, -0.001329777772866,  1.398849984091282 ]
- # 2 (Li)
  - [  0.995561555641968, -0.000743617066845,  0.005304047765092 ]
  - [ -0.000830847066495,  1.338772445267489,  0.000796474134229 ]
  - [ -0.001336755109330,  0.002117262102385,  1.398849984090543 ]
- # 3 (O)
  - [ -1.926371952749423, -0.000443215486292,  0.014196801898169 ]
  - [  0.000641289517638, -3.339500516346830, -0.012188348205252 ]
  - [  0.030834056075632, -0.018972900020137, -2.542110910903748 ]
- # 4 (O)
  - [ -3.339485853663981, -0.004010751296990, -0.012235018657254 ]
  - [ -0.005095256293083, -1.926386615421609,  0.014156600400840 ]
  - [ -0.019074303885955,  0.030771429625808, -2.542110910914410 ]
- # 5 (S)
  - [ -2.382673537084462, -0.014851760464530, -0.011941248310964 ]
  - [ -0.012885510447769, -2.492119017002168,  0.013213423319644 ]
  - [ -0.019884841225120,  0.020101452475459, -2.364165750913369 ]
- # 6 (S)
  - [ -2.492026519416992, -0.013245505881790,  0.013252662669332 ]
  - [ -0.015211755864957, -2.382766034678196, -0.011897684589537 ]
  - [  0.020166805064119, -0.019818558869497, -2.364165750904812 ]
- # 7 (S)
  - [ -1.740350738662983,  0.002759410851222,  0.005117990354231 ]
  - [  0.002759410849199, -1.740332570427904,  0.005134866579882 ]
  - [  0.005924412086250,  0.005943947650289, -2.591006140909114 ]
- # 8 (Fe)
  - [  2.422067216085066,  0.017881027712571,  0.020092626567703 ]
  - [  0.017532832689566,  2.406557599820019, -0.033440653648420 ]
  - [  0.009951685557852, -0.027530263927532,  2.361207329094916 ]
- # 9 (Fe)
  - [  2.406441184995637,  0.017481391041652, -0.033506618017176 ]
  - [  0.017829586018678,  2.422183630917462,  0.019982429981475 ]
  - [ -0.027562875994667,  0.009861001139641,  2.361207329086900 ]
- # 10 (Fe)
  - [  2.597081079693628, -0.001390951560841, -0.000874908970116 ]
  - [ -0.002167716557931,  2.120966781214125, -0.000188225191948 ]
  - [  0.005708341639468, -0.006829420446514,  2.441722419092247 ]
- # 11 (Fe)
  - [  2.120983656275331, -0.003735052812036, -0.000185344012105 ]
  - [ -0.002958287809073,  2.597064204635105, -0.000875523905781 ]
  - [ -0.006848175476498,  0.005685828042964,  2.441722419089565 ]

dielectric_constant:
  - [  6.314110453062398,  0.016145546786172, -0.003615434660969 ]
  - [  0.016145546766128,  6.314216756937609, -0.003627356421727 ]
  - [ -0.003615364500574, -0.003627286052231,  6.381624519999994 ]

displacements:
- atom:    1
  displacement:
    [   0.0099998246208561,  0.0000072075797813,  0.0000587843764499 ]
  forces:
  - [  -0.0259633600000000,  0.0003899500000000, -0.0003936600000000 ]
  - [   0.0013028700000000,  0.0005293500000000, -0.0000811600000000 ]
  - [   0.0011751100000000,  0.0005298500000000,  0.0003788200000000 ]
  - [  -0.0003387400000000, -0.0006022000000000, -0.0000456200000000 ]
  - [   0.0001160200000000, -0.0004647700000000, -0.0000506600000000 ]
  - [  -0.0000031800000000, -0.0007067700000000, -0.0000353200000000 ]
  - [  -0.0003353800000000,  0.0003925000000000,  0.0001032800000000 ]
  - [   0.0001255400000000,  0.0002634600000000,  0.0000879500000000 ]
  - [  -0.0000202000000000,  0.0005056900000000,  0.0001146100000000 ]
  - [  -0.0007168200000000,  0.0007893200000000, -0.0007004400000000 ]
  - [   0.0004445900000000, -0.0006236300000000,  0.0006834400000000 ]
  - [  -0.0001278900000000,  0.0000698900000000,  0.0000237000000000 ]
  - [  -0.0005925400000000, -0.0007453900000000, -0.0007156500000000 ]
  - [   0.0003793700000000,  0.0007081100000000,  0.0007201000000000 ]
  - [  -0.0001949600000000, -0.0001027200000000,  0.0000101800000000 ]
  - [  -0.0004356600000000, -0.0000659300000000, -0.0002261700000000 ]
  - [   0.0005609400000000, -0.0001184600000000,  0.0002144100000000 ]
  - [  -0.0004244500000000,  0.0000060800000000, -0.0000049100000000 ]
  - [   0.0007460900000000,  0.0000030600000000,  0.0003583700000000 ]
  - [  -0.0008498700000000,  0.0008338900000000, -0.0006644400000000 ]
  - [  -0.0007878600000000, -0.0008349800000000,  0.0002675000000000 ]
  - [   0.0007332700000000, -0.0000494500000000, -0.0000004200000000 ]
  - [  -0.0008484900000000, -0.0008599500000000, -0.0006763900000000 ]
  - [  -0.0008177800000000,  0.0008409800000000,  0.0006086400000000 ]
  - [   0.0001427200000000,  0.0000186300000000,  0.0000217000000000 ]
  - [  -0.0004673900000000, -0.0000178900000000, -0.0001492600000000 ]
  - [  -0.0003716300000000, -0.0000415800000000,  0.0001059000000000 ]
  - [   0.0063942300000000,  0.0004217800000000,  0.0000983800000000 ]
  - [  -0.0013638000000000,  0.0010741200000000,  0.0002769000000000 ]
  - [  -0.0013883200000000, -0.0003076100000000, -0.0002639500000000 ]
  - [   0.0063749600000000,  0.0000887600000000,  0.0001054400000000 ]
  - [  -0.0013485200000000, -0.0005369300000000,  0.0002218000000000 ]
  - [  -0.0014043700000000,  0.0008586700000000, -0.0002865700000000 ]
  - [   0.0005964900000000,  0.0002390600000000,  0.0000119700000000 ]
  - [  -0.0002102400000000,  0.0002240800000000,  0.0000879400000000 ]
  - [  -0.0002587600000000,  0.0002311000000000, -0.0000848900000000 ]
  - [   0.0001076200000000,  0.0000448100000000, -0.0026395800000000 ]
  - [   0.0002317800000000,  0.0001206700000000,  0.0026886000000000 ]
  - [  -0.0008804700000000,  0.0001177400000000, -0.0001050100000000 ]
  - [   0.0001680300000000,  0.0003147600000000, -0.0000751600000000 ]
  - [   0.0003579000000000, -0.0000980200000000,  0.0001171800000000 ]
  - [  -0.0003928500000000,  0.0000578000000000, -0.0000854200000000 ]
  - [   0.0002052700000000, -0.0000989400000000, -0.0001291300000000 ]
  - [   0.0002741400000000,  0.0002851700000000,  0.0001248800000000 ]
  - [  -0.0003555400000000,  0.0000851400000000, -0.0000355100000000 ]
  - [   0.0008778000000000,  0.0000393900000000,  0.0007387100000000 ]
  - [  -0.0002467000000000, -0.0003150200000000, -0.0002300100000000 ]
  - [  -0.0007754100000000,  0.0004234800000000, -0.0003586500000000 ]
  - [   0.0002625000000000,  0.0000920000000000,  0.0001571400000000 ]
  - [   0.0000461000000000, -0.0000061700000000, -0.0000348200000000 ]
  - [  -0.0002378200000000,  0.0000417800000000,  0.0000359400000000 ]
  - [   0.0007813000000000,  0.0000056800000000,  0.0001629500000000 ]
  - [  -0.0003563700000000,  0.0004674600000000,  0.0003792100000000 ]
  - [  -0.0006286300000000, -0.0003572400000000, -0.0003918300000000 ]
  - [   0.0016390000000000,  0.0000029600000000,  0.0000039600000000 ]
  - [   0.0017807000000000, -0.0000082000000000,  0.0002653000000000 ]
  - [  -0.0011402400000000,  0.0000111700000000, -0.0000730200000000 ]
  - [   0.0000636200000000,  0.0004267000000000,  0.0000930500000000 ]
  - [   0.0000582400000000, -0.0004522000000000, -0.0000685800000000 ]
  - [  -0.0002605200000000, -0.0000182000000000, -0.0000158100000000 ]
  - [   0.0000988600000000, -0.0004508000000000,  0.0000769900000000 ]
  - [   0.0000427700000000,  0.0004357300000000, -0.0000148500000000 ]
  - [  -0.0002734000000000, -0.0000214700000000, -0.0000629200000000 ]
  - [  -0.0007057900000000, -0.0000449300000000, -0.0019315900000000 ]
  - [   0.0005667600000000, -0.0001823700000000,  0.0002972200000000 ]
  - [  -0.0003181700000000, -0.0001222800000000,  0.0013841200000000 ]
  - [  -0.0002702300000000, -0.0000897200000000, -0.0002554300000000 ]
  - [   0.0004785900000000, -0.0000218700000000,  0.0002889300000000 ]
  - [  -0.0000474900000000, -0.0002166800000000, -0.0003478800000000 ]
  - [  -0.0001791700000000,  0.0000306300000000, -0.0002370800000000 ]
  - [   0.0004511700000000,  0.0000390800000000,  0.0000556100000000 ]
  - [  -0.0001051000000000,  0.0000965700000000, -0.0000555700000000 ]
  - [  -0.0024669000000000, -0.0000458200000000,  0.0000894100000000 ]
  - [   0.0008861500000000, -0.0008450900000000, -0.0000029500000000 ]
  - [   0.0009103800000000,  0.0005117600000000,  0.0003442000000000 ]
  - [  -0.0021103200000000, -0.0003627300000000, -0.0001112200000000 ]
  - [   0.0007863700000000,  0.0004247700000000,  0.0000835400000000 ]
  - [   0.0008104800000000, -0.0008569500000000,  0.0003245700000000 ]
  - [  -0.0005866700000000, -0.0002701600000000,  0.0000166300000000 ]
  - [   0.0001679100000000, -0.0002527000000000,  0.0001093400000000 ]
  - [   0.0002341800000000, -0.0002463900000000,  0.0001507800000000 ]
  - [   0.0037653400000000,  0.0078120100000000,  0.0007053900000000 ]
  - [   0.0038576500000000, -0.0080590700000000, -0.0007286800000000 ]
  - [   0.0012879100000000, -0.0000787700000000,  0.0000618300000000 ]
  - [   0.0039102900000000, -0.0079838900000000,  0.0006315100000000 ]
  - [   0.0038870900000000,  0.0081476000000000, -0.0006085400000000 ]
  - [   0.0013100700000000, -0.0000599100000000,  0.0000908600000000 ]
  - [   0.0000264600000000, -0.0000905800000000,  0.0002123000000000 ]
  - [   0.0000282000000000, -0.0000882000000000, -0.0003032900000000 ]
  - [   0.0003982700000000, -0.0000428400000000,  0.0000383900000000 ]
  - [  -0.0027607500000000, -0.0000721000000000, -0.0001984800000000 ]
  - [   0.0021187000000000, -0.0001965200000000,  0.0010409100000000 ]
  - [   0.0018367800000000, -0.0003266300000000, -0.0012474400000000 ]
  - [  -0.0002986600000000, -0.0000991500000000, -0.0000912000000000 ]
  - [   0.0002857300000000,  0.0001811500000000, -0.0000393900000000 ]
  - [   0.0002777400000000, -0.0004125700000000, -0.0001229100000000 ]
  - [  -0.0003776700000000, -0.0002318900000000, -0.0001552200000000 ]
  - [   0.0004782800000000, -0.0003887900000000, -0.0000669700000000 ]
  - [   0.0001967700000000,  0.0003587800000000, -0.0000668500000000 ]
- atom:    1
  displacement:
    [  -0.0099998246208561, -0.0000072075797813, -0.0000587843764499 ]
  forces:
  - [   0.0254836900000000,  0.0006497200000000,  0.0003547700000000 ]
  - [  -0.0011612400000000,  0.0005174100000000,  0.0003015200000000 ]
  - [  -0.0012958700000000,  0.0005427500000000, -0.0001459300000000 ]
  - [   0.0004264400000000, -0.0005687700000000, -0.0000662200000000 ]
  - [  -0.0000184500000000, -0.0007116500000000, -0.0000701300000000 ]
  - [  -0.0001804200000000, -0.0004445500000000, -0.0000870300000000 ]
  - [   0.0004362800000000,  0.0004239300000000,  0.0000838400000000 ]
  - [  -0.0000601300000000,  0.0005475500000000,  0.0000654400000000 ]
  - [  -0.0001555700000000,  0.0002635300000000,  0.0000445800000000 ]
  - [  -0.0000344900000000, -0.0006431800000000,  0.0006795300000000 ]
  - [   0.0007854500000000,  0.0008456400000000, -0.0004343000000000 ]
  - [  -0.0009203200000000,  0.0000923000000000, -0.0001341400000000 ]
  - [  -0.0001391700000000,  0.0006985900000000,  0.0006950300000000 ]
  - [   0.0008056900000000, -0.0008331300000000, -0.0004716300000000 ]
  - [  -0.0008221800000000,  0.0000241300000000, -0.0001138400000000 ]
  - [  -0.0003339000000000, -0.0000664200000000,  0.0001639300000000 ]
  - [   0.0006411900000000, -0.0000048600000000,  0.0000287800000000 ]
  - [  -0.0005693700000000, -0.0001207500000000, -0.0001276000000000 ]
  - [  -0.0010821800000000, -0.0000755600000000, -0.0004080800000000 ]
  - [   0.0005938400000000, -0.0009277800000000,  0.0006106800000000 ]
  - [   0.0001337500000000,  0.0008025700000000, -0.0003362400000000 ]
  - [  -0.0010727700000000, -0.0000774700000000, -0.0000532600000000 ]
  - [   0.0006051100000000,  0.0007780500000000,  0.0006429600000000 ]
  - [   0.0001325800000000, -0.0009922100000000, -0.0006896700000000 ]
  - [  -0.0005000400000000, -0.0000628300000000, -0.0000254700000000 ]
  - [   0.0002163400000000, -0.0000225000000000,  0.0001155100000000 ]
  - [  -0.0002872000000000,  0.0000215900000000, -0.0001642300000000 ]
  - [  -0.0064426800000000,  0.0004275200000000, -0.0000199000000000 ]