 160 160   0   0
  0.1218736E+02  0.1542482E-08  0.1121024E-08  0.1127703E-08  0.5000000E-15
  1.000000000000000E-004
  CAR 
 unknown system                          
     16.83817697    -54.74660781  301      4.93720650      1.00000000
    -54.747  0.0000E+00  0.0000E+00  0.0000E+00  0.0000E+00
    -54.508  0.0000E+00  0.0000E+00  0.0000E+00  0.0000E+00
    -54.269  0.0000E+00  0.0000E+00  0.0000E+00  0.0000E+00
    -54.031  0.0000E+00  0.0000E+00  0.0000E+00  0.0000E+00
    -53.792  0.0000E+00  0.0000E+00  0.0000E+00  0.0000E+00
    -53.554  0.0000E+00  0.0000E+00  0.0000E+00  0.0000E+00
    -53.315  0.0000E+00  0.0000E+00  0.0000E+00  0.0000E+00
    -53.076  0.0000E+00  0.0000E+00  0.0000E+00  0.0000E+00
    -52.838  0.0000E+00  0.0000E+00  0.0000E+00  0.0000E+00
    -52.599  0.0000E+00  0.0000E+00  0.0000E+00  0.0000E+00
    -52.360  0.0000E+00  0.0000E+00  0.0000E+00  0.0000E+00
    -52.122  0.0000E+00  0.0000E+00  0.0000E+00  0.0000E+00
    -51.883  0.0000E+00  0.0000E+00  0.0000E+00  0.0000E+00
    -51.645  0.5054E-03  0.0000E+00  0.1206E-03  0.0000E+00
    -51.406  0.1325E+03  0.0000E+00  0.3162E+02  0.0000E+00
    -51.167  0.1590E+01  0.0000E+00  0.3200E+02  0.0000E+00
    -50.929  0.0000E+00  0.0000E+00  0.3200E+02  0.0000E+00
    -50.690  0.0000E+00  0.0000E+00  0.3200E+02  0.0000E+00
    -50.452  0.0000E+00  0.0000E+00  0.3200E+02  0.0000E+00
    -50.213  0.5729E-01  0.0000E+00  0.3201E+02  0.0000E+00
    -49.974  0.2654E+03  0.0000E+00  0.9535E+02  0.0000E+00
    -49.736  0.2712E+01  0.0000E+00  0.9600E+02  0.0000E+00
    -49.497  0.0000E+00  0.0000E+00  0.9600E+02  0.0000E+00
    -49.258  0.0000E+00  0.0000E+00  0.9600E+02  0.0000E+00
    -49.020  0.0000E+00  0.0000E+00  0.9600E+02  0.0000E+00
    -48.781  0.0000E+00  0.0000E+00  0.9600E+02  0.0000E+00
    -48.543  0.0000E+00  0.0000E+00  0.9600E+02  0.0000E+00
    -48.304  0.0000E+00  0.0000E+00  0.9600E+02  0.0000E+00
    -48.065  0.0000E+00  0.0000E+00  0.9600E+02  0.0000E+00
    -47.827  0.0000E+00  0.0000E+00  0.9600E+02  0.0000E+00
    -47.588  0.0000E+00  0.0000E+00  0.9600E+02  0.0000E+00
    -47.350  0.0000E+00  0.0000E+00  0.9600E+02  0.0000E+00
    -47.111  0.0000E+00  0.0000E+00  0.9600E+02  0.0000E+00
    -46.872  0.0000E+00  0.1566E-01  0.9600E+02  0.3736E-02
    -46.634  0.0000E+00  0.1339E+03  0.9600E+02  0.3196E+02
    -46.395  0.0000E+00  0.4770E+02  0.9600E+02  0.4335E+02
    -46.156  0.0000E+00  0.2207E+03  0.9600E+02  0.9600E+02
    -45.918  0.0000E+00  0.0000E+00  0.9600E+02  0.9600E+02
    -45.679  0.0000E+00  0.0000E+00  0.9600E+02  0.9600E+02
    -45.441  0.0000E+00  0.0000E+00  0.9600E+02  0.9600E+02
    -45.202  0.0000E+00  0.0000E+00  0.9600E+02  0.9600E+02
    -44.963  0.0000E+00  0.0000E+00  0.9600E+02  0.9600E+02
    -44.725  0.0000E+00  0.0000E+00  0.9600E+02  0.9600E+02
    -44.486  0.0000E+00  0.0000E+00  0.9600E+02  0.9600E+02
    -44.248  0.0000E+00  0.0000E+00  0.9600E+02  0.9600E+02
    -44.009  0.0000E+00  0.0000E+00  0.9600E+02  0.9600E+02
    -43.770  0.0000E+00  0.0000E+00  0.9600E+02  0.9600E+02
    -43.532  0.0000E+00  0.0000E+00  0.9600E+02  0.9600E+02
    -43.293  0.0000E+00  0.0000E+00  0.9600E+02  0.9600E+02
    -43.054  0.0000E+00  0.0000E+00  0.9600E+02  0.9600E+02
    -42.816  0.0000E+00  0.0000E+00  0.9600E+02  0.9600E+02
    -42.577  0.0000E+00  0.0000E+00  0.9600E+02  0.9600E+02
    -42.339  0.0000E+00  0.0000E+00  0.9600E+02  0.9600E+02
    -42.100  0.0000E+00  0.0000E+00  0.9600E+02  0.9600E+02
    -41.861  0.0000E+00  0.0000E+00  0.9600E+02  0.9600E+02
    -41.623  0.0000E+00  0.0000E+00  0.9600E+02  0.9600E+02
    -41.384  0.0000E+00  0.0000E+00  0.9600E+02  0.9600E+02
    -41.145  0.0000E+00  0.0000E+00  0.9600E+02  0.9600E+02
    -40.907  0.0000E+00  0.0000E+00  0.9600E+02  0.9600E+02
    -40.668  0.0000E+00  0.0000E+00  0.9600E+02  0.9600E+02
    -40.430  0.4319E+00  0.3817E+00  0.9610E+02  0.9609E+02
    -40.191  0.2381E+03  0.2400E+03  0.1529E+03  0.1534E+03
    -39.952  0.2968E+02  0.2781E+02  0.1600E+03  0.1600E+03
    -39.714  0.0000E+00  0.0000E+00  0.1600E+03  0.1600E+03
    -39.475  0.0000E+00  0.0000E+00  0.1600E+03  0.1600E+03
    -39.237  0.0000E+00  0.0000E+00  0.1600E+03  0.1600E+03
    -38.998  0.0000E+00  0.0000E+00  0.1600E+03  0.1600E+03
    -38.759  0.0000E+00  0.0000E+00  0.1600E+03  0.1600E+03
    -38.521  0.0000E+00  0.0000E+00  0.1600E+03  0.1600E+03
    -38.282  0.0000E+00  0.0000E+00  0.1600E+03  0.1600E+03
    -38.043  0.0000E+00  0.0000E+00  0.1600E+03  0.1600E+03
    -37.805  0.0000E+00  0.0000E+00  0.1600E+03  0.1600E+03
    -37.566  0.0000E+00  0.0000E+00  0.1600E+03  0.1600E+03
    -37.328  0.0000E+00  0.0000E+00  0.1600E+03  0.1600E+03
    -37.089  0.0000E+00  0.0000E+00  0.1600E+03  0.1600E+03
    -36.850  0.0000E+00  0.0000E+00  0.1600E+03  0.1600E+03
    -36.612  0.0000E+00  0.0000E+00  0.1600E+03  0.1600E+03
    -36.373  0.0000E+00  0.0000E+00  0.1600E+03  0.1600E+03
    -36.135  0.0000E+00  0.0000E+00  0.1600E+03  0.1600E+03
    -35.896  0.0000E+00  0.0000E+00  0.1600E+03  0.1600E+03
    -35.657  0.0000E+00  0.0000E+00  0.1600E+03  0.1600E+03
    -35.419  0.0000E+00  0.0000E+00  0.1600E+03  0.1600E+03
    -35.180  0.0000E+00  0.0000E+00  0.1600E+03  0.1600E+03
    -34.941  0.0000E+00  0.0000E+00  0.1600E+03  0.1600E+03
    -34.703  0.0000E+00  0.0000E+00  0.1600E+03  0.1600E+03
    -34.464  0.0000E+00  0.0000E+00  0.1600E+03  0.1600E+03
    -34.226  0.0000E+00  0.0000E+00  0.1600E+03  0.1600E+03
    -33.987  0.0000E+00  0.0000E+00  0.1600E+03  0.1600E+03
    -33.748  0.0000E+00  0.0000E+00  0.1600E+03  0.1600E+03
    -33.510  0.0000E+00  0.0000E+00  0.1600E+03  0.1600E+03
    -33.271  0.0000E+00  0.0000E+00  0.1600E+03  0.1600E+03
    -33.033  0.0000E+00  0.0000E+00  0.1600E+03  0.1600E+03
    -32.794  0.0000E+00  0.0000E+00  0.1600E+03  0.1600E+03
    -32.555  0.0000E+00  0.0000E+00  0.1600E+03  0.1600E+03
    -32.317  0.0000E+00  0.0000E+00  0.1600E+03  0.1600E+03
    -32.078  0.0000E+00  0.0000E+00  0.1600E+03  0.1600E+03
    -31.839  0.0000E+00  0.0000E+00  0.1600E+03  0.1600E+03
    -31.601  0.0000E+00  0.0000E+00  0.1600E+03  0.1600E+03
    -31.362  0.0000E+00  0.0000E+00  0.1600E+03  0.1600E+03
    -31.124  0.0000E+00  0.0000E+00  0.1600E+03  0.1600E+03
    -30.885  0.0000E+00  0.0000E+00  0.1600E+03  0.1600E+03
    -30.646  0.0000E+00  0.0000E+00  0.1600E+03  0.1600E+03
    -30.408  0.0000E+00  0.0000E+00  0.1600E+03  0.1600E+03
    -30.169  0.0000E+00  0.0000E+00  0.1600E+03  0.1600E+03
    -29.931  0.0000E+00  0.0000E+00  0.1600E+03  0.1600E+03
    -29.692  0.0000E+00  0.0000E+00  0.1600E+03  0.1600E+03
    -29.453  0.0000E+00  0.0000E+00  0.1600E+03  0.1600E+03
    -29.215  0.0000E+00  0.0000E+00  0.1600E+03  0.1600E+03
    -28.976  0.0000E+00  0.0000E+00  0.1600E+03  0.1600E+03
    -28.737  0.0000E+00  0.0000E+00  0.1600E+03  0.1600E+03
    -28.499  0.0000E+00  0.0000E+00  0.1600E+03  0.1600E+03
    -28.260  0.0000E+00  0.0000E+00  0.1600E+03  0.1600E+03
    -28.022  0.0000E+00  0.0000E+00  0.1600E+03  0.1600E+03
    -27.783  0.0000E+00  0.0000E+00  0.1600E+03  0.1600E+03
    -27.544  0.0000E+00  0.0000E+00  0.1600E+03  0.1600E+03
    -27.306  0.0000E+00  0.0000E+00  0.1600E+03  0.1600E+03
    -27.067  0.0000E+00  0.0000E+00  0.1600E+03  0.1600E+03
    -26.829  0.0000E+00  0.0000E+00  0.1600E+03  0.1600E+03
    -26.590  0.0000E+00  0.0000E+00  0.1600E+03  0.1600E+03
    -26.351  0.0000E+00  0.0000E+00  0.1600E+03  0.1600E+03
    -26.113  0.0000E+00  0.0000E+00  0.1600E+03  0.1600E+03
    -25.874  0.0000E+00  0.0000E+00  0.1600E+03  0.1600E+03
    -25.635  0.0000E+00  0.0000E+00  0.1600E+03  0.1600E+03
    -25.397  0.0000E+00  0.0000E+00  0.1600E+03  0.1600E+03
    -25.158  0.0000E+00  0.0000E+00  0.1600E+03  0.1600E+03
    -24.920  0.0000E+00  0.0000E+00  0.1600E+03  0.1600E+03
    -24.681  0.0000E+00  0.0000E+00  0.1600E+03  0.1600E+03
    -24.442  0.0000E+00  0.0000E+00  0.1600E+03  0.1600E+03
    -24.204  0.0000E+00  0.0000E+00  0.1600E+03  0.1600E+03
    -23.965  0.0000E+00  0.0000E+00  0.1600E+03  0.1600E+03
    -23.727  0.0000E+00  0.0000E+00  0.1600E+03  0.1600E+03
    -23.488  0.0000E+00  0.0000E+00  0.1600E+03  0.1600E+03
    -23.249  0.0000E+00  0.0000E+00  0.1600E+03  0.1600E+03
    -23.011  0.0000E+00  0.0000E+00  0.1600E+03  0.1600E+03
    -22.772  0.0000E+00  0.0000E+00  0.1600E+03  0.1600E+03
    -22.533  0.0000E+00  0.0000E+00  0.1600E+03  0.1600E+03
    -22.295  0.0000E+00  0.0000E+00  0.1600E+03  0.1600E+03
    -22.056  0.0000E+00  0.0000E+00  0.1600E+03  0.1600E+03
    -21.818  0.0000E+00  0.0000E+00  0.1600E+03  0.1600E+03
    -21.579  0.0000E+00  0.0000E+00  0.1600E+03  0.1600E+03
    -21.340  0.0000E+00  0.0000E+00  0.1600E+03  0.1600E+03
    -21.102  0.0000E+00  0.0000E+00  0.1600E+03  0.1600E+03
    -20.863  0.0000E+00  0.0000E+00  0.1600E+03  0.1600E+03
    -20.625  0.0000E+00  0.0000E+00  0.1600E+03  0.1600E+03
    -20.386  0.0000E+00  0.0000E+00  0.1600E+03  0.1600E+03
    -20.147  0.0000E+00  0.0000E+00  0.1600E+03  0.1600E+03
    -19.909  0.0000E+00  0.0000E+00  0.1600E+03  0.1600E+03
    -19.670  0.0000E+00  0.0000E+00  0.1600E+03  0.1600E+03
    -19.431  0.0000E+00  0.0000E+00  0.1600E+03  0.1600E+03
    -19.193  0.0000E+00  0.0000E+00  0.1600E+03  0.1600E+03
    -18.954  0.0000E+00  0.0000E+00  0.1600E+03  0.1600E+03
    -18.716  0.0000E+00  0.0000E+00  0.1600E+03  0.1600E+03
    -18.477  0.0000E+00  0.0000E+00  0.1600E+03  0.1600E+03
    -18.238  0.0000E+00  0.0000E+00  0.1600E+03  0.1600E+03
    -18.000  0.0000E+00  0.0000E+00  0.1600E+03  0.1600E+03
    -17.761  0.0000E+00  0.0000E+00  0.1600E+03  0.1600E+03
    -17.523  0.0000E+00  0.0000E+00  0.1600E+03  0.1600E+03
    -17.284  0.0000E+00  0.0000E+00  0.1600E+03  0.1600E+03
    -17.045  0.0000E+00  0.0000E+00  0.1600E+03  0.1600E+03
    -16.807  0.0000E+00  0.0000E+00  0.1600E+03  0.1600E+03
    -16.568  0.0000E+00  0.0000E+00  0.1600E+03  0.1600E+03
    -16.329  0.0000E+00  0.0000E+00  0.1600E+03  0.1600E+03
    -16.091  0.0000E+00  0.0000E+00  0.1600E+03  0.1600E+03
    -15.852  0.0000E+00  0.0000E+00  0.1600E+03  0.1600E+03
    -15.614  0.0000E+00  0.0000E+00  0.1600E+03  0.1600E+03
    -15.375  0.0000E+00  0.0000E+00  0.1600E+03  0.1600E+03
    -15.136  0.0000E+00  0.0000E+00  0.1600E+03  0.1600E+03
    -14.898  0.0000E+00  0.0000E+00  0.1600E+03  0.1600E+03
    -14.659  0.0000E+00  0.0000E+00  0.1600E+03  0.1600E+03
    -14.421  0.0000E+00  0.0000E+00  0.1600E+03  0.1600E+03
    -14.182  0.0000E+00  0.0000E+00  0.1600E+03  0.1600E+03
    -13.943  0.0000E+00  0.0000E+00  0.1600E+03  0.1600E+03
    -13.705  0.3205E-06  0.0000E+00  0.1600E+03  0.1600E+03
    -13.466  0.2879E+02  0.6206E-13  0.1669E+03  0.1600E+03
    -13.227  0.7624E+02  0.2915E+01  0.1851E+03  0.1607E+03
    -12.989  0.2908E+02  0.1047E+03  0.1920E+03  0.1857E+03
    -12.750  0.0000E+00  0.2651E+02  0.1920E+03  0.1920E+03
    -12.512  0.0000E+00  0.0000E+00  0.1920E+03  0.1920E+03
    -12.273  0.0000E+00  0.0000E+00  0.1920E+03  0.1920E+03
    -12.034  0.0000E+00  0.0000E+00  0.1920E+03  0.1920E+03
    -11.796  0.0000E+00  0.0000E+00  0.1920E+03  0.1920E+03
    -11.557  0.0000E+00  0.0000E+00  0.1920E+03  0.1920E+03
    -11.319  0.0000E+00  0.0000E+00  0.1920E+03  0.1920E+03
    -11.080  0.0000E+00  0.0000E+00  0.1920E+03  0.1920E+03
    -10.841  0.0000E+00  0.0000E+00  0.1920E+03  0.1920E+03
    -10.603  0.0000E+00  0.0000E+00  0.1920E+03  0.1920E+03
    -10.364  0.0000E+00  0.0000E+00  0.1920E+03  0.1920E+03
    -10.125  0.0000E+00  0.0000E+00  0.1920E+03  0.1920E+03
     -9.887  0.0000E+00  0.0000E+00  0.1920E+03  0.1920E+03
     -9.648  0.0000E+00  0.0000E+00  0.1920E+03  0.1920E+03
     -9.410  0.0000E+00  0.0000E+00  0.1920E+03  0.1920E+03
     -9.171  0.0000E+00  0.0000E+00  0.1920E+03  0.1920E+03
     -8.932  0.0000E+00  0.0000E+00  0.1920E+03  0.1920E+03
     -8.694  0.0000E+00  0.0000E+00  0.1920E+03  0.1920E+03
     -8.455  0.0000E+00  0.0000E+00  0.1920E+03  0.1920E+03
     -8.216  0.0000E+00  0.0000E+00  0.1920E+03  0.1920E+03
     -7.978  0.0000E+00  0.0000E+00  0.1920E+03  0.1920E+03
     -7.739  0.1200E-02  0.0000E+00  0.1920E+03  0.1920E+03
     -7.501  0.1905E+02  0.4304E-01  0.1965E+03  0.1920E+03
     -7.262  0.6180E+02  0.3742E+02  0.2113E+03  0.2009E+03
     -7.023  0.5057E+02  0.6391E+02  0.2234E+03  0.2162E+03
     -6.785  0.2693E+01  0.3133E+02  0.2240E+03  0.2237E+03
     -6.546  0.0000E+00  0.1403E+01  0.2240E+03  0.2240E+03
     -6.308  0.0000E+00  0.0000E+00  0.2240E+03  0.2240E+03
     -6.069  0.0000E+00  0.0000E+00  0.2240E+03  0.2240E+03
     -5.830  0.0000E+00  0.0000E+00  0.2240E+03  0.2240E+03
     -5.592  0.0000E+00  0.0000E+00  0.2240E+03  0.2240E+03
     -5.353  0.0000E+00  0.0000E+00  0.2240E+03  0.2240E+03
     -5.114  0.0000E+00  0.0000E+00  0.2240E+03  0.2240E+03
     -4.876  0.0000E+00  0.0000E+00  0.2240E+03  0.2240E+03
     -4.637  0.0000E+00  0.0000E+00  0.2240E+03  0.2240E+03
     -4.399  0.0000E+00  0.0000E+00  0.2240E+03  0.2240E+03
     -4.160  0.0000E+00  0.0000E+00  0.2240E+03  0.2240E+03
     -3.921  0.0000E+00  0.0000E+00  0.2240E+03  0.2240E+03
     -3.683  0.0000E+00  0.0000E+00  0.2240E+03  0.2240E+03
     -3.444  0.0000E+00  0.0000E+00  0.2240E+03  0.2240E+03
     -3.206  0.0000E+00  0.0000E+00  0.2240E+03  0.2240E+03
     -2.967  0.0000E+00  0.0000E+00  0.2240E+03  0.2240E+03
     -2.728  0.3291E-05  0.0000E+00  0.2240E+03  0.2240E+03
     -2.490  0.1277E+02  0.0000E+00  0.2270E+03  0.2240E+03
     -2.251  0.2077E+02  0.0000E+00  0.2320E+03  0.2240E+03
     -2.012  0.2232E+02  0.0000E+00  0.2373E+03  0.2240E+03
     -1.774  0.5519E-01  0.0000E+00  0.2373E+03  0.2240E+03
     -1.535  0.2230E+02  0.0000E+00  0.2427E+03  0.2240E+03
     -1.297  0.2461E+02  0.2585E-16  0.2485E+03  0.2240E+03
     -1.058  0.7931E+02  0.3398E-01  0.2675E+03  0.2240E+03
     -0.819  0.7108E+02  0.1834E+02  0.2844E+03  0.2284E+03
     -0.581  0.6954E+02  0.2964E+02  0.3010E+03  0.2355E+03
     -0.342  0.9273E+02  0.1576E+02  0.3231E+03  0.2392E+03
     -0.104  0.1046E+03  0.1489E+02  0.3481E+03  0.2428E+03
      0.135  0.5693E+02  0.2445E+02  0.3617E+03  0.2486E+03
      0.374  0.4750E+02  0.4790E+02  0.3730E+03  0.2600E+03
      0.612  0.5217E+02  0.8029E+02  0.3855E+03  0.2792E+03
      0.851  0.4347E+02  0.7107E+02  0.3958E+03  0.2962E+03
      1.090  0.6044E+02  0.7669E+02  0.4103E+03  0.3145E+03
      1.328  0.8198E+02  0.3302E+02  0.4298E+03  0.3223E+03
      1.567  0.8388E+02  0.3533E+02  0.4498E+03  0.3308E+03
      1.805  0.4469E+02  0.4925E+02  0.4605E+03  0.3425E+03
      2.044  0.3870E+02  0.4559E+02  0.4697E+03  0.3534E+03
      2.283  0.4870E+02  0.2749E+02  0.4814E+03  0.3600E+03
      2.521  0.4129E+02  0.5025E+02  0.4912E+03  0.3719E+03
      2.760  0.5552E+02  0.6699E+02  0.5045E+03  0.3879E+03
      2.998  0.5587E+02  0.8272E+02  0.5178E+03  0.4077E+03
      3.237  0.5424E+02  0.3217E+02  0.5307E+03  0.4153E+03
      3.476  0.4812E+02  0.2068E+02  0.5422E+03  0.4203E+03
      3.714  0.5471E+02  0.4616E+02  0.5553E+03  0.4313E+03
      3.953  0.3935E+02  0.5641E+02  0.5647E+03  0.4448E+03
      4.192  0.2831E+02  0.1361E+02  0.5714E+03  0.4480E+03
      4.430  0.1659E+02  0.2106E-02  0.5754E+03  0.4480E+03
      4.669  0.2617E+01  0.0000E+00  0.5760E+03  0.4480E+03
      4.907  0.7130E-03  0.0000E+00  0.5760E+03  0.4480E+03
      5.146  0.0000E+00  0.0000E+00  0.5760E+03  0.4480E+03
      5.385  0.0000E+00  0.0000E+00  0.5760E+03  0.4480E+03
      5.623  0.0000E+00  0.0000E+00  0.5760E+03  0.4480E+03
      5.862  0.0000E+00  0.0000E+00  0.5760E+03  0.4480E+03
      6.100  0.0000E+00  0.0000E+00  0.5760E+03  0.4480E+03
      6.339  0.0000E+00  0.2192E-12  0.5760E+03  0.4480E+03
      6.578  0.0000E+00  0.6836E+00  0.5760E+03  0.4482E+03
      6.816  0.1292E-16  0.4884E+02  0.5760E+03  0.4598E+03
      7.055  0.1340E-01  0.7748E+02  0.5760E+03  0.4783E+03
      7.294  0.2194E+00  0.5943E+02  0.5761E+03  0.4925E+03
      7.532  0.9256E+00  0.6719E+02  0.5763E+03  0.5085E+03
      7.771  0.1306E+01  0.6159E+02  0.5766E+03  0.5232E+03
      8.009  0.2898E+01  0.9859E+02  0.5773E+03  0.5467E+03
      8.248  0.7738E+01  0.7222E+02  0.5791E+03  0.5640E+03
      8.487  0.1087E+02  0.3690E+02  0.5817E+03  0.5728E+03
      8.725  0.2183E+02  0.1516E+02  0.5869E+03  0.5764E+03
      8.964  0.2759E+02  0.8224E+01  0.5935E+03  0.5784E+03
      9.202  0.2846E+02  0.1136E+02  0.6003E+03  0.5811E+03
      9.441  0.3160E+02  0.1933E+02  0.6078E+03  0.5857E+03
      9.680  0.3000E+02  0.2555E+02  0.6150E+03  0.5918E+03
      9.918  0.2101E+02  0.4106E+02  0.6200E+03  0.6016E+03
     10.157  0.2162E+02  0.3319E+02  0.6252E+03  0.6095E+03
     10.396  0.2533E+02  0.3359E+02  0.6312E+03  0.6175E+03
     10.634  0.3855E+02  0.3353E+02  0.6404E+03  0.6255E+03
     10.873  0.4075E+02  0.2280E+02  0.6501E+03  0.6310E+03
     11.111  0.4352E+02  0.3392E+02  0.6605E+03  0.6390E+03
     11.350  0.4116E+02  0.2465E+02  0.6703E+03  0.6449E+03
     11.589  0.3847E+02  0.3352E+02  0.6795E+03  0.6529E+03
     11.827  0.4834E+02  0.5223E+02  0.6911E+03  0.6654E+03
     12.066  0.3047E+02  0.5650E+02  0.6983E+03  0.6789E+03
     12.304  0.2933E+02  0.4854E+02  0.7053E+03  0.6905E+03
     12.543  0.3375E+02  0.3135E+02  0.7134E+03  0.6979E+03
     12.782  0.4033E+02  0.3206E+02  0.7230E+03  0.7056E+03
     13.020  0.2130E+02  0.3501E+02  0.7281E+03  0.7139E+03
     13.259  0.1627E+02  0.3785E+02  0.7320E+03  0.7230E+03
     13.498  0.1135E+00  0.2929E+02  0.7320E+03  0.7300E+03
     13.736  0.0000E+00  0.8551E+01  0.7320E+03  0.7320E+03
     13.975  0.0000E+00  0.5671E-05  0.7320E+03  0.7320E+03
     14.213  0.0000E+00  0.0000E+00  0.7320E+03  0.7320E+03
     14.452  0.0000E+00  0.0000E+00  0.7320E+03  0.7320E+03
     14.691  0.0000E+00  0.0000E+00  0.7320E+03  0.7320E+03
     14.929  0.0000E+00  0.0000E+00  0.7320E+03  0.7320E+03
     15.168  0.0000E+00  0.0000E+00  0.7320E+03  0.7320E+03
     15.406  0.0000E+00  0.0000E+00  0.7320E+03  0.7320E+03
     15.645  0.0000E+00  0.0000E+00  0.7320E+03  0.7320E+03
     15.884  0.0000E+00  0.0000E+00  0.7320E+03  0.7320E+03
     16.122  0.0000E+00  0.0000E+00  0.7320E+03  0.7320E+03
     16.361  0.0000E+00  0.0000E+00  0.7320E+03  0.7320E+03
     16.600  0.0000E+00  0.0000E+00  0.7320E+03  0.7320E+03
     16.838  0.0000E+00  0.0000E+00  0.7320E+03  0.7320E+03
