 144 144   0   0
  0.1325381E+02  0.1546422E-08  0.1214491E-08  0.1054520E-08  0.5000000E-15
  1.000000000000000E-004
  CAR 
 unknown system                          
     17.00426601    -54.87068918  301      5.08500261      1.00000000
    -54.871  0.0000E+00  0.0000E+00  0.0000E+00  0.0000E+00
    -54.631  0.0000E+00  0.0000E+00  0.0000E+00  0.0000E+00
    -54.392  0.0000E+00  0.0000E+00  0.0000E+00  0.0000E+00
    -54.152  0.0000E+00  0.0000E+00  0.0000E+00  0.0000E+00
    -53.912  0.0000E+00  0.0000E+00  0.0000E+00  0.0000E+00
    -53.673  0.0000E+00  0.0000E+00  0.0000E+00  0.0000E+00
    -53.433  0.0000E+00  0.0000E+00  0.0000E+00  0.0000E+00
    -53.194  0.0000E+00  0.0000E+00  0.0000E+00  0.0000E+00
    -52.954  0.0000E+00  0.0000E+00  0.0000E+00  0.0000E+00
    -52.714  0.0000E+00  0.0000E+00  0.0000E+00  0.0000E+00
    -52.475  0.0000E+00  0.0000E+00  0.0000E+00  0.0000E+00
    -52.235  0.0000E+00  0.0000E+00  0.0000E+00  0.0000E+00
    -51.996  0.0000E+00  0.0000E+00  0.0000E+00  0.0000E+00
    -51.756  0.3745E-03  0.0000E+00  0.8973E-04  0.0000E+00
    -51.517  0.4985E+02  0.0000E+00  0.1194E+02  0.0000E+00
    -51.277  0.8631E+02  0.0000E+00  0.3262E+02  0.0000E+00
    -51.037  0.1410E+02  0.0000E+00  0.3600E+02  0.0000E+00
    -50.798  0.0000E+00  0.0000E+00  0.3600E+02  0.0000E+00
    -50.558  0.0000E+00  0.0000E+00  0.3600E+02  0.0000E+00
    -50.319  0.1347E-03  0.0000E+00  0.3600E+02  0.0000E+00
    -50.079  0.6741E+02  0.0000E+00  0.5215E+02  0.0000E+00
    -49.839  0.2080E+03  0.0000E+00  0.1020E+03  0.0000E+00
    -49.600  0.2509E+02  0.0000E+00  0.1080E+03  0.0000E+00
    -49.360  0.0000E+00  0.0000E+00  0.1080E+03  0.0000E+00
    -49.121  0.0000E+00  0.0000E+00  0.1080E+03  0.0000E+00
    -48.881  0.0000E+00  0.0000E+00  0.1080E+03  0.0000E+00
    -48.642  0.0000E+00  0.0000E+00  0.1080E+03  0.0000E+00
    -48.402  0.0000E+00  0.0000E+00  0.1080E+03  0.0000E+00
    -48.162  0.0000E+00  0.0000E+00  0.1080E+03  0.0000E+00
    -47.923  0.0000E+00  0.0000E+00  0.1080E+03  0.0000E+00
    -47.683  0.0000E+00  0.0000E+00  0.1080E+03  0.0000E+00
    -47.444  0.0000E+00  0.0000E+00  0.1080E+03  0.0000E+00
    -47.204  0.0000E+00  0.0000E+00  0.1080E+03  0.0000E+00
    -46.964  0.0000E+00  0.6629E-01  0.1080E+03  0.1588E-01
    -46.725  0.0000E+00  0.5091E+02  0.1080E+03  0.1221E+02
    -46.485  0.0000E+00  0.9541E+02  0.1080E+03  0.3507E+02
    -46.246  0.0000E+00  0.1456E+03  0.1080E+03  0.6996E+02
    -46.006  0.0000E+00  0.1588E+03  0.1080E+03  0.1080E+03
    -45.767  0.0000E+00  0.4857E-02  0.1080E+03  0.1080E+03
    -45.527  0.0000E+00  0.0000E+00  0.1080E+03  0.1080E+03
    -45.287  0.0000E+00  0.0000E+00  0.1080E+03  0.1080E+03
    -45.048  0.0000E+00  0.0000E+00  0.1080E+03  0.1080E+03
    -44.808  0.0000E+00  0.0000E+00  0.1080E+03  0.1080E+03
    -44.569  0.0000E+00  0.0000E+00  0.1080E+03  0.1080E+03
    -44.329  0.0000E+00  0.0000E+00  0.1080E+03  0.1080E+03
    -44.089  0.0000E+00  0.0000E+00  0.1080E+03  0.1080E+03
    -43.850  0.0000E+00  0.0000E+00  0.1080E+03  0.1080E+03
    -43.610  0.0000E+00  0.0000E+00  0.1080E+03  0.1080E+03
    -43.371  0.0000E+00  0.0000E+00  0.1080E+03  0.1080E+03
    -43.131  0.0000E+00  0.0000E+00  0.1080E+03  0.1080E+03
    -42.892  0.0000E+00  0.0000E+00  0.1080E+03  0.1080E+03
    -42.652  0.0000E+00  0.0000E+00  0.1080E+03  0.1080E+03
    -42.412  0.0000E+00  0.0000E+00  0.1080E+03  0.1080E+03
    -42.173  0.0000E+00  0.0000E+00  0.1080E+03  0.1080E+03
    -41.933  0.0000E+00  0.0000E+00  0.1080E+03  0.1080E+03
    -41.694  0.0000E+00  0.0000E+00  0.1080E+03  0.1080E+03
    -41.454  0.0000E+00  0.0000E+00  0.1080E+03  0.1080E+03
    -41.214  0.0000E+00  0.0000E+00  0.1080E+03  0.1080E+03
    -40.975  0.0000E+00  0.0000E+00  0.1080E+03  0.1080E+03
    -40.735  0.2639E-08  0.8962E-09  0.1080E+03  0.1080E+03
    -40.496  0.2940E+02  0.2615E+02  0.1150E+03  0.1143E+03
    -40.256  0.4437E+02  0.4786E+02  0.1257E+03  0.1257E+03
    -40.017  0.1013E+03  0.1014E+03  0.1499E+03  0.1500E+03
    -39.777  0.2526E+02  0.2498E+02  0.1560E+03  0.1560E+03
    -39.537  0.0000E+00  0.0000E+00  0.1560E+03  0.1560E+03
    -39.298  0.0000E+00  0.0000E+00  0.1560E+03  0.1560E+03
    -39.058  0.0000E+00  0.0000E+00  0.1560E+03  0.1560E+03
    -38.819  0.0000E+00  0.0000E+00  0.1560E+03  0.1560E+03
    -38.579  0.0000E+00  0.0000E+00  0.1560E+03  0.1560E+03
    -38.339  0.0000E+00  0.0000E+00  0.1560E+03  0.1560E+03
    -38.100  0.0000E+00  0.0000E+00  0.1560E+03  0.1560E+03
    -37.860  0.0000E+00  0.0000E+00  0.1560E+03  0.1560E+03
    -37.621  0.0000E+00  0.0000E+00  0.1560E+03  0.1560E+03
    -37.381  0.0000E+00  0.0000E+00  0.1560E+03  0.1560E+03
    -37.142  0.0000E+00  0.0000E+00  0.1560E+03  0.1560E+03
    -36.902  0.0000E+00  0.0000E+00  0.1560E+03  0.1560E+03
    -36.662  0.0000E+00  0.0000E+00  0.1560E+03  0.1560E+03
    -36.423  0.0000E+00  0.0000E+00  0.1560E+03  0.1560E+03
    -36.183  0.0000E+00  0.0000E+00  0.1560E+03  0.1560E+03
    -35.944  0.0000E+00  0.0000E+00  0.1560E+03  0.1560E+03
    -35.704  0.0000E+00  0.0000E+00  0.1560E+03  0.1560E+03
    -35.464  0.0000E+00  0.0000E+00  0.1560E+03  0.1560E+03
    -35.225  0.0000E+00  0.0000E+00  0.1560E+03  0.1560E+03
    -34.985  0.0000E+00  0.0000E+00  0.1560E+03  0.1560E+03
    -34.746  0.0000E+00  0.0000E+00  0.1560E+03  0.1560E+03
    -34.506  0.0000E+00  0.0000E+00  0.1560E+03  0.1560E+03
    -34.267  0.0000E+00  0.0000E+00  0.1560E+03  0.1560E+03
    -34.027  0.0000E+00  0.0000E+00  0.1560E+03  0.1560E+03
    -33.787  0.0000E+00  0.0000E+00  0.1560E+03  0.1560E+03
    -33.548  0.0000E+00  0.0000E+00  0.1560E+03  0.1560E+03
    -33.308  0.0000E+00  0.0000E+00  0.1560E+03  0.1560E+03
    -33.069  0.0000E+00  0.0000E+00  0.1560E+03  0.1560E+03
    -32.829  0.0000E+00  0.0000E+00  0.1560E+03  0.1560E+03
    -32.589  0.0000E+00  0.0000E+00  0.1560E+03  0.1560E+03
    -32.350  0.0000E+00  0.0000E+00  0.1560E+03  0.1560E+03
    -32.110  0.0000E+00  0.0000E+00  0.1560E+03  0.1560E+03
    -31.871  0.0000E+00  0.0000E+00  0.1560E+03  0.1560E+03
    -31.631  0.0000E+00  0.0000E+00  0.1560E+03  0.1560E+03
    -31.392  0.0000E+00  0.0000E+00  0.1560E+03  0.1560E+03
    -31.152  0.0000E+00  0.0000E+00  0.1560E+03  0.1560E+03
    -30.912  0.0000E+00  0.0000E+00  0.1560E+03  0.1560E+03
    -30.673  0.0000E+00  0.0000E+00  0.1560E+03  0.1560E+03
    -30.433  0.0000E+00  0.0000E+00  0.1560E+03  0.1560E+03
    -30.194  0.0000E+00  0.0000E+00  0.1560E+03  0.1560E+03
    -29.954  0.0000E+00  0.0000E+00  0.1560E+03  0.1560E+03
    -29.714  0.0000E+00  0.0000E+00  0.1560E+03  0.1560E+03
    -29.475  0.0000E+00  0.0000E+00  0.1560E+03  0.1560E+03
    -29.235  0.0000E+00  0.0000E+00  0.1560E+03  0.1560E+03
    -28.996  0.0000E+00  0.0000E+00  0.1560E+03  0.1560E+03
    -28.756  0.0000E+00  0.0000E+00  0.1560E+03  0.1560E+03
    -28.517  0.0000E+00  0.0000E+00  0.1560E+03  0.1560E+03
    -28.277  0.0000E+00  0.0000E+00  0.1560E+03  0.1560E+03
    -28.037  0.0000E+00  0.0000E+00  0.1560E+03  0.1560E+03
    -27.798  0.0000E+00  0.0000E+00  0.1560E+03  0.1560E+03
    -27.558  0.0000E+00  0.0000E+00  0.1560E+03  0.1560E+03
    -27.319  0.0000E+00  0.0000E+00  0.1560E+03  0.1560E+03
    -27.079  0.0000E+00  0.0000E+00  0.1560E+03  0.1560E+03
    -26.839  0.0000E+00  0.0000E+00  0.1560E+03  0.1560E+03
    -26.600  0.0000E+00  0.0000E+00  0.1560E+03  0.1560E+03
    -26.360  0.0000E+00  0.0000E+00  0.1560E+03  0.1560E+03
    -26.121  0.0000E+00  0.0000E+00  0.1560E+03  0.1560E+03
    -25.881  0.0000E+00  0.0000E+00  0.1560E+03  0.1560E+03
    -25.642  0.0000E+00  0.0000E+00  0.1560E+03  0.1560E+03
    -25.402  0.0000E+00  0.0000E+00  0.1560E+03  0.1560E+03
    -25.162  0.0000E+00  0.0000E+00  0.1560E+03  0.1560E+03
    -24.923  0.0000E+00  0.0000E+00  0.1560E+03  0.1560E+03
    -24.683  0.0000E+00  0.0000E+00  0.1560E+03  0.1560E+03
    -24.444  0.0000E+00  0.0000E+00  0.1560E+03  0.1560E+03
    -24.204  0.0000E+00  0.0000E+00  0.1560E+03  0.1560E+03
    -23.964  0.0000E+00  0.0000E+00  0.1560E+03  0.1560E+03
    -23.725  0.0000E+00  0.0000E+00  0.1560E+03  0.1560E+03
    -23.485  0.0000E+00  0.0000E+00  0.1560E+03  0.1560E+03
    -23.246  0.0000E+00  0.0000E+00  0.1560E+03  0.1560E+03
    -23.006  0.0000E+00  0.0000E+00  0.1560E+03  0.1560E+03
    -22.767  0.0000E+00  0.0000E+00  0.1560E+03  0.1560E+03
    -22.527  0.0000E+00  0.0000E+00  0.1560E+03  0.1560E+03
    -22.287  0.0000E+00  0.0000E+00  0.1560E+03  0.1560E+03
    -22.048  0.0000E+00  0.0000E+00  0.1560E+03  0.1560E+03
    -21.808  0.0000E+00  0.0000E+00  0.1560E+03  0.1560E+03
    -21.569  0.0000E+00  0.0000E+00  0.1560E+03  0.1560E+03
    -21.329  0.0000E+00  0.0000E+00  0.1560E+03  0.1560E+03
    -21.089  0.0000E+00  0.0000E+00  0.1560E+03  0.1560E+03
    -20.850  0.0000E+00  0.0000E+00  0.1560E+03  0.1560E+03
    -20.610  0.0000E+00  0.0000E+00  0.1560E+03  0.1560E+03
    -20.371  0.0000E+00  0.0000E+00  0.1560E+03  0.1560E+03
    -20.131  0.0000E+00  0.0000E+00  0.1560E+03  0.1560E+03
    -19.892  0.0000E+00  0.0000E+00  0.1560E+03  0.1560E+03
    -19.652  0.0000E+00  0.0000E+00  0.1560E+03  0.1560E+03
    -19.412  0.0000E+00  0.0000E+00  0.1560E+03  0.1560E+03
    -19.173  0.0000E+00  0.0000E+00  0.1560E+03  0.1560E+03
    -18.933  0.0000E+00  0.0000E+00  0.1560E+03  0.1560E+03
    -18.694  0.0000E+00  0.0000E+00  0.1560E+03  0.1560E+03
    -18.454  0.0000E+00  0.0000E+00  0.1560E+03  0.1560E+03
    -18.214  0.0000E+00  0.0000E+00  0.1560E+03  0.1560E+03
    -17.975  0.0000E+00  0.0000E+00  0.1560E+03  0.1560E+03
    -17.735  0.0000E+00  0.0000E+00  0.1560E+03  0.1560E+03
    -17.496  0.0000E+00  0.0000E+00  0.1560E+03  0.1560E+03
    -17.256  0.0000E+00  0.0000E+00  0.1560E+03  0.1560E+03
    -17.017  0.0000E+00  0.0000E+00  0.1560E+03  0.1560E+03
    -16.777  0.0000E+00  0.0000E+00  0.1560E+03  0.1560E+03
    -16.537  0.0000E+00  0.0000E+00  0.1560E+03  0.1560E+03
    -16.298  0.0000E+00  0.0000E+00  0.1560E+03  0.1560E+03
    -16.058  0.0000E+00  0.0000E+00  0.1560E+03  0.1560E+03
    -15.819  0.0000E+00  0.0000E+00  0.1560E+03  0.1560E+03
    -15.579  0.0000E+00  0.0000E+00  0.1560E+03  0.1560E+03
    -15.339  0.0000E+00  0.0000E+00  0.1560E+03  0.1560E+03
    -15.100  0.0000E+00  0.0000E+00  0.1560E+03  0.1560E+03
    -14.860  0.0000E+00  0.0000E+00  0.1560E+03  0.1560E+03
    -14.621  0.0000E+00  0.0000E+00  0.1560E+03  0.1560E+03
    -14.381  0.0000E+00  0.0000E+00  0.1560E+03  0.1560E+03
    -14.142  0.0000E+00  0.0000E+00  0.1560E+03  0.1560E+03
    -13.902  0.9208E-03  0.0000E+00  0.1560E+03  0.1560E+03
    -13.662  0.2180E+02  0.3065E-13  0.1612E+03  0.1560E+03
    -13.423  0.2806E+02  0.1568E+01  0.1679E+03  0.1564E+03
    -13.183  0.8467E+01  0.4430E+02  0.1700E+03  0.1670E+03
    -12.944  0.3154E+02  0.4823E+01  0.1775E+03  0.1681E+03
    -12.704  0.1031E+02  0.4164E+02  0.1800E+03  0.1781E+03
    -12.464  0.0000E+00  0.7843E+01  0.1800E+03  0.1800E+03
    -12.225  0.0000E+00  0.0000E+00  0.1800E+03  0.1800E+03
    -11.985  0.0000E+00  0.0000E+00  0.1800E+03  0.1800E+03
    -11.746  0.0000E+00  0.0000E+00  0.1800E+03  0.1800E+03
    -11.506  0.0000E+00  0.0000E+00  0.1800E+03  0.1800E+03
    -11.267  0.0000E+00  0.0000E+00  0.1800E+03  0.1800E+03
    -11.027  0.0000E+00  0.0000E+00  0.1800E+03  0.1800E+03
    -10.787  0.0000E+00  0.0000E+00  0.1800E+03  0.1800E+03
    -10.548  0.0000E+00  0.0000E+00  0.1800E+03  0.1800E+03
    -10.308  0.0000E+00  0.0000E+00  0.1800E+03  0.1800E+03
    -10.069  0.0000E+00  0.0000E+00  0.1800E+03  0.1800E+03
     -9.829  0.0000E+00  0.0000E+00  0.1800E+03  0.1800E+03
     -9.589  0.0000E+00  0.0000E+00  0.1800E+03  0.1800E+03
     -9.350  0.0000E+00  0.0000E+00  0.1800E+03  0.1800E+03
     -9.110  0.0000E+00  0.0000E+00  0.1800E+03  0.1800E+03
     -8.871  0.0000E+00  0.0000E+00  0.1800E+03  0.1800E+03
     -8.631  0.0000E+00  0.0000E+00  0.1800E+03  0.1800E+03
     -8.392  0.0000E+00  0.0000E+00  0.1800E+03  0.1800E+03
     -8.152  0.0000E+00  0.0000E+00  0.1800E+03  0.1800E+03
     -7.912  0.1839E-02  0.0000E+00  0.1800E+03  0.1800E+03
     -7.673  0.9229E+01  0.1425E-01  0.1822E+03  0.1800E+03
     -7.433  0.2287E+02  0.1179E+02  0.1877E+03  0.1828E+03
     -7.194  0.5524E+02  0.2814E+02  0.2009E+03  0.1896E+03
     -6.954  0.5862E+02  0.5964E+02  0.2150E+03  0.2039E+03
     -6.714  0.4301E+01  0.4711E+02  0.2160E+03  0.2151E+03
     -6.475  0.0000E+00  0.3571E+01  0.2160E+03  0.2160E+03
     -6.235  0.0000E+00  0.0000E+00  0.2160E+03  0.2160E+03
     -5.996  0.0000E+00  0.0000E+00  0.2160E+03  0.2160E+03
     -5.756  0.0000E+00  0.0000E+00  0.2160E+03  0.2160E+03
     -5.517  0.0000E+00  0.0000E+00  0.2160E+03  0.2160E+03
     -5.277  0.0000E+00  0.0000E+00  0.2160E+03  0.2160E+03
     -5.037  0.0000E+00  0.0000E+00  0.2160E+03  0.2160E+03
     -4.798  0.0000E+00  0.0000E+00  0.2160E+03  0.2160E+03
     -4.558  0.0000E+00  0.0000E+00  0.2160E+03  0.2160E+03
     -4.319  0.0000E+00  0.0000E+00  0.2160E+03  0.2160E+03
     -4.079  0.0000E+00  0.0000E+00  0.2160E+03  0.2160E+03
     -3.839  0.0000E+00  0.0000E+00  0.2160E+03  0.2160E+03
     -3.600  0.0000E+00  0.0000E+00  0.2160E+03  0.2160E+03
     -3.360  0.0000E+00  0.0000E+00  0.2160E+03  0.2160E+03
     -3.121  0.0000E+00  0.0000E+00  0.2160E+03  0.2160E+03
     -2.881  0.7929E-14  0.0000E+00  0.2160E+03  0.2160E+03
     -2.642  0.7099E+00  0.0000E+00  0.2162E+03  0.2160E+03
     -2.402  0.1042E+02  0.0000E+00  0.2187E+03  0.2160E+03
     -2.162  0.2018E+02  0.0000E+00  0.2235E+03  0.2160E+03
     -1.923  0.2140E+01  0.0000E+00  0.2240E+03  0.2160E+03
     -1.683  0.3425E+02  0.0000E+00  0.2322E+03  0.2160E+03
     -1.444  0.1921E+02  0.2060E-15  0.2368E+03  0.2160E+03
     -1.204  0.4434E+02  0.7195E-01  0.2474E+03  0.2160E+03
     -0.964  0.4925E+02  0.4384E+01  0.2592E+03  0.2171E+03
     -0.725  0.7476E+02  0.1393E+02  0.2772E+03  0.2204E+03
     -0.485  0.1029E+03  0.1521E+02  0.3018E+03  0.2241E+03
     -0.246  0.8543E+02  0.1929E+02  0.3223E+03  0.2287E+03
     -0.006  0.1105E+03  0.4135E+02  0.3488E+03  0.2386E+03
      0.233  0.7050E+02  0.3395E+02  0.3656E+03  0.2467E+03
      0.473  0.3856E+02  0.4188E+02  0.3749E+03  0.2567E+03
      0.713  0.4566E+02  0.3393E+02  0.3858E+03  0.2649E+03
      0.952  0.4870E+02  0.5247E+02  0.3975E+03  0.2774E+03
      1.192  0.5531E+02  0.6077E+02  0.4107E+03  0.2920E+03
      1.431  0.6391E+02  0.4441E+02  0.4261E+03  0.3026E+03
      1.671  0.1007E+03  0.4030E+02  0.4502E+03  0.3123E+03
      1.911  0.5340E+02  0.3834E+02  0.4630E+03  0.3215E+03
      2.150  0.3846E+02  0.3749E+02  0.4722E+03  0.3305E+03
      2.390  0.4656E+02  0.3820E+02  0.4834E+03  0.3396E+03
      2.629  0.4777E+02  0.4896E+02  0.4948E+03  0.3513E+03
      2.869  0.4368E+02  0.6307E+02  0.5053E+03  0.3665E+03
      3.108  0.4016E+02  0.5871E+02  0.5149E+03  0.3805E+03
      3.348  0.4704E+02  0.4849E+02  0.5262E+03  0.3921E+03
      3.588  0.5272E+02  0.2958E+02  0.5388E+03  0.3992E+03
      3.827  0.4565E+02  0.6070E+02  0.5497E+03  0.4138E+03
      4.067  0.3190E+02  0.7459E+02  0.5574E+03  0.4316E+03
      4.306  0.4255E+02  0.1490E+01  0.5676E+03  0.4320E+03
      4.546  0.2382E+02  0.0000E+00  0.5733E+03  0.4320E+03
      4.786  0.1041E+02  0.0000E+00  0.5758E+03  0.4320E+03
      5.025  0.9979E+00  0.0000E+00  0.5760E+03  0.4320E+03
      5.265  0.0000E+00  0.0000E+00  0.5760E+03  0.4320E+03
      5.504  0.0000E+00  0.0000E+00  0.5760E+03  0.4320E+03
      5.744  0.0000E+00  0.0000E+00  0.5760E+03  0.4320E+03
      5.983  0.0000E+00  0.2431E-11  0.5760E+03  0.4320E+03
      6.223  0.0000E+00  0.1315E+00  0.5760E+03  0.4320E+03
      6.463  0.0000E+00  0.7956E+01  0.5760E+03  0.4339E+03
      6.702  0.0000E+00  0.2998E+02  0.5760E+03  0.4411E+03
      6.942  0.3354E-12  0.4300E+02  0.5760E+03  0.4514E+03
      7.181  0.9698E-01  0.7270E+02  0.5760E+03  0.4688E+03
      7.421  0.1397E+00  0.8103E+02  0.5761E+03  0.4883E+03
      7.661  0.8564E+00  0.6533E+02  0.5763E+03  0.5039E+03
      7.900  0.3458E+01  0.8790E+02  0.5771E+03  0.5250E+03
      8.140  0.4275E+01  0.7163E+02  0.5781E+03  0.5421E+03
      8.379  0.6937E+01  0.5470E+02  0.5798E+03  0.5552E+03
      8.619  0.1619E+02  0.3711E+02  0.5837E+03  0.5641E+03
      8.858  0.2538E+02  0.3953E+02  0.5897E+03  0.5736E+03
      9.098  0.1927E+02  0.1960E+02  0.5944E+03  0.5783E+03
      9.338  0.2512E+02  0.1367E+02  0.6004E+03  0.5816E+03
      9.577  0.3111E+02  0.2059E+02  0.6078E+03  0.5865E+03
      9.817  0.2672E+02  0.2988E+02  0.6142E+03  0.5937E+03
     10.056  0.2977E+02  0.2655E+02  0.6214E+03  0.6000E+03
     10.296  0.2276E+02  0.3439E+02  0.6268E+03  0.6083E+03
     10.536  0.2045E+02  0.3582E+02  0.6317E+03  0.6168E+03
     10.775  0.2827E+02  0.2782E+02  0.6385E+03  0.6235E+03
     11.015  0.3900E+02  0.2269E+02  0.6478E+03  0.6289E+03
     11.254  0.3929E+02  0.2139E+02  0.6572E+03  0.6341E+03
     11.494  0.3743E+02  0.3221E+02  0.6662E+03  0.6418E+03
     11.733  0.4459E+02  0.3881E+02  0.6769E+03  0.6511E+03
     11.973  0.3870E+02  0.4241E+02  0.6862E+03  0.6612E+03
     12.213  0.3844E+02  0.5181E+02  0.6954E+03  0.6737E+03
     12.452  0.3984E+02  0.4702E+02  0.7049E+03  0.6849E+03
     12.692  0.3670E+02  0.3601E+02  0.7137E+03  0.6936E+03
     12.931  0.3462E+02  0.4121E+02  0.7220E+03  0.7034E+03
     13.171  0.2331E+02  0.4000E+02  0.7276E+03  0.7130E+03
     13.411  0.1716E+01  0.3415E+02  0.7280E+03  0.7212E+03
     13.650  0.0000E+00  0.2466E+02  0.7280E+03  0.7271E+03
     13.890  0.0000E+00  0.3770E+01  0.7280E+03  0.7280E+03
     14.129  0.0000E+00  0.3747E-05  0.7280E+03  0.7280E+03
     14.369  0.0000E+00  0.0000E+00  0.7280E+03  0.7280E+03
     14.608  0.0000E+00  0.0000E+00  0.7280E+03  0.7280E+03
     14.848  0.0000E+00  0.0000E+00  0.7280E+03  0.7280E+03
     15.088  0.0000E+00  0.0000E+00  0.7280E+03  0.7280E+03
     15.327  0.0000E+00  0.0000E+00  0.7280E+03  0.7280E+03
     15.567  0.0000E+00  0.0000E+00  0.7280E+03  0.7280E+03
     15.806  0.0000E+00  0.0000E+00  0.7280E+03  0.7280E+03
     16.046  0.0000E+00  0.0000E+00  0.7280E+03  0.7280E+03
     16.286  0.0000E+00  0.0000E+00  0.7280E+03  0.7280E+03
     16.525  0.0000E+00  0.0000E+00  0.7280E+03  0.7280E+03
     16.765  0.0000E+00  0.0000E+00  0.7280E+03  0.7280E+03
     17.004  0.0000E+00  0.0000E+00  0.7280E+03  0.7280E+03
