 vasp.6.2.0 18Jan21 (build May  3 2021 10:16:23) complex                         
 POSCAR found type information on POSCAR FeLiO S 
 05/POSCAR found :  4 types and     111 ions
 scaLAPACK will be used
 -----------------------------------------------------------------------------
|                                                                             |
|               ----> ADVICE to this user running VASP <----                  |
|                                                                             |
|     You have a (more or less) 'large supercell' and for larger cells it     |
|     might be more efficient to use real-space projection operators.         |
|     Therefore, try LREAL= Auto in the INCAR file.                           |
|     Mind: For very accurate calculation, you might also keep the            |
|     reciprocal projection scheme (i.e. LREAL=.FALSE.).                      |
|                                                                             |
 -----------------------------------------------------------------------------

 LDA part: xc-table for Pade appr. of Perdew
 POSCAR found type information on POSCAR FeLiO S 
 00/POSCAR found :  4 types and     111 ions
 POSCAR found type information on POSCAR FeLiO S 
 06/POSCAR found :  4 types and     111 ions
 Jacobian:    25.208527207285030     
 POSCAR, INCAR and KPOINTS ok, starting setup
 FFT: planning ...
 WAVECAR not read
 entering main loop
       N       E                     dE             d eps       ncg     rms          ort
DAV:   1     0.107728244237E+05    0.10773E+05   -0.41734E+05  4800   0.175E+03
DAV:   2     0.110780192843E+04   -0.96650E+04   -0.88862E+04  4800   0.471E+02
DAV:   3    -0.469464252195E+03   -0.15773E+04   -0.14736E+04  4800   0.196E+02
DAV:   4    -0.646893423253E+03   -0.17743E+03   -0.17394E+03  4800   0.510E+01
DAV:   5    -0.667065767820E+03   -0.20172E+02   -0.19791E+02  4800   0.141E+01
 gam= 0.000 g(H,U,f)=  0.225E+04 0.991E+03 0.364E+03 ort(H,U,f) = 0.000E+00 0.000E+00 0.000E+00
SDA:   6    -0.340370404585E+02    0.63303E+03   -0.19791E+02  4800   0.360E+04 0.000E+00
 gam= 0.000 trial= 0.400  step= 0.236 mean= 0.400
 gam= 0.144 g(H,U,f)=  0.288E+03 0.204E+03 0.261E+02 ort(H,U,f) =-0.205E+03 0.167E+03 0.629E+02
CGA:   7    -0.465122208537E+03   -0.43109E+03   -0.42564E+03  4800   0.518E+03 0.251E+02
 gam= 0.144 trial= 0.392  step= 0.192 mean= 0.392
 gam= 0.680 g(H,U,f)=  0.955E+02 0.240E+03 0.166E+02 ort(H,U,f) = 0.535E+02-0.811E+02-0.938E+01
CGA:   8    -0.508263643566E+03   -0.43141E+02   -0.50095E+02  4800   0.352E+03-0.370E+02
 gam= 0.680 trial= 0.382  step= 0.093 mean= 0.382
 gam= 0.224 g(H,U,f)=  0.358E+02 0.395E+02 0.356E+01 ort(H,U,f) = 0.283E+02 0.572E+02 0.241E+01
CGA:   9    -0.529360251775E+03   -0.21097E+02   -0.15171E+02  4800   0.789E+02 0.879E+02
 gam= 0.224 trial= 0.367  step= 0.117 mean= 0.367
 gam= 1.309 g(H,U,f)=  0.257E+02 0.681E+02 0.949E+01 ort(H,U,f) = 0.179E+02-0.218E+02-0.378E+01
CGA:  10    -0.534793368212E+03   -0.54331E+01   -0.57418E+01  4800   0.103E+03-0.771E+01
 gam= 1.309 trial= 0.355  step= 0.133 mean= 0.355
 gam= 1.305 g(H,U,f)=  0.280E+02 0.987E+02 0.811E+01 ort(H,U,f) =-0.380E+01-0.495E+00-0.416E+01
CGA:  11    -0.540776203348E+03   -0.59828E+01   -0.62065E+01  4800   0.135E+03-0.845E+01
 gam= 1.305 trial= 0.344  step= 0.108 mean= 0.344
 gam= 0.624 g(H,U,f)=  0.350E+02 0.447E+02 0.444E+01 ort(H,U,f) =-0.463E+02 0.248E+02-0.957E+01
CGA:  12    -0.544386013227E+03   -0.36098E+01   -0.66980E+01  4800   0.841E+02-0.311E+02
 gam= 0.624 trial= 0.332  step= 0.104 mean= 0.332
 gam= 0.585 g(H,U,f)=  0.312E+02 0.170E+02 0.106E+01 ort(H,U,f) =-0.124E+02 0.540E+01-0.136E+01
CGA:  13    -0.546939451197E+03   -0.25534E+01   -0.33617E+01  4800   0.492E+02-0.837E+01
 gam= 0.585 trial= 0.321  step= 0.116 mean= 0.321
 gam= 0.942 g(H,U,f)=  0.177E+02 0.253E+02 0.333E+01 ort(H,U,f) = 0.111E+02-0.461E+01-0.850E+00
CGA:  14    -0.549996669246E+03   -0.30572E+01   -0.25613E+01  4800   0.464E+02 0.568E+01
 gam= 0.942 trial= 0.310  step= 0.086 mean= 0.310
 gam= 1.137 g(H,U,f)=  0.983E+01 0.389E+02 0.396E+01 ort(H,U,f) = 0.869E+01-0.235E+02-0.169E+01
CGA:  15    -0.552050357929E+03   -0.20537E+01   -0.22122E+01  4800   0.527E+02-0.165E+02
 gam= 1.137 trial= 0.299  step= 0.052 mean= 0.299
 gam= 1.030 g(H,U,f)=  0.957E+01 0.413E+02 0.342E+01 ort(H,U,f) = 0.165E+01-0.126E+02 0.268E+00
CGA:  16    -0.552657771976E+03   -0.60741E+00   -0.88951E+00  4800   0.543E+02-0.107E+02
 gam= 1.030 trial= 0.287  step= 0.042 mean= 0.287
 gam= 0.616 g(H,U,f)=  0.985E+01 0.215E+02 0.214E+01 ort(H,U,f) =-0.513E+01-0.186E+02-0.667E+00
CGA:  17    -0.553107656116E+03   -0.44988E+00   -0.90614E+00  4800   0.334E+02-0.244E+02
 gam= 0.616 trial= 0.275  step= 0.039 mean= 0.275
 gam= 0.977 g(H,U,f)=  0.937E+01 0.215E+02 0.181E+01 ort(H,U,f) = 0.121E+01-0.111E+02 0.494E+00
CGA:  18    -0.553281852743E+03   -0.17420E+00   -0.35718E+00  4800   0.327E+02-0.938E+01
 gam= 0.977 trial= 0.263  step= 0.050 mean= 0.263
 gam= 1.005 g(H,U,f)=  0.818E+01 0.232E+02 0.146E+01 ort(H,U,f) = 0.249E+01-0.129E+02 0.276E+00
CGA:  19    -0.553582179758E+03   -0.30033E+00   -0.59070E+00  4800   0.329E+02-0.102E+02
 gam= 1.005 trial= 0.252  step= 0.053 mean= 0.252
 gam= 0.874 g(H,U,f)=  0.686E+01 0.207E+02 0.120E+01 ort(H,U,f) = 0.556E+00-0.678E+01 0.301E+00
CGA:  20    -0.553979107621E+03   -0.39693E+00   -0.59908E+00  4800   0.287E+02-0.593E+01
 gam= 0.874 trial= 0.242  step= 0.058 mean= 0.242
 gam= 0.733 g(H,U,f)=  0.556E+01 0.145E+02 0.945E+00 ort(H,U,f) =-0.303E+01-0.167E+00 0.430E+00
CGA:  21    -0.554559850732E+03   -0.58074E+00   -0.68076E+00  4800   0.211E+02-0.277E+01
 gam= 0.733 trial= 0.233  step= 0.064 mean= 0.233
 gam= 0.699 g(H,U,f)=  0.520E+01 0.871E+01 0.801E+00 ort(H,U,f) =-0.384E+01 0.204E+01 0.642E+00
CGA:  22    -0.555117378265E+03   -0.55753E+00   -0.60740E+00  4800   0.147E+02-0.116E+01
 gam= 0.699 trial= 0.224  step= 0.071 mean= 0.224
 gam= 0.797 g(H,U,f)=  0.549E+01 0.550E+01 0.734E+00 ort(H,U,f) =-0.142E+01-0.341E+00 0.712E+00
CGA:  23    -0.555557347428E+03   -0.43997E+00   -0.49484E+00  4800   0.117E+02-0.105E+01
 gam= 0.797 trial= 0.217  step= 0.106 mean= 0.217
 gam= 1.277 g(H,U,f)=  0.548E+01 0.845E+01 0.104E+01 ort(H,U,f) = 0.863E+00-0.208E+01 0.938E+00
CGA:  24    -0.556095115967E+03   -0.53777E+00   -0.57616E+00  4800   0.150E+02-0.283E+00
 gam= 1.277 trial= 0.211  step= 0.129 mean= 0.211
 gam= 0.995 g(H,U,f)=  0.447E+01 0.958E+01 0.847E+00 ort(H,U,f) =-0.104E+01 0.204E+00 0.853E+00
CGA:  25    -0.556983791164E+03   -0.88868E+00   -0.94200E+00  4800   0.149E+02 0.140E-01
 gam= 0.995 trial= 0.207  step= 0.108 mean= 0.207
 gam= 0.471 g(H,U,f)=  0.330E+01 0.351E+01 0.209E+00 ort(H,U,f) =-0.399E+01 0.340E+01 0.382E+00
CGA:  26    -0.557726470204E+03   -0.74268E+00   -0.80414E+00  4800   0.702E+01-0.210E+00
 gam= 0.471 trial= 0.202  step= 0.127 mean= 0.202
 gam= 0.819 g(H,U,f)=  0.283E+01 0.282E+01 0.105E+00 ort(H,U,f) =-0.949E+00 0.806E+00 0.121E+00
CGA:  27    -0.558160189622E+03   -0.43372E+00   -0.43972E+00  4800   0.575E+01-0.219E-01
 gam= 0.819 trial= 0.198  step= 0.239 mean= 0.198
 gam= 1.743 g(H,U,f)=  0.309E+01 0.684E+01 0.836E-01 ort(H,U,f) =-0.669E+00 0.689E+00-0.420E-01
CGA:  28    -0.558844419586E+03   -0.68423E+00   -0.68498E+00  4800   0.100E+02-0.215E-01
 gam= 1.743 trial= 0.200  step= 0.157 mean= 0.200
 gam= 0.901 g(H,U,f)=  0.296E+01 0.592E+01 0.144E+00 ort(H,U,f) =-0.266E+01 0.277E+01-0.394E+00
CGA:  29    -0.559644258180E+03   -0.79984E+00   -0.78454E+00  4800   0.902E+01-0.286E+00
 gam= 0.901 trial= 0.198  step= 0.125 mean= 0.198
 gam= 0.851 g(H,U,f)=  0.271E+01 0.486E+01 0.109E+00 ort(H,U,f) =-0.244E+01 0.254E+01-0.163E+00
CGA:  30    -0.560186385556E+03   -0.54213E+00   -0.54836E+00  4800   0.768E+01-0.671E-01
 gam= 0.851 trial= 0.195  step= 0.161 mean= 0.195
 gam= 1.371 g(H,U,f)=  0.323E+01 0.716E+01 0.142E+00 ort(H,U,f) =-0.207E+01 0.212E+01-0.642E-01
CGA:  31    -0.560799177588E+03   -0.61279E+00   -0.61332E+00  4800   0.105E+02-0.115E-01
 gam= 1.371 trial= 0.193  step= 0.178 mean= 0.193
 gam= 1.454 g(H,U,f)=  0.470E+01 0.104E+02 0.245E+00 ort(H,U,f) =-0.387E+01 0.363E+01 0.356E-01
CGA:  32    -0.561738101366E+03   -0.93892E+00   -0.93551E+00  4800   0.153E+02-0.210E+00
 gam= 1.454 trial= 0.192  step= 0.112 mean= 0.192
 gam= 0.802 g(H,U,f)=  0.506E+01 0.715E+01 0.774E-01 ort(H,U,f) =-0.549E+01 0.521E+01 0.681E-01
CGA:  33    -0.562575099207E+03   -0.83700E+00   -0.84218E+00  4800   0.123E+02-0.207E+00
 gam= 0.802 trial= 0.188  step= 0.117 mean= 0.188
 gam= 0.907 g(H,U,f)=  0.478E+01 0.629E+01 0.576E-01 ort(H,U,f) =-0.241E+01 0.228E+01 0.177E-01
CGA:  34    -0.563271681115E+03   -0.69658E+00   -0.71008E+00  4800   0.111E+02-0.112E+00
 gam= 0.907 trial= 0.185  step= 0.152 mean= 0.185
 gam= 1.176 g(H,U,f)=  0.464E+01 0.835E+01 0.997E-01 ort(H,U,f) =-0.698E+00 0.748E+00 0.616E-02
CGA:  35    -0.564104194422E+03   -0.83251E+00   -0.83829E+00  4800   0.131E+02 0.561E-01
 gam= 1.176 trial= 0.183  step= 0.134 mean= 0.183
 gam= 0.837 g(H,U,f)=  0.401E+01 0.693E+01 0.248E-01 ort(H,U,f) =-0.331E+00 0.259E+00-0.308E-01
CGA:  36    -0.564987930530E+03   -0.88374E+00   -0.88240E+00  4800   0.110E+02-0.103E+00
 gam= 0.837 trial= 0.181  step= 0.135 mean= 0.181
 gam= 0.000 g(H,U,f)=  0.352E+01 0.662E+01 0.705E-01 ort(H,U,f) = 0.122E+00-0.177E+00-0.651E-02
SDA:  37    -0.565720721641E+03   -0.73279E+00   -0.73389E+00  4800   0.102E+02-0.617E-01
 gam= 0.000 trial= 0.178  step= 0.489 mean= 0.178
 gam= 1.566 g(H,U,f)=  0.367E+01 0.118E+02 0.531E+00 ort(H,U,f) =-0.546E+00 0.106E+01 0.501E+00
CGA:  38    -0.568307283635E+03   -0.25866E+01   -0.24970E+01  4800   0.160E+02 0.101E+01
 gam= 1.566 trial= 0.194  step=-1.819 mean= 0.194
 BOPT < 0, no correction made
 gam= 0.000 g(H,U,f)=  0.220E+01 0.562E+01 0.828E+00 ort(H,U,f) =-0.334E+00 0.967E+01 0.244E+01
CGA:  39    -0.571893688830E+03   -0.35864E+01    0.15976E+02  4800   0.866E+01 0.118E+02
 gam= 0.000 trial= 0.194  step= 0.416 mean= 0.194
 gam= 1.926 g(H,U,f)=  0.352E+01 0.121E+02 0.102E+01 ort(H,U,f) =-0.173E+01 0.102E-01 0.253E+00
CGA:  40    -0.573582022404E+03   -0.16883E+01   -0.18023E+01  4800   0.167E+02-0.147E+01
 gam= 1.926 trial= 0.205  step= 0.379 mean= 0.205
 gam= 1.496 g(H,U,f)=  0.116E+02 0.113E+02 0.199E+01 ort(H,U,f) =-0.516E+01-0.574E-01-0.110E+00
CGA:  41    -0.575077611949E+03   -0.14956E+01   -0.26265E+01  4800   0.249E+02-0.533E+01
 gam= 1.496 trial= 0.214  step= 0.120 mean= 0.214
 gam= 0.691 g(H,U,f)=  0.924E+01 0.704E+01 0.955E+00 ort(H,U,f) = 0.515E+00 0.748E-01 0.229E+00
CGA:  42    -0.575982806988E+03   -0.90520E+00   -0.10172E+01  4800   0.172E+02 0.819E+00
 gam= 0.691 trial= 0.209  step= 0.077 mean= 0.209
 gam= 0.653 g(H,U,f)=  0.516E+01 0.475E+01 0.135E+01 ort(H,U,f) = 0.509E+01-0.162E-01-0.223E+01
CGA:  43    -0.576899099288E+03   -0.91629E+00   -0.68242E+00  4800   0.113E+02 0.284E+01
 gam= 0.653 trial= 0.202  step= 0.089 mean= 0.202
 gam= 1.211 g(H,U,f)=  0.241E+01 0.706E+01 0.417E+01 ort(H,U,f) = 0.279E+01-0.160E+01-0.197E+01
CGA:  44    -0.577465191700E+03   -0.56609E+00   -0.58228E+00  4800   0.136E+02-0.778E+00
 gam= 1.211 trial= 0.197  step= 0.059 mean= 0.197
 gam= 0.588 g(H,U,f)=  0.148E+01 0.498E+01 0.155E+01 ort(H,U,f) =-0.113E+01 0.566E-01 0.474E+00
CGA:  45    -0.577813119237E+03   -0.34793E+00   -0.37482E+00  4800   0.801E+01-0.595E+00
 gam= 0.588 trial= 0.190  step= 0.060 mean= 0.190
 gam= 0.452 g(H,U,f)=  0.145E+01 0.183E+01 0.334E+00 ort(H,U,f) =-0.179E+01 0.255E+00 0.701E-01
CGA:  46    -0.577987087255E+03   -0.17397E+00   -0.22889E+00  4800   0.362E+01-0.147E+01
 gam= 0.452 trial= 0.183  step= 0.070 mean= 0.183
 gam= 0.867 g(H,U,f)=  0.131E+01 0.157E+01 0.253E+00 ort(H,U,f) = 0.133E-02 0.183E+00-0.266E+00
CGA:  47    -0.578087610860E+03   -0.10052E+00   -0.10307E+00  4800   0.314E+01-0.815E-01
 gam= 0.867 trial= 0.178  step= 0.112 mean= 0.178
 gam= 1.407 g(H,U,f)=  0.986E+00 0.275E+01 0.678E+00 ort(H,U,f) = 0.184E+00-0.277E-01-0.178E+00
CGA:  48    -0.578256462163E+03   -0.16885E+00   -0.17143E+00  4800   0.441E+01-0.221E-01
 gam= 1.407 trial= 0.174  step= 0.046 mean= 0.174
 gam= 0.761 g(H,U,f)=  0.710E+00 0.210E+01 0.545E+00 ort(H,U,f) = 0.113E+00 0.121E+01 0.579E+00
CGA:  49    -0.578405608481E+03   -0.14915E+00   -0.10027E+00  4800   0.336E+01 0.190E+01
 gam= 0.761 trial= 0.168  step= 0.048 mean= 0.168
 gam= 1.051 g(H,U,f)=  0.598E+00 0.200E+01 0.925E+00 ort(H,U,f) =-0.293E+00-0.204E+00 0.373E+00
CGA:  50    -0.578536677077E+03   -0.13107E+00   -0.11594E+00  4800   0.353E+01-0.124E+00
 gam= 1.051 trial= 0.162  step= 0.041 mean= 0.162
 gam= 0.000 g(H,U,f)=  0.116E+01 0.444E+01 0.146E+01 ort(H,U,f) =-0.777E+00-0.172E+01-0.139E-01
CGA:  51    -0.578561664640E+03   -0.24988E-01   -0.69893E-01  4800   0.705E+01-0.251E+01
 gam= 0.000 trial= 0.156  step= 0.088 mean= 0.156
 gam= 0.216 g(H,U,f)=  0.331E+00 0.743E+00 0.450E+00 ort(H,U,f) = 0.293E+00-0.777E-01-0.409E+00
CGA:  52    -0.578864787454E+03   -0.30312E+00   -0.30909E+00  4800   0.152E+01-0.194E+00
 gam= 0.216 trial= 0.152  step= 0.243 mean= 0.152
 gam= 1.139 g(H,U,f)=  0.138E+00 0.895E+00 0.703E+00 ort(H,U,f) =-0.519E-01-0.791E-01 0.205E+00
CGA:  53    -0.579048951372E+03   -0.18416E+00   -0.18035E+00  4800   0.174E+01 0.735E-01
 gam= 1.139 trial= 0.157  step= 0.206 mean= 0.157
 gam= 0.504 g(H,U,f)=  0.269E+00 0.411E+00 0.195E+00 ort(H,U,f) =-0.252E+00 0.259E+00 0.307E+00
CGA:  54    -0.579246779266E+03   -0.19783E+00   -0.18762E+00  4800   0.875E+00 0.313E+00
 gam= 0.504 trial= 0.159  step= 0.305 mean= 0.159
 gam= 0.960 g(H,U,f)=  0.208E+00 0.481E+00 0.152E+00 ort(H,U,f) = 0.417E-01 0.315E+00-0.107E+00
CGA:  55    -0.579423988996E+03   -0.17721E+00   -0.15748E+00  4800   0.840E+00 0.250E+00
 gam= 0.960 trial= 0.167  step= 0.235 mean= 0.167
 gam= 0.622 g(H,U,f)=  0.165E+00 0.149E+00 0.208E+00 ort(H,U,f) =-0.113E+00 0.136E+00 0.163E-01
CGA:  56    -0.579552798372E+03   -0.12881E+00   -0.12672E+00  4800   0.522E+00 0.393E-01
 gam= 0.622 trial= 0.170  step= 0.387 mean= 0.170
 gam= 0.690 g(H,U,f)=  0.167E+00 0.149E+00 0.436E-01 ort(H,U,f) =-0.545E-01 0.120E+00 0.313E-01
CGA:  57    -0.579669627702E+03   -0.11683E+00   -0.10568E+00  4800   0.360E+00 0.963E-01
 gam= 0.690 trial= 0.181  step=-0.386 mean= 0.181
 BOPT < 0, no correction made
 gam= 0.000 g(H,U,f)=  0.974E-01 0.112E+00 0.173E+00 ort(H,U,f) = 0.381E-01 0.191E+00 0.436E+00
CGA:  58    -0.579764938285E+03   -0.95311E-01    0.82346E-01  4800   0.382E+00 0.666E+00
 gam= 0.000 trial= 0.181  step= 1.331 mean= 0.181
 gam= 0.000 trial= 1.176  step= 1.176 mean= 0.286
 gam= 0.000 g(H,U,f)=  0.794E+00 0.639E+00 0.492E-01 ort(H,U,f) =-0.249E+00-0.545E-01-0.761E-02
CGA:  59    -0.579796948440E+03   -0.32010E-01   -0.30065E-01  4800   0.148E+01-0.311E+00
 gam= 0.000 trial= 0.330  step= 0.269 mean= 0.330
 gam= 0.070 g(H,U,f)=  0.228E-01 0.783E-01 0.273E-02 ort(H,U,f) =-0.174E-01 0.212E-01-0.901E-02
CGA:  60    -0.579997336532E+03   -0.20039E+00   -0.19958E+00  4800   0.104E+00-0.512E-02
 gam= 0.070 trial= 0.327  step= 0.964 mean= 0.327
 gam= 2.039 g(H,U,f)=  0.776E-01 0.128E+00 0.636E-02 ort(H,U,f) =-0.318E-01 0.330E-01-0.120E-02
CGA:  61    -0.580047143727E+03   -0.49807E-01   -0.49840E-01  4800   0.212E+00-0.734E-06
 gam= 2.039 trial= 0.359  step= 1.495 mean= 0.359
 gam= 3.865 g(H,U,f)=  0.312E+00 0.397E+00 0.109E+00 ort(H,U,f) =-0.742E-01 0.570E-01-0.377E-01
CGA:  62    -0.580175167091E+03   -0.12802E+00   -0.15815E+00  4800   0.818E+00-0.549E-01
 gam= 3.865 trial= 0.416  step= 0.819 mean= 0.416
 gam= 1.440 g(H,U,f)=  0.738E+00 0.398E+00 0.422E-01 ort(H,U,f) =-0.313E+00 0.295E+00-0.525E-01
CGA:  63    -0.580409261976E+03   -0.23409E+00   -0.24801E+00  4800   0.118E+01-0.706E-01
 gam= 1.440 trial= 0.436  step= 0.698 mean= 0.436
 gam= 1.256 g(H,U,f)=  0.781E+00 0.629E+00 0.691E-01 ort(H,U,f) =-0.305E+00 0.283E+00-0.491E-01
CGA:  64    -0.580772668903E+03   -0.36341E+00   -0.37551E+00  4800   0.148E+01-0.714E-01
 gam= 1.256 trial= 0.449  step= 0.492 mean= 0.449
 gam= 0.887 g(H,U,f)=  0.757E+00 0.535E+00 0.207E-01 ort(H,U,f) =-0.401E+00 0.403E+00-0.132E-01
CGA:  65    -0.581114170538E+03   -0.34150E+00   -0.34196E+00  4800   0.131E+01-0.107E-01
 gam= 0.887 trial= 0.451  step= 0.643 mean= 0.451
 gam= 1.250 g(H,U,f)=  0.856E+00 0.661E+00 0.124E+00 ort(H,U,f) =-0.406E+00 0.355E+00 0.614E-03
CGA:  66    -0.581528550531E+03   -0.41438E+00   -0.41880E+00  4800   0.164E+01-0.509E-01
 gam= 1.250 trial= 0.461  step= 0.431 mean= 0.461
 gam= 0.831 g(H,U,f)=  0.750E+00 0.552E+00 0.623E-01 ort(H,U,f) =-0.253E+00 0.259E+00-0.396E-02
CGA:  67    -0.581868327676E+03   -0.33978E+00   -0.33985E+00  4800   0.136E+01 0.257E-02
 gam= 0.831 trial= 0.459  step= 0.469 mean= 0.459
 gam= 0.897 g(H,U,f)=  0.531E+00 0.632E+00 0.608E-01 ort(H,U,f) =-0.194E+00 0.231E+00-0.474E-01
CGA:  68    -0.582188881488E+03   -0.32055E+00   -0.32067E+00  4800   0.122E+01-0.971E-02
 gam= 0.897 trial= 0.460  step= 0.408 mean= 0.460
 gam= 0.850 g(H,U,f)=  0.583E+00 0.430E+00 0.266E-01 ort(H,U,f) =-0.165E+00 0.145E+00-0.289E-01
CGA:  69    -0.582439979246E+03   -0.25110E+00   -0.24779E+00  4800   0.104E+01-0.494E-01
 gam= 0.850 trial= 0.457  step= 0.403 mean= 0.457
 gam= 0.792 g(H,U,f)=  0.404E+00 0.402E+00 0.173E-01 ort(H,U,f) =-0.401E-01 0.588E-01-0.110E-01
CGA:  70    -0.582640724196E+03   -0.20074E+00   -0.20116E+00  4800   0.823E+00 0.766E-02
 gam= 0.792 trial= 0.454  step= 0.338 mean= 0.454
 gam= 0.664 g(H,U,f)=  0.299E+00 0.236E+00 0.115E-01 ort(H,U,f) =-0.953E-01 0.109E+00-0.128E-01
CGA:  71    -0.582781566925E+03   -0.14084E+00   -0.14039E+00  4800   0.547E+00 0.861E-03
 gam= 0.664 trial= 0.449  step= 0.400 mean= 0.449
 gam= 0.942 g(H,U,f)=  0.261E+00 0.246E+00 0.908E-02 ort(H,U,f) =-0.664E-01 0.732E-01-0.705E-02
CGA:  72    -0.582891048040E+03   -0.10948E+00   -0.10946E+00  4800   0.515E+00-0.220E-03
 gam= 0.942 trial= 0.446  step= 0.381 mean= 0.446
 gam= 0.753 g(H,U,f)=  0.194E+00 0.179E+00 0.147E-01 ort(H,U,f) =-0.118E+00 0.124E+00-0.549E-02
CGA:  73    -0.582988964290E+03   -0.97916E-01   -0.98015E-01  4800   0.388E+00 0.850E-03
 gam= 0.753 trial= 0.443  step= 0.380 mean= 0.443
 gam= 0.922 g(H,U,f)=  0.188E+00 0.157E+00 0.130E-01 ort(H,U,f) =-0.853E-01 0.921E-01-0.751E-02
CGA:  74    -0.583062889502E+03   -0.73925E-01   -0.73945E-01  4800   0.358E+00-0.691E-03
 gam= 0.922 trial= 0.440  step= 0.486 mean= 0.440
 gam= 1.034 g(H,U,f)=  0.160E+00 0.192E+00 0.177E-01 ort(H,U,f) =-0.942E-01 0.955E-01-0.372E-02
CGA:  75    -0.583149641115E+03   -0.86752E-01   -0.86821E-01  4800   0.370E+00-0.239E-02
 gam= 1.034 trial= 0.442  step= 0.373 mean= 0.442
 gam= 0.838 g(H,U,f)=  0.174E+00 0.131E+00 0.505E-02 ort(H,U,f) =-0.112E+00 0.115E+00-0.297E-02
CGA:  76    -0.583218074500E+03   -0.68433E-01   -0.68485E-01  4800   0.310E+00-0.323E-03
 gam= 0.838 trial= 0.439  step= 0.548 mean= 0.439
 gam= 1.474 g(H,U,f)=  0.207E+00 0.233E+00 0.181E-01 ort(H,U,f) =-0.713E-01 0.806E-01-0.973E-02
CGA:  77    -0.583302993849E+03   -0.84919E-01   -0.84932E-01  4800   0.457E+00-0.450E-03
 gam= 1.474 trial= 0.444  step= 0.410 mean= 0.444
 gam= 0.845 g(H,U,f)=  0.223E+00 0.153E+00 0.979E-02 ort(H,U,f) =-0.142E+00 0.152E+00-0.121E-01
CGA:  78    -0.583396673508E+03   -0.93680E-01   -0.93557E-01  4800   0.387E+00-0.301E-02
 gam= 0.845 trial= 0.442  step= 0.436 mean= 0.442
 gam= 1.113 g(H,U,f)=  0.223E+00 0.180E+00 0.275E-01 ort(H,U,f) =-0.100E+00 0.117E+00-0.183E-01
CGA:  79    -0.583480461568E+03   -0.83788E-01   -0.83781E-01  4800   0.430E+00-0.124E-02
 gam= 1.113 trial= 0.442  step= 0.455 mean= 0.442
 gam= 1.125 g(H,U,f)=  0.293E+00 0.173E+00 0.177E-01 ort(H,U,f) =-0.124E+00 0.134E+00-0.129E-01
CGA:  80    -0.583577980304E+03   -0.97519E-01   -0.97546E-01  4800   0.484E+00-0.240E-02
 gam= 1.125 trial= 0.443  step= 0.435 mean= 0.443
 gam= 0.962 g(H,U,f)=  0.244E+00 0.202E+00 0.200E-01 ort(H,U,f) =-0.108E+00 0.113E+00-0.927E-02
CGA:  81    -0.583682754972E+03   -0.10477E+00   -0.10474E+00  4800   0.466E+00-0.385E-02
 gam= 0.962 trial= 0.442  step= 0.345 mean= 0.442
 gam= 0.785 g(H,U,f)=  0.210E+00 0.144E+00 0.114E-01 ort(H,U,f) =-0.114E+00 0.113E+00 0.720E-03
CGA:  82    -0.583762555744E+03   -0.79801E-01   -0.79668E-01  4800   0.366E+00-0.914E-03
 gam= 0.785 trial= 0.437  step= 0.455 mean= 0.437
 gam= 1.201 g(H,U,f)=  0.237E+00 0.182E+00 0.194E-01 ort(H,U,f) =-0.708E-01 0.719E-01-0.122E-02
CGA:  83    -0.583845535118E+03   -0.82979E-01   -0.82979E-01  4800   0.439E+00-0.120E-03
 gam= 1.201 trial= 0.438  step= 0.368 mean= 0.438
 gam= 0.732 g(H,U,f)=  0.181E+00 0.134E+00 0.690E-02 ort(H,U,f) =-0.799E-01 0.812E-01-0.271E-02
CGA:  84    -0.583926351081E+03   -0.80816E-01   -0.80654E-01  4800   0.322E+00-0.139E-02
 gam= 0.732 trial= 0.435  step= 0.355 mean= 0.435
 gam= 0.951 g(H,U,f)=  0.148E+00 0.145E+00 0.134E-01 ort(H,U,f) =-0.511E-01 0.621E-01-0.126E-01
CGA:  85    -0.583983467107E+03   -0.57116E-01   -0.56889E-01  4800   0.306E+00-0.165E-02
 gam= 0.951 trial= 0.431  step= 0.406 mean= 0.431
 gam= 0.963 g(H,U,f)=  0.163E+00 0.123E+00 0.862E-02 ort(H,U,f) =-0.817E-01 0.846E-01-0.165E-02
CGA:  86    -0.584045133088E+03   -0.61666E-01   -0.61710E-01  4800   0.295E+00 0.134E-02
 gam= 0.963 trial= 0.430  step= 0.378 mean= 0.430
 gam= 0.960 g(H,U,f)=  0.149E+00 0.131E+00 0.313E-02 ort(H,U,f) =-0.675E-01 0.721E-01-0.391E-02
CGA:  87    -0.584100997023E+03   -0.55864E-01   -0.55953E-01  4800   0.283E+00 0.671E-03
 gam= 0.960 trial= 0.427  step= 0.432 mean= 0.427
 gam= 1.004 g(H,U,f)=  0.154E+00 0.124E+00 0.569E-02 ort(H,U,f) =-0.800E-01 0.803E-01-0.226E-02
CGA:  88    -0.584162126133E+03   -0.61129E-01   -0.61134E-01  4800   0.284E+00-0.199E-02
 gam= 1.004 trial= 0.427  step= 0.392 mean= 0.427
 gam= 0.971 g(H,U,f)=  0.141E+00 0.128E+00 0.569E-02 ort(H,U,f) =-0.721E-01 0.705E-01-0.171E-02
CGA:  89    -0.584217435757E+03   -0.55310E-01   -0.55215E-01  4800   0.275E+00-0.331E-02
 gam= 0.971 trial= 0.425  step= 0.433 mean= 0.425
 gam= 0.000 g(H,U,f)=  0.153E+00 0.133E+00 0.924E-02 ort(H,U,f) =-0.802E-01 0.772E-01 0.365E-03
SDA:  90    -0.584276372221E+03   -0.58936E-01   -0.58949E-01  4800   0.296E+00-0.261E-02
 gam= 0.000 trial= 0.426  step= 0.425 mean= 0.426
 gam= 0.512 g(H,U,f)=  0.557E-01 0.898E-01 0.581E-02 ort(H,U,f) = 0.866E-03 0.104E-01-0.595E-02
CGA:  91    -0.584339136119E+03   -0.62764E-01   -0.62770E-01  4800   0.151E+00 0.528E-02
 gam= 0.512 trial= 0.426  step= 0.879 mean= 0.426
 gam= 0.831 g(H,U,f)=  0.636E-01 0.595E-01 0.266E-02 ort(H,U,f) =-0.399E-01 0.398E-01-0.116E-02
CGA:  92    -0.584406565266E+03   -0.67429E-01   -0.67685E-01  4800   0.126E+00-0.119E-02
 gam= 0.831 trial= 0.448  step= 0.779 mean= 0.448
 gam= 0.822 g(H,U,f)=  0.518E-01 0.492E-01 0.241E-02 ort(H,U,f) =-0.277E-01 0.310E-01-0.142E-02
CGA:  93    -0.584455540121E+03   -0.48975E-01   -0.48622E-01  4800   0.103E+00 0.186E-02
 gam= 0.822 trial= 0.465  step= 0.740 mean= 0.465
 gam= 1.168 g(H,U,f)=  0.458E-01 0.696E-01 0.528E-02 ort(H,U,f) =-0.206E-01 0.216E-01-0.197E-02
CGA:  94    -0.584494196316E+03   -0.38656E-01   -0.38812E-01  4800   0.121E+00-0.104E-02
 gam= 1.168 trial= 0.479  step= 0.742 mean= 0.479
 gam= 1.088 g(H,U,f)=  0.679E-01 0.565E-01 0.696E-02 ort(H,U,f) =-0.349E-01 0.407E-01-0.506E-02
CGA:  95    -0.584538626822E+03   -0.44431E-01   -0.44327E-01  4800   0.131E+00 0.715E-03
 gam= 1.088 trial= 0.492  step= 0.974 mean= 0.492
 gam= 1.212 g(H,U,f)=  0.100E+00 0.556E-01 0.309E-02 ort(H,U,f) =-0.527E-01 0.531E-01-0.134E-02
CGA:  96    -0.584602698557E+03   -0.64072E-01   -0.64315E-01  4800   0.159E+00-0.998E-03
 gam= 1.212 trial= 0.516  step= 1.179 mean= 0.516
 gam= 1.106 g(H,U,f)=  0.108E+00 0.635E-01 0.431E-02 ort(H,U,f) =-0.499E-01 0.494E-01-0.756E-03
CGA:  97    -0.584695427134E+03   -0.92729E-01   -0.93087E-01  4800   0.176E+00-0.134E-02
 gam= 1.106 trial= 0.549  step= 0.746 mean= 0.549
 gam= 0.863 g(H,U,f)=  0.836E-01 0.645E-01 0.366E-02 ort(H,U,f) =-0.247E-01 0.263E-01-0.180E-02
CGA:  98    -0.584760377226E+03   -0.64950E-01   -0.65051E-01  4800   0.152E+00-0.272E-03
 gam= 0.863 trial= 0.559  step= 0.600 mean= 0.559
 gam= 0.653 g(H,U,f)=  0.534E-01 0.431E-01 0.255E-02 ort(H,U,f) =-0.179E-01 0.206E-01-0.169E-02
CGA:  99    -0.584805853016E+03   -0.45476E-01   -0.45450E-01  4800   0.991E-01 0.101E-02
 gam= 0.653 trial= 0.561  step= 0.680 mean= 0.561
 gam= 0.748 g(H,U,f)=  0.334E-01 0.379E-01 0.285E-02 ort(H,U,f) =-0.132E-01 0.169E-01-0.117E-02
CGA: 100    -0.584839968882E+03   -0.34116E-01   -0.33906E-01  4800   0.742E-01 0.259E-02
 gam= 0.748 trial= 0.567  step= 0.655 mean= 0.567
 gam= 0.943 g(H,U,f)=  0.347E-01 0.340E-01 0.127E-02 ort(H,U,f) =-0.168E-01 0.197E-01-0.124E-02
CGA: 101    -0.584864942628E+03   -0.24974E-01   -0.24907E-01  4800   0.699E-01 0.169E-02
 gam= 0.943 trial= 0.571  step= 0.864 mean= 0.571
 gam= 0.999 g(H,U,f)=  0.424E-01 0.271E-01 0.361E-03 ort(H,U,f) =-0.222E-01 0.266E-01-0.194E-03
CGA: 102    -0.584896504400E+03   -0.31562E-01   -0.30908E-01  4800   0.699E-01 0.427E-02
 gam= 0.999 trial= 0.586  step= 0.799 mean= 0.586
 gam= 1.055 g(H,U,f)=  0.403E-01 0.321E-01 0.137E-02 ort(H,U,f) =-0.159E-01 0.272E-01-0.173E-03
CGA: 103    -0.584927692885E+03   -0.31188E-01   -0.29604E-01  4800   0.737E-01 0.111E-01
 gam= 1.055 trial= 0.597  step= 0.654 mean= 0.597
 gam= 0.881 g(H,U,f)=  0.364E-01 0.268E-01 0.177E-02 ort(H,U,f) =-0.154E-01 0.235E-01-0.121E-02
CGA: 104    -0.584955968201E+03   -0.28275E-01   -0.27946E-01  4800   0.649E-01 0.685E-02
 gam= 0.881 trial= 0.599  step= 0.666 mean= 0.599
 gam= 0.750 g(H,U,f)=  0.311E-01 0.172E-01 0.388E-03 ort(H,U,f) =-0.129E-01 0.177E-01-0.164E-03
CGA: 105    -0.584979827621E+03   -0.23859E-01   -0.23635E-01  4800   0.487E-01 0.466E-02
 gam= 0.750 trial= 0.603  step= 0.657 mean= 0.603
 gam= 0.747 g(H,U,f)=  0.221E-01 0.142E-01 0.181E-03 ort(H,U,f) =-0.586E-02 0.129E-01-0.216E-03
CGA: 106    -0.584997221616E+03   -0.17394E-01   -0.17150E-01  4800   0.364E-01 0.679E-02
 gam= 0.747 trial= 0.605  step= 0.441 mean= 0.605
 gam= 0.889 g(H,U,f)=  0.183E-01 0.138E-01 0.227E-03 ort(H,U,f) =-0.441E-02 0.114E-01-0.418E-04
CGA: 107    -0.585005234992E+03   -0.80134E-02   -0.91462E-02  4800   0.323E-01 0.695E-02
 gam= 0.889 trial= 0.597  step= 0.385 mean= 0.597
 gam= 0.768 g(H,U,f)=  0.149E-01 0.977E-02 0.174E-03 ort(H,U,f) =-0.720E-02 0.118E-01 0.793E-04
CGA: 108    -0.585011297451E+03   -0.60625E-02   -0.74144E-02  4800   0.248E-01 0.473E-02
 gam= 0.768 trial= 0.587  step= 0.467 mean= 0.587
 gam= 0.771 g(H,U,f)=  0.109E-01 0.805E-02 0.211E-03 ort(H,U,f) =-0.527E-02 0.741E-02-0.201E-03
CGA: 109    -0.585017644623E+03   -0.63472E-02   -0.66440E-02  4800   0.191E-01 0.194E-02
 gam= 0.771 trial= 0.581  step= 0.667 mean= 0.581
 gam= 0.995 g(H,U,f)=  0.980E-02 0.893E-02 0.320E-03 ort(H,U,f) =-0.503E-02 0.581E-02-0.113E-03
CGA: 110    -0.585024576888E+03   -0.69323E-02   -0.68801E-02  4800   0.191E-01 0.673E-03
 gam= 0.995 trial= 0.585  step= 0.804 mean= 0.585
 gam= 1.276 g(H,U,f)=  0.146E-01 0.954E-02 0.133E-03 ort(H,U,f) =-0.721E-02 0.702E-02-0.825E-04
CGA: 111    -0.585032485012E+03   -0.79081E-02   -0.79295E-02  4800   0.243E-01-0.276E-03
 gam= 1.276 trial= 0.596  step= 0.843 mean= 0.596
 gam= 1.287 g(H,U,f)=  0.183E-01 0.127E-01 0.296E-03 ort(H,U,f) =-0.987E-02 0.858E-02-0.182E-03
CGA: 112    -0.585042396227E+03   -0.99112E-02   -0.10099E-01  4800   0.313E-01-0.147E-02
 gam= 1.287 trial= 0.608  step= 0.667 mean= 0.608
 gam= 1.296 g(H,U,f)=  0.226E-01 0.177E-01 0.236E-03 ort(H,U,f) =-0.121E-01 0.108E-01-0.905E-04
CGA: 113    -0.585052166214E+03   -0.97700E-02   -0.98045E-02  4800   0.405E-01-0.132E-02
 gam= 1.296 trial= 0.611  step= 0.679 mean= 0.611
 gam= 1.303 g(H,U,f)=  0.284E-01 0.240E-01 0.372E-03 ort(H,U,f) =-0.155E-01 0.135E-01-0.746E-04
CGA: 114    -0.585065291309E+03   -0.13125E-01   -0.13184E-01  4800   0.528E-01-0.216E-02
 gam= 1.303 trial= 0.615  step= 0.628 mean= 0.615
 gam= 1.191 g(H,U,f)=  0.368E-01 0.257E-01 0.470E-03 ort(H,U,f) =-0.223E-01 0.169E-01-0.301E-03
CGA: 115    -0.585080944019E+03   -0.15653E-01   -0.15699E-01  4800   0.629E-01-0.571E-02
 gam= 1.191 trial= 0.615  step= 0.553 mean= 0.615
 gam= 1.152 g(H,U,f)=  0.456E-01 0.266E-01 0.314E-03 ort(H,U,f) =-0.190E-01 0.133E-01-0.268E-03
CGA: 116    -0.585096687876E+03   -0.15744E-01   -0.15517E-01  4800   0.725E-01-0.595E-02
 gam= 1.152 trial= 0.612  step= 0.481 mean= 0.612
 gam= 0.908 g(H,U,f)=  0.399E-01 0.255E-01 0.452E-03 ort(H,U,f) =-0.995E-02 0.524E-02-0.891E-04
CGA: 117    -0.585112914835E+03   -0.16227E-01   -0.15809E-01  4800   0.659E-01-0.480E-02
 gam= 0.908 trial= 0.606  step= 0.463 mean= 0.606
 gam= 0.826 g(H,U,f)=  0.307E-01 0.236E-01 0.168E-03 ort(H,U,f) =-0.493E-02 0.191E-02 0.146E-03
CGA: 118    -0.585127467491E+03   -0.14553E-01   -0.14253E-01  4800   0.544E-01-0.287E-02
 gam= 0.826 trial= 0.598  step= 0.434 mean= 0.598
 gam= 0.844 g(H,U,f)=  0.245E-01 0.212E-01 0.262E-03 ort(H,U,f) =-0.482E-02 0.410E-02-0.351E-03
CGA: 119    -0.585138924725E+03   -0.11457E-01   -0.11297E-01  4800   0.459E-01-0.107E-02
 gam= 0.844 trial= 0.590  step= 0.466 mean= 0.590
 gam= 0.879 g(H,U,f)=  0.217E-01 0.185E-01 0.215E-03 ort(H,U,f) =-0.692E-02 0.696E-02-0.856E-04
CGA: 120    -0.585149455900E+03   -0.10531E-01   -0.10491E-01  4800   0.404E-01-0.460E-04
 gam= 0.879 trial= 0.584  step= 0.420 mean= 0.584
 gam= 0.000 g(H,U,f)=  0.162E-01 0.149E-01 0.148E-03 ort(H,U,f) =-0.690E-02 0.755E-02-0.192E-04
SDA: 121    -0.585157907805E+03   -0.84519E-02   -0.84807E-02  4800   0.313E-01 0.631E-03
 gam= 0.000 trial= 0.576  step= 0.852 mean= 0.576
 gam= 1.151 g(H,U,f)=  0.166E-01 0.180E-01 0.135E-02 ort(H,U,f) =-0.646E-02 0.667E-02-0.312E-03
CGA: 122    -0.585171220964E+03   -0.13313E-01   -0.13328E-01  4800   0.360E-01-0.106E-03
 gam= 1.151 trial= 0.590  step= 0.633 mean= 0.590
 gam= 0.655 g(H,U,f)=  0.136E-01 0.917E-02 0.840E-03 ort(H,U,f) =-0.965E-02 0.104E-01-0.758E-03
CGA: 123    -0.585182585516E+03   -0.11365E-01   -0.11363E-01  4800   0.236E-01 0.226E-04
 gam= 0.655 trial= 0.592  step= 0.753 mean= 0.592
 gam= 1.003 g(H,U,f)=  0.121E-01 0.105E-01 0.988E-03 ort(H,U,f) =-0.446E-02 0.475E-02-0.330E-03
CGA: 124    -0.585191464693E+03   -0.88792E-02   -0.88862E-02  4800   0.236E-01-0.486E-04
 gam= 1.003 trial= 0.600  step= 0.594 mean= 0.600
 gam= 0.732 g(H,U,f)=  0.771E-02 0.907E-02 0.524E-03 ort(H,U,f) =-0.476E-02 0.533E-02-0.487E-03
CGA: 125    -0.585198474773E+03   -0.70101E-02   -0.70104E-02  4800   0.173E-01 0.820E-04
 gam= 0.732 trial= 0.600  step= 0.929 mean= 0.600
 gam= 1.407 g(H,U,f)=  0.117E-01 0.122E-01 0.442E-03 ort(H,U,f) =-0.591E-02 0.603E-02-0.174E-03
CGA: 126    -0.585206530801E+03   -0.80560E-02   -0.80665E-02  4800   0.244E-01-0.566E-04
 gam= 1.407 trial= 0.616  step= 1.097 mean= 0.616
 gam= 1.536 g(H,U,f)=  0.220E-01 0.147E-01 0.675E-03 ort(H,U,f) =-0.104E-01 0.104E-01-0.274E-03
CGA: 127    -0.585219762308E+03   -0.13232E-01   -0.13314E-01  4800   0.374E-01-0.267E-03
 gam= 1.536 trial= 0.640  step= 0.886 mean= 0.640
 gam= 1.200 g(H,U,f)=  0.274E-01 0.172E-01 0.301E-03 ort(H,U,f) =-0.985E-02 0.102E-01-0.163E-03
CGA: 128    -0.585236066133E+03   -0.16304E-01   -0.16393E-01  4800   0.449E-01 0.211E-03
 gam= 1.200 trial= 0.652  step= 0.626 mean= 0.652
 gam= 0.632 g(H,U,f)=  0.183E-01 0.991E-02 0.181E-03 ort(H,U,f) =-0.525E-02 0.854E-02-0.113E-03
CGA: 129    -0.585250122555E+03   -0.14056E-01   -0.14126E-01  4800   0.283E-01 0.317E-02
 gam= 0.632 trial= 0.651  step= 0.533 mean= 0.651
 gam= 0.677 g(H,U,f)=  0.106E-01 0.841E-02 0.200E-03 ort(H,U,f) =-0.182E-02 0.486E-02-0.761E-04
CGA: 130    -0.585257866066E+03   -0.77435E-02   -0.80890E-02  4800   0.192E-01 0.296E-02
 gam= 0.677 trial= 0.645  step= 0.523 mean= 0.645
 gam= 0.713 g(H,U,f)=  0.778E-02 0.583E-02 0.771E-04 ort(H,U,f) =-0.287E-02 0.400E-02-0.844E-04
CGA: 131    -0.585263265639E+03   -0.53996E-02   -0.55426E-02  4800   0.137E-01 0.105E-02
 gam= 0.713 trial= 0.639  step= 0.680 mean= 0.639
 gam= 0.949 g(H,U,f)=  0.782E-02 0.510E-02 0.655E-04 ort(H,U,f) =-0.362E-02 0.431E-02-0.245E-04
CGA: 132    -0.585268195716E+03   -0.49301E-02   -0.49077E-02  4800   0.130E-01 0.671E-03
 gam= 0.949 trial= 0.641  step= 0.697 mean= 0.641
 gam= 0.978 g(H,U,f)=  0.791E-02 0.472E-02 0.740E-04 ort(H,U,f) =-0.365E-02 0.443E-02-0.145E-04
CGA: 133    -0.585272975979E+03   -0.47803E-02   -0.47438E-02  4800   0.127E-01 0.768E-03
 gam= 0.978 trial= 0.644  step= 0.670 mean= 0.644
 gam= 0.902 g(H,U,f)=  0.702E-02 0.434E-02 0.941E-04 ort(H,U,f) =-0.325E-02 0.373E-02-0.671E-04
CGA: 134    -0.585277495916E+03   -0.45199E-02   -0.45078E-02  4800   0.115E-01 0.420E-03
 gam= 0.902 trial= 0.645  step= 0.657 mean= 0.645
 gam= 0.697 g(H,U,f)=  0.556E-02 0.238E-02 0.375E-04 ort(H,U,f) =-0.292E-02 0.296E-02-0.130E-04
CGA: 135    -0.585281386950E+03   -0.38910E-02   -0.38896E-02  4800   0.798E-02 0.334E-04
 gam= 0.697 trial= 0.646  step= 0.692 mean= 0.646
 gam= 0.756 g(H,U,f)=  0.396E-02 0.201E-02 0.633E-04 ort(H,U,f) =-0.145E-02 0.146E-02-0.372E-04
CGA: 136    -0.585284160523E+03   -0.27736E-02   -0.27711E-02  4800   0.603E-02-0.267E-04
 gam= 0.756 trial= 0.648  step= 0.645 mean= 0.648
 gam= 0.668 g(H,U,f)=  0.278E-02 0.124E-02 0.842E-05 ort(H,U,f) =-0.900E-03 0.846E-03-0.918E-05
CGA: 137    -0.585286099410E+03   -0.19389E-02   -0.19389E-02  4800   0.403E-02-0.641E-04
 gam= 0.668 trial= 0.648  step= 0.586 mean= 0.648
 gam= 0.638 g(H,U,f)=  0.180E-02 0.761E-03 0.150E-04 ort(H,U,f) =-0.499E-03 0.451E-03-0.286E-05
CGA: 138    -0.585287270060E+03   -0.11707E-02   -0.11689E-02  4800   0.257E-02-0.505E-04
 gam= 0.638 trial= 0.645  step= 0.589 mean= 0.645
 gam= 0.560 g(H,U,f)=  0.101E-02 0.411E-03 0.165E-04 ort(H,U,f) =-0.134E-03 0.149E-03-0.870E-05
CGA: 139    -0.585288016606E+03   -0.74655E-03   -0.74763E-03  4800   0.144E-02 0.611E-05
 gam= 0.560 trial= 0.642  step= 0.549 mean= 0.642
 gam= 0.502 g(H,U,f)=  0.526E-03 0.196E-03 0.198E-05 ort(H,U,f) =-0.571E-04 0.640E-04-0.370E-05
CGA: 140    -0.585288412521E+03   -0.39592E-03   -0.39641E-03  4800   0.724E-03 0.326E-05
 gam= 0.502 trial= 0.637  step= 0.562 mean= 0.637
 gam= 0.605 g(H,U,f)=  0.279E-03 0.155E-03 0.337E-05 ort(H,U,f) =-0.336E-04 0.348E-04-0.120E-05
CGA: 141    -0.585288616304E+03   -0.20378E-03   -0.20377E-03  4800   0.438E-03-0.155E-07
 gam= 0.605 trial= 0.634  step= 0.553 mean= 0.634
 gam= 0.713 g(H,U,f)=  0.195E-03 0.116E-03 0.210E-05 ort(H,U,f) =-0.423E-04 0.453E-04-0.199E-05
CGA: 142    -0.585288737325E+03   -0.12102E-03   -0.12110E-03  4800   0.312E-03 0.103E-05
 gam= 0.713 trial= 0.630  step= 0.656 mean= 0.630
 gam= 0.730 g(H,U,f)=  0.141E-03 0.867E-04 0.388E-06 ort(H,U,f) =-0.766E-04 0.815E-04-0.226E-07
CGA: 143    -0.585288840079E+03   -0.10275E-03   -0.10265E-03  4800   0.228E-03 0.490E-05
 gam= 0.730 trial= 0.631  step= 0.724 mean= 0.631
 gam= 1.147 g(H,U,f)=  0.147E-03 0.112E-03 0.215E-05 ort(H,U,f) =-0.761E-04 0.821E-04-0.966E-06
CGA: 144    -0.585288924175E+03   -0.84097E-04   -0.83812E-04  4800   0.261E-03 0.507E-05
 gam= 1.147 trial= 0.636  step= 0.679 mean= 0.636
 gam= 1.142 g(H,U,f)=  0.190E-03 0.108E-03 0.673E-06 ort(H,U,f) =-0.110E-03 0.115E-03-0.248E-06
CGA: 145    -0.585289014989E+03   -0.90813E-04   -0.90740E-04  4800   0.299E-03 0.514E-05
 gam= 1.142 trial= 0.638  step= 0.662 mean= 0.638
 gam= 1.182 g(H,U,f)=  0.227E-03 0.124E-03 0.206E-05 ort(H,U,f) =-0.118E-03 0.142E-03-0.119E-05
CGA: 146    -0.585289116157E+03   -0.10117E-03   -0.10085E-03  4800   0.353E-03 0.226E-04
 gam= 1.182 trial= 0.639  step= 0.480 mean= 0.639
 gam= 1.051 g(H,U,f)=  0.258E-03 0.113E-03 0.704E-06 ort(H,U,f) =-0.120E-03 0.156E-03-0.374E-06
CGA: 147    -0.585289201194E+03   -0.85037E-04   -0.91082E-04  4800   0.371E-03 0.360E-04
 gam= 1.051 trial= 0.631  step= 0.497 mean= 0.631
 gam= 0.999 g(H,U,f)=  0.258E-03 0.111E-03 0.167E-05 ort(H,U,f) =-0.115E-03 0.140E-03-0.728E-06
CGA: 148    -0.585289298777E+03   -0.97583E-04   -0.10172E-03  4800   0.371E-03 0.240E-04
 gam= 0.999 trial= 0.624  step= 0.491 mean= 0.624
 gam= 0.836 g(H,U,f)=  0.227E-03 0.827E-04 0.771E-06 ort(H,U,f) =-0.103E-03 0.117E-03-0.477E-06
CGA: 149    -0.585289393278E+03   -0.94501E-04   -0.97018E-04  4800   0.310E-03 0.135E-04
 gam= 0.836 trial= 0.618  step= 0.540 mean= 0.618
 gam= 0.842 g(H,U,f)=  0.194E-03 0.657E-04 0.140E-05 ort(H,U,f) =-0.772E-04 0.837E-04-0.607E-06
CGA: 150    -0.585289479602E+03   -0.86324E-04   -0.86822E-04  4800   0.261E-03 0.594E-05
 gam= 0.842 trial= 0.614  step= 0.591 mean= 0.614
 gam= 0.860 g(H,U,f)=  0.165E-03 0.590E-04 0.860E-06 ort(H,U,f) =-0.553E-04 0.595E-04-0.606E-06
CGA: 151    -0.585289558069E+03   -0.78466E-04   -0.78530E-04  4800   0.225E-03 0.365E-05
 gam= 0.860 trial= 0.613  step= 0.506 mean= 0.613
 gam= 0.000 g(H,U,f)=  0.126E-03 0.433E-04 0.482E-06 ort(H,U,f) =-0.332E-04 0.356E-04-0.296E-06
SDA: 152    -0.585289615437E+03   -0.57368E-04   -0.57648E-04  4800   0.170E-03 0.208E-05
 gam= 0.000 trial= 0.607  step= 0.554 mean= 0.607
 gam= 0.570 g(H,U,f)=  0.526E-04 0.433E-04 0.895E-06 ort(H,U,f) =-0.493E-05 0.705E-05-0.654E-06
CGA: 153    -0.585289662334E+03   -0.46897E-04   -0.47048E-04  4800   0.968E-04 0.147E-05
 gam= 0.570 trial= 0.605  step= 0.622 mean= 0.605
 gam= 0.688 g(H,U,f)=  0.379E-04 0.281E-04 0.645E-06 ort(H,U,f) =-0.163E-04 0.159E-04-0.371E-06
CGA: 154    -0.585289692696E+03   -0.30363E-04   -0.30375E-04  4800   0.666E-04-0.707E-06
 gam= 0.688 trial= 0.606  step= 0.696 mean= 0.606
 gam= 0.805 g(H,U,f)=  0.345E-04 0.186E-04 0.456E-06 ort(H,U,f) =-0.106E-04 0.123E-04-0.345E-06
CGA: 155    -0.585289715788E+03   -0.23092E-04   -0.23021E-04  4800   0.536E-04 0.134E-05
 gam= 0.805 trial= 0.610  step= 0.665 mean= 0.610
 gam= 0.570 g(H,U,f)=  0.197E-04 0.106E-04 0.208E-06 ort(H,U,f) =-0.773E-05 0.107E-04-0.105E-06
CGA: 156    -0.585289734078E+03   -0.18290E-04   -0.18165E-04  4800   0.305E-04 0.283E-05
 gam= 0.570 trial= 0.613  step= 0.758 mean= 0.613
 gam= 0.918 g(H,U,f)=  0.148E-04 0.128E-04 0.410E-06 ort(H,U,f) =-0.496E-05 0.715E-05-0.193E-06
CGA: 157    -0.585289746492E+03   -0.12414E-04   -0.12178E-04  4800   0.280E-04 0.200E-05
 gam= 0.918 trial= 0.620  step= 0.680 mean= 0.620
 gam= 0.982 g(H,U,f)=  0.135E-04 0.134E-04 0.666E-06 ort(H,U,f) =-0.596E-05 0.821E-05-0.305E-06
CGA: 158    -0.585289756747E+03   -0.10255E-04   -0.10150E-04  4800   0.275E-04 0.194E-05
 gam= 0.982 trial= 0.623  step= 0.621 mean= 0.623
 gam= 0.794 g(H,U,f)=  0.136E-04 0.802E-05 0.229E-06 ort(H,U,f) =-0.792E-05 0.103E-04-0.207E-06
CGA: 159    -0.585289765886E+03   -0.91391E-05   -0.91422E-05  4800   0.219E-04 0.221E-05
 gam= 0.794 trial= 0.623  step= 0.684 mean= 0.623
 gam= 0.861 g(H,U,f)=  0.118E-04 0.692E-05 0.715E-07 ort(H,U,f) =-0.486E-05 0.814E-05-0.223E-07
CGA: 160    -0.585289774118E+03   -0.82321E-05   -0.80738E-05  4800   0.188E-04 0.326E-05
 gam= 0.861 trial= 0.626  step= 0.526 mean= 0.626
 gam= 0.882 g(H,U,f)=  0.101E-04 0.638E-05 0.115E-06 ort(H,U,f) =-0.270E-05 0.569E-05-0.668E-07
CGA: 161    -0.585289779506E+03   -0.53874E-05   -0.56829E-05  4800   0.166E-04 0.292E-05
 gam= 0.882 trial= 0.621  step= 0.515 mean= 0.621
 gam= 0.708 g(H,U,f)=  0.743E-05 0.421E-05 0.945E-07 ort(H,U,f) =-0.276E-05 0.473E-05-0.484E-07
CGA: 162    -0.585289784171E+03   -0.46658E-05   -0.49356E-05  4800   0.117E-04 0.192E-05
 gam= 0.708 trial= 0.616  step= 0.638 mean= 0.616
 gam= 0.904 g(H,U,f)=  0.612E-05 0.443E-05 0.562E-07 ort(H,U,f) =-0.140E-05 0.332E-05-0.349E-07
CGA: 163    -0.585289788388E+03   -0.42164E-05   -0.41798E-05  4800   0.106E-04 0.188E-05
 gam= 0.904 trial= 0.617  step= 0.659 mean= 0.617
 gam= 0.974 g(H,U,f)=  0.578E-05 0.448E-05 0.674E-07 ort(H,U,f) =-0.234E-05 0.384E-05-0.394E-07
CGA: 164    -0.585289792493E+03   -0.41056E-05   -0.40558E-05  4800   0.103E-04 0.146E-05
 gam= 0.974 trial= 0.619  step= 0.679 mean= 0.619
 gam= 1.164 g(H,U,f)=  0.653E-05 0.540E-05 0.997E-07 ort(H,U,f) =-0.284E-05 0.478E-05-0.410E-07
CGA: 165    -0.585289796550E+03   -0.40571E-05   -0.39886E-05  4800   0.120E-04 0.190E-05
 gam= 1.164 trial= 0.622  step= 0.511 mean= 0.622
 gam= 1.042 g(H,U,f)=  0.721E-05 0.531E-05 0.206E-07 ort(H,U,f) =-0.405E-05 0.655E-05-0.162E-07
CGA: 166    -0.585289799946E+03   -0.33952E-05   -0.36373E-05  4800   0.125E-04 0.249E-05
 gam= 1.042 trial= 0.616  step= 0.396 mean= 0.616
 gam= 0.892 g(H,U,f)=  0.725E-05 0.387E-05 0.682E-07 ort(H,U,f) =-0.525E-05 0.744E-05-0.316E-07
CGA: 167    -0.585289802454E+03   -0.25085E-05   -0.29944E-05  4800   0.112E-04 0.216E-05
 gam= 0.892 trial= 0.605  step= 0.506 mean= 0.605
 gam= 0.946 g(H,U,f)=  0.748E-05 0.306E-05 0.462E-07 ort(H,U,f) =-0.476E-05 0.537E-05-0.268E-07
CGA: 168    -0.585289805703E+03   -0.32493E-05   -0.33164E-05  4800   0.106E-04 0.587E-06
 gam= 0.946 trial= 0.600  step= 0.642 mean= 0.600
 gam= 1.036 g(H,U,f)=  0.791E-05 0.301E-05 0.317E-07 ort(H,U,f) =-0.351E-05 0.326E-05-0.176E-07
CGA: 169    -0.585289809278E+03   -0.35746E-05   -0.35742E-05  4800   0.110E-04-0.266E-06
 gam= 1.036 trial= 0.602  step= 0.634 mean= 0.602
 gam= 0.847 g(H,U,f)=  0.661E-05 0.256E-05 0.105E-06 ort(H,U,f) =-0.240E-05 0.195E-05-0.339E-07
CGA: 170    -0.585289812661E+03   -0.33827E-05   -0.33880E-05  4800   0.928E-05-0.487E-06
 gam= 0.847 trial= 0.604  step= 0.559 mean= 0.604
 gam= 0.862 g(H,U,f)=  0.539E-05 0.254E-05 0.755E-07 ort(H,U,f) =-0.957E-06 0.842E-06-0.653E-07
CGA: 171    -0.585289815141E+03   -0.24799E-05   -0.24781E-05  4800   0.800E-05-0.180E-06
 gam= 0.862 trial= 0.602  step= 0.563 mean= 0.602
 gam= 0.685 g(H,U,f)=  0.383E-05 0.163E-05 0.144E-07 ort(H,U,f) =-0.895E-06 0.782E-06-0.243E-08
CGA: 172    -0.585289817350E+03   -0.22098E-05   -0.22078E-05  4800   0.548E-05-0.115E-06
 gam= 0.685 trial= 0.600  step= 0.553 mean= 0.600
 gam= 0.694 g(H,U,f)=  0.263E-05 0.113E-05 0.423E-07 ort(H,U,f) =-0.471E-06 0.372E-06-0.199E-07
CGA: 173    -0.585289818843E+03   -0.14926E-05   -0.14918E-05  4800   0.380E-05-0.119E-06
 gam= 0.694 trial= 0.597  step= 0.477 mean= 0.597
 gam= 0.624 g(H,U,f)=  0.171E-05 0.640E-06 0.217E-07 ort(H,U,f) =-0.986E-07 0.120E-06-0.183E-07
CGA: 174    -0.585289819730E+03   -0.88660E-06   -0.88832E-06  4800   0.237E-05 0.348E-08
 gam= 0.624 trial= 0.591  step= 0.454 mean= 0.591
 final diagonalization
   1 F= -.58528982E+03 E0= -.58527551E+03  d E =-.585290E+03  mag=   126.0000
quench:  g(F)=  0.000E+00 g(S)=  0.000E+00 dE (1.order)= 0.000E+00
 reached required accuracy - stopping structural energy minimisation
 writing wavefunctions
