 224 224   0   0
  0.1357572E+02  0.1537960E-08  0.1537962E-08  0.1395899E-08  0.5000000E-15
  1.000000000000000E-004
  CAR 
 unknown system                          
     17.69871517    -54.42976822  301      5.25655179      1.00000000
    -54.430  0.0000E+00  0.0000E+00  0.0000E+00  0.0000E+00
    -54.189  0.0000E+00  0.0000E+00  0.0000E+00  0.0000E+00
    -53.949  0.0000E+00  0.0000E+00  0.0000E+00  0.0000E+00
    -53.708  0.0000E+00  0.0000E+00  0.0000E+00  0.0000E+00
    -53.468  0.0000E+00  0.0000E+00  0.0000E+00  0.0000E+00
    -53.228  0.0000E+00  0.0000E+00  0.0000E+00  0.0000E+00
    -52.987  0.0000E+00  0.0000E+00  0.0000E+00  0.0000E+00
    -52.747  0.0000E+00  0.0000E+00  0.0000E+00  0.0000E+00
    -52.506  0.0000E+00  0.0000E+00  0.0000E+00  0.0000E+00
    -52.266  0.0000E+00  0.0000E+00  0.0000E+00  0.0000E+00
    -52.025  0.0000E+00  0.0000E+00  0.0000E+00  0.0000E+00
    -51.785  0.0000E+00  0.0000E+00  0.0000E+00  0.0000E+00
    -51.545  0.0000E+00  0.0000E+00  0.0000E+00  0.0000E+00
    -51.304  0.5021E-03  0.0000E+00  0.1207E-03  0.0000E+00
    -51.064  0.2622E+03  0.0000E+00  0.6304E+02  0.0000E+00
    -50.823  0.4012E+01  0.0000E+00  0.6400E+02  0.0000E+00
    -50.583  0.0000E+00  0.0000E+00  0.6400E+02  0.0000E+00
    -50.342  0.0000E+00  0.0000E+00  0.6400E+02  0.0000E+00
    -50.102  0.0000E+00  0.0000E+00  0.6400E+02  0.0000E+00
    -49.862  0.2899E-06  0.0000E+00  0.6400E+02  0.0000E+00
    -49.621  0.4026E+03  0.0000E+00  0.1608E+03  0.0000E+00
    -49.381  0.1298E+03  0.0000E+00  0.1920E+03  0.0000E+00
    -49.140  0.0000E+00  0.0000E+00  0.1920E+03  0.0000E+00
    -48.900  0.0000E+00  0.0000E+00  0.1920E+03  0.0000E+00
    -48.659  0.0000E+00  0.0000E+00  0.1920E+03  0.0000E+00
    -48.419  0.0000E+00  0.0000E+00  0.1920E+03  0.0000E+00
    -48.179  0.0000E+00  0.0000E+00  0.1920E+03  0.0000E+00
    -47.938  0.0000E+00  0.0000E+00  0.1920E+03  0.0000E+00
    -47.698  0.0000E+00  0.0000E+00  0.1920E+03  0.0000E+00
    -47.457  0.0000E+00  0.0000E+00  0.1920E+03  0.0000E+00
    -47.217  0.0000E+00  0.0000E+00  0.1920E+03  0.0000E+00
    -46.976  0.0000E+00  0.0000E+00  0.1920E+03  0.0000E+00
    -46.736  0.0000E+00  0.0000E+00  0.1920E+03  0.0000E+00
    -46.496  0.0000E+00  0.3559E+00  0.1920E+03  0.8557E-01
    -46.255  0.0000E+00  0.2658E+03  0.1920E+03  0.6400E+02
    -46.015  0.0000E+00  0.3610E+01  0.1920E+03  0.6486E+02
    -45.774  0.0000E+00  0.5288E+03  0.1920E+03  0.1920E+03
    -45.534  0.0000E+00  0.4065E-02  0.1920E+03  0.1920E+03
    -45.293  0.0000E+00  0.0000E+00  0.1920E+03  0.1920E+03
    -45.053  0.0000E+00  0.0000E+00  0.1920E+03  0.1920E+03
    -44.813  0.0000E+00  0.0000E+00  0.1920E+03  0.1920E+03
    -44.572  0.0000E+00  0.0000E+00  0.1920E+03  0.1920E+03
    -44.332  0.0000E+00  0.0000E+00  0.1920E+03  0.1920E+03
    -44.091  0.0000E+00  0.0000E+00  0.1920E+03  0.1920E+03
    -43.851  0.0000E+00  0.0000E+00  0.1920E+03  0.1920E+03
    -43.610  0.0000E+00  0.0000E+00  0.1920E+03  0.1920E+03
    -43.370  0.0000E+00  0.0000E+00  0.1920E+03  0.1920E+03
    -43.130  0.0000E+00  0.0000E+00  0.1920E+03  0.1920E+03
    -42.889  0.0000E+00  0.0000E+00  0.1920E+03  0.1920E+03
    -42.649  0.0000E+00  0.0000E+00  0.1920E+03  0.1920E+03
    -42.408  0.0000E+00  0.0000E+00  0.1920E+03  0.1920E+03
    -42.168  0.0000E+00  0.0000E+00  0.1920E+03  0.1920E+03
    -41.927  0.0000E+00  0.0000E+00  0.1920E+03  0.1920E+03
    -41.687  0.0000E+00  0.0000E+00  0.1920E+03  0.1920E+03
    -41.447  0.0000E+00  0.0000E+00  0.1920E+03  0.1920E+03
    -41.206  0.0000E+00  0.0000E+00  0.1920E+03  0.1920E+03
    -40.966  0.0000E+00  0.0000E+00  0.1920E+03  0.1920E+03
    -40.725  0.0000E+00  0.0000E+00  0.1920E+03  0.1920E+03
    -40.485  0.0000E+00  0.0000E+00  0.1920E+03  0.1920E+03
    -40.244  0.0000E+00  0.0000E+00  0.1920E+03  0.1920E+03
    -40.004  0.0000E+00  0.0000E+00  0.1920E+03  0.1920E+03
    -39.764  0.9593E-02  0.8707E-02  0.1920E+03  0.1920E+03
    -39.523  0.2644E+03  0.2643E+03  0.2556E+03  0.2556E+03
    -39.283  0.1755E+01  0.1856E+01  0.2560E+03  0.2560E+03
    -39.042  0.0000E+00  0.0000E+00  0.2560E+03  0.2560E+03
    -38.802  0.0000E+00  0.0000E+00  0.2560E+03  0.2560E+03
    -38.562  0.0000E+00  0.0000E+00  0.2560E+03  0.2560E+03
    -38.321  0.0000E+00  0.0000E+00  0.2560E+03  0.2560E+03
    -38.081  0.0000E+00  0.0000E+00  0.2560E+03  0.2560E+03
    -37.840  0.0000E+00  0.0000E+00  0.2560E+03  0.2560E+03
    -37.600  0.0000E+00  0.0000E+00  0.2560E+03  0.2560E+03
    -37.359  0.0000E+00  0.0000E+00  0.2560E+03  0.2560E+03
    -37.119  0.0000E+00  0.0000E+00  0.2560E+03  0.2560E+03
    -36.879  0.0000E+00  0.0000E+00  0.2560E+03  0.2560E+03
    -36.638  0.0000E+00  0.0000E+00  0.2560E+03  0.2560E+03
    -36.398  0.0000E+00  0.0000E+00  0.2560E+03  0.2560E+03
    -36.157  0.0000E+00  0.0000E+00  0.2560E+03  0.2560E+03
    -35.917  0.0000E+00  0.0000E+00  0.2560E+03  0.2560E+03
    -35.676  0.0000E+00  0.0000E+00  0.2560E+03  0.2560E+03
    -35.436  0.0000E+00  0.0000E+00  0.2560E+03  0.2560E+03
    -35.196  0.0000E+00  0.0000E+00  0.2560E+03  0.2560E+03
    -34.955  0.0000E+00  0.0000E+00  0.2560E+03  0.2560E+03
    -34.715  0.0000E+00  0.0000E+00  0.2560E+03  0.2560E+03
    -34.474  0.0000E+00  0.0000E+00  0.2560E+03  0.2560E+03
    -34.234  0.0000E+00  0.0000E+00  0.2560E+03  0.2560E+03
    -33.993  0.0000E+00  0.0000E+00  0.2560E+03  0.2560E+03
    -33.753  0.0000E+00  0.0000E+00  0.2560E+03  0.2560E+03
    -33.513  0.0000E+00  0.0000E+00  0.2560E+03  0.2560E+03
    -33.272  0.0000E+00  0.0000E+00  0.2560E+03  0.2560E+03
    -33.032  0.0000E+00  0.0000E+00  0.2560E+03  0.2560E+03
    -32.791  0.0000E+00  0.0000E+00  0.2560E+03  0.2560E+03
    -32.551  0.0000E+00  0.0000E+00  0.2560E+03  0.2560E+03
    -32.310  0.0000E+00  0.0000E+00  0.2560E+03  0.2560E+03
    -32.070  0.0000E+00  0.0000E+00  0.2560E+03  0.2560E+03
    -31.830  0.0000E+00  0.0000E+00  0.2560E+03  0.2560E+03
    -31.589  0.0000E+00  0.0000E+00  0.2560E+03  0.2560E+03
    -31.349  0.0000E+00  0.0000E+00  0.2560E+03  0.2560E+03
    -31.108  0.0000E+00  0.0000E+00  0.2560E+03  0.2560E+03
    -30.868  0.0000E+00  0.0000E+00  0.2560E+03  0.2560E+03
    -30.627  0.0000E+00  0.0000E+00  0.2560E+03  0.2560E+03
    -30.387  0.0000E+00  0.0000E+00  0.2560E+03  0.2560E+03
    -30.147  0.0000E+00  0.0000E+00  0.2560E+03  0.2560E+03
    -29.906  0.0000E+00  0.0000E+00  0.2560E+03  0.2560E+03
    -29.666  0.0000E+00  0.0000E+00  0.2560E+03  0.2560E+03
    -29.425  0.0000E+00  0.0000E+00  0.2560E+03  0.2560E+03
    -29.185  0.0000E+00  0.0000E+00  0.2560E+03  0.2560E+03
    -28.944  0.0000E+00  0.0000E+00  0.2560E+03  0.2560E+03
    -28.704  0.0000E+00  0.0000E+00  0.2560E+03  0.2560E+03
    -28.464  0.0000E+00  0.0000E+00  0.2560E+03  0.2560E+03
    -28.223  0.0000E+00  0.0000E+00  0.2560E+03  0.2560E+03
    -27.983  0.0000E+00  0.0000E+00  0.2560E+03  0.2560E+03
    -27.742  0.0000E+00  0.0000E+00  0.2560E+03  0.2560E+03
    -27.502  0.0000E+00  0.0000E+00  0.2560E+03  0.2560E+03
    -27.261  0.0000E+00  0.0000E+00  0.2560E+03  0.2560E+03
    -27.021  0.0000E+00  0.0000E+00  0.2560E+03  0.2560E+03
    -26.781  0.0000E+00  0.0000E+00  0.2560E+03  0.2560E+03
    -26.540  0.0000E+00  0.0000E+00  0.2560E+03  0.2560E+03
    -26.300  0.0000E+00  0.0000E+00  0.2560E+03  0.2560E+03
    -26.059  0.0000E+00  0.0000E+00  0.2560E+03  0.2560E+03
    -25.819  0.0000E+00  0.0000E+00  0.2560E+03  0.2560E+03
    -25.578  0.0000E+00  0.0000E+00  0.2560E+03  0.2560E+03
    -25.338  0.0000E+00  0.0000E+00  0.2560E+03  0.2560E+03
    -25.098  0.0000E+00  0.0000E+00  0.2560E+03  0.2560E+03
    -24.857  0.0000E+00  0.0000E+00  0.2560E+03  0.2560E+03
    -24.617  0.0000E+00  0.0000E+00  0.2560E+03  0.2560E+03
    -24.376  0.0000E+00  0.0000E+00  0.2560E+03  0.2560E+03
    -24.136  0.0000E+00  0.0000E+00  0.2560E+03  0.2560E+03
    -23.895  0.0000E+00  0.0000E+00  0.2560E+03  0.2560E+03
    -23.655  0.0000E+00  0.0000E+00  0.2560E+03  0.2560E+03
    -23.415  0.0000E+00  0.0000E+00  0.2560E+03  0.2560E+03
    -23.174  0.0000E+00  0.0000E+00  0.2560E+03  0.2560E+03
    -22.934  0.0000E+00  0.0000E+00  0.2560E+03  0.2560E+03
    -22.693  0.0000E+00  0.0000E+00  0.2560E+03  0.2560E+03
    -22.453  0.0000E+00  0.0000E+00  0.2560E+03  0.2560E+03
    -22.212  0.0000E+00  0.0000E+00  0.2560E+03  0.2560E+03
    -21.972  0.0000E+00  0.0000E+00  0.2560E+03  0.2560E+03
    -21.732  0.0000E+00  0.0000E+00  0.2560E+03  0.2560E+03
    -21.491  0.0000E+00  0.0000E+00  0.2560E+03  0.2560E+03
    -21.251  0.0000E+00  0.0000E+00  0.2560E+03  0.2560E+03
    -21.010  0.0000E+00  0.0000E+00  0.2560E+03  0.2560E+03
    -20.770  0.0000E+00  0.0000E+00  0.2560E+03  0.2560E+03
    -20.529  0.0000E+00  0.0000E+00  0.2560E+03  0.2560E+03
    -20.289  0.0000E+00  0.0000E+00  0.2560E+03  0.2560E+03
    -20.049  0.0000E+00  0.0000E+00  0.2560E+03  0.2560E+03
    -19.808  0.0000E+00  0.0000E+00  0.2560E+03  0.2560E+03
    -19.568  0.0000E+00  0.0000E+00  0.2560E+03  0.2560E+03
    -19.327  0.0000E+00  0.0000E+00  0.2560E+03  0.2560E+03
    -19.087  0.0000E+00  0.0000E+00  0.2560E+03  0.2560E+03
    -18.846  0.0000E+00  0.0000E+00  0.2560E+03  0.2560E+03
    -18.606  0.0000E+00  0.0000E+00  0.2560E+03  0.2560E+03
    -18.366  0.0000E+00  0.0000E+00  0.2560E+03  0.2560E+03
    -18.125  0.0000E+00  0.0000E+00  0.2560E+03  0.2560E+03
    -17.885  0.0000E+00  0.0000E+00  0.2560E+03  0.2560E+03
    -17.644  0.0000E+00  0.0000E+00  0.2560E+03  0.2560E+03
    -17.404  0.0000E+00  0.0000E+00  0.2560E+03  0.2560E+03
    -17.163  0.0000E+00  0.0000E+00  0.2560E+03  0.2560E+03
    -16.923  0.0000E+00  0.0000E+00  0.2560E+03  0.2560E+03
    -16.683  0.0000E+00  0.0000E+00  0.2560E+03  0.2560E+03
    -16.442  0.0000E+00  0.0000E+00  0.2560E+03  0.2560E+03
    -16.202  0.0000E+00  0.0000E+00  0.2560E+03  0.2560E+03
    -15.961  0.0000E+00  0.0000E+00  0.2560E+03  0.2560E+03
    -15.721  0.0000E+00  0.0000E+00  0.2560E+03  0.2560E+03
    -15.480  0.0000E+00  0.0000E+00  0.2560E+03  0.2560E+03
    -15.240  0.0000E+00  0.0000E+00  0.2560E+03  0.2560E+03
    -15.000  0.0000E+00  0.0000E+00  0.2560E+03  0.2560E+03
    -14.759  0.0000E+00  0.0000E+00  0.2560E+03  0.2560E+03
    -14.519  0.0000E+00  0.0000E+00  0.2560E+03  0.2560E+03
    -14.278  0.0000E+00  0.0000E+00  0.2560E+03  0.2560E+03
    -14.038  0.0000E+00  0.0000E+00  0.2560E+03  0.2560E+03
    -13.797  0.0000E+00  0.0000E+00  0.2560E+03  0.2560E+03
    -13.557  0.0000E+00  0.0000E+00  0.2560E+03  0.2560E+03
    -13.317  0.0000E+00  0.0000E+00  0.2560E+03  0.2560E+03
    -13.076  0.0000E+00  0.0000E+00  0.2560E+03  0.2560E+03
    -12.836  0.6099E-01  0.0000E+00  0.2560E+03  0.2560E+03
    -12.595  0.1318E+03  0.1108E-02  0.2877E+03  0.2560E+03
    -12.355  0.1246E+01  0.1224E+03  0.2880E+03  0.2854E+03
    -12.114  0.0000E+00  0.1068E+02  0.2880E+03  0.2880E+03
    -11.874  0.0000E+00  0.0000E+00  0.2880E+03  0.2880E+03
    -11.634  0.0000E+00  0.0000E+00  0.2880E+03  0.2880E+03
    -11.393  0.0000E+00  0.0000E+00  0.2880E+03  0.2880E+03
    -11.153  0.0000E+00  0.0000E+00  0.2880E+03  0.2880E+03
    -10.912  0.0000E+00  0.0000E+00  0.2880E+03  0.2880E+03
    -10.672  0.0000E+00  0.0000E+00  0.2880E+03  0.2880E+03
    -10.431  0.0000E+00  0.0000E+00  0.2880E+03  0.2880E+03
    -10.191  0.0000E+00  0.0000E+00  0.2880E+03  0.2880E+03
     -9.951  0.0000E+00  0.0000E+00  0.2880E+03  0.2880E+03
     -9.710  0.0000E+00  0.0000E+00  0.2880E+03  0.2880E+03
     -9.470  0.0000E+00  0.0000E+00  0.2880E+03  0.2880E+03
     -9.229  0.0000E+00  0.0000E+00  0.2880E+03  0.2880E+03
     -8.989  0.0000E+00  0.0000E+00  0.2880E+03  0.2880E+03
     -8.748  0.0000E+00  0.0000E+00  0.2880E+03  0.2880E+03
     -8.508  0.0000E+00  0.0000E+00  0.2880E+03  0.2880E+03
     -8.268  0.0000E+00  0.0000E+00  0.2880E+03  0.2880E+03
     -8.027  0.3423E-10  0.0000E+00  0.2880E+03  0.2880E+03
     -7.787  0.8761E+00  0.2946E-07  0.2882E+03  0.2880E+03
     -7.546  0.1874E+02  0.2719E+01  0.2927E+03  0.2887E+03
     -7.306  0.2804E+02  0.2216E+02  0.2995E+03  0.2940E+03
     -7.065  0.5326E+02  0.3093E+02  0.3123E+03  0.3014E+03
     -6.825  0.1469E+03  0.4883E+02  0.3476E+03  0.3132E+03
     -6.585  0.1840E+02  0.1388E+03  0.3520E+03  0.3465E+03
     -6.344  0.0000E+00  0.2272E+02  0.3520E+03  0.3520E+03
     -6.104  0.0000E+00  0.1450E-04  0.3520E+03  0.3520E+03
     -5.863  0.0000E+00  0.0000E+00  0.3520E+03  0.3520E+03
     -5.623  0.0000E+00  0.0000E+00  0.3520E+03  0.3520E+03
     -5.382  0.0000E+00  0.0000E+00  0.3520E+03  0.3520E+03
     -5.142  0.0000E+00  0.0000E+00  0.3520E+03  0.3520E+03
     -4.902  0.0000E+00  0.0000E+00  0.3520E+03  0.3520E+03
     -4.661  0.0000E+00  0.0000E+00  0.3520E+03  0.3520E+03
     -4.421  0.0000E+00  0.0000E+00  0.3520E+03  0.3520E+03
     -4.180  0.0000E+00  0.0000E+00  0.3520E+03  0.3520E+03
     -3.940  0.0000E+00  0.0000E+00  0.3520E+03  0.3520E+03
     -3.699  0.0000E+00  0.0000E+00  0.3520E+03  0.3520E+03
     -3.459  0.0000E+00  0.0000E+00  0.3520E+03  0.3520E+03
     -3.219  0.0000E+00  0.0000E+00  0.3520E+03  0.3520E+03
     -2.978  0.0000E+00  0.0000E+00  0.3520E+03  0.3520E+03
     -2.738  0.0000E+00  0.0000E+00  0.3520E+03  0.3520E+03
     -2.497  0.0000E+00  0.0000E+00  0.3520E+03  0.3520E+03
     -2.257  0.0000E+00  0.0000E+00  0.3520E+03  0.3520E+03
     -2.016  0.0000E+00  0.0000E+00  0.3520E+03  0.3520E+03
     -1.776  0.3895E-12  0.0000E+00  0.3520E+03  0.3520E+03
     -1.536  0.1179E+01  0.0000E+00  0.3523E+03  0.3520E+03
     -1.295  0.9946E+02  0.0000E+00  0.3762E+03  0.3520E+03
     -1.055  0.3246E+02  0.0000E+00  0.3840E+03  0.3520E+03
     -0.814  0.1230E+02  0.0000E+00  0.3870E+03  0.3520E+03
     -0.574  0.8905E+02  0.6869E-05  0.4084E+03  0.3520E+03
     -0.333  0.2231E+03  0.3989E+01  0.4620E+03  0.3530E+03
     -0.093  0.2020E+03  0.2473E+02  0.5106E+03  0.3589E+03
      0.147  0.1769E+03  0.4093E+02  0.5531E+03  0.3687E+03
      0.388  0.1519E+03  0.4225E+02  0.5896E+03  0.3789E+03
      0.628  0.1200E+03  0.7182E+02  0.6185E+03  0.3962E+03
      0.869  0.5456E+02  0.6069E+02  0.6316E+03  0.4108E+03
      1.109  0.6941E+02  0.6517E+02  0.6483E+03  0.4264E+03
      1.350  0.7362E+02  0.6769E+02  0.6660E+03  0.4427E+03
      1.590  0.6800E+02  0.7762E+02  0.6823E+03  0.4614E+03
      1.830  0.1103E+03  0.1109E+03  0.7088E+03  0.4880E+03
      2.071  0.2136E+03  0.6253E+02  0.7602E+03  0.5031E+03
      2.311  0.1400E+03  0.3773E+02  0.7938E+03  0.5121E+03
      2.552  0.8458E+02  0.7734E+02  0.8142E+03  0.5307E+03
      2.792  0.6876E+02  0.1039E+03  0.8307E+03  0.5557E+03
      3.033  0.3537E+02  0.7080E+02  0.8392E+03  0.5727E+03
      3.273  0.4036E+02  0.1312E+03  0.8489E+03  0.6043E+03
      3.513  0.5193E+02  0.1176E+03  0.8614E+03  0.6325E+03
      3.754  0.6739E+02  0.2515E+02  0.8776E+03  0.6386E+03
      3.994  0.7966E+02  0.4383E+02  0.8968E+03  0.6491E+03
      4.235  0.8011E+02  0.1785E+03  0.9160E+03  0.6920E+03
      4.475  0.7583E+02  0.4804E+02  0.9343E+03  0.7036E+03
      4.716  0.2872E+02  0.1680E+01  0.9412E+03  0.7040E+03
      4.956  0.6463E+02  0.0000E+00  0.9567E+03  0.7040E+03
      5.196  0.1374E+02  0.0000E+00  0.9600E+03  0.7040E+03
      5.437  0.0000E+00  0.0000E+00  0.9600E+03  0.7040E+03
      5.677  0.0000E+00  0.0000E+00  0.9600E+03  0.7040E+03
      5.918  0.0000E+00  0.0000E+00  0.9600E+03  0.7040E+03
      6.158  0.0000E+00  0.8502E-07  0.9600E+03  0.7040E+03
      6.399  0.0000E+00  0.1030E+01  0.9600E+03  0.7042E+03
      6.639  0.0000E+00  0.1012E+02  0.9600E+03  0.7067E+03
      6.879  0.0000E+00  0.2651E+02  0.9600E+03  0.7131E+03
      7.120  0.2886E-16  0.6584E+02  0.9600E+03  0.7289E+03
      7.360  0.5905E-01  0.1114E+03  0.9600E+03  0.7557E+03
      7.601  0.1501E+01  0.1393E+03  0.9604E+03  0.7891E+03
      7.841  0.5140E+01  0.1182E+03  0.9616E+03  0.8176E+03
      8.082  0.7087E+01  0.1786E+03  0.9633E+03  0.8605E+03
      8.322  0.9296E+01  0.1458E+03  0.9655E+03  0.8956E+03
      8.562  0.1252E+02  0.6199E+02  0.9686E+03  0.9105E+03
      8.803  0.1449E+02  0.8255E+02  0.9720E+03  0.9303E+03
      9.043  0.2713E+02  0.7295E+02  0.9786E+03  0.9479E+03
      9.284  0.3348E+02  0.5734E+02  0.9866E+03  0.9616E+03
      9.524  0.3540E+02  0.2315E+02  0.9951E+03  0.9672E+03
      9.765  0.5318E+02  0.3404E+02  0.1008E+04  0.9754E+03
     10.005  0.5116E+02  0.2268E+02  0.1020E+04  0.9808E+03
     10.245  0.3385E+02  0.3878E+02  0.1028E+04  0.9902E+03
     10.486  0.2157E+02  0.4338E+02  0.1034E+04  0.1001E+04
     10.726  0.4556E+02  0.6113E+02  0.1044E+04  0.1015E+04
     10.967  0.3307E+02  0.4343E+02  0.1052E+04  0.1026E+04
     11.207  0.4364E+02  0.4018E+02  0.1063E+04  0.1035E+04
     11.448  0.7798E+02  0.3452E+02  0.1082E+04  0.1044E+04
     11.688  0.4279E+02  0.4375E+02  0.1092E+04  0.1054E+04
     11.928  0.6451E+02  0.5198E+02  0.1107E+04  0.1067E+04
     12.169  0.6672E+02  0.5741E+02  0.1124E+04  0.1081E+04
     12.409  0.6921E+02  0.5326E+02  0.1140E+04  0.1093E+04
     12.650  0.6096E+02  0.6697E+02  0.1155E+04  0.1109E+04
     12.890  0.5271E+02  0.7972E+02  0.1167E+04  0.1129E+04
     13.131  0.5849E+02  0.6453E+02  0.1182E+04  0.1144E+04
     13.371  0.4845E+02  0.6631E+02  0.1193E+04  0.1160E+04
     13.611  0.4022E+02  0.6458E+02  0.1203E+04  0.1176E+04
     13.852  0.1876E+02  0.5723E+02  0.1207E+04  0.1189E+04
     14.092  0.2570E+01  0.5307E+02  0.1208E+04  0.1202E+04
     14.333  0.0000E+00  0.2146E+02  0.1208E+04  0.1207E+04
     14.573  0.0000E+00  0.3089E+01  0.1208E+04  0.1208E+04
     14.814  0.0000E+00  0.3921E-05  0.1208E+04  0.1208E+04
     15.054  0.0000E+00  0.0000E+00  0.1208E+04  0.1208E+04
     15.294  0.0000E+00  0.0000E+00  0.1208E+04  0.1208E+04
     15.535  0.0000E+00  0.0000E+00  0.1208E+04  0.1208E+04
     15.775  0.0000E+00  0.0000E+00  0.1208E+04  0.1208E+04
     16.016  0.0000E+00  0.0000E+00  0.1208E+04  0.1208E+04
     16.256  0.0000E+00  0.0000E+00  0.1208E+04  0.1208E+04
     16.497  0.0000E+00  0.0000E+00  0.1208E+04  0.1208E+04
     16.737  0.0000E+00  0.0000E+00  0.1208E+04  0.1208E+04
     16.977  0.0000E+00  0.0000E+00  0.1208E+04  0.1208E+04
     17.218  0.0000E+00  0.0000E+00  0.1208E+04  0.1208E+04
     17.458  0.0000E+00  0.0000E+00  0.1208E+04  0.1208E+04
     17.699  0.0000E+00  0.0000E+00  0.1208E+04  0.1208E+04
