  224  224    1    2
  0.1357572E+02  0.1537960E-08  0.1537962E-08  0.1395899E-08  0.5000000E-15
  1.000000000000000E-004
  CAR 
 unknown system                          
   1664      8   1208
 
  0.0000000E+00  0.0000000E+00  0.0000000E+00  0.1250000E+00
    1      -51.151199    -46.397837   1.000000   1.000000
    2      -51.142949    -46.391857   1.000000   1.000000
    3      -51.141796    -46.391192   1.000000   1.000000
    4      -51.141637    -46.390898   1.000000   1.000000
    5      -51.141586    -46.390752   1.000000   1.000000
    6      -51.141460    -46.390740   1.000000   1.000000
    7      -51.141388    -46.390624   1.000000   1.000000
    8      -51.141311    -46.390484   1.000000   1.000000
    9      -51.141218    -46.390457   1.000000   1.000000
   10      -51.141209    -46.390338   1.000000   1.000000
   11      -51.141144    -46.390263   1.000000   1.000000
   12      -51.141069    -46.390167   1.000000   1.000000
   13      -51.141017    -46.390134   1.000000   1.000000
   14      -51.140993    -46.390057   1.000000   1.000000
   15      -51.140959    -46.390031   1.000000   1.000000
   16      -51.140934    -46.390017   1.000000   1.000000
   17      -51.140889    -46.389991   1.000000   1.000000
   18      -51.140862    -46.389966   1.000000   1.000000
   19      -51.140800    -46.389878   1.000000   1.000000
   20      -51.140786    -46.389831   1.000000   1.000000
   21      -51.140756    -46.389798   1.000000   1.000000
   22      -51.140738    -46.389782   1.000000   1.000000
   23      -51.140693    -46.389708   1.000000   1.000000
   24      -51.140685    -46.389701   1.000000   1.000000
   25      -51.140643    -46.389666   1.000000   1.000000
   26      -51.140602    -46.389614   1.000000   1.000000
   27      -51.140581    -46.389563   1.000000   1.000000
   28      -51.140535    -46.389543   1.000000   1.000000
   29      -51.140452    -46.389471   1.000000   1.000000
   30      -51.140434    -46.389452   1.000000   1.000000
   31      -51.140404    -46.389352   1.000000   1.000000
   32      -51.140372    -46.389216   1.000000   1.000000
   33      -51.140287    -46.389162   1.000000   1.000000
   34      -51.140254    -46.389023   1.000000   1.000000
   35      -51.140234    -46.389007   1.000000   1.000000
   36      -51.140211    -46.388989   1.000000   1.000000
   37      -51.140196    -46.388957   1.000000   1.000000
   38      -51.140107    -46.388875   1.000000   1.000000
   39      -51.140085    -46.388854   1.000000   1.000000
   40      -51.140082    -46.388834   1.000000   1.000000
   41      -51.140074    -46.388817   1.000000   1.000000
   42      -51.140047    -46.388807   1.000000   1.000000
   43      -51.140015    -46.388737   1.000000   1.000000
   44      -51.139972    -46.388700   1.000000   1.000000
   45      -51.139946    -46.388681   1.000000   1.000000
   46      -51.139926    -46.388664   1.000000   1.000000
   47      -51.139901    -46.388637   1.000000   1.000000
   48      -51.139867    -46.388616   1.000000   1.000000
   49      -51.139853    -46.388582   1.000000   1.000000
   50      -51.139802    -46.388530   1.000000   1.000000
   51      -51.139766    -46.388475   1.000000   1.000000
   52      -51.139751    -46.388458   1.000000   1.000000
   53      -51.139690    -46.388404   1.000000   1.000000
   54      -51.139657    -46.388387   1.000000   1.000000
   55      -51.139616    -46.388245   1.000000   1.000000
   56      -51.139536    -46.388168   1.000000   1.000000
   57      -51.139514    -46.388071   1.000000   1.000000
   58      -51.139460    -46.387986   1.000000   1.000000
   59      -51.139260    -46.387932   1.000000   1.000000
   60      -51.139252    -46.387746   1.000000   1.000000
   61      -51.138862    -46.387574   1.000000   1.000000
   62      -51.138783    -46.387554   1.000000   1.000000
   63      -51.138488    -46.387164   1.000000   1.000000
   64      -51.137244    -46.386094   1.000000   1.000000
   65      -49.655372    -45.935688   1.000000   1.000000
   66      -49.654385    -45.934922   1.000000   1.000000
   67      -49.648892    -45.930388   1.000000   1.000000
   68      -49.648250    -45.929794   1.000000   1.000000
   69      -49.647924    -45.929357   1.000000   1.000000
   70      -49.647730    -45.929240   1.000000   1.000000
   71      -49.647722    -45.929184   1.000000   1.000000
   72      -49.647607    -45.929043   1.000000   1.000000
   73      -49.647558    -45.929023   1.000000   1.000000
   74      -49.647509    -45.928979   1.000000   1.000000
   75      -49.647475    -45.928966   1.000000   1.000000
   76      -49.647463    -45.928850   1.000000   1.000000
   77      -49.647432    -45.928811   1.000000   1.000000
   78      -49.647400    -45.928799   1.000000   1.000000
   79      -49.647363    -45.928746   1.000000   1.000000
   80      -49.647335    -45.928669   1.000000   1.000000
   81      -49.647282    -45.928634   1.000000   1.000000
   82      -49.647257    -45.928609   1.000000   1.000000
   83      -49.647231    -45.928534   1.000000   1.000000
   84      -49.647206    -45.928533   1.000000   1.000000
   85      -49.647177    -45.928483   1.000000   1.000000
   86      -49.647164    -45.928468   1.000000   1.000000
   87      -49.647162    -45.928451   1.000000   1.000000
   88      -49.647136    -45.928431   1.000000   1.000000
   89      -49.647098    -45.928404   1.000000   1.000000
   90      -49.647089    -45.928384   1.000000   1.000000
   91      -49.647086    -45.928364   1.000000   1.000000
   92      -49.647065    -45.928343   1.000000   1.000000
   93      -49.647031    -45.928313   1.000000   1.000000
   94      -49.646993    -45.928303   1.000000   1.000000
   95      -49.646917    -45.928229   1.000000   1.000000
   96      -49.646874    -45.928227   1.000000   1.000000
   97      -49.646834    -45.928159   1.000000   1.000000
   98      -49.646793    -45.928142   1.000000   1.000000
   99      -49.646758    -45.928084   1.000000   1.000000
  100      -49.646707    -45.928050   1.000000   1.000000
  101      -49.646654    -45.928008   1.000000   1.000000
  102      -49.646627    -45.927968   1.000000   1.000000
  103      -49.646597    -45.927960   1.000000   1.000000
  104      -49.646576    -45.927926   1.000000   1.000000
  105      -49.646527    -45.927909   1.000000   1.000000
  106      -49.646457    -45.927903   1.000000   1.000000
  107      -49.646432    -45.927855   1.000000   1.000000
  108      -49.646361    -45.927812   1.000000   1.000000
  109      -49.646305    -45.927774   1.000000   1.000000
  110      -49.646265    -45.927765   1.000000   1.000000
  111      -49.646257    -45.927722   1.000000   1.000000
  112      -49.646213    -45.927684   1.000000   1.000000
  113      -49.646203    -45.927655   1.000000   1.000000
  114      -49.646154    -45.927613   1.000000   1.000000
  115      -49.646081    -45.927599   1.000000   1.000000
  116      -49.646025    -45.927524   1.000000   1.000000
  117      -49.645992    -45.927486   1.000000   1.000000
  118      -49.645962    -45.927473   1.000000   1.000000
  119      -49.645941    -45.927424   1.000000   1.000000
  120      -49.645918    -45.927367   1.000000   1.000000
  121      -49.645879    -45.927355   1.000000   1.000000
  122      -49.645807    -45.927301   1.000000   1.000000
  123      -49.645773    -45.927274   1.000000   1.000000
  124      -49.645706    -45.927257   1.000000   1.000000
  125      -49.645680    -45.927249   1.000000   1.000000
  126      -49.645668    -45.927234   1.000000   1.000000
  127      -49.645617    -45.927202   1.000000   1.000000
  128      -49.645591    -45.927152   1.000000   1.000000
  129      -49.645568    -45.927146   1.000000   1.000000
  130      -49.645519    -45.927127   1.000000   1.000000
  131      -49.645505    -45.927112   1.000000   1.000000
  132      -49.645501    -45.927078   1.000000   1.000000
  133      -49.645456    -45.927050   1.000000   1.000000
  134      -49.645400    -45.927035   1.000000   1.000000
  135      -49.645390    -45.927014   1.000000   1.000000
  136      -49.645349    -45.927004   1.000000   1.000000
  137      -49.645342    -45.926955   1.000000   1.000000
  138      -49.645307    -45.926948   1.000000   1.000000
  139      -49.645254    -45.926941   1.000000   1.000000
  140      -49.645250    -45.926882   1.000000   1.000000
  141      -49.645219    -45.926850   1.000000   1.000000
  142      -49.645191    -45.926840   1.000000   1.000000
  143      -49.645163    -45.926793   1.000000   1.000000
  144      -49.645154    -45.926781   1.000000   1.000000
  145      -49.645135    -45.926780   1.000000   1.000000
  146      -49.645119    -45.926726   1.000000   1.000000
  147      -49.645079    -45.926711   1.000000   1.000000
  148      -49.645068    -45.926696   1.000000   1.000000
  149      -49.645035    -45.926687   1.000000   1.000000
  150      -49.645016    -45.926635   1.000000   1.000000
  151      -49.644938    -45.926631   1.000000   1.000000
  152      -49.644847    -45.926626   1.000000   1.000000
  153      -49.644840    -45.926581   1.000000   1.000000
  154      -49.644809    -45.926531   1.000000   1.000000
  155      -49.644765    -45.926523   1.000000   1.000000
  156      -49.644744    -45.926515   1.000000   1.000000
  157      -49.644731    -45.926495   1.000000   1.000000
  158      -49.644728    -45.926475   1.000000   1.000000
  159      -49.644716    -45.926438   1.000000   1.000000
  160      -49.644625    -45.926433   1.000000   1.000000
  161      -49.644595    -45.926360   1.000000   1.000000
  162      -49.644551    -45.926340   1.000000   1.000000
  163      -49.644521    -45.926331   1.000000   1.000000
  164      -49.644506    -45.926310   1.000000   1.000000
  165      -49.644490    -45.926295   1.000000   1.000000
  166      -49.644475    -45.926275   1.000000   1.000000
  167      -49.644356    -45.926269   1.000000   1.000000
  168      -49.644351    -45.926220   1.000000   1.000000
  169      -49.644343    -45.926169   1.000000   1.000000
  170      -49.644311    -45.926155   1.000000   1.000000
  171      -49.644264    -45.926094   1.000000   1.000000
  172      -49.644230    -45.926093   1.000000   1.000000
  173      -49.644205    -45.926050   1.000000   1.000000
  174      -49.644178    -45.926025   1.000000   1.000000
  175      -49.644138    -45.926012   1.000000   1.000000
  176      -49.644038    -45.926005   1.000000   1.000000
  177      -49.644035    -45.925918   1.000000   1.000000
  178      -49.644002    -45.925903   1.000000   1.000000
  179      -49.643951    -45.925879   1.000000   1.000000
  180      -49.643924    -45.925792   1.000000   1.000000
  181      -49.643914    -45.925759   1.000000   1.000000
  182      -49.643894    -45.925691   1.000000   1.000000
  183      -49.643742    -45.925674   1.000000   1.000000
  184      -49.643673    -45.925667   1.000000   1.000000
  185      -49.643604    -45.925548   1.000000   1.000000
  186      -49.643589    -45.925442   1.000000   1.000000
  187      -49.643463    -45.925283   1.000000   1.000000
  188      -49.643445    -45.925136   1.000000   1.000000
  189      -49.642962    -45.925058   1.000000   1.000000
  190      -49.642931    -45.924764   1.000000   1.000000
  191      -49.642784    -45.924371   1.000000   1.000000
  192      -49.641718    -45.923512   1.000000   1.000000
  193      -39.641455    -39.640538   1.000000   1.000000
  194      -39.640413    -39.639496   1.000000   1.000000
  195      -39.633978    -39.633105   1.000000   1.000000
  196      -39.633847    -39.632975   1.000000   1.000000
  197      -39.633757    -39.632884   1.000000   1.000000
  198      -39.633603    -39.632729   1.000000   1.000000
  199      -39.633236    -39.632364   1.000000   1.000000
  200      -39.632947    -39.632075   1.000000   1.000000
  201      -39.632845    -39.631973   1.000000   1.000000
  202      -39.631808    -39.630938   1.000000   1.000000
  203      -39.628188    -39.627350   1.000000   1.000000
  204      -39.628181    -39.627343   1.000000   1.000000
  205      -39.628149    -39.627311   1.000000   1.000000
  206      -39.628065    -39.627227   1.000000   1.000000
  207      -39.627405    -39.626567   1.000000   1.000000
  208      -39.627099    -39.626261   1.000000   1.000000
  209      -39.626878    -39.626040   1.000000   1.000000
  210      -39.626077    -39.625238   1.000000   1.000000
  211      -39.616502    -39.615726   1.000000   1.000000
  212      -39.616420    -39.615644   1.000000   1.000000
  213      -39.616128    -39.615351   1.000000   1.000000
  214      -39.616021    -39.615243   1.000000   1.000000
  215      -39.615757    -39.614988   1.000000   1.000000
  216      -39.615721    -39.614947   1.000000   1.000000
  217      -39.615692    -39.614925   1.000000   1.000000
  218      -39.615680    -39.614905   1.000000   1.000000
  219      -39.615610    -39.614843   1.000000   1.000000
  220      -39.615550    -39.614783   1.000000   1.000000
  221      -39.615322    -39.614545   1.000000   1.000000
  222      -39.615294    -39.614525   1.000000   1.000000
  223      -39.615289    -39.614518   1.000000   1.000000
  224      -39.615249    -39.614471   1.000000   1.000000
  225      -39.615206    -39.614437   1.000000   1.000000
  226      -39.615205    -39.614435   1.000000   1.000000
  227      -39.615003    -39.614235   1.000000   1.000000
  228      -39.614912    -39.614145   1.000000   1.000000
  229      -39.614687    -39.613923   1.000000   1.000000
  230      -39.614650    -39.613890   1.000000   1.000000
  231      -39.614604    -39.613840   1.000000   1.000000
  232      -39.614570    -39.613810   1.000000   1.000000
  233      -39.614292    -39.613526   1.000000   1.000000
  234      -39.614243    -39.613475   1.000000   1.000000
  235      -39.614205    -39.613437   1.000000   1.000000
  236      -39.613461    -39.612692   1.000000   1.000000
  237      -39.612433    -39.611667   1.000000   1.000000
  238      -39.610827    -39.610063   1.000000   1.000000
  239      -39.604276    -39.603557   1.000000   1.000000
  240      -39.604233    -39.603514   1.000000   1.000000
  241      -39.604193    -39.603474   1.000000   1.000000
  242      -39.604144    -39.603425   1.000000   1.000000
  243      -39.603408    -39.602689   1.000000   1.000000
  244      -39.603149    -39.602430   1.000000   1.000000
  245      -39.602911    -39.602192   1.000000   1.000000
  246      -39.602515    -39.601795   1.000000   1.000000
  247      -39.600111    -39.599406   1.000000   1.000000
  248      -39.599981    -39.599275   1.000000   1.000000
  249      -39.599895    -39.599190   1.000000   1.000000
  250      -39.599766    -39.599060   1.000000   1.000000
  251      -39.599368    -39.598662   1.000000   1.000000
  252      -39.598929    -39.598222   1.000000   1.000000
  253      -39.598357    -39.597651   1.000000   1.000000
  254      -39.597242    -39.596536   1.000000   1.000000
  255      -39.593664    -39.592981   1.000000   1.000000
  256      -39.591829    -39.591144   1.000000   1.000000
  257      -12.747608    -12.468134   1.000000   1.000000
  258      -12.746557    -12.467055   1.000000   1.000000
  259      -12.720038    -12.440211   1.000000   1.000000
  260      -12.719749    -12.440019   1.000000   1.000000
  261      -12.719661    -12.439940   1.000000   1.000000
  262      -12.719501    -12.439758   1.000000   1.000000
  263      -12.719238    -12.439480   1.000000   1.000000
  264      -12.718866    -12.439092   1.000000   1.000000
  265      -12.718674    -12.438890   1.000000   1.000000
  266      -12.717920    -12.438096   1.000000   1.000000
  267      -12.697208    -12.417034   1.000000   1.000000
  268      -12.697054    -12.416888   1.000000   1.000000
  269      -12.695293    -12.415667   1.000000   1.000000
  270      -12.695041    -12.415444   1.000000   1.000000
  271      -12.694185    -12.414552   1.000000   1.000000
  272      -12.694079    -12.414437   1.000000   1.000000
  273      -12.692322    -12.413151   1.000000   1.000000
  274      -12.692234    -12.413121   1.000000   1.000000
  275      -12.691703    -12.411701   1.000000   1.000000
  276      -12.691534    -12.411513   1.000000   1.000000
  277      -12.690441    -12.410403   1.000000   1.000000
  278      -12.690404    -12.410356   1.000000   1.000000
  279      -12.672768    -12.392764   1.000000   1.000000
  280      -12.672636    -12.392628   1.000000   1.000000
  281      -12.672531    -12.392523   1.000000   1.000000
  282      -12.672479    -12.392463   1.000000   1.000000
  283      -12.667679    -12.388790   1.000000   1.000000
  284      -12.667492    -12.388585   1.000000   1.000000
  285      -12.667359    -12.388433   1.000000   1.000000
  286      -12.667019    -12.387997   1.000000   1.000000
  287      -12.654394    -12.374433   1.000000   1.000000
  288      -12.643579    -12.365823   1.000000   1.000000
  289       -7.799878     -7.598899   1.000000   1.000000
  290       -7.748107     -7.551401   1.000000   1.000000
  291       -7.505490     -7.319237   1.000000   1.000000
  292       -7.505427     -7.319170   1.000000   1.000000
  293       -7.505381     -7.319126   1.000000   1.000000
  294       -7.504814     -7.318606   1.000000   1.000000
  295       -7.501032     -7.308915   1.000000   1.000000
  296       -7.500964     -7.308849   1.000000   1.000000
  297       -7.500947     -7.308809   1.000000   1.000000
  298       -7.500248     -7.308189   1.000000   1.000000
  299       -7.315228     -7.117790   1.000000   1.000000
  300       -7.314965     -7.117541   1.000000   1.000000
  301       -7.297217     -7.093969   1.000000   1.000000
  302       -7.296628     -7.093351   1.000000   1.000000
  303       -7.296602     -7.093318   1.000000   1.000000
  304       -7.296471     -7.093245   1.000000   1.000000
  305       -7.269308     -7.062025   1.000000   1.000000
  306       -7.268914     -7.061655   1.000000   1.000000
  307       -7.088735     -6.894226   1.000000   1.000000
  308       -7.085005     -6.894205   1.000000   1.000000
  309       -7.084975     -6.893663   1.000000   1.000000
  310       -7.084468     -6.893427   1.000000   1.000000
  311       -7.084155     -6.796885   1.000000   1.000000
  312       -7.046647     -6.783915   1.000000   1.000000
  313       -7.000420     -6.768348   1.000000   1.000000
  314       -7.000163     -6.768299   1.000000   1.000000
  315       -7.000015     -6.767743   1.000000   1.000000
  316       -6.999872     -6.767262   1.000000   1.000000
  317       -6.999771     -6.766736   1.000000   1.000000
  318       -6.999669     -6.766476   1.000000   1.000000
  319       -6.999528     -6.766344   1.000000   1.000000
  320       -6.998792     -6.766185   1.000000   1.000000
  321       -6.994317     -6.766078   1.000000   1.000000
  322       -6.994290     -6.766000   1.000000   1.000000
  323       -6.994182     -6.765839   1.000000   1.000000
  324       -6.994164     -6.765198   1.000000   1.000000
  325       -6.956112     -6.745172   1.000000   1.000000
  326       -6.956081     -6.745009   1.000000   1.000000
  327       -6.955585     -6.744897   1.000000   1.000000
  328       -6.955028     -6.744889   1.000000   1.000000
  329       -6.948402     -6.697592   1.000000   1.000000
  330       -6.948380     -6.697558   1.000000   1.000000
  331       -6.928722     -6.689247   1.000000   1.000000
  332       -6.928701     -6.689190   1.000000   1.000000
  333       -6.928630     -6.689103   1.000000   1.000000
  334       -6.928579     -6.689085   1.000000   1.000000
  335       -6.911665     -6.639842   1.000000   1.000000
  336       -6.910977     -6.639436   1.000000   1.000000
  337       -6.886027     -6.639413   1.000000   1.000000
  338       -6.885955     -6.639127   1.000000   1.000000
  339       -6.885452     -6.639030   1.000000   1.000000
  340       -6.885323     -6.638984   1.000000   1.000000
  341       -6.877434     -6.638784   1.000000   1.000000
  342       -6.877199     -6.638774   1.000000   1.000000
  343       -6.877042     -6.638704   1.000000   1.000000
  344       -6.876914     -6.638306   1.000000   1.000000
  345       -6.876820     -6.638170   1.000000   1.000000
  346       -6.876710     -6.637212   1.000000   1.000000
  347       -6.876577     -6.628434   1.000000   1.000000
  348       -6.875187     -6.627775   1.000000   1.000000
  349       -6.832680     -6.586735   1.000000   1.000000
  350       -6.832531     -6.586638   1.000000   1.000000
  351       -6.794609     -6.499458   1.000000   1.000000
  352       -6.793773     -6.498641   1.000000   1.000000
  353       -1.525480     -0.414842   1.000000   1.000000
  354       -1.467740     -0.414688   1.000000   1.000000
  355       -1.467716     -0.414343   1.000000   1.000000
  356       -1.467627     -0.414199   1.000000   1.000000
  357       -1.467487      0.026244   1.000000   1.000000
  358       -1.460488      0.026296   1.000000   1.000000
  359       -1.460324      0.026446   1.000000   1.000000
  360       -1.460129      0.026963   1.000000   1.000000
  361       -1.459998      0.037649   1.000000   1.000000
  362       -1.421386      0.037677   1.000000   1.000000
  363       -1.421300      0.037857   1.000000   1.000000
  364       -1.383108      0.037871   1.000000   1.000000
  365       -1.382918      0.038140   1.000000   1.000000
  366       -1.382526      0.038308   1.000000   1.000000
  367       -1.382484      0.038457   1.000000   1.000000
  368       -1.333077      0.038623   1.000000   1.000000
  369       -1.332800      0.102932   1.000000   1.000000
  370       -1.332609      0.103113   1.000000   1.000000
  371       -1.332576      0.207277   1.000000   1.000000
  372       -1.332496      0.207338   1.000000   1.000000
  373       -1.332456      0.207829   1.000000   1.000000
  374       -1.332199      0.208064   1.000000   1.000000
  375       -1.331737      0.304380   1.000000   1.000000
  376       -1.292546      0.392502   1.000000   1.000000
  377       -1.292503      0.392587   1.000000   1.000000
  378       -1.292440      0.392762   1.000000   1.000000
  379       -1.292356      0.392900   1.000000   1.000000
  380       -1.257111      0.490876   1.000000   1.000000
  381       -1.256463      0.490941   1.000000   1.000000
  382       -1.232234      0.497468   1.000000   1.000000
  383       -1.232095      0.497652   1.000000   1.000000
  384       -1.220384      0.497757   1.000000   1.000000
  385       -0.822964      0.497785   1.000000   1.000000
  386       -0.822735      0.510651   1.000000   1.000000
  387       -0.822606      0.510721   1.000000   1.000000
  388       -0.822510      0.530945   1.000000   1.000000
  389       -0.722717      0.531037   1.000000   1.000000
  390       -0.722555      0.531479   1.000000   1.000000
  391       -0.699224      0.531586   1.000000   1.000000
  392       -0.699095      0.574070   1.000000   1.000000
  393       -0.699013      0.574099   1.000000   1.000000
  394       -0.698941      0.574154   1.000000   1.000000
  395       -0.688760      0.574173   1.000000   1.000000
  396       -0.688411      0.574510   1.000000   1.000000
  397       -0.688227      0.574525   1.000000   1.000000
  398       -0.687965      0.574697   1.000000   1.000000
  399       -0.666746      0.574783   1.000000   1.000000
  400       -0.666691      0.638750   1.000000   1.000000
  401       -0.666442      0.666195   1.000000   1.000000
  402       -0.666408      0.666390   1.000000   1.000000
  403       -0.652011      0.732774   1.000000   1.000000
  404       -0.651894      0.733639   1.000000   1.000000
  405       -0.651804      0.931268   1.000000   1.000000
  406       -0.651731      0.932450   1.000000   1.000000
  407       -0.589495      0.935540   1.000000   1.000000
  408       -0.589322      0.935683   1.000000   1.000000
  409       -0.576764      0.948734   1.000000   1.000000
  410       -0.576666      0.948883   1.000000   1.000000
  411       -0.576425      0.949006   1.000000   1.000000
  412       -0.576390      0.949028   1.000000   1.000000
  413       -0.553448      0.985940   1.000000   1.000000
  414       -0.553396      0.986018   1.000000   1.000000
  415       -0.553107      0.986370   1.000000   1.000000
  416       -0.553027      0.986461   1.000000   1.000000
  417       -0.497739      0.992902   1.000000   1.000000
  418       -0.496986      0.993095   1.000000   1.000000
  419       -0.472965      1.008740   1.000000   1.000000
  420       -0.472736      1.008756   1.000000   1.000000
  421       -0.461727      1.009205   1.000000   1.000000
  422       -0.461646      1.009263   1.000000   1.000000
  423       -0.461405      1.018365   1.000000   1.000000
  424       -0.461267      1.049132   1.000000   1.000000
  425       -0.459840      1.049291   1.000000   1.000000
  426       -0.459753      1.051634   1.000000   1.000000
  427       -0.459543      1.051699   1.000000   1.000000
  428       -0.459384      1.051757   1.000000   1.000000
  429       -0.410206      1.051995   1.000000   1.000000
  430       -0.409985      1.078636   1.000000   1.000000
  431       -0.408060      1.078800   1.000000   1.000000
  432       -0.407630      1.078881   1.000000   1.000000
  433       -0.407550      1.078947   1.000000   1.000000
  434       -0.407465      1.079639   1.000000   1.000000
  435       -0.407259      1.079723   1.000000   1.000000
  436       -0.407190      1.080066   1.000000   1.000000
  437       -0.383356      1.080152   1.000000   1.000000
  438       -0.383305      1.192653   1.000000   1.000000
  439       -0.378033      1.192964   1.000000   1.000000
  440       -0.368793      1.376496   1.000000   1.000000
  441       -0.368780      1.390401   1.000000   1.000000
  442       -0.368762      1.391068   1.000000   1.000000
  443       -0.368720      1.391292   1.000000   1.000000
  444       -0.368689      1.391481   1.000000   1.000000
  445       -0.368667      1.391643   1.000000   1.000000
  446       -0.368440      1.437321   1.000000   1.000000
  447       -0.368394      1.450217   1.000000   1.000000
  448       -0.353663      1.526311   1.000000   1.000000
  449       -0.353457      1.526402   1.000000   1.000000
  450       -0.349104      1.526428   1.000000   1.000000
  451       -0.341850      1.526462   1.000000   1.000000
  452       -0.336023      1.528996   1.000000   1.000000
  453       -0.335660      1.529030   1.000000   1.000000
  454       -0.335590      1.529192   1.000000   1.000000
  455       -0.335240      1.529250   1.000000   1.000000
  456       -0.334548      1.558023   1.000000   1.000000
  457       -0.334261      1.558100   1.000000   1.000000
  458       -0.333954      1.558675   1.000000   1.000000
  459       -0.333919      1.558729   1.000000   1.000000
  460       -0.324367      1.566660   1.000000   1.000000
  461       -0.324319      1.566711   1.000000   1.000000
  462       -0.323996      1.566865   1.000000   1.000000
  463       -0.323928      1.567188   1.000000   1.000000
  464       -0.321710      1.568245   1.000000   1.000000
  465       -0.321609      1.568537   1.000000   1.000000
  466       -0.321261      1.568592   1.000000   1.000000
  467       -0.321164      1.569041   1.000000   1.000000
  468       -0.303901      1.586514   1.000000   1.000000
  469       -0.295986      1.586915   1.000000   1.000000
  470       -0.287992      1.695688   1.000000   1.000000
  471       -0.287907      1.695955   1.000000   1.000000
  472       -0.287870      1.741085   1.000000   1.000000
  473       -0.287554      1.741131   1.000000   1.000000
  474       -0.280477      1.741246   1.000000   1.000000
  475       -0.280388      1.741512   1.000000   1.000000
  476       -0.275246      1.746454   1.000000   1.000000
  477       -0.275009      1.746494   1.000000   1.000000
  478       -0.274944      1.747522   1.000000   1.000000
  479       -0.274675      1.747579   1.000000   1.000000
  480       -0.241862      1.779105   1.000000   1.000000
  481       -0.241672      1.780629   1.000000   1.000000
  482       -0.241600      1.780661   1.000000   1.000000
  483       -0.241512      1.836808   1.000000   1.000000
  484       -0.241505      1.837006   1.000000   1.000000
  485       -0.241319      1.837309   1.000000   1.000000
  486       -0.241230      1.837470   1.000000   1.000000
  487       -0.241105      1.837569   1.000000   1.000000
  488       -0.207363      1.838174   1.000000   1.000000
  489       -0.207356      1.838366   1.000000   1.000000
  490       -0.199875      1.839070   1.000000   1.000000
  491       -0.199623      1.866002   1.000000   1.000000
  492       -0.199489      1.866553   1.000000   1.000000
  493       -0.199284      1.913282   1.000000   1.000000
  494       -0.194228      1.913384   1.000000   1.000000
  495       -0.193984      1.913396   1.000000   1.000000
  496       -0.164011      1.913421   1.000000   1.000000
  497       -0.163917      1.913787   1.000000   1.000000
  498       -0.163771      1.913891   1.000000   1.000000
  499       -0.163673      1.914059   1.000000   1.000000
  500       -0.156748      1.914151   1.000000   1.000000
  501       -0.156649      1.926695   1.000000   1.000000
  502       -0.156286      1.926887   1.000000   1.000000
  503       -0.156175      1.927085   1.000000   1.000000
  504       -0.139317      1.927718   1.000000   1.000000
  505       -0.138980      2.133216   1.000000   1.000000
  506       -0.138931      2.133270   1.000000   1.000000
  507       -0.138724      2.190998   1.000000   1.000000
  508       -0.091009      2.192929   1.000000   1.000000
  509       -0.090946      2.300429   1.000000   1.000000
  510       -0.082673      2.300788   1.000000   1.000000
  511       -0.082588      2.300975   1.000000   1.000000
  512       -0.082551      2.301361   1.000000   1.000000