  224  224    1    2
  0.1357572E+02  0.1537960E-08  0.1537962E-08  0.1395899E-08  0.5000000E-15
  1.000000000000000E-004
  CAR 
 unknown system                          
   1664      8   1208
 
  0.0000000E+00  0.0000000E+00  0.0000000E+00  0.1250000E+00
    1      -51.142240    -46.391622   1.000000   1.000000
    2      -51.141969    -46.391187   1.000000   1.000000
    3      -51.141804    -46.391006   1.000000   1.000000
    4      -51.141760    -46.390933   1.000000   1.000000
    5      -51.141616    -46.390712   1.000000   1.000000
    6      -51.141468    -46.390654   1.000000   1.000000
    7      -51.141381    -46.390605   1.000000   1.000000
    8      -51.141330    -46.390479   1.000000   1.000000
    9      -51.141303    -46.390387   1.000000   1.000000
   10      -51.141242    -46.390349   1.000000   1.000000
   11      -51.141183    -46.390330   1.000000   1.000000
   12      -51.141121    -46.390257   1.000000   1.000000
   13      -51.141106    -46.390158   1.000000   1.000000
   14      -51.140984    -46.390091   1.000000   1.000000
   15      -51.140955    -46.390086   1.000000   1.000000
   16      -51.140904    -46.389992   1.000000   1.000000
   17      -51.140900    -46.389965   1.000000   1.000000
   18      -51.140868    -46.389893   1.000000   1.000000
   19      -51.140771    -46.389783   1.000000   1.000000
   20      -51.140752    -46.389717   1.000000   1.000000
   21      -51.140646    -46.389642   1.000000   1.000000
   22      -51.140629    -46.389623   1.000000   1.000000
   23      -51.140612    -46.389614   1.000000   1.000000
   24      -51.140586    -46.389564   1.000000   1.000000
   25      -51.140567    -46.389558   1.000000   1.000000
   26      -51.140544    -46.389551   1.000000   1.000000
   27      -51.140527    -46.389537   1.000000   1.000000
   28      -51.140495    -46.389465   1.000000   1.000000
   29      -51.140478    -46.389420   1.000000   1.000000
   30      -51.140440    -46.389392   1.000000   1.000000
   31      -51.140410    -46.389353   1.000000   1.000000
   32      -51.140392    -46.389272   1.000000   1.000000
   33      -51.140281    -46.389149   1.000000   1.000000
   34      -51.140266    -46.389122   1.000000   1.000000
   35      -51.140216    -46.389040   1.000000   1.000000
   36      -51.140164    -46.389019   1.000000   1.000000
   37      -51.140138    -46.388927   1.000000   1.000000
   38      -51.140113    -46.388919   1.000000   1.000000
   39      -51.140087    -46.388896   1.000000   1.000000
   40      -51.140062    -46.388846   1.000000   1.000000
   41      -51.140050    -46.388834   1.000000   1.000000
   42      -51.140033    -46.388791   1.000000   1.000000
   43      -51.140020    -46.388775   1.000000   1.000000
   44      -51.139995    -46.388770   1.000000   1.000000
   45      -51.139931    -46.388727   1.000000   1.000000
   46      -51.139886    -46.388691   1.000000   1.000000
   47      -51.139827    -46.388636   1.000000   1.000000
   48      -51.139815    -46.388527   1.000000   1.000000
   49      -51.139752    -46.388449   1.000000   1.000000
   50      -51.139708    -46.388401   1.000000   1.000000
   51      -51.139683    -46.388364   1.000000   1.000000
   52      -51.139624    -46.388314   1.000000   1.000000
   53      -51.139557    -46.388273   1.000000   1.000000
   54      -51.139537    -46.388193   1.000000   1.000000
   55      -51.139450    -46.388168   1.000000   1.000000
   56      -51.139413    -46.388129   1.000000   1.000000
   57      -51.139390    -46.388086   1.000000   1.000000
   58      -51.139374    -46.387982   1.000000   1.000000
   59      -51.139296    -46.387918   1.000000   1.000000
   60      -51.139082    -46.387789   1.000000   1.000000
   61      -51.138985    -46.387620   1.000000   1.000000
   62      -51.138919    -46.387538   1.000000   1.000000
   63      -51.138845    -46.387493   1.000000   1.000000
   64      -51.138492    -46.387001   1.000000   1.000000
   65      -49.648260    -45.929656   1.000000   1.000000
   66      -49.648173    -45.929602   1.000000   1.000000
   67      -49.647931    -45.929576   1.000000   1.000000
   68      -49.647914    -45.929463   1.000000   1.000000
   69      -49.647741    -45.929187   1.000000   1.000000
   70      -49.647700    -45.929153   1.000000   1.000000
   71      -49.647689    -45.928973   1.000000   1.000000
   72      -49.647623    -45.928935   1.000000   1.000000
   73      -49.647578    -45.928902   1.000000   1.000000
   74      -49.647540    -45.928861   1.000000   1.000000
   75      -49.647515    -45.928819   1.000000   1.000000
   76      -49.647433    -45.928808   1.000000   1.000000
   77      -49.647415    -45.928787   1.000000   1.000000
   78      -49.647343    -45.928779   1.000000   1.000000
   79      -49.647290    -45.928736   1.000000   1.000000
   80      -49.647271    -45.928718   1.000000   1.000000
   81      -49.647204    -45.928620   1.000000   1.000000
   82      -49.647182    -45.928586   1.000000   1.000000
   83      -49.647121    -45.928546   1.000000   1.000000
   84      -49.647112    -45.928527   1.000000   1.000000
   85      -49.647085    -45.928489   1.000000   1.000000
   86      -49.647072    -45.928481   1.000000   1.000000
   87      -49.647026    -45.928398   1.000000   1.000000
   88      -49.647002    -45.928378   1.000000   1.000000
   89      -49.646956    -45.928355   1.000000   1.000000
   90      -49.646915    -45.928336   1.000000   1.000000
   91      -49.646903    -45.928269   1.000000   1.000000
   92      -49.646847    -45.928264   1.000000   1.000000
   93      -49.646789    -45.928245   1.000000   1.000000
   94      -49.646772    -45.928204   1.000000   1.000000
   95      -49.646752    -45.928139   1.000000   1.000000
   96      -49.646731    -45.928134   1.000000   1.000000
   97      -49.646702    -45.928096   1.000000   1.000000
   98      -49.646672    -45.928038   1.000000   1.000000
   99      -49.646641    -45.928030   1.000000   1.000000
  100      -49.646591    -45.927958   1.000000   1.000000
  101      -49.646476    -45.927897   1.000000   1.000000
  102      -49.646463    -45.927871   1.000000   1.000000
  103      -49.646437    -45.927854   1.000000   1.000000
  104      -49.646387    -45.927840   1.000000   1.000000
  105      -49.646341    -45.927828   1.000000   1.000000
  106      -49.646310    -45.927787   1.000000   1.000000
  107      -49.646273    -45.927777   1.000000   1.000000
  108      -49.646252    -45.927758   1.000000   1.000000
  109      -49.646215    -45.927723   1.000000   1.000000
  110      -49.646170    -45.927715   1.000000   1.000000
  111      -49.646145    -45.927683   1.000000   1.000000
  112      -49.646113    -45.927668   1.000000   1.000000
  113      -49.646100    -45.927601   1.000000   1.000000
  114      -49.646042    -45.927579   1.000000   1.000000
  115      -49.646016    -45.927537   1.000000   1.000000
  116      -49.645996    -45.927507   1.000000   1.000000
  117      -49.645992    -45.927451   1.000000   1.000000
  118      -49.645976    -45.927408   1.000000   1.000000
  119      -49.645919    -45.927393   1.000000   1.000000
  120      -49.645907    -45.927346   1.000000   1.000000
  121      -49.645857    -45.927327   1.000000   1.000000
  122      -49.645850    -45.927312   1.000000   1.000000
  123      -49.645834    -45.927270   1.000000   1.000000
  124      -49.645815    -45.927238   1.000000   1.000000
  125      -49.645718    -45.927210   1.000000   1.000000
  126      -49.645664    -45.927186   1.000000   1.000000
  127      -49.645658    -45.927168   1.000000   1.000000
  128      -49.645639    -45.927141   1.000000   1.000000
  129      -49.645618    -45.927130   1.000000   1.000000
  130      -49.645600    -45.927118   1.000000   1.000000
  131      -49.645500    -45.927094   1.000000   1.000000
  132      -49.645437    -45.927080   1.000000   1.000000
  133      -49.645412    -45.927043   1.000000   1.000000
  134      -49.645373    -45.927023   1.000000   1.000000
  135      -49.645368    -45.926993   1.000000   1.000000
  136      -49.645343    -45.926975   1.000000   1.000000
  137      -49.645281    -45.926923   1.000000   1.000000
  138      -49.645270    -45.926918   1.000000   1.000000
  139      -49.645260    -45.926904   1.000000   1.000000
  140      -49.645248    -45.926871   1.000000   1.000000
  141      -49.645211    -45.926804   1.000000   1.000000
  142      -49.645206    -45.926779   1.000000   1.000000
  143      -49.645171    -45.926750   1.000000   1.000000
  144      -49.645133    -45.926732   1.000000   1.000000
  145      -49.645109    -45.926702   1.000000   1.000000
  146      -49.645103    -45.926681   1.000000   1.000000
  147      -49.645072    -45.926649   1.000000   1.000000
  148      -49.645044    -45.926635   1.000000   1.000000
  149      -49.645005    -45.926630   1.000000   1.000000
  150      -49.644988    -45.926615   1.000000   1.000000
  151      -49.644937    -45.926596   1.000000   1.000000
  152      -49.644881    -45.926579   1.000000   1.000000
  153      -49.644866    -45.926544   1.000000   1.000000
  154      -49.644833    -45.926532   1.000000   1.000000
  155      -49.644813    -45.926506   1.000000   1.000000
  156      -49.644790    -45.926485   1.000000   1.000000
  157      -49.644771    -45.926454   1.000000   1.000000
  158      -49.644746    -45.926434   1.000000   1.000000
  159      -49.644711    -45.926419   1.000000   1.000000
  160      -49.644673    -45.926402   1.000000   1.000000
  161      -49.644602    -45.926376   1.000000   1.000000
  162      -49.644593    -45.926352   1.000000   1.000000
  163      -49.644587    -45.926334   1.000000   1.000000
  164      -49.644548    -45.926321   1.000000   1.000000
  165      -49.644457    -45.926307   1.000000   1.000000
  166      -49.644455    -45.926286   1.000000   1.000000
  167      -49.644447    -45.926228   1.000000   1.000000
  168      -49.644391    -45.926193   1.000000   1.000000
  169      -49.644376    -45.926149   1.000000   1.000000
  170      -49.644332    -45.926122   1.000000   1.000000
  171      -49.644255    -45.926089   1.000000   1.000000
  172      -49.644230    -45.926078   1.000000   1.000000
  173      -49.644182    -45.926014   1.000000   1.000000
  174      -49.644158    -45.925995   1.000000   1.000000
  175      -49.644135    -45.925950   1.000000   1.000000
  176      -49.644090    -45.925935   1.000000   1.000000
  177      -49.644043    -45.925895   1.000000   1.000000
  178      -49.644014    -45.925854   1.000000   1.000000
  179      -49.643993    -45.925766   1.000000   1.000000
  180      -49.643945    -45.925750   1.000000   1.000000
  181      -49.643860    -45.925740   1.000000   1.000000
  182      -49.643827    -45.925707   1.000000   1.000000
  183      -49.643730    -45.925664   1.000000   1.000000
  184      -49.643717    -45.925598   1.000000   1.000000
  185      -49.643663    -45.925443   1.000000   1.000000
  186      -49.643651    -45.925390   1.000000   1.000000
  187      -49.643535    -45.925297   1.000000   1.000000
  188      -49.643455    -45.925255   1.000000   1.000000
  189      -49.643423    -45.925145   1.000000   1.000000
  190      -49.643256    -45.925101   1.000000   1.000000
  191      -49.642783    -45.925064   1.000000   1.000000
  192      -49.642686    -45.924974   1.000000   1.000000
  193      -39.643623    -39.642757   1.000000   1.000000
  194      -39.641047    -39.640129   1.000000   1.000000
  195      -39.638045    -39.637179   1.000000   1.000000
  196      -39.633554    -39.632682   1.000000   1.000000
  197      -39.633444    -39.632571   1.000000   1.000000
  198      -39.633437    -39.632564   1.000000   1.000000
  199      -39.633386    -39.632513   1.000000   1.000000
  200      -39.633351    -39.632478   1.000000   1.000000
  201      -39.633350    -39.632476   1.000000   1.000000
  202      -39.632496    -39.631626   1.000000   1.000000
  203      -39.629755    -39.628913   1.000000   1.000000
  204      -39.627963    -39.627126   1.000000   1.000000
  205      -39.627797    -39.626959   1.000000   1.000000
  206      -39.627765    -39.626927   1.000000   1.000000
  207      -39.627756    -39.626917   1.000000   1.000000
  208      -39.627693    -39.626854   1.000000   1.000000
  209      -39.627610    -39.626772   1.000000   1.000000
  210      -39.626318    -39.625482   1.000000   1.000000
  211      -39.621026    -39.620246   1.000000   1.000000
  212      -39.616473    -39.615698   1.000000   1.000000
  213      -39.616186    -39.615417   1.000000   1.000000
  214      -39.616048    -39.615270   1.000000   1.000000
  215      -39.616013    -39.615236   1.000000   1.000000
  216      -39.615889    -39.615113   1.000000   1.000000
  217      -39.615685    -39.614905   1.000000   1.000000
  218      -39.615596    -39.614823   1.000000   1.000000
  219      -39.615518    -39.614737   1.000000   1.000000
  220      -39.615250    -39.614480   1.000000   1.000000
  221      -39.615237    -39.614468   1.000000   1.000000
  222      -39.615227    -39.614459   1.000000   1.000000
  223      -39.615222    -39.614454   1.000000   1.000000
  224      -39.615207    -39.614436   1.000000   1.000000
  225      -39.615158    -39.614390   1.000000   1.000000
  226      -39.615152    -39.614384   1.000000   1.000000
  227      -39.615080    -39.614312   1.000000   1.000000
  228      -39.614933    -39.614165   1.000000   1.000000
  229      -39.614907    -39.614138   1.000000   1.000000
  230      -39.614905    -39.614135   1.000000   1.000000
  231      -39.614901    -39.614132   1.000000   1.000000
  232      -39.614783    -39.614016   1.000000   1.000000
  233      -39.614454    -39.613691   1.000000   1.000000
  234      -39.614413    -39.613643   1.000000   1.000000
  235      -39.614293    -39.613534   1.000000   1.000000
  236      -39.614256    -39.613498   1.000000   1.000000
  237      -39.613726    -39.612962   1.000000   1.000000
  238      -39.609848    -39.609082   1.000000   1.000000
  239      -39.605265    -39.604543   1.000000   1.000000
  240      -39.603916    -39.603197   1.000000   1.000000
  241      -39.603876    -39.603157   1.000000   1.000000
  242      -39.603806    -39.603086   1.000000   1.000000
  243      -39.603796    -39.603076   1.000000   1.000000
  244      -39.603774    -39.603053   1.000000   1.000000
  245      -39.603666    -39.602946   1.000000   1.000000
  246      -39.602225    -39.601506   1.000000   1.000000
  247      -39.600320    -39.599612   1.000000   1.000000
  248      -39.599599    -39.598893   1.000000   1.000000
  249      -39.599596    -39.598890   1.000000   1.000000
  250      -39.599567    -39.598861   1.000000   1.000000
  251      -39.599511    -39.598804   1.000000   1.000000
  252      -39.599506    -39.598800   1.000000   1.000000
  253      -39.599393    -39.598686   1.000000   1.000000
  254      -39.595211    -39.594506   1.000000   1.000000
  255      -39.593281    -39.592598   1.000000   1.000000
  256      -39.589489    -39.588751   1.000000   1.000000
  257      -12.747209    -12.467740   1.000000   1.000000
  258      -12.747190    -12.467720   1.000000   1.000000
  259      -12.719751    -12.440012   1.000000   1.000000
  260      -12.719391    -12.439630   1.000000   1.000000
  261      -12.719379    -12.439618   1.000000   1.000000
  262      -12.719339    -12.439589   1.000000   1.000000
  263      -12.719320    -12.439569   1.000000   1.000000
  264      -12.719268    -12.439525   1.000000   1.000000
  265      -12.719248    -12.439504   1.000000   1.000000
  266      -12.718932    -12.439170   1.000000   1.000000
  267      -12.697245    -12.417075   1.000000   1.000000
  268      -12.697132    -12.416959   1.000000   1.000000
  269      -12.694866    -12.415256   1.000000   1.000000
  270      -12.694758    -12.415150   1.000000   1.000000
  271      -12.694744    -12.415136   1.000000   1.000000
  272      -12.694715    -12.415108   1.000000   1.000000
  273      -12.692456    -12.413383   1.000000   1.000000
  274      -12.692320    -12.413265   1.000000   1.000000
  275      -12.691251    -12.411218   1.000000   1.000000
  276      -12.691248    -12.411214   1.000000   1.000000
  277      -12.691241    -12.411209   1.000000   1.000000
  278      -12.691068    -12.411071   1.000000   1.000000
  279      -12.672981    -12.392972   1.000000   1.000000
  280      -12.672725    -12.392706   1.000000   1.000000
  281      -12.672619    -12.392608   1.000000   1.000000
  282      -12.672348    -12.392335   1.000000   1.000000
  283      -12.667893    -12.389000   1.000000   1.000000
  284      -12.667657    -12.388763   1.000000   1.000000
  285      -12.667551    -12.388665   1.000000   1.000000
  286      -12.667254    -12.388356   1.000000   1.000000
  287      -12.654514    -12.374561   1.000000   1.000000
  288      -12.643740    -12.366015   1.000000   1.000000
  289       -7.800026     -7.599027   1.000000   1.000000
  290       -7.748234     -7.551513   1.000000   1.000000
  291       -7.505817     -7.319566   1.000000   1.000000
  292       -7.505421     -7.319169   1.000000   1.000000
  293       -7.505298     -7.319042   1.000000   1.000000
  294       -7.504928     -7.318656   1.000000   1.000000
  295       -7.501293     -7.309173   1.000000   1.000000
  296       -7.501014     -7.308874   1.000000   1.000000
  297       -7.500846     -7.308710   1.000000   1.000000
  298       -7.500566     -7.308411   1.000000   1.000000
  299       -7.315186     -7.117731   1.000000   1.000000
  300       -7.315128     -7.117677   1.000000   1.000000
  301       -7.296846     -7.093563   1.000000   1.000000
  302       -7.296822     -7.093540   1.000000   1.000000
  303       -7.296804     -7.093521   1.000000   1.000000
  304       -7.296771     -7.093489   1.000000   1.000000
  305       -7.269239     -7.061939   1.000000   1.000000
  306       -7.269224     -7.061928   1.000000   1.000000
  307       -7.088673     -6.893853   1.000000   1.000000
  308       -7.084656     -6.893845   1.000000   1.000000
  309       -7.084649     -6.893842   1.000000   1.000000
  310       -7.084629     -6.893830   1.000000   1.000000
  311       -7.084615     -6.796734   1.000000   1.000000
  312       -7.046571     -6.783806   1.000000   1.000000
  313       -7.000624     -6.767924   1.000000   1.000000
  314       -6.999859     -6.767911   1.000000   1.000000
  315       -6.999843     -6.767902   1.000000   1.000000
  316       -6.999815     -6.767900   1.000000   1.000000
  317       -6.999763     -6.766971   1.000000   1.000000
  318       -6.999691     -6.766160   1.000000   1.000000
  319       -6.999678     -6.766146   1.000000   1.000000
  320       -6.998958     -6.766103   1.000000   1.000000
  321       -6.994546     -6.766078   1.000000   1.000000
  322       -6.994226     -6.765999   1.000000   1.000000
  323       -6.994064     -6.765991   1.000000   1.000000
  324       -6.993744     -6.765212   1.000000   1.000000
  325       -6.955784     -6.745295   1.000000   1.000000
  326       -6.955764     -6.744944   1.000000   1.000000
  327       -6.955759     -6.744793   1.000000   1.000000
  328       -6.955738     -6.744429   1.000000   1.000000
  329       -6.948328     -6.697468   1.000000   1.000000
  330       -6.948301     -6.697430   1.000000   1.000000
  331       -6.929005     -6.689476   1.000000   1.000000
  332       -6.928676     -6.689138   1.000000   1.000000
  333       -6.928547     -6.689001   1.000000   1.000000
  334       -6.928209     -6.688656   1.000000   1.000000
  335       -6.911315     -6.640037   1.000000   1.000000
  336       -6.911293     -6.639313   1.000000   1.000000
  337       -6.885677     -6.639124   1.000000   1.000000
  338       -6.885667     -6.639109   1.000000   1.000000
  339       -6.885645     -6.639038   1.000000   1.000000
  340       -6.885623     -6.638970   1.000000   1.000000
  341       -6.877624     -6.638956   1.000000   1.000000
  342       -6.876888     -6.638618   1.000000   1.000000
  343       -6.876879     -6.638366   1.000000   1.000000
  344       -6.876815     -6.638323   1.000000   1.000000
  345       -6.876779     -6.638081   1.000000   1.000000
  346       -6.876733     -6.637748   1.000000   1.000000
  347       -6.876722     -6.628072   1.000000   1.000000
  348       -6.875947     -6.628052   1.000000   1.000000
  349       -6.832596     -6.586632   1.000000   1.000000
  350       -6.832584     -6.586624   1.000000   1.000000
  351       -6.794268     -6.499090   1.000000   1.000000
  352       -6.794247     -6.499070   1.000000   1.000000
  353       -1.525515     -0.414586   1.000000   1.000000
  354       -1.467870     -0.414569   1.000000   1.000000
  355       -1.467719     -0.414459   1.000000   1.000000
  356       -1.467585     -0.414440   1.000000   1.000000
  357       -1.467511      0.026169   1.000000   1.000000
  358       -1.460330      0.026282   1.000000   1.000000
  359       -1.460277      0.026437   1.000000   1.000000
  360       -1.460193      0.026575   1.000000   1.000000
  361       -1.460183      0.037430   1.000000   1.000000
  362       -1.421471      0.037913   1.000000   1.000000
  363       -1.421253      0.037979   1.000000   1.000000
  364       -1.382823      0.037999   1.000000   1.000000
  365       -1.382806      0.038065   1.000000   1.000000
  366       -1.382749      0.038132   1.000000   1.000000
  367       -1.382714      0.038242   1.000000   1.000000
  368       -1.332929      0.038681   1.000000   1.000000
  369       -1.332658      0.102788   1.000000   1.000000
  370       -1.332616      0.103021   1.000000   1.000000
  371       -1.332533      0.207456   1.000000   1.000000
  372       -1.332470      0.207512   1.000000   1.000000
  373       -1.332390      0.207586   1.000000   1.000000
  374       -1.332320      0.207643   1.000000   1.000000
  375       -1.332059      0.304166   1.000000   1.000000
  376       -1.292727      0.392317   1.000000   1.000000
  377       -1.292566      0.392509   1.000000   1.000000
  378       -1.292380      0.392681   1.000000   1.000000
  379       -1.292227      0.392883   1.000000   1.000000
  380       -1.256796      0.490871   1.000000   1.000000
  381       -1.256783      0.490925   1.000000   1.000000
  382       -1.232218      0.497561   1.000000   1.000000
  383       -1.232117      0.497690   1.000000   1.000000
  384       -1.220381      0.497709   1.000000   1.000000
  385       -0.822762      0.497828   1.000000   1.000000
  386       -0.822734      0.510661   1.000000   1.000000
  387       -0.822664      0.510699   1.000000   1.000000
  388       -0.822628      0.531201   1.000000   1.000000
  389       -0.722690      0.531215   1.000000   1.000000
  390       -0.722612      0.531282   1.000000   1.000000
  391       -0.699161      0.531299   1.000000   1.000000
  392       -0.699117      0.573798   1.000000   1.000000
  393       -0.698977      0.574247   1.000000   1.000000
  394       -0.698916      0.574338   1.000000   1.000000
  395       -0.688469      0.574349   1.000000   1.000000
  396       -0.688432      0.574409   1.000000   1.000000
  397       -0.688195      0.574439   1.000000   1.000000
  398       -0.688153      0.574528   1.000000   1.000000
  399       -0.666753      0.574977   1.000000   1.000000
  400       -0.666641      0.638616   1.000000   1.000000
  401       -0.666402      0.666268   1.000000   1.000000
  402       -0.666377      0.666372   1.000000   1.000000
  403       -0.651977      0.733087   1.000000   1.000000
  404       -0.651901      0.733107   1.000000   1.000000
  405       -0.651785      0.931376   1.000000   1.000000
  406       -0.651760      0.932549   1.000000   1.000000
  407       -0.589494      0.935607   1.000000   1.000000
  408       -0.589333      0.935650   1.000000   1.000000
  409       -0.576593      0.948911   1.000000   1.000000
  410       -0.576551      0.948942   1.000000   1.000000
  411       -0.576528      0.948964   1.000000   1.000000
  412       -0.576496      0.949000   1.000000   1.000000
  413       -0.553539      0.985878   1.000000   1.000000
  414       -0.553289      0.986197   1.000000   1.000000
  415       -0.553035      0.986226   1.000000   1.000000
  416       -0.552954      0.986531   1.000000   1.000000
  417       -0.497625      0.992779   1.000000   1.000000
  418       -0.496873      0.992970   1.000000   1.000000
  419       -0.472904      1.008932   1.000000   1.000000
  420       -0.472679      1.008942   1.000000   1.000000
  421       -0.461620      1.008952   1.000000   1.000000
  422       -0.461499      1.008963   1.000000   1.000000
  423       -0.461229      1.018469   1.000000   1.000000
  424       -0.461155      1.048904   1.000000   1.000000
  425       -0.459850      1.049252   1.000000   1.000000
  426       -0.459706      1.051630   1.000000   1.000000
  427       -0.459399      1.051697   1.000000   1.000000
  428       -0.459356      1.051758   1.000000   1.000000
  429       -0.410050      1.051927   1.000000   1.000000
  430       -0.409972      1.078661   1.000000   1.000000
  431       -0.407737      1.078737   1.000000   1.000000
  432       -0.407564      1.078845   1.000000   1.000000
  433       -0.407442      1.078976   1.000000   1.000000
  434       -0.407387      1.079762   1.000000   1.000000
  435       -0.407351      1.079797   1.000000   1.000000
  436       -0.407297      1.079985   1.000000   1.000000
  437       -0.383326      1.080042   1.000000   1.000000
  438       -0.383234      1.192793   1.000000   1.000000
  439       -0.378176      1.192940   1.000000   1.000000
  440       -0.368842      1.376462   1.000000   1.000000
  441       -0.368811      1.390345   1.000000   1.000000
  442       -0.368778      1.391140   1.000000   1.000000
  443       -0.368695      1.391249   1.000000   1.000000
  444       -0.368682      1.391299   1.000000   1.000000
  445       -0.368656      1.391392   1.000000   1.000000
  446       -0.368606      1.437316   1.000000   1.000000
  447       -0.368513      1.450208   1.000000   1.000000
  448       -0.353580      1.526168   1.000000   1.000000
  449       -0.353502      1.526335   1.000000   1.000000
  450       -0.349051      1.526483   1.000000   1.000000
  451       -0.341785      1.526597   1.000000   1.000000
  452       -0.335816      1.528758   1.000000   1.000000
  453       -0.335780      1.528902   1.000000   1.000000
  454       -0.335425      1.528982   1.000000   1.000000
  455       -0.335373      1.529240   1.000000   1.000000
  456       -0.334202      1.558300   1.000000   1.000000
  457       -0.334185      1.558309   1.000000   1.000000
  458       -0.334046      1.558350   1.000000   1.000000
  459       -0.334016      1.558375   1.000000   1.000000
  460       -0.324299      1.566414   1.000000   1.000000
  461       -0.324227      1.566742   1.000000   1.000000
  462       -0.323922      1.566814   1.000000   1.000000
  463       -0.323764      1.567197   1.000000   1.000000
  464       -0.321672      1.568041   1.000000   1.000000
  465       -0.321636      1.568255   1.000000   1.000000
  466       -0.321201      1.568365   1.000000   1.000000
  467       -0.321156      1.568894   1.000000   1.000000
  468       -0.303842      1.586591   1.000000   1.000000
  469       -0.295910      1.586664   1.000000   1.000000
  470       -0.288091      1.695621   1.000000   1.000000
  471       -0.287937      1.695819   1.000000   1.000000
  472       -0.287765      1.741004   1.000000   1.000000
  473       -0.287605      1.741077   1.000000   1.000000
  474       -0.280400      1.741178   1.000000   1.000000
  475       -0.280375      1.741255   1.000000   1.000000
  476       -0.275070      1.746859   1.000000   1.000000
  477       -0.275053      1.746862   1.000000   1.000000
  478       -0.274825      1.746900   1.000000   1.000000
  479       -0.274812      1.746902   1.000000   1.000000
  480       -0.241676      1.779043   1.000000   1.000000
  481       -0.241647      1.780596   1.000000   1.000000
  482       -0.241635      1.780661   1.000000   1.000000
  483       -0.241565      1.836611   1.000000   1.000000
  484       -0.241409      1.836950   1.000000   1.000000
  485       -0.241363      1.837337   1.000000   1.000000
  486       -0.241291      1.837468   1.000000   1.000000
  487       -0.241207      1.837752   1.000000   1.000000
  488       -0.207400      1.837995   1.000000   1.000000
  489       -0.207393      1.838423   1.000000   1.000000
  490       -0.199691      1.838460   1.000000   1.000000
  491       -0.199593      1.866203   1.000000   1.000000
  492       -0.199528      1.866409   1.000000   1.000000
  493       -0.199440      1.913004   1.000000   1.000000
  494       -0.194091      1.913328   1.000000   1.000000
  495       -0.193930      1.913499   1.000000   1.000000
  496       -0.164036      1.913539   1.000000   1.000000
  497       -0.163878      1.913608   1.000000   1.000000
  498       -0.163758      1.913677   1.000000   1.000000
  499       -0.163750      1.913819   1.000000   1.000000
  500       -0.156660      1.914180   1.000000   1.000000
  501       -0.156645      1.926937   1.000000   1.000000
  502       -0.156185      1.927000   1.000000   1.000000
  503       -0.156175      1.927038   1.000000   1.000000
  504       -0.139052      1.927146   1.000000   1.000000
  505       -0.139026      2.133165   1.000000   1.000000
  506       -0.138845      2.133338   1.000000   1.000000
  507       -0.138812      2.191259   1.000000   1.000000
  508       -0.091022      2.193190   1.000000   1.000000
  509       -0.090911      2.300458   1.000000   1.000000
  510       -0.082557      2.300809   1.000000   1.000000
  511       -0.082509      2.301156   1.000000   1.000000
  512       -0.082464      2.301275   1.000000   1.000000