 126 126   0   0
  0.1357194E+02  0.1157659E-08  0.1157660E-08  0.1387803E-08  0.5000000E-15
  1.000000000000000E-004
  CAR 
 unknown system                          
     17.63086694    -54.41661513  301      5.41281478      1.00000000
    -54.417  0.0000E+00  0.0000E+00  0.0000E+00  0.0000E+00
    -54.176  0.0000E+00  0.0000E+00  0.0000E+00  0.0000E+00
    -53.936  0.0000E+00  0.0000E+00  0.0000E+00  0.0000E+00
    -53.696  0.0000E+00  0.0000E+00  0.0000E+00  0.0000E+00
    -53.456  0.0000E+00  0.0000E+00  0.0000E+00  0.0000E+00
    -53.216  0.0000E+00  0.0000E+00  0.0000E+00  0.0000E+00
    -52.976  0.0000E+00  0.0000E+00  0.0000E+00  0.0000E+00
    -52.736  0.0000E+00  0.0000E+00  0.0000E+00  0.0000E+00
    -52.495  0.0000E+00  0.0000E+00  0.0000E+00  0.0000E+00
    -52.255  0.0000E+00  0.0000E+00  0.0000E+00  0.0000E+00
    -52.015  0.0000E+00  0.0000E+00  0.0000E+00  0.0000E+00
    -51.775  0.0000E+00  0.0000E+00  0.0000E+00  0.0000E+00
    -51.535  0.0000E+00  0.0000E+00  0.0000E+00  0.0000E+00
    -51.295  0.8574E-03  0.0000E+00  0.2059E-03  0.0000E+00
    -51.054  0.1487E+03  0.0000E+00  0.3571E+02  0.0000E+00
    -50.814  0.1224E+01  0.0000E+00  0.3600E+02  0.0000E+00
    -50.574  0.0000E+00  0.0000E+00  0.3600E+02  0.0000E+00
    -50.334  0.0000E+00  0.0000E+00  0.3600E+02  0.0000E+00
    -50.094  0.0000E+00  0.0000E+00  0.3600E+02  0.0000E+00
    -49.854  0.2199E-05  0.0000E+00  0.3600E+02  0.0000E+00
    -49.613  0.2605E+03  0.0000E+00  0.9856E+02  0.0000E+00
    -49.373  0.3929E+02  0.0000E+00  0.1080E+03  0.0000E+00
    -49.133  0.0000E+00  0.0000E+00  0.1080E+03  0.0000E+00
    -48.893  0.0000E+00  0.0000E+00  0.1080E+03  0.0000E+00
    -48.653  0.0000E+00  0.0000E+00  0.1080E+03  0.0000E+00
    -48.413  0.0000E+00  0.0000E+00  0.1080E+03  0.0000E+00
    -48.173  0.0000E+00  0.0000E+00  0.1080E+03  0.0000E+00
    -47.932  0.0000E+00  0.0000E+00  0.1080E+03  0.0000E+00
    -47.692  0.0000E+00  0.0000E+00  0.1080E+03  0.0000E+00
    -47.452  0.0000E+00  0.0000E+00  0.1080E+03  0.0000E+00
    -47.212  0.0000E+00  0.0000E+00  0.1080E+03  0.0000E+00
    -46.972  0.0000E+00  0.0000E+00  0.1080E+03  0.0000E+00
    -46.732  0.0000E+00  0.0000E+00  0.1080E+03  0.0000E+00
    -46.491  0.0000E+00  0.3918E+00  0.1080E+03  0.9410E-01
    -46.251  0.0000E+00  0.1495E+03  0.1080E+03  0.3600E+02
    -46.011  0.0000E+00  0.5198E+01  0.1080E+03  0.3725E+02
    -45.771  0.0000E+00  0.2946E+03  0.1080E+03  0.1080E+03
    -45.531  0.0000E+00  0.0000E+00  0.1080E+03  0.1080E+03
    -45.291  0.0000E+00  0.0000E+00  0.1080E+03  0.1080E+03
    -45.050  0.0000E+00  0.0000E+00  0.1080E+03  0.1080E+03
    -44.810  0.0000E+00  0.0000E+00  0.1080E+03  0.1080E+03
    -44.570  0.0000E+00  0.0000E+00  0.1080E+03  0.1080E+03
    -44.330  0.0000E+00  0.0000E+00  0.1080E+03  0.1080E+03
    -44.090  0.0000E+00  0.0000E+00  0.1080E+03  0.1080E+03
    -43.850  0.0000E+00  0.0000E+00  0.1080E+03  0.1080E+03
    -43.609  0.0000E+00  0.0000E+00  0.1080E+03  0.1080E+03
    -43.369  0.0000E+00  0.0000E+00  0.1080E+03  0.1080E+03
    -43.129  0.0000E+00  0.0000E+00  0.1080E+03  0.1080E+03
    -42.889  0.0000E+00  0.0000E+00  0.1080E+03  0.1080E+03
    -42.649  0.0000E+00  0.0000E+00  0.1080E+03  0.1080E+03
    -42.409  0.0000E+00  0.0000E+00  0.1080E+03  0.1080E+03
    -42.169  0.0000E+00  0.0000E+00  0.1080E+03  0.1080E+03
    -41.928  0.0000E+00  0.0000E+00  0.1080E+03  0.1080E+03
    -41.688  0.0000E+00  0.0000E+00  0.1080E+03  0.1080E+03
    -41.448  0.0000E+00  0.0000E+00  0.1080E+03  0.1080E+03
    -41.208  0.0000E+00  0.0000E+00  0.1080E+03  0.1080E+03
    -40.968  0.0000E+00  0.0000E+00  0.1080E+03  0.1080E+03
    -40.728  0.0000E+00  0.0000E+00  0.1080E+03  0.1080E+03
    -40.487  0.0000E+00  0.0000E+00  0.1080E+03  0.1080E+03
    -40.247  0.0000E+00  0.0000E+00  0.1080E+03  0.1080E+03
    -40.007  0.0000E+00  0.0000E+00  0.1080E+03  0.1080E+03
    -39.767  0.2471E-02  0.2286E-02  0.1080E+03  0.1080E+03
    -39.527  0.1481E+03  0.1480E+03  0.1436E+03  0.1435E+03
    -39.287  0.1848E+01  0.1917E+01  0.1440E+03  0.1440E+03
    -39.046  0.0000E+00  0.0000E+00  0.1440E+03  0.1440E+03
    -38.806  0.0000E+00  0.0000E+00  0.1440E+03  0.1440E+03
    -38.566  0.0000E+00  0.0000E+00  0.1440E+03  0.1440E+03
    -38.326  0.0000E+00  0.0000E+00  0.1440E+03  0.1440E+03
    -38.086  0.0000E+00  0.0000E+00  0.1440E+03  0.1440E+03
    -37.846  0.0000E+00  0.0000E+00  0.1440E+03  0.1440E+03
    -37.606  0.0000E+00  0.0000E+00  0.1440E+03  0.1440E+03
    -37.365  0.0000E+00  0.0000E+00  0.1440E+03  0.1440E+03
    -37.125  0.0000E+00  0.0000E+00  0.1440E+03  0.1440E+03
    -36.885  0.0000E+00  0.0000E+00  0.1440E+03  0.1440E+03
    -36.645  0.0000E+00  0.0000E+00  0.1440E+03  0.1440E+03
    -36.405  0.0000E+00  0.0000E+00  0.1440E+03  0.1440E+03
    -36.165  0.0000E+00  0.0000E+00  0.1440E+03  0.1440E+03
    -35.924  0.0000E+00  0.0000E+00  0.1440E+03  0.1440E+03
    -35.684  0.0000E+00  0.0000E+00  0.1440E+03  0.1440E+03
    -35.444  0.0000E+00  0.0000E+00  0.1440E+03  0.1440E+03
    -35.204  0.0000E+00  0.0000E+00  0.1440E+03  0.1440E+03
    -34.964  0.0000E+00  0.0000E+00  0.1440E+03  0.1440E+03
    -34.724  0.0000E+00  0.0000E+00  0.1440E+03  0.1440E+03
    -34.483  0.0000E+00  0.0000E+00  0.1440E+03  0.1440E+03
    -34.243  0.0000E+00  0.0000E+00  0.1440E+03  0.1440E+03
    -34.003  0.0000E+00  0.0000E+00  0.1440E+03  0.1440E+03
    -33.763  0.0000E+00  0.0000E+00  0.1440E+03  0.1440E+03
    -33.523  0.0000E+00  0.0000E+00  0.1440E+03  0.1440E+03
    -33.283  0.0000E+00  0.0000E+00  0.1440E+03  0.1440E+03
    -33.043  0.0000E+00  0.0000E+00  0.1440E+03  0.1440E+03
    -32.802  0.0000E+00  0.0000E+00  0.1440E+03  0.1440E+03
    -32.562  0.0000E+00  0.0000E+00  0.1440E+03  0.1440E+03
    -32.322  0.0000E+00  0.0000E+00  0.1440E+03  0.1440E+03
    -32.082  0.0000E+00  0.0000E+00  0.1440E+03  0.1440E+03
    -31.842  0.0000E+00  0.0000E+00  0.1440E+03  0.1440E+03
    -31.602  0.0000E+00  0.0000E+00  0.1440E+03  0.1440E+03
    -31.361  0.0000E+00  0.0000E+00  0.1440E+03  0.1440E+03
    -31.121  0.0000E+00  0.0000E+00  0.1440E+03  0.1440E+03
    -30.881  0.0000E+00  0.0000E+00  0.1440E+03  0.1440E+03
    -30.641  0.0000E+00  0.0000E+00  0.1440E+03  0.1440E+03
    -30.401  0.0000E+00  0.0000E+00  0.1440E+03  0.1440E+03
    -30.161  0.0000E+00  0.0000E+00  0.1440E+03  0.1440E+03
    -29.920  0.0000E+00  0.0000E+00  0.1440E+03  0.1440E+03
    -29.680  0.0000E+00  0.0000E+00  0.1440E+03  0.1440E+03
    -29.440  0.0000E+00  0.0000E+00  0.1440E+03  0.1440E+03
    -29.200  0.0000E+00  0.0000E+00  0.1440E+03  0.1440E+03
    -28.960  0.0000E+00  0.0000E+00  0.1440E+03  0.1440E+03
    -28.720  0.0000E+00  0.0000E+00  0.1440E+03  0.1440E+03
    -28.480  0.0000E+00  0.0000E+00  0.1440E+03  0.1440E+03
    -28.239  0.0000E+00  0.0000E+00  0.1440E+03  0.1440E+03
    -27.999  0.0000E+00  0.0000E+00  0.1440E+03  0.1440E+03
    -27.759  0.0000E+00  0.0000E+00  0.1440E+03  0.1440E+03
    -27.519  0.0000E+00  0.0000E+00  0.1440E+03  0.1440E+03
    -27.279  0.0000E+00  0.0000E+00  0.1440E+03  0.1440E+03
    -27.039  0.0000E+00  0.0000E+00  0.1440E+03  0.1440E+03
    -26.798  0.0000E+00  0.0000E+00  0.1440E+03  0.1440E+03
    -26.558  0.0000E+00  0.0000E+00  0.1440E+03  0.1440E+03
    -26.318  0.0000E+00  0.0000E+00  0.1440E+03  0.1440E+03
    -26.078  0.0000E+00  0.0000E+00  0.1440E+03  0.1440E+03
    -25.838  0.0000E+00  0.0000E+00  0.1440E+03  0.1440E+03
    -25.598  0.0000E+00  0.0000E+00  0.1440E+03  0.1440E+03
    -25.357  0.0000E+00  0.0000E+00  0.1440E+03  0.1440E+03
    -25.117  0.0000E+00  0.0000E+00  0.1440E+03  0.1440E+03
    -24.877  0.0000E+00  0.0000E+00  0.1440E+03  0.1440E+03
    -24.637  0.0000E+00  0.0000E+00  0.1440E+03  0.1440E+03
    -24.397  0.0000E+00  0.0000E+00  0.1440E+03  0.1440E+03
    -24.157  0.0000E+00  0.0000E+00  0.1440E+03  0.1440E+03
    -23.917  0.0000E+00  0.0000E+00  0.1440E+03  0.1440E+03
    -23.676  0.0000E+00  0.0000E+00  0.1440E+03  0.1440E+03
    -23.436  0.0000E+00  0.0000E+00  0.1440E+03  0.1440E+03
    -23.196  0.0000E+00  0.0000E+00  0.1440E+03  0.1440E+03
    -22.956  0.0000E+00  0.0000E+00  0.1440E+03  0.1440E+03
    -22.716  0.0000E+00  0.0000E+00  0.1440E+03  0.1440E+03
    -22.476  0.0000E+00  0.0000E+00  0.1440E+03  0.1440E+03
    -22.235  0.0000E+00  0.0000E+00  0.1440E+03  0.1440E+03
    -21.995  0.0000E+00  0.0000E+00  0.1440E+03  0.1440E+03
    -21.755  0.0000E+00  0.0000E+00  0.1440E+03  0.1440E+03
    -21.515  0.0000E+00  0.0000E+00  0.1440E+03  0.1440E+03
    -21.275  0.0000E+00  0.0000E+00  0.1440E+03  0.1440E+03
    -21.035  0.0000E+00  0.0000E+00  0.1440E+03  0.1440E+03
    -20.794  0.0000E+00  0.0000E+00  0.1440E+03  0.1440E+03
    -20.554  0.0000E+00  0.0000E+00  0.1440E+03  0.1440E+03
    -20.314  0.0000E+00  0.0000E+00  0.1440E+03  0.1440E+03
    -20.074  0.0000E+00  0.0000E+00  0.1440E+03  0.1440E+03
    -19.834  0.0000E+00  0.0000E+00  0.1440E+03  0.1440E+03
    -19.594  0.0000E+00  0.0000E+00  0.1440E+03  0.1440E+03
    -19.354  0.0000E+00  0.0000E+00  0.1440E+03  0.1440E+03
    -19.113  0.0000E+00  0.0000E+00  0.1440E+03  0.1440E+03
    -18.873  0.0000E+00  0.0000E+00  0.1440E+03  0.1440E+03
    -18.633  0.0000E+00  0.0000E+00  0.1440E+03  0.1440E+03
    -18.393  0.0000E+00  0.0000E+00  0.1440E+03  0.1440E+03
    -18.153  0.0000E+00  0.0000E+00  0.1440E+03  0.1440E+03
    -17.913  0.0000E+00  0.0000E+00  0.1440E+03  0.1440E+03
    -17.672  0.0000E+00  0.0000E+00  0.1440E+03  0.1440E+03
    -17.432  0.0000E+00  0.0000E+00  0.1440E+03  0.1440E+03
    -17.192  0.0000E+00  0.0000E+00  0.1440E+03  0.1440E+03
    -16.952  0.0000E+00  0.0000E+00  0.1440E+03  0.1440E+03
    -16.712  0.0000E+00  0.0000E+00  0.1440E+03  0.1440E+03
    -16.472  0.0000E+00  0.0000E+00  0.1440E+03  0.1440E+03
    -16.231  0.0000E+00  0.0000E+00  0.1440E+03  0.1440E+03
    -15.991  0.0000E+00  0.0000E+00  0.1440E+03  0.1440E+03
    -15.751  0.0000E+00  0.0000E+00  0.1440E+03  0.1440E+03
    -15.511  0.0000E+00  0.0000E+00  0.1440E+03  0.1440E+03
    -15.271  0.0000E+00  0.0000E+00  0.1440E+03  0.1440E+03
    -15.031  0.0000E+00  0.0000E+00  0.1440E+03  0.1440E+03
    -14.790  0.0000E+00  0.0000E+00  0.1440E+03  0.1440E+03
    -14.550  0.0000E+00  0.0000E+00  0.1440E+03  0.1440E+03
    -14.310  0.0000E+00  0.0000E+00  0.1440E+03  0.1440E+03
    -14.070  0.0000E+00  0.0000E+00  0.1440E+03  0.1440E+03
    -13.830  0.0000E+00  0.0000E+00  0.1440E+03  0.1440E+03
    -13.590  0.0000E+00  0.0000E+00  0.1440E+03  0.1440E+03
    -13.350  0.0000E+00  0.0000E+00  0.1440E+03  0.1440E+03
    -13.109  0.0000E+00  0.0000E+00  0.1440E+03  0.1440E+03
    -12.869  0.4446E-01  0.0000E+00  0.1440E+03  0.1440E+03
    -12.629  0.7352E+02  0.9514E-03  0.1617E+03  0.1440E+03
    -12.389  0.1387E+01  0.6608E+02  0.1620E+03  0.1599E+03
    -12.149  0.0000E+00  0.8869E+01  0.1620E+03  0.1620E+03
    -11.909  0.0000E+00  0.0000E+00  0.1620E+03  0.1620E+03
    -11.668  0.0000E+00  0.0000E+00  0.1620E+03  0.1620E+03
    -11.428  0.0000E+00  0.0000E+00  0.1620E+03  0.1620E+03
    -11.188  0.0000E+00  0.0000E+00  0.1620E+03  0.1620E+03
    -10.948  0.0000E+00  0.0000E+00  0.1620E+03  0.1620E+03
    -10.708  0.0000E+00  0.0000E+00  0.1620E+03  0.1620E+03
    -10.468  0.0000E+00  0.0000E+00  0.1620E+03  0.1620E+03
    -10.227  0.0000E+00  0.0000E+00  0.1620E+03  0.1620E+03
     -9.987  0.0000E+00  0.0000E+00  0.1620E+03  0.1620E+03
     -9.747  0.0000E+00  0.0000E+00  0.1620E+03  0.1620E+03
     -9.507  0.0000E+00  0.0000E+00  0.1620E+03  0.1620E+03
     -9.267  0.0000E+00  0.0000E+00  0.1620E+03  0.1620E+03
     -9.027  0.0000E+00  0.0000E+00  0.1620E+03  0.1620E+03
     -8.787  0.0000E+00  0.0000E+00  0.1620E+03  0.1620E+03
     -8.546  0.0000E+00  0.0000E+00  0.1620E+03  0.1620E+03
     -8.306  0.0000E+00  0.0000E+00  0.1620E+03  0.1620E+03
     -8.066  0.0000E+00  0.0000E+00  0.1620E+03  0.1620E+03
     -7.826  0.1120E-01  0.4610E-14  0.1620E+03  0.1620E+03
     -7.586  0.8075E+01  0.1130E+00  0.1639E+03  0.1620E+03
     -7.346  0.1464E+02  0.1001E+02  0.1675E+03  0.1644E+03
     -7.105  0.2502E+02  0.1744E+02  0.1735E+03  0.1686E+03
     -6.865  0.7487E+02  0.2423E+02  0.1914E+03  0.1744E+03
     -6.625  0.2728E+02  0.7109E+02  0.1980E+03  0.1915E+03
     -6.385  0.7173E-04  0.2701E+02  0.1980E+03  0.1980E+03
     -6.145  0.0000E+00  0.7303E-02  0.1980E+03  0.1980E+03
     -5.905  0.0000E+00  0.0000E+00  0.1980E+03  0.1980E+03
     -5.664  0.0000E+00  0.0000E+00  0.1980E+03  0.1980E+03
     -5.424  0.0000E+00  0.0000E+00  0.1980E+03  0.1980E+03
     -5.184  0.0000E+00  0.0000E+00  0.1980E+03  0.1980E+03
     -4.944  0.0000E+00  0.0000E+00  0.1980E+03  0.1980E+03
     -4.704  0.0000E+00  0.0000E+00  0.1980E+03  0.1980E+03
     -4.464  0.0000E+00  0.0000E+00  0.1980E+03  0.1980E+03
     -4.224  0.0000E+00  0.0000E+00  0.1980E+03  0.1980E+03
     -3.983  0.0000E+00  0.0000E+00  0.1980E+03  0.1980E+03
     -3.743  0.0000E+00  0.0000E+00  0.1980E+03  0.1980E+03
     -3.503  0.0000E+00  0.0000E+00  0.1980E+03  0.1980E+03
     -3.263  0.0000E+00  0.0000E+00  0.1980E+03  0.1980E+03
     -3.023  0.0000E+00  0.0000E+00  0.1980E+03  0.1980E+03
     -2.783  0.0000E+00  0.0000E+00  0.1980E+03  0.1980E+03
     -2.542  0.0000E+00  0.0000E+00  0.1980E+03  0.1980E+03
     -2.302  0.0000E+00  0.0000E+00  0.1980E+03  0.1980E+03
     -2.062  0.0000E+00  0.0000E+00  0.1980E+03  0.1980E+03
     -1.822  0.1490E-14  0.0000E+00  0.1980E+03  0.1980E+03
     -1.582  0.2007E+00  0.0000E+00  0.1980E+03  0.1980E+03
     -1.342  0.4812E+02  0.0000E+00  0.2096E+03  0.1980E+03
     -1.101  0.2663E+02  0.0000E+00  0.2160E+03  0.1980E+03
     -0.861  0.3458E+01  0.0000E+00  0.2168E+03  0.1980E+03
     -0.621  0.4165E+02  0.1595E-09  0.2268E+03  0.1980E+03
     -0.381  0.1128E+03  0.1514E+01  0.2539E+03  0.1984E+03
     -0.141  0.1135E+03  0.1276E+02  0.2812E+03  0.2014E+03
      0.099  0.1043E+03  0.2027E+02  0.3062E+03  0.2063E+03
      0.339  0.8735E+02  0.2764E+02  0.3272E+03  0.2129E+03
      0.580  0.7613E+02  0.3134E+02  0.3455E+03  0.2205E+03
      0.820  0.3441E+02  0.3689E+02  0.3538E+03  0.2293E+03
      1.060  0.3061E+02  0.3656E+02  0.3611E+03  0.2381E+03
      1.300  0.4986E+02  0.4676E+02  0.3731E+03  0.2493E+03
      1.540  0.3243E+02  0.3101E+02  0.3809E+03  0.2568E+03
      1.780  0.5735E+02  0.6226E+02  0.3946E+03  0.2717E+03
      2.021  0.1243E+03  0.4616E+02  0.4245E+03  0.2828E+03
      2.261  0.7701E+02  0.1853E+02  0.4430E+03  0.2873E+03
      2.501  0.5294E+02  0.3076E+02  0.4557E+03  0.2946E+03
      2.741  0.3979E+02  0.5971E+02  0.4653E+03  0.3090E+03
      2.981  0.2490E+02  0.4919E+02  0.4713E+03  0.3208E+03
      3.221  0.1600E+02  0.5733E+02  0.4751E+03  0.3346E+03
      3.462  0.2800E+02  0.7515E+02  0.4818E+03  0.3526E+03
      3.702  0.4015E+02  0.2530E+02  0.4915E+03  0.3587E+03
      3.942  0.4274E+02  0.1998E+02  0.5017E+03  0.3635E+03
      4.182  0.4515E+02  0.9551E+02  0.5126E+03  0.3864E+03
      4.422  0.4490E+02  0.3833E+02  0.5233E+03  0.3956E+03
      4.662  0.2486E+02  0.1499E+01  0.5293E+03  0.3960E+03
      4.902  0.2773E+02  0.0000E+00  0.5360E+03  0.3960E+03
      5.143  0.1672E+02  0.0000E+00  0.5400E+03  0.3960E+03
      5.383  0.2540E-01  0.0000E+00  0.5400E+03  0.3960E+03
      5.623  0.0000E+00  0.0000E+00  0.5400E+03  0.3960E+03
      5.863  0.0000E+00  0.0000E+00  0.5400E+03  0.3960E+03
      6.103  0.0000E+00  0.1312E-12  0.5400E+03  0.3960E+03
      6.343  0.0000E+00  0.2185E+00  0.5400E+03  0.3961E+03
      6.584  0.0000E+00  0.4593E+01  0.5400E+03  0.3972E+03
      6.824  0.0000E+00  0.1414E+02  0.5400E+03  0.4006E+03
      7.064  0.0000E+00  0.3041E+02  0.5400E+03  0.4079E+03
      7.304  0.1386E-04  0.5773E+02  0.5400E+03  0.4217E+03
      7.544  0.5817E+00  0.8009E+02  0.5401E+03  0.4410E+03
      7.784  0.2322E+01  0.6654E+02  0.5407E+03  0.4569E+03
      8.025  0.1793E+01  0.8481E+02  0.5411E+03  0.4773E+03
      8.265  0.7085E+01  0.9808E+02  0.5428E+03  0.5009E+03
      8.505  0.7649E+01  0.3778E+02  0.5447E+03  0.5099E+03
      8.745  0.4764E+01  0.4491E+02  0.5458E+03  0.5207E+03
      8.985  0.1158E+02  0.3984E+02  0.5486E+03  0.5303E+03
      9.225  0.2030E+02  0.3898E+02  0.5535E+03  0.5396E+03
      9.465  0.2106E+02  0.1498E+02  0.5585E+03  0.5432E+03
      9.706  0.3090E+02  0.1523E+02  0.5659E+03  0.5469E+03
      9.946  0.2731E+02  0.1315E+02  0.5725E+03  0.5501E+03
     10.186  0.1707E+02  0.2654E+02  0.5766E+03  0.5564E+03
     10.426  0.1463E+02  0.2153E+02  0.5801E+03  0.5616E+03
     10.666  0.1911E+02  0.2818E+02  0.5847E+03  0.5684E+03
     10.906  0.2387E+02  0.2460E+02  0.5904E+03  0.5743E+03
     11.147  0.2913E+02  0.2472E+02  0.5974E+03  0.5802E+03
     11.387  0.2883E+02  0.2079E+02  0.6044E+03  0.5852E+03
     11.627  0.3030E+02  0.2422E+02  0.6116E+03  0.5910E+03
     11.867  0.3038E+02  0.2702E+02  0.6189E+03  0.5975E+03
     12.107  0.4193E+02  0.2643E+02  0.6290E+03  0.6039E+03
     12.347  0.4994E+02  0.3622E+02  0.6410E+03  0.6126E+03
     12.588  0.2487E+02  0.3872E+02  0.6470E+03  0.6219E+03
     12.828  0.2774E+02  0.4633E+02  0.6536E+03  0.6330E+03
     13.068  0.3330E+02  0.3506E+02  0.6616E+03  0.6414E+03
     13.308  0.3657E+02  0.3074E+02  0.6704E+03  0.6488E+03
     13.548  0.2393E+02  0.4802E+02  0.6762E+03  0.6603E+03
     13.788  0.1246E+02  0.3818E+02  0.6792E+03  0.6695E+03
     14.028  0.3517E+01  0.2060E+02  0.6800E+03  0.6744E+03
     14.269  0.1356E-02  0.1796E+02  0.6800E+03  0.6787E+03
     14.509  0.0000E+00  0.5207E+01  0.6800E+03  0.6800E+03
     14.749  0.0000E+00  0.3567E-05  0.6800E+03  0.6800E+03
     14.989  0.0000E+00  0.0000E+00  0.6800E+03  0.6800E+03
     15.229  0.0000E+00  0.0000E+00  0.6800E+03  0.6800E+03
     15.469  0.0000E+00  0.0000E+00  0.6800E+03  0.6800E+03
     15.710  0.0000E+00  0.0000E+00  0.6800E+03  0.6800E+03
     15.950  0.0000E+00  0.0000E+00  0.6800E+03  0.6800E+03
     16.190  0.0000E+00  0.0000E+00  0.6800E+03  0.6800E+03
     16.430  0.0000E+00  0.0000E+00  0.6800E+03  0.6800E+03
     16.670  0.0000E+00  0.0000E+00  0.6800E+03  0.6800E+03
     16.910  0.0000E+00  0.0000E+00  0.6800E+03  0.6800E+03
     17.151  0.0000E+00  0.0000E+00  0.6800E+03  0.6800E+03
     17.391  0.0000E+00  0.0000E+00  0.6800E+03  0.6800E+03
     17.631  0.0000E+00  0.0000E+00  0.6800E+03  0.6800E+03
