<?xml version="1.0" encoding="ISO-8859-1"?>
<modeling>
 <generator>
  <i name="program" type="string">vasp </i>
  <i name="version" type="string">5.4.4.18Apr17-6-g9f103f2a35  </i>
  <i name="subversion" type="string">(build Oct 25 2017 14:42:18) complex            parallel </i>
  <i name="platform" type="string">LinuxIFC </i>
  <i name="date" type="string">2021 04 17 </i>
  <i name="time" type="string">04:31:21 </i>
 </generator>
 <incar>
  <i type="string" name="PREC">accurate</i>
  <i type="string" name="ALGO"> all</i>
  <i type="logical" name="ADDGRID"> T  </i>
  <i type="int" name="ISPIN">     2</i>
  <i type="int" name="ICHARG">     1</i>
  <i type="int" name="NELM">   200</i>
  <i type="int" name="NELMIN">     8</i>
  <i name="EDIFF">      0.00000100</i>
  <i type="int" name="ISIF">     3</i>
  <i type="int" name="ISYM">     0</i>
  <i name="ENCUT">    650.00000000</i>
  <v name="MAGMOM">      0.60000000      0.60000000      0.60000000      0.60000000      0.60000000      0.60000000      0.60000000      0.60000000      0.60000000      0.60000000      0.60000000      0.60000000      0.60000000      0.60000000      0.60000000      0.60000000      0.60000000      0.60000000      0.60000000      0.60000000
      0.60000000      0.60000000      0.60000000      0.60000000      0.60000000      0.60000000      0.60000000      0.60000000      0.60000000      0.60000000      0.60000000      0.60000000      0.60000000      0.60000000      0.60000000      0.60000000      0.60000000      0.60000000      0.60000000      0.60000000
      0.60000000      0.60000000      0.60000000      0.60000000      0.60000000      0.60000000      0.60000000      0.60000000      0.60000000      0.60000000      0.60000000      0.60000000      0.60000000      0.60000000      0.60000000      0.60000000      0.60000000      0.60000000      0.60000000      0.60000000
      0.60000000      0.60000000      0.60000000      0.60000000      0.60000000      0.60000000      0.60000000      0.60000000      0.60000000      0.60000000      0.60000000      0.60000000      0.60000000      0.60000000      0.60000000      0.60000000      0.60000000      0.60000000      0.60000000      0.60000000
      0.60000000      0.60000000      0.60000000      0.60000000      0.60000000      0.60000000      0.60000000      0.60000000      0.60000000      0.60000000      5.00000000      5.00000000      5.00000000      5.00000000      5.00000000      5.00000000      5.00000000      5.00000000      5.00000000      5.00000000
      5.00000000      5.00000000      5.00000000      5.00000000      5.00000000      5.00000000      5.00000000      5.00000000      5.00000000      5.00000000      5.00000000      5.00000000      5.00000000      5.00000000      5.00000000      5.00000000      5.00000000      5.00000000      5.00000000      5.00000000
      5.00000000      5.00000000      5.00000000      5.00000000      5.00000000      5.00000000</v>
  <i type="logical" name="LREAL"> F  </i>
  <i type="int" name="ISMEAR">     0</i>
  <i name="SIGMA">      0.05000000</i>
  <i type="int" name="NWRITE">     1</i>
  <i type="int" name="LMAXMIX">     4</i>
  <i type="logical" name="LWAVE"> F  </i>
  <i type="logical" name="LASPH"> T  </i>
  <v type="int" name="KPOINT_BSE">    -1     0     0     0</v>
  <i type="int" name="NELM">   200</i>
  <i type="string" name="GGA"> pe</i>
  <i type="logical" name="LDAU"> T  </i>
  <v type="int" name="LDAUTYPE">     2</v>
  <v type="int" name="LDAUL">    -1    -1    -1     2</v>
  <v name="LDAUU">      0.00000000      0.00000000      0.00000000      4.00000000</v>
  <v name="LDAUJ">      0.00000000      0.00000000      0.00000000      0.00000000</v>
  <i type="logical" name="LASPH"> T  </i>
 </incar>
 <structure name="primitive_cell" >
  <crystal>
   <varray name="basis" >
    <v>      11.57658324       0.00206628      -0.00954291 </v>
    <v>      -0.00198552      11.57659983      -0.00954294 </v>
    <v>      -3.84767942      -3.84903072      12.76635918 </v>
   </varray>
   <i name="volume">   1710.06494320 </i>
   <varray name="rec_basis" >
    <v>       0.08640274       0.00003629       0.02605204 </v>
    <v>       0.00000605       0.08640263       0.02605204 </v>
    <v>       0.00006459       0.00006461       0.07836982 </v>
   </varray>
  </crystal>
  <varray name="positions" >
   <v>       0.14940024       0.01727802       0.00000711 </v>
   <v>       0.31606288       0.01727079       0.00000000 </v>
   <v>      -0.01727046       0.01727079       0.00000000 </v>
   <v>       0.19934057       0.23388678       0.14983771 </v>
   <v>       0.19934057      -0.09944656       0.14983771 </v>
   <v>       0.09944656       0.13399276      -0.14983771 </v>
   <v>       0.09944656      -0.19934057      -0.14983771 </v>
   <v>       0.31605532       0.18393310      -0.00000711 </v>
   <v>      -0.01727802       0.18393310      -0.00000711 </v>
   <v>       0.31605532      -0.14940024      -0.00000711 </v>
   <v>      -0.01727802      -0.14940024      -0.00000711 </v>
   <v>       0.36936541       0.07057630       0.15990038 </v>
   <v>       0.03603208       0.07144011       0.15990038 </v>
   <v>       0.26275703      -0.03603208      -0.15990038 </v>
   <v>      -0.07057630      -0.03603208      -0.15990038 </v>
   <v>       0.48273357       0.01727802       0.00000711 </v>
   <v>      -0.18393310       0.01727802       0.00000711 </v>
   <v>       0.14940024       0.35061135       0.00000711 </v>
   <v>       0.14940024      -0.31605532       0.00000711 </v>
   <v>      -0.01727046       0.35060413       0.00000000 </v>
   <v>       0.31606288       0.35060413       0.00000000 </v>
   <v>       0.31606288      -0.31606254       0.00000000 </v>
   <v>      -0.01727046      -0.31606254       0.00000000 </v>
   <v>      -0.46732609      -0.09944656       0.14983771 </v>
   <v>      -0.46732609       0.23388678       0.14983771 </v>
   <v>      -0.13399276       0.23388678       0.14983771 </v>
   <v>       0.43277989       0.13399276      -0.14983771 </v>
   <v>       0.43277989      -0.19934057      -0.14983771 </v>
   <v>      -0.13399276      -0.09944656       0.14983771 </v>
   <v>      -0.23388678       0.13399276      -0.14983771 </v>
   <v>      -0.23388678      -0.19934057      -0.14983771 </v>
   <v>       0.26275703       0.29730125       0.34009962 </v>
   <v>       0.26275703      -0.03603208       0.34009962 </v>
   <v>       0.03603208      -0.26275703      -0.34009962 </v>
   <v>       0.03603208       0.07057630      -0.34009962 </v>
   <v>       0.26275703       0.29730125      -0.15990038 </v>
   <v>       0.36936541      -0.26275703       0.15990038 </v>
   <v>       0.03603208       0.40390964       0.15990038 </v>
   <v>       0.03603208      -0.26275703       0.15990038 </v>
   <v>       0.36936541       0.40390964       0.15990038 </v>
   <v>      -0.07057630       0.29730125      -0.15990038 </v>
   <v>       0.26275703      -0.36936541      -0.15990038 </v>
   <v>      -0.07057630      -0.36936541      -0.15990038 </v>
   <v>       0.43277989       0.13399276       0.35016229 </v>
   <v>       0.09944656       0.13399276       0.35016229 </v>
   <v>       0.19934057      -0.09944656      -0.35016229 </v>
   <v>      -0.13399276      -0.09944656      -0.35016229 </v>
   <v>      -0.18393310       0.35061135       0.00000711 </v>
   <v>       0.48273357      -0.31605532       0.00000711 </v>
   <v>       0.48273357       0.35061135       0.00000711 </v>
   <v>      -0.18393310      -0.31605532       0.00000711 </v>
   <v>      -0.35060379       0.01727079       0.00000000 </v>
   <v>       0.19934057      -0.43277989       0.14983771 </v>
   <v>       0.09944656       0.46732609      -0.14983771 </v>
   <v>      -0.35061135       0.18393310      -0.00000711 </v>
   <v>       0.31605532      -0.48273357      -0.00000711 </v>
   <v>      -0.35061135      -0.14940024      -0.00000711 </v>
   <v>      -0.01727802      -0.48273357      -0.00000711 </v>
   <v>      -0.40390964       0.29730125       0.34009962 </v>
   <v>      -0.40390964      -0.03603208       0.34009962 </v>
   <v>      -0.07057630       0.29730125       0.34009962 </v>
   <v>      -0.07057630      -0.03603208       0.34009962 </v>
   <v>      -0.29730125       0.07057630      -0.34009962 </v>
   <v>       0.36936541      -0.26275703      -0.34009962 </v>
   <v>      -0.29730125      -0.26275703      -0.34009962 </v>
   <v>       0.36936541       0.07057630      -0.34009962 </v>
   <v>      -0.40390964      -0.03603208      -0.15990038 </v>
   <v>      -0.29730125       0.07057630       0.15990038 </v>
   <v>       0.43277989       0.46732609       0.35016229 </v>
   <v>       0.09944656       0.46732609       0.35016229 </v>
   <v>       0.43277989      -0.19934057       0.35016229 </v>
   <v>       0.09944656      -0.19934057       0.35016229 </v>
   <v>       0.19934057       0.23388678      -0.35016229 </v>
   <v>       0.19934057      -0.43277989      -0.35016229 </v>
   <v>      -0.13399276       0.23388678      -0.35016229 </v>
   <v>      -0.13399276      -0.43277989      -0.35016229 </v>
   <v>       0.31605532       0.18393310       0.49999289 </v>
   <v>      -0.01727802      -0.14940024       0.49999289 </v>
   <v>       0.31606288       0.35060413      -0.50000000 </v>
   <v>       0.31606288       0.01727079      -0.50000000 </v>
   <v>      -0.01727046       0.01727079      -0.50000000 </v>
   <v>      -0.01727046      -0.31606254      -0.50000000 </v>
   <v>       0.48273357       0.01727802      -0.49999289 </v>
   <v>      -0.18393310       0.01727802      -0.49999289 </v>
   <v>       0.14940024       0.35061135      -0.49999289 </v>
   <v>       0.14940024      -0.31605532      -0.49999289 </v>
   <v>       0.14940024       0.01727802      -0.49999289 </v>
   <v>       0.48273357       0.35061135      -0.49999289 </v>
   <v>      -0.18393310      -0.31605532      -0.49999289 </v>
   <v>      -0.35060379       0.35060413       0.00000000 </v>
   <v>      -0.35060379      -0.31606254       0.00000000 </v>
   <v>      -0.46732609      -0.43277989       0.14983771 </v>
   <v>      -0.13399276      -0.43277989       0.14983771 </v>
   <v>       0.43277989       0.46732609      -0.14983771 </v>
   <v>      -0.23388678       0.46732609      -0.14983771 </v>
   <v>       0.26275703      -0.36936541       0.34009962 </v>
   <v>       0.03603208       0.40390964      -0.34009962 </v>
   <v>      -0.40390964       0.29730125      -0.15990038 </v>
   <v>      -0.29730125       0.40390964       0.15990038 </v>
   <v>      -0.29730125      -0.26275703       0.15990038 </v>
   <v>      -0.40390964      -0.36936541      -0.15990038 </v>
   <v>      -0.23388678       0.13399276       0.35016229 </v>
   <v>      -0.46732609      -0.09944656      -0.35016229 </v>
   <v>      -0.35061135       0.18393310       0.49999289 </v>
   <v>       0.31605532      -0.48273357       0.49999289 </v>
   <v>      -0.01727802       0.18393310       0.49999289 </v>
   <v>       0.31605532      -0.14940024       0.49999289 </v>
   <v>      -0.35061135      -0.14940024       0.49999289 </v>
   <v>      -0.01727802      -0.48273357       0.49999289 </v>
   <v>      -0.35060379       0.35060413      -0.50000000 </v>
   <v>      -0.01727046       0.35060413      -0.50000000 </v>
   <v>      -0.35060379       0.01727079      -0.50000000 </v>
   <v>       0.31606288      -0.31606254      -0.50000000 </v>
   <v>      -0.35060379      -0.31606254      -0.50000000 </v>
   <v>      -0.35061135      -0.48273357      -0.00000711 </v>
   <v>      -0.40390964      -0.36936541       0.34009962 </v>
   <v>      -0.07057630      -0.36936541       0.34009962 </v>
   <v>      -0.29730125       0.40390964      -0.34009962 </v>
   <v>       0.36936541       0.40390964      -0.34009962 </v>
   <v>      -0.23388678      -0.19934057       0.35016229 </v>
   <v>      -0.23388678       0.46732609       0.35016229 </v>
   <v>      -0.46732609      -0.43277989      -0.35016229 </v>
   <v>      -0.46732609       0.23388678      -0.35016229 </v>
   <v>      -0.35061135      -0.48273357       0.49999289 </v>
   <v>       0.48273357      -0.31605532      -0.49999289 </v>
   <v>      -0.18393310       0.35061135      -0.49999289 </v>
  </varray>
 </structure>
 <varray name="primitive_index" >
  <v type="int" >        1 </v>
  <v type="int" >       37 </v>
  <v type="int" >       39 </v>
  <v type="int" >       55 </v>
  <v type="int" >       61 </v>
  <v type="int" >       82 </v>
  <v type="int" >       88 </v>
  <v type="int" >       28 </v>
  <v type="int" >       30 </v>
  <v type="int" >       34 </v>
  <v type="int" >       36 </v>
  <v type="int" >       92 </v>
  <v type="int" >       91 </v>
  <v type="int" >      124 </v>
  <v type="int" >      126 </v>
  <v type="int" >        2 </v>
  <v type="int" >        3 </v>
  <v type="int" >        4 </v>
  <v type="int" >        7 </v>
  <v type="int" >       42 </v>
  <v type="int" >       40 </v>
  <v type="int" >       43 </v>
  <v type="int" >       45 </v>
  <v type="int" >       62 </v>
  <v type="int" >       56 </v>
  <v type="int" >       57 </v>
  <v type="int" >       83 </v>
  <v type="int" >       89 </v>
  <v type="int" >       63 </v>
  <v type="int" >       84 </v>
  <v type="int" >       90 </v>
  <v type="int" >      109 </v>
  <v type="int" >      115 </v>
  <v type="int" >      106 </v>
  <v type="int" >      100 </v>
  <v type="int" >      118 </v>
  <v type="int" >       98 </v>
  <v type="int" >       94 </v>
  <v type="int" >       97 </v>
  <v type="int" >       95 </v>
  <v type="int" >      120 </v>
  <v type="int" >      121 </v>
  <v type="int" >      123 </v>
  <v type="int" >       74 </v>
  <v type="int" >       73 </v>
  <v type="int" >       70 </v>
  <v type="int" >       72 </v>
  <v type="int" >        6 </v>
  <v type="int" >        8 </v>
  <v type="int" >        5 </v>
  <v type="int" >        9 </v>
  <v type="int" >       38 </v>
  <v type="int" >       58 </v>
  <v type="int" >       85 </v>
  <v type="int" >       29 </v>
  <v type="int" >       31 </v>
  <v type="int" >       35 </v>
  <v type="int" >       33 </v>
  <v type="int" >      110 </v>
  <v type="int" >      116 </v>
  <v type="int" >      111 </v>
  <v type="int" >      117 </v>
  <v type="int" >      102 </v>
  <v type="int" >      107 </v>
  <v type="int" >      108 </v>
  <v type="int" >      101 </v>
  <v type="int" >      125 </v>
  <v type="int" >       93 </v>
  <v type="int" >       77 </v>
  <v type="int" >       76 </v>
  <v type="int" >       80 </v>
  <v type="int" >       79 </v>
  <v type="int" >       64 </v>
  <v type="int" >       67 </v>
  <v type="int" >       66 </v>
  <v type="int" >       69 </v>
  <v type="int" >       19 </v>
  <v type="int" >       27 </v>
  <v type="int" >       49 </v>
  <v type="int" >       46 </v>
  <v type="int" >       48 </v>
  <v type="int" >       54 </v>
  <v type="int" >       11 </v>
  <v type="int" >       12 </v>
  <v type="int" >       13 </v>
  <v type="int" >       16 </v>
  <v type="int" >       10 </v>
  <v type="int" >       14 </v>
  <v type="int" >       18 </v>
  <v type="int" >       41 </v>
  <v type="int" >       44 </v>
  <v type="int" >       59 </v>
  <v type="int" >       60 </v>
  <v type="int" >       86 </v>
  <v type="int" >       87 </v>
  <v type="int" >      112 </v>
  <v type="int" >      103 </v>
  <v type="int" >      119 </v>
  <v type="int" >       96 </v>
  <v type="int" >       99 </v>
  <v type="int" >      122 </v>
  <v type="int" >       75 </v>
  <v type="int" >       71 </v>
  <v type="int" >       20 </v>
  <v type="int" >       22 </v>
  <v type="int" >       21 </v>
  <v type="int" >       25 </v>
  <v type="int" >       26 </v>
  <v type="int" >       24 </v>
  <v type="int" >       50 </v>
  <v type="int" >       51 </v>
  <v type="int" >       47 </v>
  <v type="int" >       52 </v>
  <v type="int" >       53 </v>
  <v type="int" >       32 </v>
  <v type="int" >      113 </v>
  <v type="int" >      114 </v>
  <v type="int" >      105 </v>
  <v type="int" >      104 </v>
  <v type="int" >       81 </v>
  <v type="int" >       78 </v>
  <v type="int" >       68 </v>
  <v type="int" >       65 </v>
  <v type="int" >       23 </v>
  <v type="int" >       17 </v>
  <v type="int" >       15 </v>
 </varray>
 <kpoints>
  <generation param="Gamma">
   <v type="int" name="divisions">       3        3        2 </v>
   <v name="usershift">      0.00000000       0.00000000       0.00000000 </v>
   <v name="genvec1">      0.33333333       0.00000000       0.00000000 </v>
   <v name="genvec2">     -0.00000000       0.33333333       0.00000000 </v>
   <v name="genvec3">      0.00000000      -0.00000000       0.50000000 </v>
   <v name="shift">      0.00000000       0.00000000       0.00000000 </v>
  </generation>
  <varray name="kpointlist" >
   <v>       0.00000000       0.00000000       0.00000000 </v>
   <v>       0.33333333       0.00000000      -0.00000000 </v>
   <v>      -0.00000000       0.33333333       0.00000000 </v>
   <v>       0.33333333       0.33333333      -0.00000000 </v>
   <v>      -0.33333333       0.33333333       0.00000000 </v>
   <v>       0.00000000      -0.00000000       0.50000000 </v>
   <v>       0.33333333      -0.00000000       0.50000000 </v>
   <v>       0.00000000       0.33333333       0.50000000 </v>
   <v>       0.33333333       0.33333333       0.50000000 </v>
   <v>      -0.33333333       0.33333333       0.50000000 </v>
  </varray>
  <varray name="weights" >
   <v>       0.05555556 </v>
   <v>       0.11111111 </v>
   <v>       0.11111111 </v>
   <v>       0.11111111 </v>
   <v>       0.11111111 </v>
   <v>       0.05555556 </v>
   <v>       0.11111111 </v>
   <v>       0.11111111 </v>
   <v>       0.11111111 </v>
   <v>       0.11111111 </v>
  </varray>
 </kpoints>
 <parameters>
  <separator name="general" >
   <i type="string" name="SYSTEM">unknown system</i>
   <i type="logical" name="LCOMPAT"> F  </i>
  </separator>
  <separator name="electronic" >
   <i type="string" name="PREC">accura</i>
   <i name="ENMAX">    650.00000000</i>
   <i name="ENAUG">    628.94500000</i>
   <i name="EDIFF">      0.00000100</i>
   <i type="int" name="IALGO">    58</i>
   <i type="int" name="IWAVPR">    10</i>
   <i type="int" name="NBANDS">   680</i>
   <i name="NELECT">    936.00000000</i>
   <i type="int" name="TURBO">     0</i>
   <i type="int" name="IRESTART">     0</i>
   <i type="int" name="NREBOOT">     0</i>
   <i type="int" name="NMIN">     0</i>
   <i name="EREF">      0.00000000</i>
   <separator name="electronic smearing" >
    <i type="int" name="ISMEAR">     0</i>
    <i name="SIGMA">      0.05000000</i>
    <i name="KSPACING">      0.50000000</i>
    <i type="logical" name="KGAMMA"> T  </i>
   </separator>
   <separator name="electronic projectors" >
    <i type="logical" name="LREAL"> F  </i>
    <v name="ROPT">      0.00000000      0.00000000      0.00000000      0.00000000</v>
    <i type="int" name="LMAXPAW">  -100</i>
    <i type="int" name="LMAXMIX">     4</i>
    <i type="logical" name="NLSPLINE"> F  </i>
   </separator>
   <separator name="electronic startup" >
    <i type="int" name="ISTART">     0</i>
    <i type="int" name="ICHARG">     1</i>
    <i type="int" name="INIWAV">     1</i>
   </separator>
   <separator name="electronic spin" >
    <i type="int" name="ISPIN">     2</i>
    <i type="logical" name="LNONCOLLINEAR"> F  </i>
    <v name="MAGMOM">      0.60000000      0.60000000      0.60000000      0.60000000      0.60000000      0.60000000      0.60000000      0.60000000      0.60000000      0.60000000      0.60000000      0.60000000      0.60000000      0.60000000      0.60000000      0.60000000      0.60000000      0.60000000      0.60000000      0.60000000
      0.60000000      0.60000000      0.60000000      0.60000000      0.60000000      0.60000000      0.60000000      0.60000000      0.60000000      0.60000000      0.60000000      0.60000000      0.60000000      0.60000000      0.60000000      0.60000000      0.60000000      0.60000000      0.60000000      0.60000000
      0.60000000      0.60000000      0.60000000      0.60000000      0.60000000      0.60000000      0.60000000      0.60000000      0.60000000      0.60000000      0.60000000      0.60000000      0.60000000      0.60000000      0.60000000      0.60000000      0.60000000      0.60000000      0.60000000      0.60000000
      0.60000000      0.60000000      0.60000000      0.60000000      0.60000000      0.60000000      0.60000000      0.60000000      0.60000000      0.60000000      0.60000000      0.60000000      0.60000000      0.60000000      0.60000000      0.60000000      0.60000000      0.60000000      0.60000000      0.60000000
      0.60000000      0.60000000      0.60000000      0.60000000      0.60000000      0.60000000      0.60000000      0.60000000      0.60000000      0.60000000      5.00000000      5.00000000      5.00000000      5.00000000      5.00000000      5.00000000      5.00000000      5.00000000      5.00000000      5.00000000
      5.00000000      5.00000000      5.00000000      5.00000000      5.00000000      5.00000000      5.00000000      5.00000000      5.00000000      5.00000000      5.00000000      5.00000000      5.00000000      5.00000000      5.00000000      5.00000000      5.00000000      5.00000000      5.00000000      5.00000000
      5.00000000      5.00000000      5.00000000      5.00000000      5.00000000      5.00000000</v>
    <i name="NUPDOWN">     -1.00000000</i>
    <i type="logical" name="LSORBIT"> F  </i>
    <v name="SAXIS">      0.00000000      0.00000000      1.00000000</v>
    <i type="logical" name="LSPIRAL"> F  </i>
    <v name="QSPIRAL">      0.00000000      0.00000000      0.00000000</v>
    <i type="logical" name="LZEROZ"> F  </i>
   </separator>
   <separator name="electronic exchange-correlation" >
    <i type="logical" name="LASPH"> T  </i>
    <i type="logical" name="LMETAGGA"> F  </i>
   </separator>
   <separator name="electronic convergence" >
    <i type="int" name="NELM">   200</i>
    <i type="int" name="NELMDL">     0</i>
    <i type="int" name="NELMIN">     8</i>
    <i name="ENINI">    650.00000000</i>
    <separator name="electronic convergence detail" >
     <i type="logical" name="LDIAG"> T  </i>
     <i type="logical" name="LSUBROT"> F  </i>
     <i name="WEIMIN">      0.00000000</i>
     <i name="EBREAK">      0.00000000</i>
     <i name="DEPER">      0.30000000</i>
     <i type="int" name="NRMM">     4</i>
     <i name="TIME">      0.40000000</i>
    </separator>
   </separator>
   <separator name="electronic mixer" >
    <i name="AMIX">      0.40000000</i>
    <i name="BMIX">      1.00000000</i>
    <i name="AMIN">      0.10000000</i>
    <i name="AMIX_MAG">      1.60000000</i>
    <i name="BMIX_MAG">      1.00000000</i>
    <separator name="electronic mixer details" >
     <i type="int" name="IMIX">     4</i>
     <i type="logical" name="MIXFIRST"> F  </i>
     <i type="int" name="MAXMIX">   -45</i>
     <i name="WC">    100.00000000</i>
     <i type="int" name="INIMIX">     1</i>
     <i type="int" name="MIXPRE">     1</i>
     <i type="int" name="MREMOVE">     5</i>
    </separator>
   </separator>
   <separator name="electronic dipolcorrection" >
    <i type="logical" name="LDIPOL"> F  </i>
    <i type="logical" name="LMONO"> F  </i>
    <i type="int" name="IDIPOL">     0</i>
    <i name="EPSILON">      1.00000000</i>
    <v name="DIPOL">   -100.00000000   -100.00000000   -100.00000000</v>
    <i name="EFIELD">      0.00000000</i>
   </separator>
  </separator>
  <separator name="grids" >
   <i type="int" name="NGX">    96</i>
   <i type="int" name="NGY">    96</i>
   <i type="int" name="NGZ">   120</i>
   <i type="int" name="NGXF">   192</i>
   <i type="int" name="NGYF">   192</i>
   <i type="int" name="NGZF">   240</i>
   <i type="logical" name="ADDGRID"> T  </i>
  </separator>
  <separator name="ionic" >
   <i type="int" name="NSW">     0</i>
   <i type="int" name="IBRION">    -1</i>
   <i type="int" name="MDALGO">     0</i>
   <i type="int" name="ISIF">     3</i>
   <i name="PSTRESS">      0.00000000</i>
   <i name="EDIFFG">      0.00001000</i>
   <i type="int" name="NFREE">     0</i>
   <i name="POTIM">      0.50000000</i>
   <i name="SMASS">     -3.00000000</i>
   <i name="SCALEE">      1.00000000</i>
  </separator>
  <separator name="ionic md" >
   <i name="TEBEG">      0.00010000</i>
   <i name="TEEND">      0.00010000</i>
   <i type="int" name="NBLOCK">     1</i>
   <i type="int" name="KBLOCK">     1</i>
   <i type="int" name="NPACO">   256</i>
   <i name="APACO">     16.00000000</i>
  </separator>
  <separator name="symmetry" >
   <i type="int" name="ISYM">     0</i>
   <i name="SYMPREC">      0.00001000</i>
  </separator>
  <separator name="dos" >
   <i type="int" name="LORBIT">     0</i>
   <v name="RWIGS">     -1.00000000     -1.00000000     -1.00000000     -1.00000000</v>
   <i type="int" name="NEDOS">   301</i>
   <i name="EMIN">     10.00000000</i>
   <i name="EMAX">    -10.00000000</i>
   <i name="EFERMI">      0.00000000</i>
  </separator>
  <separator name="writing" >
   <i type="int" name="NWRITE">     1</i>
   <i type="logical" name="LWAVE"> F  </i>
   <i type="logical" name="LDOWNSAMPLE"> F  </i>
   <i type="logical" name="LCHARG"> T  </i>
   <i type="logical" name="LPARD"> F  </i>
   <i type="logical" name="LVTOT"> F  </i>
   <i type="logical" name="LVHAR"> F  </i>
   <i type="logical" name="LELF"> F  </i>
   <i type="logical" name="LOPTICS"> F  </i>
   <v name="STM">      0.00000000      0.00000000      0.00000000      0.00000000      0.00000000      0.00000000      0.00000000</v>
  </separator>
  <separator name="performance" >
   <i type="int" name="NPAR">     4</i>
   <i type="int" name="NSIM">     4</i>
   <i type="int" name="NBLK">    -1</i>
   <i type="logical" name="LPLANE"> T  </i>
   <i type="logical" name="LSCALAPACK"> T  </i>
   <i type="logical" name="LSCAAWARE"> F  </i>
   <i type="logical" name="LSCALU"> F  </i>
   <i type="logical" name="LASYNC"> F  </i>
   <i type="logical" name="LORBITALREAL"> F  </i>
  </separator>
  <separator name="miscellaneous" >
   <i type="int" name="IDIOT">     3</i>
   <i type="int" name="ISPECIAL">     0</i>
   <i type="logical" name="LMUSIC"> F  </i>
   <v name="POMASS">      7.01000000     16.00000000     32.06600000     55.84700000</v>
   <v name="DARWINR">      0.00000000      0.00000000      0.00000000      0.00000000</v>
   <v name="DARWINV">      1.00000000      1.00000000      1.00000000      1.00000000</v>
   <i type="logical" name="LCORR"> T  </i>
  </separator>
  <i type="logical" name="GGA_COMPAT"> T  </i>
  <i type="logical" name="LBERRY"> F  </i>
  <i type="int" name="ICORELEVEL">     0</i>
  <i type="logical" name="LDAU"> T  </i>
  <v type="int" name="LDAUTYPE">     2</v>
  <v type="int" name="LDAUL">    -1</v>
  <v name="LDAUU">      0.00000000</v>
  <v name="LDAUJ">      0.00000000</v>
  <i type="int" name="LDAUPRINT">     0</i>
  <i type="int" name="I_CONSTRAINED_M">     0</i>
  <separator name="electronic exchange-correlation" >
   <i type="string" name="GGA">PE</i>
   <i type="int" name="VOSKOWN">     0</i>
   <i type="logical" name="LHFCALC"> F  </i>
   <i type="string" name="PRECFOCK"></i>
   <i type="logical" name="LSYMGRAD"> F  </i>
   <i type="logical" name="LHFONE"> F  </i>
   <i type="logical" name="LRHFCALC"> F  </i>
   <i type="logical" name="LTHOMAS"> F  </i>
   <i type="logical" name="LMODELHF"> F  </i>
   <i name="ENCUT4O">     -1.00000000</i>
   <i type="int" name="EXXOEP">     0</i>
   <i type="int" name="FOURORBIT">     0</i>
   <i name="AEXX">      0.00000000</i>
   <i name="HFALPHA">      0.00000000</i>
   <i name="MCALPHA">      0.00000000</i>
   <i name="ALDAX">      1.00000000</i>
   <i name="AGGAX">      1.00000000</i>
   <i name="ALDAC">      1.00000000</i>
   <i name="AGGAC">      1.00000000</i>
   <i type="int" name="NKREDX">     1</i>
   <i type="int" name="NKREDY">     1</i>
   <i type="int" name="NKREDZ">     1</i>
   <i type="logical" name="SHIFTRED"> F  </i>
   <i type="logical" name="ODDONLY"> F  </i>
   <i type="logical" name="EVENONLY"> F  </i>
   <i type="int" name="LMAXFOCK">     0</i>
   <i type="int" name="NMAXFOCKAE">     0</i>
   <i type="logical" name="LFOCKAEDFT"> F  </i>
   <i name="HFSCREEN">      0.00000000</i>
   <i name="HFSCREENC">      0.00000000</i>
   <i type="int" name="NBANDSGWLOW">     0</i>
  </separator>
  <separator name="vdW DFT" >
   <i type="logical" name="LUSE_VDW"> F  </i>
   <i name="Zab_VDW">     -0.84910000</i>
   <i name="PARAM1">      0.12340000</i>
   <i name="PARAM2">      1.00000000</i>
   <i name="PARAM3">      0.00000000</i>
  </separator>
  <separator name="model GW" >
   <i type="int" name="MODEL_GW">     0</i>
   <i name="MODEL_EPS0">      8.14316640</i>
   <i name="MODEL_ALPHA">      1.00000000</i>
  </separator>
  <separator name="linear response parameters" >
   <i type="logical" name="LEPSILON"> F  </i>
   <i type="logical" name="LRPA"> F  </i>
   <i type="logical" name="LNABLA"> F  </i>
   <i type="logical" name="LVEL"> F  </i>
   <i type="int" name="KINTER">     0</i>
   <i name="CSHIFT">      0.10000000</i>
   <i name="OMEGAMAX">     -1.00000000</i>
   <i name="DEG_THRESHOLD">      0.00200000</i>
   <i name="RTIME">     -0.10000000</i>
   <i name="WPLASMAI">      0.00000000</i>
   <v name="DFIELD">      0.00000000      0.00000000      0.00000000</v>
   <v name="WPLASMA">      0.00000000      0.00000000      0.00000000      0.00000000      0.00000000      0.00000000      0.00000000      0.00000000      0.00000000</v>
  </separator>
  <separator name="orbital magnetization" >
   <i type="logical" name="NUCIND"> F  </i>
   <v name="MAGPOS">      0.00000000      0.00000000      0.00000000</v>
   <i type="logical" name="LNICSALL"> T  </i>
   <i type="logical" name="ORBITALMAG"> F  </i>
   <i type="logical" name="LMAGBLOCH"> F  </i>
   <i type="logical" name="LCHIMAG"> F  </i>
   <i type="logical" name="LGAUGE"> T  </i>
   <i type="int" name="MAGATOM">     0</i>
   <v name="MAGDIPOL">      0.00000000      0.00000000      0.00000000</v>
   <v name="AVECCONST">      0.00000000      0.00000000      0.00000000</v>
  </separator>
  <separator name="response functions" >
   <i type="logical" name="LADDER"> F  </i>
   <i type="logical" name="LRPAFORCE"> F  </i>
   <i type="logical" name="LFXC"> F  </i>
   <i type="logical" name="LHARTREE"> T  </i>
   <i type="int" name="IBSE">     0</i>
   <v type="int" name="KPOINT">    -1     0     0     0</v>
   <i type="logical" name="LTCTE"> F  </i>
   <i type="logical" name="LTETE"> F  </i>
   <i type="logical" name="LTRIPLET"> F  </i>
   <i type="logical" name="LFXCEPS"> F  </i>
   <i type="logical" name="LFXHEG"> F  </i>
   <i type="int" name="NATURALO">     2</i>
   <i type="logical" name="L2ORDER"> F  </i>
   <i type="logical" name="LMP2LT"> F  </i>
   <i type="logical" name="LUSEW"> F  </i>
   <i name="ENCUTGW">     -2.00000000</i>
   <i name="ENCUTGWSOFT">     -2.00000000</i>
   <i name="ENCUTLF">     -1.00000000</i>
   <i type="int" name="LMAXMP2">    -1</i>
   <i name="SCISSOR">      0.00000000</i>
   <i type="int" name="NOMEGA">     0</i>
   <i type="int" name="NOMEGAR">     0</i>
   <i type="int" name="NBANDSGW">    -1</i>
   <i type="int" name="NBANDSO">    -1</i>
   <i type="int" name="NBANDSV">    -1</i>
   <i type="int" name="NELM">   200</i>
   <i type="int" name="NELMHF">     1</i>
   <i type="int" name="DIM">     3</i>
   <i type="int" name="ANTIRES">     0</i>
   <i name="OMEGAMAX">    -30.00000000</i>
   <i name="OMEGAMIN">    -30.00000000</i>
   <i name="OMEGATL">   -200.00000000</i>
   <i type="int" name="OMEGAGRID">   140</i>
   <i name="CSHIFT">     -0.10000000</i>
   <i type="logical" name="SELFENERGY"> F  </i>
   <i type="logical" name="LSPECTRAL"> F  </i>
   <i type="logical" name="LSPECTRALGW"> F  </i>
   <i type="logical" name="LSINGLES"> F  </i>
   <i type="logical" name="LFERMIGW"> F  </i>
   <i type="logical" name="ODDONLYGW"> F  </i>
   <i type="logical" name="EVENONLYGW"> F  </i>
   <i type="int" name="NKREDLFX">     1</i>
   <i type="int" name="NKREDLFY">     1</i>
   <i type="int" name="NKREDLFZ">     1</i>
   <i type="int" name="MAXMEM">  2800</i>
   <i type="int" name="TELESCOPE">     0</i>
   <i type="int" name="TAUPAR">     1</i>
   <i type="int" name="OMEGAPAR">    -1</i>
   <i name="LAMBDA">      1.00000000</i>
  </separator>
  <separator name="External order field" >
   <i name="OFIELD_KAPPA">      0.00000000</i>
   <v name="OFIELD_K">      0.00000000      0.00000000      0.00000000</v>
   <i name="OFIELD_Q6_NEAR">      0.00000000</i>
   <i name="OFIELD_Q6_FAR">      0.00000000</i>
   <i name="OFIELD_A">      0.00000000</i>
  </separator>
 </parameters>
 <atominfo>
  <atoms>     126 </atoms>
  <types>       4 </types>
  <array name="atoms" >
   <dimension dim="1">ion</dimension>
   <field type="string">element</field>
   <field type="int">atomtype</field>
   <set>
    <rc><c>Li</c><c>   1</c></rc>
    <rc><c>Li</c><c>   1</c></rc>
    <rc><c>Li</c><c>   1</c></rc>
    <rc><c>Li</c><c>   1</c></rc>
    <rc><c>Li</c><c>   1</c></rc>
    <rc><c>Li</c><c>   1</c></rc>
    <rc><c>Li</c><c>   1</c></rc>
    <rc><c>Li</c><c>   1</c></rc>
    <rc><c>Li</c><c>   1</c></rc>
    <rc><c>Li</c><c>   1</c></rc>
    <rc><c>Li</c><c>   1</c></rc>
    <rc><c>Li</c><c>   1</c></rc>
    <rc><c>Li</c><c>   1</c></rc>
    <rc><c>Li</c><c>   1</c></rc>
    <rc><c>Li</c><c>   1</c></rc>
    <rc><c>Li</c><c>   1</c></rc>
    <rc><c>Li</c><c>   1</c></rc>
    <rc><c>Li</c><c>   1</c></rc>
    <rc><c>Li</c><c>   1</c></rc>
    <rc><c>Li</c><c>   1</c></rc>
    <rc><c>Li</c><c>   1</c></rc>
    <rc><c>Li</c><c>   1</c></rc>
    <rc><c>Li</c><c>   1</c></rc>
    <rc><c>Li</c><c>   1</c></rc>
    <rc><c>Li</c><c>   1</c></rc>
    <rc><c>Li</c><c>   1</c></rc>
    <rc><c>Li</c><c>   1</c></rc>
    <rc><c>Li</c><c>   1</c></rc>
    <rc><c>Li</c><c>   1</c></rc>
    <rc><c>Li</c><c>   1</c></rc>
    <rc><c>Li</c><c>   1</c></rc>
    <rc><c>Li</c><c>   1</c></rc>
    <rc><c>Li</c><c>   1</c></rc>
    <rc><c>Li</c><c>   1</c></rc>
    <rc><c>Li</c><c>   1</c></rc>
    <rc><c>Li</c><c>   1</c></rc>
    <rc><c>O </c><c>   2</c></rc>
    <rc><c>O </c><c>   2</c></rc>
    <rc><c>O </c><c>   2</c></rc>
    <rc><c>O </c><c>   2</c></rc>
    <rc><c>O </c><c>   2</c></rc>
    <rc><c>O </c><c>   2</c></rc>
    <rc><c>O </c><c>   2</c></rc>
    <rc><c>O </c><c>   2</c></rc>
    <rc><c>O </c><c>   2</c></rc>
    <rc><c>O </c><c>   2</c></rc>
    <rc><c>O </c><c>   2</c></rc>
    <rc><c>O </c><c>   2</c></rc>
    <rc><c>O </c><c>   2</c></rc>
    <rc><c>O </c><c>   2</c></rc>
    <rc><c>O </c><c>   2</c></rc>
    <rc><c>O </c><c>   2</c></rc>
    <rc><c>O </c><c>   2</c></rc>
    <rc><c>O </c><c>   2</c></rc>
    <rc><c>S </c><c>   3</c></rc>
    <rc><c>S </c><c>   3</c></rc>
    <rc><c>S </c><c>   3</c></rc>
    <rc><c>S </c><c>   3</c></rc>
    <rc><c>S </c><c>   3</c></rc>
    <rc><c>S </c><c>   3</c></rc>
    <rc><c>S </c><c>   3</c></rc>
    <rc><c>S </c><c>   3</c></rc>
    <rc><c>S </c><c>   3</c></rc>
    <rc><c>S </c><c>   3</c></rc>
    <rc><c>S </c><c>   3</c></rc>
    <rc><c>S </c><c>   3</c></rc>
    <rc><c>S </c><c>   3</c></rc>
    <rc><c>S </c><c>   3</c></rc>
    <rc><c>S </c><c>   3</c></rc>
    <rc><c>S </c><c>   3</c></rc>
    <rc><c>S </c><c>   3</c></rc>
    <rc><c>S </c><c>   3</c></rc>
    <rc><c>S </c><c>   3</c></rc>
    <rc><c>S </c><c>   3</c></rc>
    <rc><c>S </c><c>   3</c></rc>
    <rc><c>S </c><c>   3</c></rc>
    <rc><c>S </c><c>   3</c></rc>
    <rc><c>S </c><c>   3</c></rc>
    <rc><c>S </c><c>   3</c></rc>
    <rc><c>S </c><c>   3</c></rc>
    <rc><c>S </c><c>   3</c></rc>
    <rc><c>S </c><c>   3</c></rc>
    <rc><c>S </c><c>   3</c></rc>
    <rc><c>S </c><c>   3</c></rc>
    <rc><c>S </c><c>   3</c></rc>
    <rc><c>S </c><c>   3</c></rc>
    <rc><c>S </c><c>   3</c></rc>
    <rc><c>S </c><c>   3</c></rc>
    <rc><c>S </c><c>   3</c></rc>
    <rc><c>S </c><c>   3</c></rc>
    <rc><c>Fe</c><c>   4</c></rc>
    <rc><c>Fe</c><c>   4</c></rc>
    <rc><c>Fe</c><c>   4</c></rc>
    <rc><c>Fe</c><c>   4</c></rc>
    <rc><c>Fe</c><c>   4</c></rc>
    <rc><c>Fe</c><c>   4</c></rc>
    <rc><c>Fe</c><c>   4</c></rc>
    <rc><c>Fe</c><c>   4</c></rc>
    <rc><c>Fe</c><c>   4</c></rc>
    <rc><c>Fe</c><c>   4</c></rc>
    <rc><c>Fe</c><c>   4</c></rc>
    <rc><c>Fe</c><c>   4</c></rc>
    <rc><c>Fe</c><c>   4</c></rc>
    <rc><c>Fe</c><c>   4</c></rc>
    <rc><c>Fe</c><c>   4</c></rc>
    <rc><c>Fe</c><c>   4</c></rc>
    <rc><c>Fe</c><c>   4</c></rc>
    <rc><c>Fe</c><c>   4</c></rc>
    <rc><c>Fe</c><c>   4</c></rc>
    <rc><c>Fe</c><c>   4</c></rc>
    <rc><c>Fe</c><c>   4</c></rc>
    <rc><c>Fe</c><c>   4</c></rc>
    <rc><c>Fe</c><c>   4</c></rc>
    <rc><c>Fe</c><c>   4</c></rc>
    <rc><c>Fe</c><c>   4</c></rc>
    <rc><c>Fe</c><c>   4</c></rc>
    <rc><c>Fe</c><c>   4</c></rc>
    <rc><c>Fe</c><c>   4</c></rc>
    <rc><c>Fe</c><c>   4</c></rc>
    <rc><c>Fe</c><c>   4</c></rc>
    <rc><c>Fe</c><c>   4</c></rc>
    <rc><c>Fe</c><c>   4</c></rc>
    <rc><c>Fe</c><c>   4</c></rc>
    <rc><c>Fe</c><c>   4</c></rc>
    <rc><c>Fe</c><c>   4</c></rc>
    <rc><c>Fe</c><c>   4</c></rc>
   </set>
  </array>
  <array name="atomtypes" >
   <dimension dim="1">type</dimension>
   <field type="int">atomspertype</field>
   <field type="string">element</field>
   <field>mass</field>
   <field>valence</field>
   <field type="string">pseudopotential</field>
   <set>
    <rc><c>  36</c><c>Li</c><c>      7.01000000</c><c>      3.00000000</c><c>  PAW_PBE Li_sv 10Sep2004               </c></rc>
    <rc><c>  18</c><c>O </c><c>     16.00000000</c><c>      6.00000000</c><c>  PAW_PBE O 08Apr2002                   </c></rc>
    <rc><c>  36</c><c>S </c><c>     32.06600000</c><c>      6.00000000</c><c>  PAW_PBE S 06Sep2000                   </c></rc>
    <rc><c>  36</c><c>Fe</c><c>     55.84700000</c><c>     14.00000000</c><c>  PAW_PBE Fe_pv 02Aug2007               </c></rc>
   </set>
  </array>
 </atominfo>
 <structure name="initialpos" >
  <crystal>
   <varray name="basis" >
    <v>      11.57658324       0.00206628      -0.00954291 </v>
    <v>      -0.00198552      11.57659983      -0.00954294 </v>
    <v>      -3.84767942      -3.84903072      12.76635918 </v>
   </varray>
   <i name="volume">   1710.06494320 </i>
   <varray name="rec_basis" >
    <v>       0.08640274       0.00003629       0.02605204 </v>
    <v>       0.00000605       0.08640263       0.02605204 </v>
    <v>       0.00006459       0.00006461       0.07836982 </v>
   </varray>
  </crystal>
  <varray name="positions" >
   <v>       0.14940024       0.01727802       0.00000711 </v>
   <v>       0.48273357       0.01727802       0.00000711 </v>
   <v>       0.81606690       0.01727802       0.00000711 </v>
   <v>       0.14940024       0.35061135       0.00000711 </v>
   <v>       0.48273357       0.35061135       0.00000711 </v>
   <v>       0.81606690       0.35061135       0.00000711 </v>
   <v>       0.14940024       0.68394468       0.00000711 </v>
   <v>       0.48273357       0.68394468       0.00000711 </v>
   <v>       0.81606690       0.68394468       0.00000711 </v>
   <v>       0.14940024       0.01727802       0.50000711 </v>
   <v>       0.48273357       0.01727802       0.50000711 </v>
   <v>       0.81606690       0.01727802       0.50000711 </v>
   <v>       0.14940024       0.35061135       0.50000711 </v>
   <v>       0.48273357       0.35061135       0.50000711 </v>
   <v>       0.81606690       0.35061135       0.50000711 </v>
   <v>       0.14940024       0.68394468       0.50000711 </v>
   <v>       0.48273357       0.68394468       0.50000711 </v>
   <v>       0.81606690       0.68394468       0.50000711 </v>
   <v>       0.31605532       0.18393310       0.49999289 </v>
   <v>       0.64938865       0.18393310       0.49999289 </v>
   <v>       0.98272198       0.18393310       0.49999289 </v>
   <v>       0.31605532       0.51726643       0.49999289 </v>
   <v>       0.64938865       0.51726643       0.49999289 </v>
   <v>       0.98272198       0.51726643       0.49999289 </v>
   <v>       0.31605532       0.85059976       0.49999289 </v>
   <v>       0.64938865       0.85059976       0.49999289 </v>
   <v>       0.98272198       0.85059976       0.49999289 </v>
   <v>       0.31605532       0.18393310       0.99999289 </v>
   <v>       0.64938865       0.18393310       0.99999289 </v>
   <v>       0.98272198       0.18393310       0.99999289 </v>
   <v>       0.31605532       0.51726643       0.99999289 </v>
   <v>       0.64938865       0.51726643       0.99999289 </v>
   <v>       0.98272198       0.51726643       0.99999289 </v>
   <v>       0.31605532       0.85059976       0.99999289 </v>
   <v>       0.64938865       0.85059976       0.99999289 </v>
   <v>       0.98272198       0.85059976       0.99999289 </v>
   <v>       0.31606288       0.01727079       0.00000000 </v>
   <v>       0.64939621       0.01727079       0.00000000 </v>
   <v>       0.98272954       0.01727079       0.00000000 </v>
   <v>       0.31606288       0.35060413       0.00000000 </v>
   <v>       0.64939621       0.35060413       0.00000000 </v>
   <v>       0.98272954       0.35060413       0.00000000 </v>
   <v>       0.31606288       0.68393746       0.00000000 </v>
   <v>       0.64939621       0.68393746       0.00000000 </v>
   <v>       0.98272954       0.68393746       0.00000000 </v>
   <v>       0.31606288       0.01727079       0.50000000 </v>
   <v>       0.64939621       0.01727079       0.50000000 </v>
   <v>       0.98272954       0.01727079       0.50000000 </v>
   <v>       0.31606288       0.35060413       0.50000000 </v>
   <v>       0.64939621       0.35060413       0.50000000 </v>
   <v>       0.98272954       0.35060413       0.50000000 </v>
   <v>       0.31606288       0.68393746       0.50000000 </v>
   <v>       0.64939621       0.68393746       0.50000000 </v>
   <v>       0.98272954       0.68393746       0.50000000 </v>
   <v>       0.19934057       0.23388678       0.14983771 </v>
   <v>       0.53267391       0.23388678       0.14983771 </v>
   <v>       0.86600724       0.23388678       0.14983771 </v>
   <v>       0.19934057       0.56722011       0.14983771 </v>
   <v>       0.53267391       0.56722011       0.14983771 </v>
   <v>       0.86600724       0.56722011       0.14983771 </v>
   <v>       0.19934057       0.90055344       0.14983771 </v>
   <v>       0.53267391       0.90055344       0.14983771 </v>
   <v>       0.86600724       0.90055344       0.14983771 </v>
   <v>       0.19934057       0.23388678       0.64983771 </v>
   <v>       0.53267391       0.23388678       0.64983771 </v>
   <v>       0.86600724       0.23388678       0.64983771 </v>
   <v>       0.19934057       0.56722011       0.64983771 </v>
   <v>       0.53267391       0.56722011       0.64983771 </v>
   <v>       0.86600724       0.56722011       0.64983771 </v>
   <v>       0.19934057       0.90055344       0.64983771 </v>
   <v>       0.53267391       0.90055344       0.64983771 </v>
   <v>       0.86600724       0.90055344       0.64983771 </v>
   <v>       0.09944656       0.13399276       0.35016229 </v>
   <v>       0.43277989       0.13399276       0.35016229 </v>
   <v>       0.76611322       0.13399276       0.35016229 </v>
   <v>       0.09944656       0.46732609       0.35016229 </v>
   <v>       0.43277989       0.46732609       0.35016229 </v>
   <v>       0.76611322       0.46732609       0.35016229 </v>
   <v>       0.09944656       0.80065943       0.35016229 </v>
   <v>       0.43277989       0.80065943       0.35016229 </v>
   <v>       0.76611322       0.80065943       0.35016229 </v>
   <v>       0.09944656       0.13399276       0.85016229 </v>
   <v>       0.43277989       0.13399276       0.85016229 </v>
   <v>       0.76611322       0.13399276       0.85016229 </v>
   <v>       0.09944656       0.46732609       0.85016229 </v>
   <v>       0.43277989       0.46732609       0.85016229 </v>
   <v>       0.76611322       0.46732609       0.85016229 </v>
   <v>       0.09944656       0.80065943       0.85016229 </v>
   <v>       0.43277989       0.80065943       0.85016229 </v>
   <v>       0.76611322       0.80065943       0.85016229 </v>
   <v>       0.03603208       0.07144011       0.15990037 </v>
   <v>       0.36936541       0.07057630       0.15990037 </v>
   <v>       0.70269875       0.07057630       0.15990037 </v>
   <v>       0.03603208       0.40390964       0.15990037 </v>
   <v>       0.36936541       0.40390964       0.15990037 </v>
   <v>       0.70269875       0.40390964       0.15990037 </v>
   <v>       0.03603208       0.73724297       0.15990037 </v>
   <v>       0.36936541       0.73724297       0.15990037 </v>
   <v>       0.70269875       0.73724297       0.15990037 </v>
   <v>       0.03603208       0.07057630       0.65990037 </v>
   <v>       0.36936541       0.07057630       0.65990037 </v>
   <v>       0.70269875       0.07057630       0.65990037 </v>
   <v>       0.03603208       0.40390964       0.65990037 </v>
   <v>       0.36936541       0.40390964       0.65990037 </v>
   <v>       0.70269875       0.40390964       0.65990037 </v>
   <v>       0.03603208       0.73724297       0.65990037 </v>
   <v>       0.36936541       0.73724297       0.65990037 </v>
   <v>       0.70269875       0.73724297       0.65990037 </v>
   <v>       0.26275703       0.29730125       0.34009963 </v>
   <v>       0.59609036       0.29730125       0.34009963 </v>
   <v>       0.92942370       0.29730125       0.34009963 </v>
   <v>       0.26275703       0.63063459       0.34009963 </v>
   <v>       0.59609036       0.63063459       0.34009963 </v>
   <v>       0.92942370       0.63063459       0.34009963 </v>
   <v>       0.26275703       0.96396792       0.34009963 </v>
   <v>       0.59609036       0.96396792       0.34009963 </v>
   <v>       0.92942370       0.96396792       0.34009963 </v>
   <v>       0.26275703       0.29730125       0.84009963 </v>
   <v>       0.59609036       0.29730125       0.84009963 </v>
   <v>       0.92942370       0.29730125       0.84009963 </v>
   <v>       0.26275703       0.63063459       0.84009963 </v>
   <v>       0.59609036       0.63063459       0.84009963 </v>
   <v>       0.92942370       0.63063459       0.84009963 </v>
   <v>       0.26275703       0.96396792       0.84009963 </v>
   <v>       0.59609036       0.96396792       0.84009963 </v>
   <v>       0.92942370       0.96396792       0.84009963 </v>
  </varray>
 </structure>
 <calculation>
  <scstep>
   <time name="total">  256.88  259.39</time>
   <energy>
    <i name="alphaZ">   2639.27042227 </i>
    <i name="ewald"> -69235.14646976 </i>
    <i name="hartreedc"> -34827.60502809 </i>
    <i name="XCdc">   3975.73410619 </i>
    <i name="pawpsdc"> 109952.41695739 </i>
    <i name="pawaedc">-113408.94482908 </i>
    <i name="eentropy">     -0.02348630 </i>
    <i name="bandstr">     37.39037355 </i>
    <i name="atom"> 113515.32941094 </i>
    <i name="e_fr_energy">  12648.42145710 </i>
    <i name="e_wo_entrp">  12648.44494340 </i>
    <i name="e_0_energy">  12648.43320025 </i>
   </energy>
  </scstep>
  <scstep>
   <time name="total">  247.26  249.52</time>
   <energy>
    <i name="e_fr_energy">   1374.93042113 </i>
    <i name="e_wo_entrp">   1375.01391546 </i>
    <i name="e_0_energy">   1374.97216829 </i>
   </energy>
  </scstep>
  <scstep>
   <time name="total">  264.74  267.11</time>
   <energy>
    <i name="e_fr_energy">   -410.70661237 </i>
    <i name="e_wo_entrp">   -410.70661237 </i>
    <i name="e_0_energy">   -410.70661237 </i>
   </energy>
  </scstep>
  <scstep>
   <time name="total">  287.99  290.83</time>
   <energy>
    <i name="e_fr_energy">   -632.67379144 </i>
    <i name="e_wo_entrp">   -632.67379144 </i>
    <i name="e_0_energy">   -632.67379144 </i>
   </energy>
  </scstep>
  <scstep>
   <time name="total">  383.58  387.33</time>
   <energy>
    <i name="e_fr_energy">   -656.93187760 </i>
    <i name="e_wo_entrp">   -656.93187760 </i>
    <i name="e_0_energy">   -656.93187760 </i>
   </energy>
  </scstep>
  <scstep>
   <time name="total">  168.22  170.00</time>
   <energy>
    <i name="e_fr_energy">   -656.88673773 </i>
    <i name="e_wo_entrp">   -656.88673773 </i>
    <i name="e_0_energy">   -656.88673773 </i>
   </energy>
  </scstep>
  <scstep>
   <time name="total">  168.00  170.01</time>
   <energy>
    <i name="e_fr_energy">   -657.40643162 </i>
    <i name="e_wo_entrp">   -657.40643162 </i>
    <i name="e_0_energy">   -657.40643162 </i>
   </energy>
  </scstep>
  <scstep>
   <time name="total">  167.13  168.70</time>
   <energy>
    <i name="e_fr_energy">   -657.70867416 </i>
    <i name="e_wo_entrp">   -657.70867416 </i>
    <i name="e_0_energy">   -657.70867416 </i>
   </energy>
  </scstep>
  <scstep>
   <time name="total">  167.80  169.42</time>
   <energy>
    <i name="e_fr_energy">   -657.82860200 </i>
    <i name="e_wo_entrp">   -657.82860200 </i>
    <i name="e_0_energy">   -657.82860200 </i>
   </energy>
  </scstep>
  <scstep>
   <time name="total">  167.91  169.59</time>
   <energy>
    <i name="e_fr_energy">   -657.87307354 </i>
    <i name="e_wo_entrp">   -657.87307354 </i>
    <i name="e_0_energy">   -657.87307354 </i>
   </energy>
  </scstep>
  <scstep>
   <time name="total">  167.10  169.14</time>
   <energy>
    <i name="e_fr_energy">   -657.89032963 </i>
    <i name="e_wo_entrp">   -657.89032963 </i>
    <i name="e_0_energy">   -657.89032963 </i>
   </energy>
  </scstep>
  <scstep>
   <time name="total">  166.79  168.14</time>
   <energy>
    <i name="e_fr_energy">   -657.89569871 </i>
    <i name="e_wo_entrp">   -657.89569871 </i>
    <i name="e_0_energy">   -657.89569871 </i>
   </energy>
  </scstep>
  <scstep>
   <time name="total">  167.55  169.00</time>
   <energy>
    <i name="e_fr_energy">   -657.89818553 </i>
    <i name="e_wo_entrp">   -657.89818553 </i>
    <i name="e_0_energy">   -657.89818553 </i>
   </energy>
  </scstep>
  <scstep>
   <time name="total">  168.07  169.71</time>
   <energy>
    <i name="e_fr_energy">   -657.89961419 </i>
    <i name="e_wo_entrp">   -657.89961419 </i>
    <i name="e_0_energy">   -657.89961419 </i>
   </energy>
  </scstep>
  <scstep>
   <time name="total">  168.18  170.05</time>
   <energy>
    <i name="e_fr_energy">   -657.90044306 </i>
    <i name="e_wo_entrp">   -657.90044306 </i>
    <i name="e_0_energy">   -657.90044306 </i>
   </energy>
  </scstep>
  <scstep>
   <time name="total">  167.62  169.17</time>
   <energy>
    <i name="e_fr_energy">   -657.90089902 </i>
    <i name="e_wo_entrp">   -657.90089902 </i>
    <i name="e_0_energy">   -657.90089902 </i>
   </energy>
  </scstep>
  <scstep>
   <time name="total">  166.88  168.33</time>
   <energy>
    <i name="e_fr_energy">   -657.90114332 </i>
    <i name="e_wo_entrp">   -657.90114332 </i>
    <i name="e_0_energy">   -657.90114332 </i>
   </energy>
  </scstep>
  <scstep>
   <time name="total">  167.35  169.23</time>
   <energy>
    <i name="e_fr_energy">   -657.90131328 </i>
    <i name="e_wo_entrp">   -657.90131328 </i>
    <i name="e_0_energy">   -657.90131328 </i>
   </energy>
  </scstep>
  <scstep>
   <time name="total">  167.21  168.86</time>
   <energy>
    <i name="e_fr_energy">   -657.90144523 </i>
    <i name="e_wo_entrp">   -657.90144523 </i>
    <i name="e_0_energy">   -657.90144523 </i>
   </energy>
  </scstep>
  <scstep>
   <time name="total">  168.01  169.59</time>
   <energy>
    <i name="e_fr_energy">   -657.90153192 </i>
    <i name="e_wo_entrp">   -657.90153192 </i>
    <i name="e_0_energy">   -657.90153192 </i>
   </energy>
  </scstep>
  <scstep>
   <time name="total">  167.08  168.53</time>
   <energy>
    <i name="e_fr_energy">   -657.90157546 </i>
    <i name="e_wo_entrp">   -657.90157546 </i>
    <i name="e_0_energy">   -657.90157546 </i>
   </energy>
  </scstep>
  <scstep>
   <time name="total">  167.53  169.16</time>
   <energy>
    <i name="e_fr_energy">   -657.90160077 </i>
    <i name="e_wo_entrp">   -657.90160077 </i>
    <i name="e_0_energy">   -657.90160077 </i>
   </energy>
  </scstep>
  <scstep>
   <time name="total">  167.94  169.11</time>
   <energy>
    <i name="e_fr_energy">   -657.90161647 </i>
    <i name="e_wo_entrp">   -657.90161647 </i>
    <i name="e_0_energy">   -657.90161647 </i>
   </energy>
  </scstep>
  <scstep>
   <time name="total">  168.15  169.97</time>
   <energy>
    <i name="e_fr_energy">   -657.90162551 </i>
    <i name="e_wo_entrp">   -657.90162551 </i>
    <i name="e_0_energy">   -657.90162551 </i>
   </energy>
  </scstep>
  <scstep>
   <time name="total">  167.52  169.13</time>
   <energy>
    <i name="e_fr_energy">   -657.90163049 </i>
    <i name="e_wo_entrp">   -657.90163049 </i>
    <i name="e_0_energy">   -657.90163049 </i>
   </energy>
  </scstep>
  <scstep>
   <time name="total">  168.64  170.06</time>
   <energy>
    <i name="e_fr_energy">   -657.90163415 </i>
    <i name="e_wo_entrp">   -657.90163415 </i>
    <i name="e_0_energy">   -657.90163415 </i>
   </energy>
  </scstep>
  <scstep>
   <time name="total">  167.83  169.44</time>
   <energy>
    <i name="e_fr_energy">   -657.90163732 </i>
    <i name="e_wo_entrp">   -657.90163732 </i>
    <i name="e_0_energy">   -657.90163732 </i>
   </energy>
  </scstep>
  <scstep>
   <time name="total">  168.85  170.14</time>
   <energy>
    <i name="e_fr_energy">   -657.90163942 </i>
    <i name="e_wo_entrp">   -657.90163942 </i>
    <i name="e_0_energy">   -657.90163942 </i>
   </energy>
  </scstep>
  <scstep>
   <time name="total">  167.68  169.25</time>
   <energy>
    <i name="e_fr_energy">   -657.90164110 </i>
    <i name="e_wo_entrp">   -657.90164110 </i>
    <i name="e_0_energy">   -657.90164110 </i>
   </energy>
  </scstep>
  <scstep>
   <time name="total">  167.58  169.21</time>
   <energy>
    <i name="e_fr_energy">   -657.90164231 </i>
    <i name="e_wo_entrp">   -657.90164231 </i>
    <i name="e_0_energy">   -657.90164231 </i>
   </energy>
  </scstep>
  <scstep>
   <time name="total">  168.10  169.37</time>
   <energy>
    <i name="e_fr_energy">   -657.90164353 </i>
    <i name="e_wo_entrp">   -657.90164353 </i>
    <i name="e_0_energy">   -657.90164353 </i>
   </energy>
  </scstep>
  <scstep>
   <time name="total">  193.96  195.54</time>
   <energy>
    <i name="alphaZ">   2639.27042227 </i>
    <i name="ewald"> -69235.14646976 </i>
    <i name="hartreedc"> -34827.56341729 </i>
    <i name="XCdc">   3975.73114848 </i>
    <i name="pawpsdc"> 109952.28703078 </i>
    <i name="pawaedc">-113408.80319415 </i>
    <i name="eentropy">     -0.00000000 </i>
    <i name="bandstr"> -13269.00657566 </i>
    <i name="atom"> 113515.32941094 </i>
    <i name="e_fr_energy">   -657.90164440 </i>
    <i name="e_wo_entrp">   -657.90164440 </i>
    <i name="e_0_energy">   -657.90164440 </i>
   </energy>
  </scstep>
  <structure>
   <crystal>
    <varray name="basis" >
     <v>      11.57658324       0.00206628      -0.00954291 </v>
     <v>      -0.00198552      11.57659983      -0.00954294 </v>
     <v>      -3.84767942      -3.84903072      12.76635918 </v>
    </varray>
    <i name="volume">   1710.06494320 </i>
    <varray name="rec_basis" >
     <v>       0.08640274       0.00003629       0.02605204 </v>
     <v>       0.00000605       0.08640263       0.02605204 </v>
     <v>       0.00006459       0.00006461       0.07836982 </v>
    </varray>
   </crystal>
   <varray name="positions" >
    <v>       0.14940024       0.01727802       0.00000711 </v>
    <v>       0.48273357       0.01727802       0.00000711 </v>
    <v>       0.81606690       0.01727802       0.00000711 </v>
    <v>       0.14940024       0.35061135       0.00000711 </v>
    <v>       0.48273357       0.35061135       0.00000711 </v>
    <v>       0.81606690       0.35061135       0.00000711 </v>
    <v>       0.14940024       0.68394468       0.00000711 </v>
    <v>       0.48273357       0.68394468       0.00000711 </v>
    <v>       0.81606690       0.68394468       0.00000711 </v>
    <v>       0.14940024       0.01727802       0.50000711 </v>
    <v>       0.48273357       0.01727802       0.50000711 </v>
    <v>       0.81606690       0.01727802       0.50000711 </v>
    <v>       0.14940024       0.35061135       0.50000711 </v>
    <v>       0.48273357       0.35061135       0.50000711 </v>
    <v>       0.81606690       0.35061135       0.50000711 </v>
    <v>       0.14940024       0.68394468       0.50000711 </v>
    <v>       0.48273357       0.68394468       0.50000711 </v>
    <v>       0.81606690       0.68394468       0.50000711 </v>
    <v>       0.31605532       0.18393310       0.49999289 </v>
    <v>       0.64938865       0.18393310       0.49999289 </v>
    <v>       0.98272198       0.18393310       0.49999289 </v>
    <v>       0.31605532       0.51726643       0.49999289 </v>
    <v>       0.64938865       0.51726643       0.49999289 </v>
    <v>       0.98272198       0.51726643       0.49999289 </v>
    <v>       0.31605532       0.85059976       0.49999289 </v>
    <v>       0.64938865       0.85059976       0.49999289 </v>
    <v>       0.98272198       0.85059976       0.49999289 </v>
    <v>       0.31605532       0.18393310       0.99999289 </v>
    <v>       0.64938865       0.18393310       0.99999289 </v>
    <v>       0.98272198       0.18393310       0.99999289 </v>
    <v>       0.31605532       0.51726643       0.99999289 </v>
    <v>       0.64938865       0.51726643       0.99999289 </v>
    <v>       0.98272198       0.51726643       0.99999289 </v>
    <v>       0.31605532       0.85059976       0.99999289 </v>
    <v>       0.64938865       0.85059976       0.99999289 </v>
    <v>       0.98272198       0.85059976       0.99999289 </v>
    <v>       0.31606288       0.01727079       0.00000000 </v>
    <v>       0.64939621       0.01727079       0.00000000 </v>
    <v>       0.98272954       0.01727079       0.00000000 </v>
    <v>       0.31606288       0.35060413       0.00000000 </v>
    <v>       0.64939621       0.35060413       0.00000000 </v>
    <v>       0.98272954       0.35060413       0.00000000 </v>
    <v>       0.31606288       0.68393746       0.00000000 </v>
    <v>       0.64939621       0.68393746       0.00000000 </v>
    <v>       0.98272954       0.68393746       0.00000000 </v>
    <v>       0.31606288       0.01727079       0.50000000 </v>
    <v>       0.64939621       0.01727079       0.50000000 </v>
    <v>       0.98272954       0.01727079       0.50000000 </v>
    <v>       0.31606288       0.35060413       0.50000000 </v>
    <v>       0.64939621       0.35060413       0.50000000 </v>
    <v>       0.98272954       0.35060413       0.50000000 </v>
    <v>       0.31606288       0.68393746       0.50000000 </v>
    <v>       0.64939621       0.68393746       0.50000000 </v>
    <v>       0.98272954       0.68393746       0.50000000 </v>
    <v>       0.19934057       0.23388678       0.14983771 </v>
    <v>       0.53267391       0.23388678       0.14983771 </v>
    <v>       0.86600724       0.23388678       0.14983771 </v>
    <v>       0.19934057       0.56722011       0.14983771 </v>
    <v>       0.53267391       0.56722011       0.14983771 </v>
    <v>       0.86600724       0.56722011       0.14983771 </v>
    <v>       0.19934057       0.90055344       0.14983771 </v>
    <v>       0.53267391       0.90055344       0.14983771 </v>
    <v>       0.86600724       0.90055344       0.14983771 </v>
    <v>       0.19934057       0.23388678       0.64983771 </v>
    <v>       0.53267391       0.23388678       0.64983771 </v>
    <v>       0.86600724       0.23388678       0.64983771 </v>
    <v>       0.19934057       0.56722011       0.64983771 </v>
    <v>       0.53267391       0.56722011       0.64983771 </v>
    <v>       0.86600724       0.56722011       0.64983771 </v>
    <v>       0.19934057       0.90055344       0.64983771 </v>
    <v>       0.53267391       0.90055344       0.64983771 </v>
    <v>       0.86600724       0.90055344       0.64983771 </v>
    <v>       0.09944656       0.13399276       0.35016229 </v>
    <v>       0.43277989       0.13399276       0.35016229 </v>
    <v>       0.76611322       0.13399276       0.35016229 </v>
    <v>       0.09944656       0.46732609       0.35016229 </v>
    <v>       0.43277989       0.46732609       0.35016229 </v>
    <v>       0.76611322       0.46732609       0.35016229 </v>
    <v>       0.09944656       0.80065943       0.35016229 </v>
    <v>       0.43277989       0.80065943       0.35016229 </v>
    <v>       0.76611322       0.80065943       0.35016229 </v>
    <v>       0.09944656       0.13399276       0.85016229 </v>
    <v>       0.43277989       0.13399276       0.85016229 </v>
    <v>       0.76611322       0.13399276       0.85016229 </v>
    <v>       0.09944656       0.46732609       0.85016229 </v>
    <v>       0.43277989       0.46732609       0.85016229 </v>
    <v>       0.76611322       0.46732609       0.85016229 </v>
    <v>       0.09944656       0.80065943       0.85016229 </v>
    <v>       0.43277989       0.80065943       0.85016229 </v>
    <v>       0.76611322       0.80065943       0.85016229 </v>
    <v>       0.03603208       0.07144011       0.15990037 </v>
    <v>       0.36936541       0.07057630       0.15990037 </v>
    <v>       0.70269875       0.07057630       0.15990037 </v>
    <v>       0.03603208       0.40390964       0.15990037 </v>
    <v>       0.36936541       0.40390964       0.15990037 </v>
    <v>       0.70269875       0.40390964       0.15990037 </v>
    <v>       0.03603208       0.73724297       0.15990037 </v>
    <v>       0.36936541       0.73724297       0.15990037 </v>
    <v>       0.70269875       0.73724297       0.15990037 </v>
    <v>       0.03603208       0.07057630       0.65990037 </v>
    <v>       0.36936541       0.07057630       0.65990037 </v>
    <v>       0.70269875       0.07057630       0.65990037 </v>
    <v>       0.03603208       0.40390964       0.65990037 </v>
    <v>       0.36936541       0.40390964       0.65990037 </v>
    <v>       0.70269875       0.40390964       0.65990037 </v>
    <v>       0.03603208       0.73724297       0.65990037 </v>
    <v>       0.36936541       0.73724297       0.65990037 </v>
    <v>       0.70269875       0.73724297       0.65990037 </v>
    <v>       0.26275703       0.29730125       0.34009963 </v>
    <v>       0.59609036       0.29730125       0.34009963 </v>
    <v>       0.92942370       0.29730125       0.34009963 </v>
    <v>       0.26275703       0.63063459       0.34009963 </v>
    <v>       0.59609036       0.63063459       0.34009963 </v>
    <v>       0.92942370       0.63063459       0.34009963 </v>
    <v>       0.26275703       0.96396792       0.34009963 </v>
    <v>       0.59609036       0.96396792       0.34009963 </v>
    <v>       0.92942370       0.96396792       0.34009963 </v>
    <v>       0.26275703       0.29730125       0.84009963 </v>
    <v>       0.59609036       0.29730125       0.84009963 </v>
    <v>       0.92942370       0.29730125       0.84009963 </v>
    <v>       0.26275703       0.63063459       0.84009963 </v>
    <v>       0.59609036       0.63063459       0.84009963 </v>
    <v>       0.92942370       0.63063459       0.84009963 </v>
    <v>       0.26275703       0.96396792       0.84009963 </v>
    <v>       0.59609036       0.96396792       0.84009963 </v>
    <v>       0.92942370       0.96396792       0.84009963 </v>
   </varray>
  </structure>
  <varray name="forces" >
   <v>       0.00003024      -0.00304560      -0.00002750 </v>
   <v>       0.00003609      -0.00043359      -0.00002652 </v>
   <v>       0.00006676      -0.00305277      -0.00001784 </v>
   <v>      -0.00001627       0.00093814      -0.00079150 </v>
   <v>       0.00005324       0.00013209      -0.00010414 </v>
   <v>       0.00009029       0.00093484      -0.00077844 </v>
   <v>       0.00010910       0.00094868       0.00081894 </v>
   <v>       0.00004949       0.00014117       0.00012902 </v>
   <v>      -0.00002315       0.00094353       0.00082796 </v>
   <v>       0.00005243      -0.00063222       0.00013325 </v>
   <v>      -0.00000127      -0.00024743      -0.00002255 </v>
   <v>       0.00008249      -0.00025408      -0.00005596 </v>
   <v>       0.00005587      -0.00060177      -0.00018014 </v>
   <v>       0.00007238      -0.00019105      -0.00000881 </v>
   <v>       0.00000414      -0.00018466       0.00000484 </v>
   <v>       0.00004369       0.00039636       0.00000415 </v>
   <v>       0.00003595       0.00032541       0.00000585 </v>
   <v>       0.00004473       0.00031705       0.00000431 </v>
   <v>       0.00004980      -0.00000459      -0.00002546 </v>
   <v>       0.00004269      -0.00002927      -0.00004517 </v>
   <v>       0.00007446       0.00000761      -0.00004363 </v>
   <v>       0.00009609       0.00003050       0.00031232 </v>
   <v>       0.00005451      -0.00002793       0.00028581 </v>
   <v>       0.00000269       0.00004527       0.00027848 </v>
   <v>       0.00000494       0.00002284      -0.00024407 </v>
   <v>       0.00005327      -0.00004963      -0.00027353 </v>
   <v>       0.00010812       0.00001819      -0.00027237 </v>
   <v>       0.00091200      -0.00046728      -0.00122122 </v>
   <v>      -0.00080711      -0.00044918      -0.00122270 </v>
   <v>       0.00003687       0.00392178      -0.00718764 </v>
   <v>       0.00005651       0.00054859       0.00002005 </v>
   <v>       0.00005145       0.00054390       0.00003018 </v>
   <v>       0.00005648       0.00058653       0.00003142 </v>
   <v>      -0.00080383      -0.00044185       0.00120417 </v>
   <v>       0.00091217      -0.00044947       0.00121139 </v>
   <v>       0.00005572       0.00391685       0.00711873 </v>
   <v>       0.00001059       0.00158158      -0.00015485 </v>
   <v>      -0.00000049       0.00157272      -0.00011333 </v>
   <v>       0.00000688       0.00723823       0.00004288 </v>
   <v>      -0.00081254      -0.00121946       0.00186576 </v>
   <v>       0.00082984      -0.00120276       0.00188936 </v>
   <v>       0.00000441      -0.00156562       0.00199127 </v>
   <v>       0.00087546      -0.00121946      -0.00173766 </v>
   <v>      -0.00086412      -0.00123552      -0.00168158 </v>
   <v>       0.00000098      -0.00157252      -0.00159850 </v>
   <v>      -0.00020388       0.00044929       0.00083242 </v>
   <v>       0.00000261       0.00026701       0.00036263 </v>
   <v>       0.00024039       0.00044773       0.00075383 </v>
   <v>       0.00020632       0.00035913      -0.00077847 </v>
   <v>      -0.00001478       0.00022023      -0.00048533 </v>
   <v>      -0.00018135       0.00036811      -0.00090740 </v>
   <v>       0.00000337      -0.00057464       0.00011195 </v>
   <v>      -0.00000059      -0.00070232      -0.00013892 </v>
   <v>       0.00000274      -0.00056907      -0.00010906 </v>
   <v>      -0.00142638       0.00091423      -0.00115331 </v>
   <v>      -0.00003647       0.00077269       0.00004881 </v>
   <v>       0.00131419       0.00093690      -0.00112290 </v>
   <v>      -0.00008251      -0.00208611       0.00010929 </v>
   <v>      -0.00000574      -0.00154526       0.00014062 </v>
   <v>      -0.00005040      -0.00207271       0.00016487 </v>
   <v>       0.00150043       0.00065480       0.00141784 </v>
   <v>      -0.00002028       0.00065675       0.00021523 </v>
   <v>      -0.00162924       0.00062526       0.00143958 </v>
   <v>      -0.00002512      -0.00013245       0.00012952 </v>
   <v>      -0.00009194      -0.00014376       0.00013905 </v>
   <v>      -0.00003182      -0.00015933       0.00011230 </v>
   <v>       0.00003309      -0.00006587      -0.00009824 </v>
   <v>      -0.00015224      -0.00007023      -0.00004963 </v>
   <v>      -0.00001667      -0.00010250      -0.00014931 </v>
   <v>       0.00001077       0.00012485       0.00033855 </v>
   <v>      -0.00012041       0.00014712       0.00028907 </v>
   <v>      -0.00003786       0.00019097       0.00023883 </v>
   <v>       0.00000890       0.00370878      -0.00018042 </v>
   <v>       0.00002737       0.00153027      -0.00009656 </v>
   <v>       0.00005859       0.00154587      -0.00010130 </v>
   <v>      -0.00000916      -0.00112259      -0.00119744 </v>
   <v>      -0.00057688      -0.00094150      -0.00114490 </v>
   <v>       0.00068068      -0.00092729      -0.00119569 </v>
   <v>       0.00000142      -0.00107464       0.00085033 </v>
   <v>       0.00066604      -0.00090333       0.00086050 </v>
   <v>      -0.00057754      -0.00091786       0.00079893 </v>
   <v>       0.00015288       0.00029911       0.00052892 </v>
   <v>       0.00001740       0.00020693       0.00001043 </v>
   <v>      -0.00008525       0.00032124       0.00053223 </v>
   <v>       0.00007726      -0.00038310      -0.00005444 </v>
   <v>       0.00003495      -0.00043759      -0.00008562 </v>
   <v>      -0.00002655      -0.00037980      -0.00000128 </v>
   <v>       0.00002385       0.00039296      -0.00077258 </v>
   <v>       0.00002737       0.00030013      -0.00036988 </v>
   <v>       0.00004525       0.00038470      -0.00073831 </v>
   <v>      -0.00008509      -0.02787961       0.00006956 </v>
   <v>      -0.00008527      -0.00350463      -0.00000080 </v>
   <v>      -0.00008923      -0.00352201       0.00003015 </v>
   <v>      -0.00010884       0.00476292       0.00013971 </v>
   <v>       0.00211926       0.00340588       0.00020848 </v>
   <v>      -0.00225254       0.00344627       0.00019493 </v>
   <v>      -0.00012306       0.00472086      -0.00018218 </v>
   <v>      -0.00227141       0.00339758      -0.00019837 </v>
   <v>       0.00213269       0.00337771      -0.00019711 </v>
   <v>      -0.00004700      -0.00018003      -0.00052427 </v>
   <v>      -0.00009998      -0.00016411      -0.00033092 </v>
   <v>      -0.00013940      -0.00015266      -0.00044613 </v>
   <v>      -0.00004973       0.00005179       0.00014652 </v>
   <v>      -0.00009998       0.00006446       0.00017113 </v>
   <v>      -0.00010084       0.00006184       0.00005020 </v>
   <v>      -0.00003234       0.00010018       0.00025636 </v>
   <v>      -0.00010060       0.00014285       0.00010642 </v>
   <v>      -0.00012510       0.00009552       0.00027089 </v>
   <v>       0.00105286       0.00018758       0.00507075 </v>
   <v>       0.00001696      -0.00042761       0.00066928 </v>
   <v>      -0.00104570       0.00022828       0.00505590 </v>
   <v>      -0.00001450       0.00122425       0.00001124 </v>
   <v>       0.00002362       0.00128634       0.00001023 </v>
   <v>       0.00001413       0.00122920      -0.00000720 </v>
   <v>      -0.00108653       0.00015528      -0.00502895 </v>
   <v>       0.00000600      -0.00049341      -0.00063667 </v>
   <v>       0.00105885       0.00016035      -0.00503740 </v>
   <v>       0.00008332       0.00018485      -0.00075586 </v>
   <v>      -0.00009943       0.00019923      -0.00071117 </v>
   <v>       0.00000520       0.00026121      -0.00081370 </v>
   <v>      -0.00001597       0.00036412       0.00085614 </v>
   <v>       0.00002390       0.00033404       0.00085283 </v>
   <v>       0.00000736       0.00038746       0.00099907 </v>
   <v>       0.00002466      -0.00027769      -0.00009149 </v>
   <v>      -0.00004486      -0.00028448      -0.00008249 </v>
   <v>       0.00002179       0.00000896       0.00000516 </v>
  </varray>
  <varray name="stress" >
   <v>      -0.15659785      -0.00071700      -0.00286113 </v>
   <v>      -0.00071207      -0.12512546      -0.01283818 </v>
   <v>      -0.00281704      -0.01281993      -0.08830734 </v>
  </varray>
  <energy>
   <i name="e_fr_energy">   -657.90164440 </i>
   <i name="e_wo_entrp">   -657.90164440 </i>
   <i name="e_0_energy">     -0.00000000 </i>
  </energy>
  <time name="totalsc"> 6428.41 6489.04</time>
  <eigenvalues>
   <array>
    <dimension dim="1">band</dimension>
    <dimension dim="2">kpoint</dimension>
    <dimension dim="3">spin</dimension>
    <field>eigene</field>
    <field>occ</field>
    <set>
     <set comment="spin 1">
      <set comment="kpoint 1">
       <r>  -51.1417    1.0000 </r>
       <r>  -51.1414    1.0000 </r>
       <r>  -51.1412    1.0000 </r>
       <r>  -51.1409    1.0000 </r>
       <r>  -51.1407    1.0000 </r>
       <r>  -51.1406    1.0000 </r>
       <r>  -51.1401    1.0000 </r>
       <r>  -51.1401    1.0000 </r>
       <r>  -51.1400    1.0000 </r>
       <r>  -51.1399    1.0000 </r>
       <r>  -51.1399    1.0000 </r>
       <r>  -51.1397    1.0000 </r>
       <r>  -51.1397    1.0000 </r>
       <r>  -51.1396    1.0000 </r>
       <r>  -51.1395    1.0000 </r>
       <r>  -51.1395    1.0000 </r>
       <r>  -51.1395    1.0000 </r>
       <r>  -51.1394    1.0000 </r>
       <r>  -51.1393    1.0000 </r>
       <r>  -51.1393    1.0000 </r>
       <r>  -51.1392    1.0000 </r>
       <r>  -51.1391    1.0000 </r>
       <r>  -51.1391    1.0000 </r>
       <r>  -51.1389    1.0000 </r>
       <r>  -51.1389    1.0000 </r>
       <r>  -51.1389    1.0000 </r>
       <r>  -51.1388    1.0000 </r>
       <r>  -51.1387    1.0000 </r>
       <r>  -51.1387    1.0000 </r>
       <r>  -51.1386    1.0000 </r>
       <r>  -51.1383    1.0000 </r>
       <r>  -51.1379    1.0000 </r>
       <r>  -51.1377    1.0000 </r>
       <r>  -51.1374    1.0000 </r>
       <r>  -51.1371    1.0000 </r>
       <r>  -51.1370    1.0000 </r>
       <r>  -49.6562    1.0000 </r>
       <r>  -49.6561    1.0000 </r>
       <r>  -49.6558    1.0000 </r>
       <r>  -49.6557    1.0000 </r>
       <r>  -49.6555    1.0000 </r>
       <r>  -49.6550    1.0000 </r>
       <r>  -49.6549    1.0000 </r>
       <r>  -49.6548    1.0000 </r>
       <r>  -49.6548    1.0000 </r>
       <r>  -49.6548    1.0000 </r>
       <r>  -49.6547    1.0000 </r>
       <r>  -49.6546    1.0000 </r>
       <r>  -49.6546    1.0000 </r>
       <r>  -49.6544    1.0000 </r>
       <r>  -49.6544    1.0000 </r>
       <r>  -49.6544    1.0000 </r>
       <r>  -49.6543    1.0000 </r>
       <r>  -49.6543    1.0000 </r>
       <r>  -49.6543    1.0000 </r>
       <r>  -49.6542    1.0000 </r>
       <r>  -49.6542    1.0000 </r>
       <r>  -49.6542    1.0000 </r>
       <r>  -49.6540    1.0000 </r>
       <r>  -49.6540    1.0000 </r>
       <r>  -49.6540    1.0000 </r>
       <r>  -49.6539    1.0000 </r>
       <r>  -49.6538    1.0000 </r>
       <r>  -49.6538    1.0000 </r>
       <r>  -49.6538    1.0000 </r>
       <r>  -49.6538    1.0000 </r>
       <r>  -49.6535    1.0000 </r>
       <r>  -49.6534    1.0000 </r>
       <r>  -49.6533    1.0000 </r>
       <r>  -49.6531    1.0000 </r>
       <r>  -49.6531    1.0000 </r>
       <r>  -49.6530    1.0000 </r>
       <r>  -49.6530    1.0000 </r>
       <r>  -49.6530    1.0000 </r>
       <r>  -49.6529    1.0000 </r>
       <r>  -49.6527    1.0000 </r>
       <r>  -49.6527    1.0000 </r>
       <r>  -49.6527    1.0000 </r>
       <r>  -49.6526    1.0000 </r>
       <r>  -49.6525    1.0000 </r>
       <r>  -49.6525    1.0000 </r>
       <r>  -49.6525    1.0000 </r>
       <r>  -49.6525    1.0000 </r>
       <r>  -49.6524    1.0000 </r>
       <r>  -49.6523    1.0000 </r>
       <r>  -49.6522    1.0000 </r>
       <r>  -49.6522    1.0000 </r>
       <r>  -49.6522    1.0000 </r>
       <r>  -49.6522    1.0000 </r>
       <r>  -49.6521    1.0000 </r>
       <r>  -49.6521    1.0000 </r>
       <r>  -49.6520    1.0000 </r>
       <r>  -49.6520    1.0000 </r>
       <r>  -49.6520    1.0000 </r>
       <r>  -49.6519    1.0000 </r>
       <r>  -49.6519    1.0000 </r>
       <r>  -49.6518    1.0000 </r>
       <r>  -49.6518    1.0000 </r>
       <r>  -49.6517    1.0000 </r>
       <r>  -49.6515    1.0000 </r>
       <r>  -49.6515    1.0000 </r>
       <r>  -49.6513    1.0000 </r>
       <r>  -49.6509    1.0000 </r>
       <r>  -49.6509    1.0000 </r>
       <r>  -49.6505    1.0000 </r>
       <r>  -49.6502    1.0000 </r>
       <r>  -49.6501    1.0000 </r>
       <r>  -49.6494    1.0000 </r>
       <r>  -39.6380    1.0000 </r>
       <r>  -39.6378    1.0000 </r>
       <r>  -39.6251    1.0000 </r>
       <r>  -39.6245    1.0000 </r>
       <r>  -39.6244    1.0000 </r>
       <r>  -39.6244    1.0000 </r>
       <r>  -39.6243    1.0000 </r>
       <r>  -39.6243    1.0000 </r>
       <r>  -39.6242    1.0000 </r>
       <r>  -39.6238    1.0000 </r>
       <r>  -39.6177    1.0000 </r>
       <r>  -39.6173    1.0000 </r>
       <r>  -39.6173    1.0000 </r>
       <r>  -39.6173    1.0000 </r>
       <r>  -39.6172    1.0000 </r>
       <r>  -39.6171    1.0000 </r>
       <r>  -39.6171    1.0000 </r>
       <r>  -39.6166    1.0000 </r>
       <r>  -39.6050    1.0000 </r>
       <r>  -39.6045    1.0000 </r>
       <r>  -39.6044    1.0000 </r>
       <r>  -39.6044    1.0000 </r>
       <r>  -39.6043    1.0000 </r>
       <r>  -39.6043    1.0000 </r>
       <r>  -39.6042    1.0000 </r>
       <r>  -39.6039    1.0000 </r>
       <r>  -39.5990    1.0000 </r>
       <r>  -39.5986    1.0000 </r>
       <r>  -39.5985    1.0000 </r>
       <r>  -39.5985    1.0000 </r>
       <r>  -39.5985    1.0000 </r>
       <r>  -39.5984    1.0000 </r>
       <r>  -39.5983    1.0000 </r>
       <r>  -39.5977    1.0000 </r>
       <r>  -39.5862    1.0000 </r>
       <r>  -39.5861    1.0000 </r>
       <r>  -12.7552    1.0000 </r>
       <r>  -12.7551    1.0000 </r>
       <r>  -12.7543    1.0000 </r>
       <r>  -12.7542    1.0000 </r>
       <r>  -12.7532    1.0000 </r>
       <r>  -12.7531    1.0000 </r>
       <r>  -12.7523    1.0000 </r>
       <r>  -12.7522    1.0000 </r>
       <r>  -12.7081    1.0000 </r>
       <r>  -12.7076    1.0000 </r>
       <r>  -12.7076    1.0000 </r>
       <r>  -12.7073    1.0000 </r>
       <r>  -12.7054    1.0000 </r>
       <r>  -12.7050    1.0000 </r>
       <r>  -12.7050    1.0000 </r>
       <r>  -12.7046    1.0000 </r>
       <r>  -12.6738    1.0000 </r>
       <r>  -12.6623    1.0000 </r>
       <r>   -7.7607    1.0000 </r>
       <r>   -7.7173    1.0000 </r>
       <r>   -7.3292    1.0000 </r>
       <r>   -7.3282    1.0000 </r>
       <r>   -7.3281    1.0000 </r>
       <r>   -7.3271    1.0000 </r>
       <r>   -7.2996    1.0000 </r>
       <r>   -7.2986    1.0000 </r>
       <r>   -7.2985    1.0000 </r>
       <r>   -7.2975    1.0000 </r>
       <r>   -7.1014    1.0000 </r>
       <r>   -7.1008    1.0000 </r>
       <r>   -7.0876    1.0000 </r>
       <r>   -7.0870    1.0000 </r>
       <r>   -7.0814    1.0000 </r>
       <r>   -7.0433    1.0000 </r>
       <r>   -7.0427    1.0000 </r>
       <r>   -7.0217    1.0000 </r>
       <r>   -6.9927    1.0000 </r>
       <r>   -6.9921    1.0000 </r>
       <r>   -6.9495    1.0000 </r>
       <r>   -6.9485    1.0000 </r>
       <r>   -6.9484    1.0000 </r>
       <r>   -6.9475    1.0000 </r>
       <r>   -6.9191    1.0000 </r>
       <r>   -6.9184    1.0000 </r>
       <r>   -6.8816    1.0000 </r>
       <r>   -6.8807    1.0000 </r>
       <r>   -6.8806    1.0000 </r>
       <r>   -6.8796    1.0000 </r>
       <r>   -6.8573    1.0000 </r>
       <r>   -6.8567    1.0000 </r>
       <r>   -6.7921    1.0000 </r>
       <r>   -6.7914    1.0000 </r>
       <r>   -6.7684    1.0000 </r>
       <r>   -6.7677    1.0000 </r>
       <r>   -1.5489    1.0000 </r>
       <r>   -1.4789    1.0000 </r>
       <r>   -1.4783    1.0000 </r>
       <r>   -1.4782    1.0000 </r>
       <r>   -1.4778    1.0000 </r>
       <r>   -1.3843    1.0000 </r>
       <r>   -1.3841    1.0000 </r>
       <r>   -1.3769    1.0000 </r>
       <r>   -1.3763    1.0000 </r>
       <r>   -1.3763    1.0000 </r>
       <r>   -1.3759    1.0000 </r>
[...]
       <r>   -37.6055     0.0000   144.0000 </r>
       <r>   -37.3654     0.0000   144.0000 </r>
       <r>   -37.1252     0.0000   144.0000 </r>
       <r>   -36.8851     0.0000   144.0000 </r>
       <r>   -36.6449     0.0000   144.0000 </r>
       <r>   -36.4047     0.0000   144.0000 </r>
       <r>   -36.1646     0.0000   144.0000 </r>
       <r>   -35.9244     0.0000   144.0000 </r>
       <r>   -35.6843     0.0000   144.0000 </r>
       <r>   -35.4441     0.0000   144.0000 </r>
       <r>   -35.2040     0.0000   144.0000 </r>
       <r>   -34.9638     0.0000   144.0000 </r>
       <r>   -34.7236     0.0000   144.0000 </r>
       <r>   -34.4835     0.0000   144.0000 </r>
       <r>   -34.2433     0.0000   144.0000 </r>
       <r>   -34.0032     0.0000   144.0000 </r>
       <r>   -33.7630     0.0000   144.0000 </r>
       <r>   -33.5228     0.0000   144.0000 </r>
       <r>   -33.2827     0.0000   144.0000 </r>
       <r>   -33.0425     0.0000   144.0000 </r>
       <r>   -32.8024     0.0000   144.0000 </r>
       <r>   -32.5622     0.0000   144.0000 </r>
       <r>   -32.3221     0.0000   144.0000 </r>
       <r>   -32.0819     0.0000   144.0000 </r>
       <r>   -31.8417     0.0000   144.0000 </r>
       <r>   -31.6016     0.0000   144.0000 </r>
       <r>   -31.3614     0.0000   144.0000 </r>
       <r>   -31.1213     0.0000   144.0000 </r>
       <r>   -30.8811     0.0000   144.0000 </r>
       <r>   -30.6409     0.0000   144.0000 </r>
       <r>   -30.4008     0.0000   144.0000 </r>
       <r>   -30.1606     0.0000   144.0000 </r>
       <r>   -29.9205     0.0000   144.0000 </r>
       <r>   -29.6803     0.0000   144.0000 </r>
       <r>   -29.4402     0.0000   144.0000 </r>
       <r>   -29.2000     0.0000   144.0000 </r>
       <r>   -28.9598     0.0000   144.0000 </r>
       <r>   -28.7197     0.0000   144.0000 </r>
       <r>   -28.4795     0.0000   144.0000 </r>
       <r>   -28.2394     0.0000   144.0000 </r>
       <r>   -27.9992     0.0000   144.0000 </r>
       <r>   -27.7590     0.0000   144.0000 </r>
       <r>   -27.5189     0.0000   144.0000 </r>
       <r>   -27.2787     0.0000   144.0000 </r>
       <r>   -27.0386     0.0000   144.0000 </r>
       <r>   -26.7984     0.0000   144.0000 </r>
       <r>   -26.5583     0.0000   144.0000 </r>
       <r>   -26.3181     0.0000   144.0000 </r>
       <r>   -26.0779     0.0000   144.0000 </r>
       <r>   -25.8378     0.0000   144.0000 </r>
       <r>   -25.5976     0.0000   144.0000 </r>
       <r>   -25.3575     0.0000   144.0000 </r>
       <r>   -25.1173     0.0000   144.0000 </r>
       <r>   -24.8771     0.0000   144.0000 </r>
       <r>   -24.6370     0.0000   144.0000 </r>
       <r>   -24.3968     0.0000   144.0000 </r>
       <r>   -24.1567     0.0000   144.0000 </r>
       <r>   -23.9165     0.0000   144.0000 </r>
       <r>   -23.6764     0.0000   144.0000 </r>
       <r>   -23.4362     0.0000   144.0000 </r>
       <r>   -23.1960     0.0000   144.0000 </r>
       <r>   -22.9559     0.0000   144.0000 </r>
       <r>   -22.7157     0.0000   144.0000 </r>
       <r>   -22.4756     0.0000   144.0000 </r>
       <r>   -22.2354     0.0000   144.0000 </r>
       <r>   -21.9952     0.0000   144.0000 </r>
       <r>   -21.7551     0.0000   144.0000 </r>
       <r>   -21.5149     0.0000   144.0000 </r>
       <r>   -21.2748     0.0000   144.0000 </r>
       <r>   -21.0346     0.0000   144.0000 </r>
       <r>   -20.7945     0.0000   144.0000 </r>
       <r>   -20.5543     0.0000   144.0000 </r>
       <r>   -20.3141     0.0000   144.0000 </r>
       <r>   -20.0740     0.0000   144.0000 </r>
       <r>   -19.8338     0.0000   144.0000 </r>
       <r>   -19.5937     0.0000   144.0000 </r>
       <r>   -19.3535     0.0000   144.0000 </r>
       <r>   -19.1133     0.0000   144.0000 </r>
       <r>   -18.8732     0.0000   144.0000 </r>
       <r>   -18.6330     0.0000   144.0000 </r>
       <r>   -18.3929     0.0000   144.0000 </r>
       <r>   -18.1527     0.0000   144.0000 </r>
       <r>   -17.9126     0.0000   144.0000 </r>
       <r>   -17.6724     0.0000   144.0000 </r>
       <r>   -17.4322     0.0000   144.0000 </r>
       <r>   -17.1921     0.0000   144.0000 </r>
       <r>   -16.9519     0.0000   144.0000 </r>
       <r>   -16.7118     0.0000   144.0000 </r>
       <r>   -16.4716     0.0000   144.0000 </r>
       <r>   -16.2314     0.0000   144.0000 </r>
       <r>   -15.9913     0.0000   144.0000 </r>
       <r>   -15.7511     0.0000   144.0000 </r>
       <r>   -15.5110     0.0000   144.0000 </r>
       <r>   -15.2708     0.0000   144.0000 </r>
       <r>   -15.0307     0.0000   144.0000 </r>
       <r>   -14.7905     0.0000   144.0000 </r>
       <r>   -14.5503     0.0000   144.0000 </r>
       <r>   -14.3102     0.0000   144.0000 </r>
       <r>   -14.0700     0.0000   144.0000 </r>
       <r>   -13.8299     0.0000   144.0000 </r>
       <r>   -13.5897     0.0000   144.0000 </r>
       <r>   -13.3496     0.0000   144.0000 </r>
       <r>   -13.1094     0.0000   144.0000 </r>
       <r>   -12.8692     0.0000   144.0000 </r>
       <r>   -12.6291     0.0010   144.0002 </r>
       <r>   -12.3889    66.0802   159.8699 </r>
       <r>   -12.1488     8.8694   162.0000 </r>
       <r>   -11.9086     0.0000   162.0000 </r>
       <r>   -11.6684     0.0000   162.0000 </r>
       <r>   -11.4283     0.0000   162.0000 </r>
       <r>   -11.1881     0.0000   162.0000 </r>
       <r>   -10.9480     0.0000   162.0000 </r>
       <r>   -10.7078     0.0000   162.0000 </r>
       <r>   -10.4677     0.0000   162.0000 </r>
       <r>   -10.2275     0.0000   162.0000 </r>
       <r>    -9.9873     0.0000   162.0000 </r>
       <r>    -9.7472     0.0000   162.0000 </r>
       <r>    -9.5070     0.0000   162.0000 </r>
       <r>    -9.2669     0.0000   162.0000 </r>
       <r>    -9.0267     0.0000   162.0000 </r>
       <r>    -8.7865     0.0000   162.0000 </r>
       <r>    -8.5464     0.0000   162.0000 </r>
       <r>    -8.3062     0.0000   162.0000 </r>
       <r>    -8.0661     0.0000   162.0000 </r>
       <r>    -7.8259     0.0000   162.0000 </r>
       <r>    -7.5858     0.1130   162.0271 </r>
       <r>    -7.3456    10.0079   164.4306 </r>
       <r>    -7.1054    17.4450   168.6202 </r>
       <r>    -6.8653    24.2256   174.4381 </r>
       <r>    -6.6251    71.0914   191.5113 </r>
       <r>    -6.3850    27.0110   197.9982 </r>
       <r>    -6.1448     0.0073   198.0000 </r>
       <r>    -5.9046     0.0000   198.0000 </r>
       <r>    -5.6645     0.0000   198.0000 </r>
       <r>    -5.4243     0.0000   198.0000 </r>
       <r>    -5.1842     0.0000   198.0000 </r>
       <r>    -4.9440     0.0000   198.0000 </r>
       <r>    -4.7039     0.0000   198.0000 </r>
       <r>    -4.4637     0.0000   198.0000 </r>
       <r>    -4.2235     0.0000   198.0000 </r>
       <r>    -3.9834     0.0000   198.0000 </r>
       <r>    -3.7432     0.0000   198.0000 </r>
       <r>    -3.5031     0.0000   198.0000 </r>
       <r>    -3.2629     0.0000   198.0000 </r>
       <r>    -3.0227     0.0000   198.0000 </r>
       <r>    -2.7826     0.0000   198.0000 </r>
       <r>    -2.5424     0.0000   198.0000 </r>
       <r>    -2.3023     0.0000   198.0000 </r>
       <r>    -2.0621     0.0000   198.0000 </r>
       <r>    -1.8220     0.0000   198.0000 </r>
       <r>    -1.5818     0.0000   198.0000 </r>
       <r>    -1.3416     0.0000   198.0000 </r>
       <r>    -1.1015     0.0000   198.0000 </r>
       <r>    -0.8613     0.0000   198.0000 </r>
       <r>    -0.6212     0.0000   198.0000 </r>
       <r>    -0.3810     1.5135   198.3635 </r>
       <r>    -0.1408    12.7613   201.4282 </r>
       <r>     0.0993    20.2682   206.2958 </r>
       <r>     0.3395    27.6406   212.9339 </r>
       <r>     0.5796    31.3388   220.4602 </r>
       <r>     0.8198    36.8896   229.3195 </r>
       <r>     1.0599    36.5608   238.0999 </r>
       <r>     1.3001    46.7591   249.3295 </r>
       <r>     1.5403    31.0108   256.7770 </r>
       <r>     1.7804    62.2636   271.7301 </r>
       <r>     2.0206    46.1558   282.8148 </r>
       <r>     2.2607    18.5253   287.2638 </r>
       <r>     2.5009    30.7551   294.6499 </r>
       <r>     2.7411    59.7113   308.9901 </r>
       <r>     2.9812    49.1918   320.8039 </r>
       <r>     3.2214    57.3309   334.5724 </r>
       <r>     3.4615    75.1538   352.6212 </r>
       <r>     3.7017    25.3025   358.6978 </r>
       <r>     3.9418    19.9789   363.4959 </r>
       <r>     4.1820    95.5100   386.4334 </r>
       <r>     4.4222    38.3350   395.6399 </r>
       <r>     4.6623     1.4995   396.0000 </r>
       <r>     4.9025     0.0000   396.0000 </r>
       <r>     5.1426     0.0000   396.0000 </r>
       <r>     5.3828     0.0000   396.0000 </r>
       <r>     5.6230     0.0000   396.0000 </r>
       <r>     5.8631     0.0000   396.0000 </r>
       <r>     6.1033     0.0000   396.0000 </r>
       <r>     6.3434     0.2185   396.0525 </r>
       <r>     6.5836     4.5925   397.1554 </r>
       <r>     6.8237    14.1426   400.5519 </r>
       <r>     7.0639    30.4138   407.8560 </r>
       <r>     7.3041    57.7260   421.7194 </r>
       <r>     7.5442    80.0928   440.9543 </r>
       <r>     7.7844    66.5392   456.9343 </r>
       <r>     8.0245    84.8085   477.3017 </r>
       <r>     8.2647    98.0808   500.8566 </r>
       <r>     8.5049    37.7781   509.9293 </r>
       <r>     8.7450    44.9055   520.7138 </r>
       <r>     8.9852    39.8354   530.2806 </r>
       <r>     9.2253    38.9797   539.6418 </r>
       <r>     9.4655    14.9849   543.2406 </r>
       <r>     9.7056    15.2350   546.8994 </r>
       <r>     9.9458    13.1455   550.0564 </r>
       <r>    10.1860    26.5403   556.4303 </r>
       <r>    10.4261    21.5312   561.6012 </r>
       <r>    10.6663    28.1772   568.3682 </r>
       <r>    10.9064    24.5987   574.2757 </r>
       <r>    11.1466    24.7196   580.2124 </r>
       <r>    11.3868    20.7931   585.2060 </r>
       <r>    11.6269    24.2213   591.0229 </r>
       <r>    11.8671    27.0189   597.5118 </r>
       <r>    12.1072    26.4276   603.8586 </r>
       <r>    12.3474    36.2240   612.5580 </r>
       <r>    12.5875    38.7215   621.8573 </r>
       <r>    12.8277    46.3256   632.9828 </r>
       <r>    13.0679    35.0647   641.4039 </r>
       <r>    13.3080    30.7425   648.7869 </r>
       <r>    13.5482    48.0197   660.3193 </r>
       <r>    13.7883    38.1814   669.4888 </r>
       <r>    14.0285    20.5986   674.4358 </r>
       <r>    14.2687    17.9625   678.7496 </r>
       <r>    14.5088     5.2065   680.0000 </r>
       <r>    14.7490     0.0000   680.0000 </r>
       <r>    14.9891     0.0000   680.0000 </r>
       <r>    15.2293     0.0000   680.0000 </r>
       <r>    15.4694     0.0000   680.0000 </r>
       <r>    15.7096     0.0000   680.0000 </r>
       <r>    15.9498     0.0000   680.0000 </r>
       <r>    16.1899     0.0000   680.0000 </r>
       <r>    16.4301     0.0000   680.0000 </r>
       <r>    16.6702     0.0000   680.0000 </r>
       <r>    16.9104     0.0000   680.0000 </r>
       <r>    17.1506     0.0000   680.0000 </r>
       <r>    17.3907     0.0000   680.0000 </r>
       <r>    17.6309     0.0000   680.0000 </r>
      </set>
     </set>
    </array>
   </total>
  </dos>
 </calculation>
 <structure name="finalpos" >
  <crystal>
   <varray name="basis" >
    <v>      11.57658324       0.00206628      -0.00954291 </v>
    <v>      -0.00198552      11.57659983      -0.00954294 </v>
    <v>      -3.84767942      -3.84903072      12.76635918 </v>
   </varray>
   <i name="volume">   1710.06494320 </i>
   <varray name="rec_basis" >
    <v>       0.08640274       0.00003629       0.02605204 </v>
    <v>       0.00000605       0.08640263       0.02605204 </v>
    <v>       0.00006459       0.00006461       0.07836982 </v>
   </varray>
  </crystal>
  <varray name="positions" >
   <v>       0.14940024       0.01727802       0.00000711 </v>
   <v>       0.48273357       0.01727802       0.00000711 </v>
   <v>       0.81606690       0.01727802       0.00000711 </v>
   <v>       0.14940024       0.35061135       0.00000711 </v>
   <v>       0.48273357       0.35061135       0.00000711 </v>
   <v>       0.81606690       0.35061135       0.00000711 </v>
   <v>       0.14940024       0.68394468       0.00000711 </v>
   <v>       0.48273357       0.68394468       0.00000711 </v>
   <v>       0.81606690       0.68394468       0.00000711 </v>
   <v>       0.14940024       0.01727802       0.50000711 </v>
   <v>       0.48273357       0.01727802       0.50000711 </v>
   <v>       0.81606690       0.01727802       0.50000711 </v>
   <v>       0.14940024       0.35061135       0.50000711 </v>
   <v>       0.48273357       0.35061135       0.50000711 </v>
   <v>       0.81606690       0.35061135       0.50000711 </v>
   <v>       0.14940024       0.68394468       0.50000711 </v>
   <v>       0.48273357       0.68394468       0.50000711 </v>
   <v>       0.81606690       0.68394468       0.50000711 </v>
   <v>       0.31605532       0.18393310       0.49999289 </v>
   <v>       0.64938865       0.18393310       0.49999289 </v>
   <v>       0.98272198       0.18393310       0.49999289 </v>
   <v>       0.31605532       0.51726643       0.49999289 </v>
   <v>       0.64938865       0.51726643       0.49999289 </v>
   <v>       0.98272198       0.51726643       0.49999289 </v>
   <v>       0.31605532       0.85059976       0.49999289 </v>
   <v>       0.64938865       0.85059976       0.49999289 </v>
   <v>       0.98272198       0.85059976       0.49999289 </v>
   <v>       0.31605532       0.18393310       0.99999289 </v>
   <v>       0.64938865       0.18393310       0.99999289 </v>
   <v>       0.98272198       0.18393310       0.99999289 </v>
   <v>       0.31605532       0.51726643       0.99999289 </v>
   <v>       0.64938865       0.51726643       0.99999289 </v>
   <v>       0.98272198       0.51726643       0.99999289 </v>
   <v>       0.31605532       0.85059976       0.99999289 </v>
   <v>       0.64938865       0.85059976       0.99999289 </v>
   <v>       0.98272198       0.85059976       0.99999289 </v>
   <v>       0.31606288       0.01727079       0.00000000 </v>
   <v>       0.64939621       0.01727079       0.00000000 </v>
   <v>       0.98272954       0.01727079       0.00000000 </v>
   <v>       0.31606288       0.35060413       0.00000000 </v>
   <v>       0.64939621       0.35060413       0.00000000 </v>
   <v>       0.98272954       0.35060413       0.00000000 </v>
   <v>       0.31606288       0.68393746       0.00000000 </v>
   <v>       0.64939621       0.68393746       0.00000000 </v>
   <v>       0.98272954       0.68393746       0.00000000 </v>
   <v>       0.31606288       0.01727079       0.50000000 </v>
   <v>       0.64939621       0.01727079       0.50000000 </v>
   <v>       0.98272954       0.01727079       0.50000000 </v>
   <v>       0.31606288       0.35060413       0.50000000 </v>
   <v>       0.64939621       0.35060413       0.50000000 </v>
   <v>       0.98272954       0.35060413       0.50000000 </v>
   <v>       0.31606288       0.68393746       0.50000000 </v>
   <v>       0.64939621       0.68393746       0.50000000 </v>
   <v>       0.98272954       0.68393746       0.50000000 </v>
   <v>       0.19934057       0.23388678       0.14983771 </v>
   <v>       0.53267391       0.23388678       0.14983771 </v>
   <v>       0.86600724       0.23388678       0.14983771 </v>
   <v>       0.19934057       0.56722011       0.14983771 </v>
   <v>       0.53267391       0.56722011       0.14983771 </v>
   <v>       0.86600724       0.56722011       0.14983771 </v>
   <v>       0.19934057       0.90055344       0.14983771 </v>
   <v>       0.53267391       0.90055344       0.14983771 </v>
   <v>       0.86600724       0.90055344       0.14983771 </v>
   <v>       0.19934057       0.23388678       0.64983771 </v>
   <v>       0.53267391       0.23388678       0.64983771 </v>
   <v>       0.86600724       0.23388678       0.64983771 </v>
   <v>       0.19934057       0.56722011       0.64983771 </v>
   <v>       0.53267391       0.56722011       0.64983771 </v>
   <v>       0.86600724       0.56722011       0.64983771 </v>
   <v>       0.19934057       0.90055344       0.64983771 </v>
   <v>       0.53267391       0.90055344       0.64983771 </v>
   <v>       0.86600724       0.90055344       0.64983771 </v>
   <v>       0.09944656       0.13399276       0.35016229 </v>
   <v>       0.43277989       0.13399276       0.35016229 </v>
   <v>       0.76611322       0.13399276       0.35016229 </v>
   <v>       0.09944656       0.46732609       0.35016229 </v>
   <v>       0.43277989       0.46732609       0.35016229 </v>
   <v>       0.76611322       0.46732609       0.35016229 </v>
   <v>       0.09944656       0.80065943       0.35016229 </v>
   <v>       0.43277989       0.80065943       0.35016229 </v>
   <v>       0.76611322       0.80065943       0.35016229 </v>
   <v>       0.09944656       0.13399276       0.85016229 </v>
   <v>       0.43277989       0.13399276       0.85016229 </v>
   <v>       0.76611322       0.13399276       0.85016229 </v>
   <v>       0.09944656       0.46732609       0.85016229 </v>
   <v>       0.43277989       0.46732609       0.85016229 </v>
   <v>       0.76611322       0.46732609       0.85016229 </v>
   <v>       0.09944656       0.80065943       0.85016229 </v>
   <v>       0.43277989       0.80065943       0.85016229 </v>
   <v>       0.76611322       0.80065943       0.85016229 </v>
   <v>       0.03603208       0.07144011       0.15990037 </v>
   <v>       0.36936541       0.07057630       0.15990037 </v>
   <v>       0.70269875       0.07057630       0.15990037 </v>
   <v>       0.03603208       0.40390964       0.15990037 </v>
   <v>       0.36936541       0.40390964       0.15990037 </v>
   <v>       0.70269875       0.40390964       0.15990037 </v>
   <v>       0.03603208       0.73724297       0.15990037 </v>
   <v>       0.36936541       0.73724297       0.15990037 </v>
   <v>       0.70269875       0.73724297       0.15990037 </v>
   <v>       0.03603208       0.07057630       0.65990037 </v>
   <v>       0.36936541       0.07057630       0.65990037 </v>
   <v>       0.70269875       0.07057630       0.65990037 </v>
   <v>       0.03603208       0.40390964       0.65990037 </v>
   <v>       0.36936541       0.40390964       0.65990037 </v>
   <v>       0.70269875       0.40390964       0.65990037 </v>
   <v>       0.03603208       0.73724297       0.65990037 </v>
   <v>       0.36936541       0.73724297       0.65990037 </v>
   <v>       0.70269875       0.73724297       0.65990037 </v>
   <v>       0.26275703       0.29730125       0.34009963 </v>
   <v>       0.59609036       0.29730125       0.34009963 </v>
   <v>       0.92942370       0.29730125       0.34009963 </v>
   <v>       0.26275703       0.63063459       0.34009963 </v>
   <v>       0.59609036       0.63063459       0.34009963 </v>
   <v>       0.92942370       0.63063459       0.34009963 </v>
   <v>       0.26275703       0.96396792       0.34009963 </v>
   <v>       0.59609036       0.96396792       0.34009963 </v>
   <v>       0.92942370       0.96396792       0.34009963 </v>
   <v>       0.26275703       0.29730125       0.84009963 </v>
   <v>       0.59609036       0.29730125       0.84009963 </v>
   <v>       0.92942370       0.29730125       0.84009963 </v>
   <v>       0.26275703       0.63063459       0.84009963 </v>
   <v>       0.59609036       0.63063459       0.84009963 </v>
   <v>       0.92942370       0.63063459       0.84009963 </v>
   <v>       0.26275703       0.96396792       0.84009963 </v>
   <v>       0.59609036       0.96396792       0.84009963 </v>
   <v>       0.92942370       0.96396792       0.84009963 </v>
  </varray>
 </structure>
</modeling>
