 224 224   0   0
  0.1357572E+02  0.1537960E-08  0.1537962E-08  0.1395899E-08  0.5000000E-15
  1.000000000000000E-004
  CAR 
 unknown system                          
     17.69673803    -54.42034355  301      5.25654145      1.00000000
    -54.420  0.0000E+00  0.0000E+00  0.0000E+00  0.0000E+00
    -54.180  0.0000E+00  0.0000E+00  0.0000E+00  0.0000E+00
    -53.940  0.0000E+00  0.0000E+00  0.0000E+00  0.0000E+00
    -53.699  0.0000E+00  0.0000E+00  0.0000E+00  0.0000E+00
    -53.459  0.0000E+00  0.0000E+00  0.0000E+00  0.0000E+00
    -53.218  0.0000E+00  0.0000E+00  0.0000E+00  0.0000E+00
    -52.978  0.0000E+00  0.0000E+00  0.0000E+00  0.0000E+00
    -52.738  0.0000E+00  0.0000E+00  0.0000E+00  0.0000E+00
    -52.497  0.0000E+00  0.0000E+00  0.0000E+00  0.0000E+00
    -52.257  0.0000E+00  0.0000E+00  0.0000E+00  0.0000E+00
    -52.016  0.0000E+00  0.0000E+00  0.0000E+00  0.0000E+00
    -51.776  0.0000E+00  0.0000E+00  0.0000E+00  0.0000E+00
    -51.536  0.0000E+00  0.0000E+00  0.0000E+00  0.0000E+00
    -51.295  0.1574E-02  0.0000E+00  0.3785E-03  0.0000E+00
    -51.055  0.2641E+03  0.0000E+00  0.6350E+02  0.0000E+00
    -50.814  0.2085E+01  0.0000E+00  0.6400E+02  0.0000E+00
    -50.574  0.0000E+00  0.0000E+00  0.6400E+02  0.0000E+00
    -50.334  0.0000E+00  0.0000E+00  0.6400E+02  0.0000E+00
    -50.093  0.0000E+00  0.0000E+00  0.6400E+02  0.0000E+00
    -49.853  0.1238E-05  0.0000E+00  0.6400E+02  0.0000E+00
    -49.613  0.4394E+03  0.0000E+00  0.1696E+03  0.0000E+00
    -49.372  0.9306E+02  0.0000E+00  0.1920E+03  0.0000E+00
    -49.132  0.0000E+00  0.0000E+00  0.1920E+03  0.0000E+00
    -48.891  0.0000E+00  0.0000E+00  0.1920E+03  0.0000E+00
    -48.651  0.0000E+00  0.0000E+00  0.1920E+03  0.0000E+00
    -48.411  0.0000E+00  0.0000E+00  0.1920E+03  0.0000E+00
    -48.170  0.0000E+00  0.0000E+00  0.1920E+03  0.0000E+00
    -47.930  0.0000E+00  0.0000E+00  0.1920E+03  0.0000E+00
    -47.689  0.0000E+00  0.0000E+00  0.1920E+03  0.0000E+00
    -47.449  0.0000E+00  0.0000E+00  0.1920E+03  0.0000E+00
    -47.209  0.0000E+00  0.0000E+00  0.1920E+03  0.0000E+00
    -46.968  0.0000E+00  0.0000E+00  0.1920E+03  0.0000E+00
    -46.728  0.0000E+00  0.0000E+00  0.1920E+03  0.0000E+00
    -46.487  0.0000E+00  0.7305E+00  0.1920E+03  0.1756E+00
    -46.247  0.0000E+00  0.2655E+03  0.1920E+03  0.6400E+02
    -46.007  0.0000E+00  0.6579E+01  0.1920E+03  0.6558E+02
    -45.766  0.0000E+00  0.5259E+03  0.1920E+03  0.1920E+03
    -45.526  0.0000E+00  0.2308E-03  0.1920E+03  0.1920E+03
    -45.286  0.0000E+00  0.0000E+00  0.1920E+03  0.1920E+03
    -45.045  0.0000E+00  0.0000E+00  0.1920E+03  0.1920E+03
    -44.805  0.0000E+00  0.0000E+00  0.1920E+03  0.1920E+03
    -44.564  0.0000E+00  0.0000E+00  0.1920E+03  0.1920E+03
    -44.324  0.0000E+00  0.0000E+00  0.1920E+03  0.1920E+03
    -44.084  0.0000E+00  0.0000E+00  0.1920E+03  0.1920E+03
    -43.843  0.0000E+00  0.0000E+00  0.1920E+03  0.1920E+03
    -43.603  0.0000E+00  0.0000E+00  0.1920E+03  0.1920E+03
    -43.362  0.0000E+00  0.0000E+00  0.1920E+03  0.1920E+03
    -43.122  0.0000E+00  0.0000E+00  0.1920E+03  0.1920E+03
    -42.882  0.0000E+00  0.0000E+00  0.1920E+03  0.1920E+03
    -42.641  0.0000E+00  0.0000E+00  0.1920E+03  0.1920E+03
    -42.401  0.0000E+00  0.0000E+00  0.1920E+03  0.1920E+03
    -42.160  0.0000E+00  0.0000E+00  0.1920E+03  0.1920E+03
    -41.920  0.0000E+00  0.0000E+00  0.1920E+03  0.1920E+03
    -41.680  0.0000E+00  0.0000E+00  0.1920E+03  0.1920E+03
    -41.439  0.0000E+00  0.0000E+00  0.1920E+03  0.1920E+03
    -41.199  0.0000E+00  0.0000E+00  0.1920E+03  0.1920E+03
    -40.958  0.0000E+00  0.0000E+00  0.1920E+03  0.1920E+03
    -40.718  0.0000E+00  0.0000E+00  0.1920E+03  0.1920E+03
    -40.478  0.0000E+00  0.0000E+00  0.1920E+03  0.1920E+03
    -40.237  0.0000E+00  0.0000E+00  0.1920E+03  0.1920E+03
    -39.997  0.0000E+00  0.0000E+00  0.1920E+03  0.1920E+03
    -39.757  0.2276E-01  0.2078E-01  0.1920E+03  0.1920E+03
    -39.516  0.2652E+03  0.2651E+03  0.2558E+03  0.2557E+03
    -39.276  0.1018E+01  0.1080E+01  0.2560E+03  0.2560E+03
    -39.035  0.0000E+00  0.0000E+00  0.2560E+03  0.2560E+03
    -38.795  0.0000E+00  0.0000E+00  0.2560E+03  0.2560E+03
    -38.555  0.0000E+00  0.0000E+00  0.2560E+03  0.2560E+03
    -38.314  0.0000E+00  0.0000E+00  0.2560E+03  0.2560E+03
    -38.074  0.0000E+00  0.0000E+00  0.2560E+03  0.2560E+03
    -37.833  0.0000E+00  0.0000E+00  0.2560E+03  0.2560E+03
    -37.593  0.0000E+00  0.0000E+00  0.2560E+03  0.2560E+03
    -37.353  0.0000E+00  0.0000E+00  0.2560E+03  0.2560E+03
    -37.112  0.0000E+00  0.0000E+00  0.2560E+03  0.2560E+03
    -36.872  0.0000E+00  0.0000E+00  0.2560E+03  0.2560E+03
    -36.631  0.0000E+00  0.0000E+00  0.2560E+03  0.2560E+03
    -36.391  0.0000E+00  0.0000E+00  0.2560E+03  0.2560E+03
    -36.151  0.0000E+00  0.0000E+00  0.2560E+03  0.2560E+03
    -35.910  0.0000E+00  0.0000E+00  0.2560E+03  0.2560E+03
    -35.670  0.0000E+00  0.0000E+00  0.2560E+03  0.2560E+03
    -35.430  0.0000E+00  0.0000E+00  0.2560E+03  0.2560E+03
    -35.189  0.0000E+00  0.0000E+00  0.2560E+03  0.2560E+03
    -34.949  0.0000E+00  0.0000E+00  0.2560E+03  0.2560E+03
    -34.708  0.0000E+00  0.0000E+00  0.2560E+03  0.2560E+03
    -34.468  0.0000E+00  0.0000E+00  0.2560E+03  0.2560E+03
    -34.228  0.0000E+00  0.0000E+00  0.2560E+03  0.2560E+03
    -33.987  0.0000E+00  0.0000E+00  0.2560E+03  0.2560E+03
    -33.747  0.0000E+00  0.0000E+00  0.2560E+03  0.2560E+03
    -33.506  0.0000E+00  0.0000E+00  0.2560E+03  0.2560E+03
    -33.266  0.0000E+00  0.0000E+00  0.2560E+03  0.2560E+03
    -33.026  0.0000E+00  0.0000E+00  0.2560E+03  0.2560E+03
    -32.785  0.0000E+00  0.0000E+00  0.2560E+03  0.2560E+03
    -32.545  0.0000E+00  0.0000E+00  0.2560E+03  0.2560E+03
    -32.304  0.0000E+00  0.0000E+00  0.2560E+03  0.2560E+03
    -32.064  0.0000E+00  0.0000E+00  0.2560E+03  0.2560E+03
    -31.824  0.0000E+00  0.0000E+00  0.2560E+03  0.2560E+03
    -31.583  0.0000E+00  0.0000E+00  0.2560E+03  0.2560E+03
    -31.343  0.0000E+00  0.0000E+00  0.2560E+03  0.2560E+03
    -31.102  0.0000E+00  0.0000E+00  0.2560E+03  0.2560E+03
    -30.862  0.0000E+00  0.0000E+00  0.2560E+03  0.2560E+03
    -30.622  0.0000E+00  0.0000E+00  0.2560E+03  0.2560E+03
    -30.381  0.0000E+00  0.0000E+00  0.2560E+03  0.2560E+03
    -30.141  0.0000E+00  0.0000E+00  0.2560E+03  0.2560E+03
    -29.901  0.0000E+00  0.0000E+00  0.2560E+03  0.2560E+03
    -29.660  0.0000E+00  0.0000E+00  0.2560E+03  0.2560E+03
    -29.420  0.0000E+00  0.0000E+00  0.2560E+03  0.2560E+03
    -29.179  0.0000E+00  0.0000E+00  0.2560E+03  0.2560E+03
    -28.939  0.0000E+00  0.0000E+00  0.2560E+03  0.2560E+03
    -28.699  0.0000E+00  0.0000E+00  0.2560E+03  0.2560E+03
    -28.458  0.0000E+00  0.0000E+00  0.2560E+03  0.2560E+03
    -28.218  0.0000E+00  0.0000E+00  0.2560E+03  0.2560E+03
    -27.977  0.0000E+00  0.0000E+00  0.2560E+03  0.2560E+03
    -27.737  0.0000E+00  0.0000E+00  0.2560E+03  0.2560E+03
    -27.497  0.0000E+00  0.0000E+00  0.2560E+03  0.2560E+03
    -27.256  0.0000E+00  0.0000E+00  0.2560E+03  0.2560E+03
    -27.016  0.0000E+00  0.0000E+00  0.2560E+03  0.2560E+03
    -26.775  0.0000E+00  0.0000E+00  0.2560E+03  0.2560E+03
    -26.535  0.0000E+00  0.0000E+00  0.2560E+03  0.2560E+03
    -26.295  0.0000E+00  0.0000E+00  0.2560E+03  0.2560E+03
    -26.054  0.0000E+00  0.0000E+00  0.2560E+03  0.2560E+03
    -25.814  0.0000E+00  0.0000E+00  0.2560E+03  0.2560E+03
    -25.574  0.0000E+00  0.0000E+00  0.2560E+03  0.2560E+03
    -25.333  0.0000E+00  0.0000E+00  0.2560E+03  0.2560E+03
    -25.093  0.0000E+00  0.0000E+00  0.2560E+03  0.2560E+03
    -24.852  0.0000E+00  0.0000E+00  0.2560E+03  0.2560E+03
    -24.612  0.0000E+00  0.0000E+00  0.2560E+03  0.2560E+03
    -24.372  0.0000E+00  0.0000E+00  0.2560E+03  0.2560E+03
    -24.131  0.0000E+00  0.0000E+00  0.2560E+03  0.2560E+03
    -23.891  0.0000E+00  0.0000E+00  0.2560E+03  0.2560E+03
    -23.650  0.0000E+00  0.0000E+00  0.2560E+03  0.2560E+03
    -23.410  0.0000E+00  0.0000E+00  0.2560E+03  0.2560E+03
    -23.170  0.0000E+00  0.0000E+00  0.2560E+03  0.2560E+03
    -22.929  0.0000E+00  0.0000E+00  0.2560E+03  0.2560E+03
    -22.689  0.0000E+00  0.0000E+00  0.2560E+03  0.2560E+03
    -22.448  0.0000E+00  0.0000E+00  0.2560E+03  0.2560E+03
    -22.208  0.0000E+00  0.0000E+00  0.2560E+03  0.2560E+03
    -21.968  0.0000E+00  0.0000E+00  0.2560E+03  0.2560E+03
    -21.727  0.0000E+00  0.0000E+00  0.2560E+03  0.2560E+03
    -21.487  0.0000E+00  0.0000E+00  0.2560E+03  0.2560E+03
    -21.246  0.0000E+00  0.0000E+00  0.2560E+03  0.2560E+03
    -21.006  0.0000E+00  0.0000E+00  0.2560E+03  0.2560E+03
    -20.766  0.0000E+00  0.0000E+00  0.2560E+03  0.2560E+03
    -20.525  0.0000E+00  0.0000E+00  0.2560E+03  0.2560E+03
    -20.285  0.0000E+00  0.0000E+00  0.2560E+03  0.2560E+03
    -20.045  0.0000E+00  0.0000E+00  0.2560E+03  0.2560E+03
    -19.804  0.0000E+00  0.0000E+00  0.2560E+03  0.2560E+03
    -19.564  0.0000E+00  0.0000E+00  0.2560E+03  0.2560E+03
    -19.323  0.0000E+00  0.0000E+00  0.2560E+03  0.2560E+03
    -19.083  0.0000E+00  0.0000E+00  0.2560E+03  0.2560E+03
    -18.843  0.0000E+00  0.0000E+00  0.2560E+03  0.2560E+03
    -18.602  0.0000E+00  0.0000E+00  0.2560E+03  0.2560E+03
    -18.362  0.0000E+00  0.0000E+00  0.2560E+03  0.2560E+03
    -18.121  0.0000E+00  0.0000E+00  0.2560E+03  0.2560E+03
    -17.881  0.0000E+00  0.0000E+00  0.2560E+03  0.2560E+03
    -17.641  0.0000E+00  0.0000E+00  0.2560E+03  0.2560E+03
    -17.400  0.0000E+00  0.0000E+00  0.2560E+03  0.2560E+03
    -17.160  0.0000E+00  0.0000E+00  0.2560E+03  0.2560E+03
    -16.919  0.0000E+00  0.0000E+00  0.2560E+03  0.2560E+03
    -16.679  0.0000E+00  0.0000E+00  0.2560E+03  0.2560E+03
    -16.439  0.0000E+00  0.0000E+00  0.2560E+03  0.2560E+03
    -16.198  0.0000E+00  0.0000E+00  0.2560E+03  0.2560E+03
    -15.958  0.0000E+00  0.0000E+00  0.2560E+03  0.2560E+03
    -15.718  0.0000E+00  0.0000E+00  0.2560E+03  0.2560E+03
    -15.477  0.0000E+00  0.0000E+00  0.2560E+03  0.2560E+03
    -15.237  0.0000E+00  0.0000E+00  0.2560E+03  0.2560E+03
    -14.996  0.0000E+00  0.0000E+00  0.2560E+03  0.2560E+03
    -14.756  0.0000E+00  0.0000E+00  0.2560E+03  0.2560E+03
    -14.516  0.0000E+00  0.0000E+00  0.2560E+03  0.2560E+03
    -14.275  0.0000E+00  0.0000E+00  0.2560E+03  0.2560E+03
    -14.035  0.0000E+00  0.0000E+00  0.2560E+03  0.2560E+03
    -13.794  0.0000E+00  0.0000E+00  0.2560E+03  0.2560E+03
    -13.554  0.0000E+00  0.0000E+00  0.2560E+03  0.2560E+03
    -13.314  0.0000E+00  0.0000E+00  0.2560E+03  0.2560E+03
    -13.073  0.0000E+00  0.0000E+00  0.2560E+03  0.2560E+03
    -12.833  0.7916E-01  0.0000E+00  0.2560E+03  0.2560E+03
    -12.592  0.1320E+03  0.1553E-02  0.2878E+03  0.2560E+03
    -12.352  0.1021E+01  0.1238E+03  0.2880E+03  0.2858E+03
    -12.112  0.0000E+00  0.9349E+01  0.2880E+03  0.2880E+03
    -11.871  0.0000E+00  0.0000E+00  0.2880E+03  0.2880E+03
    -11.631  0.0000E+00  0.0000E+00  0.2880E+03  0.2880E+03
    -11.390  0.0000E+00  0.0000E+00  0.2880E+03  0.2880E+03
    -11.150  0.0000E+00  0.0000E+00  0.2880E+03  0.2880E+03
    -10.910  0.0000E+00  0.0000E+00  0.2880E+03  0.2880E+03
    -10.669  0.0000E+00  0.0000E+00  0.2880E+03  0.2880E+03
    -10.429  0.0000E+00  0.0000E+00  0.2880E+03  0.2880E+03
    -10.189  0.0000E+00  0.0000E+00  0.2880E+03  0.2880E+03
     -9.948  0.0000E+00  0.0000E+00  0.2880E+03  0.2880E+03
     -9.708  0.0000E+00  0.0000E+00  0.2880E+03  0.2880E+03
     -9.467  0.0000E+00  0.0000E+00  0.2880E+03  0.2880E+03
     -9.227  0.0000E+00  0.0000E+00  0.2880E+03  0.2880E+03
     -8.987  0.0000E+00  0.0000E+00  0.2880E+03  0.2880E+03
     -8.746  0.0000E+00  0.0000E+00  0.2880E+03  0.2880E+03
     -8.506  0.0000E+00  0.0000E+00  0.2880E+03  0.2880E+03
     -8.265  0.0000E+00  0.0000E+00  0.2880E+03  0.2880E+03
     -8.025  0.5184E-10  0.0000E+00  0.2880E+03  0.2880E+03
     -7.785  0.9353E+00  0.4132E-07  0.2882E+03  0.2880E+03
     -7.544  0.1880E+02  0.2862E+01  0.2927E+03  0.2887E+03
     -7.304  0.2818E+02  0.2235E+02  0.2995E+03  0.2941E+03
     -7.063  0.5378E+02  0.3105E+02  0.3124E+03  0.3015E+03
     -6.823  0.1469E+03  0.4888E+02  0.3478E+03  0.3133E+03
     -6.583  0.1763E+02  0.1389E+03  0.3520E+03  0.3467E+03
     -6.342  0.0000E+00  0.2215E+02  0.3520E+03  0.3520E+03
     -6.102  0.0000E+00  0.1139E-04  0.3520E+03  0.3520E+03
     -5.862  0.0000E+00  0.0000E+00  0.3520E+03  0.3520E+03
     -5.621  0.0000E+00  0.0000E+00  0.3520E+03  0.3520E+03
     -5.381  0.0000E+00  0.0000E+00  0.3520E+03  0.3520E+03
     -5.140  0.0000E+00  0.0000E+00  0.3520E+03  0.3520E+03
     -4.900  0.0000E+00  0.0000E+00  0.3520E+03  0.3520E+03
     -4.660  0.0000E+00  0.0000E+00  0.3520E+03  0.3520E+03
     -4.419  0.0000E+00  0.0000E+00  0.3520E+03  0.3520E+03
     -4.179  0.0000E+00  0.0000E+00  0.3520E+03  0.3520E+03
     -3.938  0.0000E+00  0.0000E+00  0.3520E+03  0.3520E+03
     -3.698  0.0000E+00  0.0000E+00  0.3520E+03  0.3520E+03
     -3.458  0.0000E+00  0.0000E+00  0.3520E+03  0.3520E+03
     -3.217  0.0000E+00  0.0000E+00  0.3520E+03  0.3520E+03
     -2.977  0.0000E+00  0.0000E+00  0.3520E+03  0.3520E+03
     -2.736  0.0000E+00  0.0000E+00  0.3520E+03  0.3520E+03
     -2.496  0.0000E+00  0.0000E+00  0.3520E+03  0.3520E+03
     -2.256  0.0000E+00  0.0000E+00  0.3520E+03  0.3520E+03
     -2.015  0.0000E+00  0.0000E+00  0.3520E+03  0.3520E+03
     -1.775  0.4919E-12  0.0000E+00  0.3520E+03  0.3520E+03
     -1.534  0.1241E+01  0.0000E+00  0.3523E+03  0.3520E+03
     -1.294  0.9994E+02  0.0000E+00  0.3763E+03  0.3520E+03
     -1.054  0.3193E+02  0.0000E+00  0.3840E+03  0.3520E+03
     -0.813  0.1244E+02  0.0000E+00  0.3870E+03  0.3520E+03
     -0.573  0.8940E+02  0.7746E-05  0.4085E+03  0.3520E+03
     -0.333  0.2237E+03  0.4057E+01  0.4623E+03  0.3530E+03
     -0.092  0.2017E+03  0.2469E+02  0.5107E+03  0.3589E+03
      0.148  0.1768E+03  0.4104E+02  0.5532E+03  0.3688E+03
      0.389  0.1518E+03  0.4235E+02  0.5897E+03  0.3790E+03
      0.629  0.1198E+03  0.7191E+02  0.6185E+03  0.3962E+03
      0.869  0.5445E+02  0.6052E+02  0.6316E+03  0.4108E+03
      1.110  0.6959E+02  0.6531E+02  0.6483E+03  0.4265E+03
      1.350  0.7348E+02  0.6772E+02  0.6660E+03  0.4428E+03
      1.591  0.6801E+02  0.7762E+02  0.6824E+03  0.4614E+03
      1.831  0.1105E+03  0.1110E+03  0.7089E+03  0.4881E+03
      2.071  0.2136E+03  0.6225E+02  0.7603E+03  0.5031E+03
      2.312  0.1399E+03  0.3780E+02  0.7939E+03  0.5122E+03
      2.552  0.8454E+02  0.7742E+02  0.8142E+03  0.5308E+03
      2.793  0.6871E+02  0.1039E+03  0.8307E+03  0.5558E+03
      3.033  0.3531E+02  0.7077E+02  0.8392E+03  0.5728E+03
      3.273  0.4040E+02  0.1312E+03  0.8489E+03  0.6043E+03
      3.514  0.5192E+02  0.1174E+03  0.8614E+03  0.6325E+03
      3.754  0.6738E+02  0.2514E+02  0.8776E+03  0.6386E+03
      3.994  0.7968E+02  0.4385E+02  0.8968E+03  0.6491E+03
      4.235  0.8008E+02  0.1785E+03  0.9160E+03  0.6920E+03
      4.475  0.7585E+02  0.4803E+02  0.9343E+03  0.7036E+03
      4.716  0.2870E+02  0.1680E+01  0.9412E+03  0.7040E+03
      4.956  0.6464E+02  0.0000E+00  0.9567E+03  0.7040E+03
      5.196  0.1376E+02  0.0000E+00  0.9600E+03  0.7040E+03
      5.437  0.0000E+00  0.0000E+00  0.9600E+03  0.7040E+03
      5.677  0.0000E+00  0.0000E+00  0.9600E+03  0.7040E+03
      5.918  0.0000E+00  0.0000E+00  0.9600E+03  0.7040E+03
      6.158  0.0000E+00  0.8214E-07  0.9600E+03  0.7040E+03
      6.398  0.0000E+00  0.1029E+01  0.9600E+03  0.7042E+03
      6.639  0.0000E+00  0.1011E+02  0.9600E+03  0.7067E+03
      6.879  0.0000E+00  0.2647E+02  0.9600E+03  0.7130E+03
      7.120  0.2887E-16  0.6577E+02  0.9600E+03  0.7289E+03
      7.360  0.5670E-01  0.1113E+03  0.9600E+03  0.7556E+03
      7.600  0.1503E+01  0.1393E+03  0.9604E+03  0.7891E+03
      7.841  0.5102E+01  0.1182E+03  0.9616E+03  0.8175E+03
      8.081  0.7082E+01  0.1785E+03  0.9633E+03  0.8604E+03
      8.322  0.9303E+01  0.1461E+03  0.9655E+03  0.8955E+03
      8.562  0.1252E+02  0.6182E+02  0.9685E+03  0.9104E+03
      8.802  0.1441E+02  0.8260E+02  0.9720E+03  0.9303E+03
      9.043  0.2717E+02  0.7306E+02  0.9785E+03  0.9478E+03
      9.283  0.3342E+02  0.5735E+02  0.9866E+03  0.9616E+03
      9.523  0.3522E+02  0.2325E+02  0.9950E+03  0.9672E+03
      9.764  0.5336E+02  0.3405E+02  0.1008E+04  0.9754E+03
     10.004  0.5110E+02  0.2267E+02  0.1020E+04  0.9808E+03
     10.245  0.3400E+02  0.3867E+02  0.1028E+04  0.9901E+03
     10.485  0.2151E+02  0.4349E+02  0.1034E+04  0.1001E+04
     10.725  0.4557E+02  0.6096E+02  0.1044E+04  0.1015E+04
     10.966  0.3308E+02  0.4356E+02  0.1052E+04  0.1026E+04
     11.206  0.4345E+02  0.4021E+02  0.1063E+04  0.1035E+04
     11.447  0.7795E+02  0.3446E+02  0.1082E+04  0.1044E+04
     11.687  0.4294E+02  0.4376E+02  0.1092E+04  0.1054E+04
     11.927  0.6447E+02  0.5177E+02  0.1107E+04  0.1067E+04
     12.168  0.6668E+02  0.5758E+02  0.1123E+04  0.1080E+04
     12.408  0.6936E+02  0.5326E+02  0.1140E+04  0.1093E+04
     12.649  0.6090E+02  0.6687E+02  0.1155E+04  0.1109E+04
     12.889  0.5282E+02  0.7977E+02  0.1167E+04  0.1129E+04
     13.129  0.5867E+02  0.6473E+02  0.1182E+04  0.1144E+04
     13.370  0.4849E+02  0.6625E+02  0.1193E+04  0.1160E+04
     13.610  0.4036E+02  0.6473E+02  0.1203E+04  0.1176E+04
     13.850  0.1867E+02  0.5733E+02  0.1207E+04  0.1189E+04
     14.091  0.2477E+01  0.5316E+02  0.1208E+04  0.1202E+04
     14.331  0.0000E+00  0.2144E+02  0.1208E+04  0.1207E+04
     14.572  0.0000E+00  0.3028E+01  0.1208E+04  0.1208E+04
     14.812  0.0000E+00  0.3933E-05  0.1208E+04  0.1208E+04
     15.052  0.0000E+00  0.0000E+00  0.1208E+04  0.1208E+04
     15.293  0.0000E+00  0.0000E+00  0.1208E+04  0.1208E+04
     15.533  0.0000E+00  0.0000E+00  0.1208E+04  0.1208E+04
     15.774  0.0000E+00  0.0000E+00  0.1208E+04  0.1208E+04
     16.014  0.0000E+00  0.0000E+00  0.1208E+04  0.1208E+04
     16.254  0.0000E+00  0.0000E+00  0.1208E+04  0.1208E+04
     16.495  0.0000E+00  0.0000E+00  0.1208E+04  0.1208E+04
     16.735  0.0000E+00  0.0000E+00  0.1208E+04  0.1208E+04
     16.976  0.0000E+00  0.0000E+00  0.1208E+04  0.1208E+04
     17.216  0.0000E+00  0.0000E+00  0.1208E+04  0.1208E+04
     17.456  0.0000E+00  0.0000E+00  0.1208E+04  0.1208E+04
     17.697  0.0000E+00  0.0000E+00  0.1208E+04  0.1208E+04
