  224  224    1    2
  0.1357572E+02  0.1537960E-08  0.1537962E-08  0.1395899E-08  0.5000000E-15
  1.000000000000000E-004
  CAR 
 unknown system                          
   1664      8   1208
 
  0.0000000E+00  0.0000000E+00  0.0000000E+00  0.1250000E+00
    1      -51.142294    -46.391661   1.000000   1.000000
    2      -51.141967    -46.391199   1.000000   1.000000
    3      -51.141876    -46.391056   1.000000   1.000000
    4      -51.141762    -46.390952   1.000000   1.000000
    5      -51.141670    -46.390738   1.000000   1.000000
    6      -51.141493    -46.390690   1.000000   1.000000
    7      -51.141415    -46.390578   1.000000   1.000000
    8      -51.141342    -46.390521   1.000000   1.000000
    9      -51.141322    -46.390398   1.000000   1.000000
   10      -51.141273    -46.390368   1.000000   1.000000
   11      -51.141217    -46.390350   1.000000   1.000000
   12      -51.141139    -46.390291   1.000000   1.000000
   13      -51.141095    -46.390179   1.000000   1.000000
   14      -51.141026    -46.390136   1.000000   1.000000
   15      -51.140945    -46.390060   1.000000   1.000000
   16      -51.140935    -46.390010   1.000000   1.000000
   17      -51.140906    -46.389971   1.000000   1.000000
   18      -51.140857    -46.389884   1.000000   1.000000
   19      -51.140783    -46.389770   1.000000   1.000000
   20      -51.140738    -46.389731   1.000000   1.000000
   21      -51.140646    -46.389636   1.000000   1.000000
   22      -51.140612    -46.389616   1.000000   1.000000
   23      -51.140597    -46.389593   1.000000   1.000000
   24      -51.140586    -46.389583   1.000000   1.000000
   25      -51.140568    -46.389568   1.000000   1.000000
   26      -51.140546    -46.389539   1.000000   1.000000
   27      -51.140524    -46.389525   1.000000   1.000000
   28      -51.140499    -46.389489   1.000000   1.000000
   29      -51.140485    -46.389424   1.000000   1.000000
   30      -51.140470    -46.389408   1.000000   1.000000
   31      -51.140406    -46.389363   1.000000   1.000000
   32      -51.140388    -46.389251   1.000000   1.000000
   33      -51.140315    -46.389173   1.000000   1.000000
   34      -51.140263    -46.389102   1.000000   1.000000
   35      -51.140202    -46.389062   1.000000   1.000000
   36      -51.140144    -46.389016   1.000000   1.000000
   37      -51.140134    -46.388926   1.000000   1.000000
   38      -51.140122    -46.388907   1.000000   1.000000
   39      -51.140090    -46.388896   1.000000   1.000000
   40      -51.140077    -46.388858   1.000000   1.000000
   41      -51.140069    -46.388844   1.000000   1.000000
   42      -51.140048    -46.388814   1.000000   1.000000
   43      -51.140024    -46.388806   1.000000   1.000000
   44      -51.140013    -46.388751   1.000000   1.000000
   45      -51.139951    -46.388729   1.000000   1.000000
   46      -51.139899    -46.388689   1.000000   1.000000
   47      -51.139823    -46.388642   1.000000   1.000000
   48      -51.139762    -46.388483   1.000000   1.000000
   49      -51.139758    -46.388458   1.000000   1.000000
   50      -51.139708    -46.388383   1.000000   1.000000
   51      -51.139672    -46.388353   1.000000   1.000000
   52      -51.139600    -46.388317   1.000000   1.000000
   53      -51.139557    -46.388234   1.000000   1.000000
   54      -51.139527    -46.388197   1.000000   1.000000
   55      -51.139451    -46.388150   1.000000   1.000000
   56      -51.139387    -46.388116   1.000000   1.000000
   57      -51.139372    -46.388032   1.000000   1.000000
   58      -51.139316    -46.388003   1.000000   1.000000
   59      -51.139245    -46.387887   1.000000   1.000000
   60      -51.139031    -46.387763   1.000000   1.000000
   61      -51.138942    -46.387570   1.000000   1.000000
   62      -51.138888    -46.387510   1.000000   1.000000
   63      -51.138762    -46.387429   1.000000   1.000000
   64      -51.138449    -46.386959   1.000000   1.000000
   65      -49.648506    -45.929685   1.000000   1.000000
   66      -49.648282    -45.929595   1.000000   1.000000
   67      -49.648160    -45.929517   1.000000   1.000000
   68      -49.647949    -45.929472   1.000000   1.000000
   69      -49.647740    -45.929266   1.000000   1.000000
   70      -49.647623    -45.929204   1.000000   1.000000
   71      -49.647608    -45.929092   1.000000   1.000000
   72      -49.647585    -45.929018   1.000000   1.000000
   73      -49.647490    -45.928959   1.000000   1.000000
   74      -49.647459    -45.928942   1.000000   1.000000
   75      -49.647446    -45.928900   1.000000   1.000000
   76      -49.647437    -45.928879   1.000000   1.000000
   77      -49.647367    -45.928760   1.000000   1.000000
   78      -49.647316    -45.928745   1.000000   1.000000
   79      -49.647288    -45.928708   1.000000   1.000000
   80      -49.647286    -45.928682   1.000000   1.000000
   81      -49.647229    -45.928624   1.000000   1.000000
   82      -49.647225    -45.928594   1.000000   1.000000
   83      -49.647203    -45.928566   1.000000   1.000000
   84      -49.647184    -45.928534   1.000000   1.000000
   85      -49.647142    -45.928456   1.000000   1.000000
   86      -49.647084    -45.928421   1.000000   1.000000
   87      -49.647024    -45.928405   1.000000   1.000000
   88      -49.647021    -45.928380   1.000000   1.000000
   89      -49.646964    -45.928366   1.000000   1.000000
   90      -49.646951    -45.928352   1.000000   1.000000
   91      -49.646912    -45.928295   1.000000   1.000000
   92      -49.646890    -45.928285   1.000000   1.000000
   93      -49.646873    -45.928248   1.000000   1.000000
   94      -49.646855    -45.928200   1.000000   1.000000
   95      -49.646795    -45.928193   1.000000   1.000000
   96      -49.646764    -45.928125   1.000000   1.000000
   97      -49.646683    -45.928062   1.000000   1.000000
   98      -49.646649    -45.928024   1.000000   1.000000
   99      -49.646579    -45.928018   1.000000   1.000000
  100      -49.646518    -45.927984   1.000000   1.000000
  101      -49.646488    -45.927972   1.000000   1.000000
  102      -49.646440    -45.927940   1.000000   1.000000
  103      -49.646425    -45.927902   1.000000   1.000000
  104      -49.646419    -45.927869   1.000000   1.000000
  105      -49.646374    -45.927793   1.000000   1.000000
  106      -49.646350    -45.927782   1.000000   1.000000
  107      -49.646255    -45.927775   1.000000   1.000000
  108      -49.646236    -45.927748   1.000000   1.000000
  109      -49.646219    -45.927696   1.000000   1.000000
  110      -49.646210    -45.927650   1.000000   1.000000
  111      -49.646195    -45.927630   1.000000   1.000000
  112      -49.646171    -45.927600   1.000000   1.000000
  113      -49.646069    -45.927597   1.000000   1.000000
  114      -49.646027    -45.927512   1.000000   1.000000
  115      -49.646019    -45.927489   1.000000   1.000000
  116      -49.646014    -45.927470   1.000000   1.000000
  117      -49.645983    -45.927446   1.000000   1.000000
  118      -49.645949    -45.927428   1.000000   1.000000
  119      -49.645929    -45.927382   1.000000   1.000000
  120      -49.645886    -45.927354   1.000000   1.000000
  121      -49.645816    -45.927346   1.000000   1.000000
  122      -49.645797    -45.927335   1.000000   1.000000
  123      -49.645746    -45.927298   1.000000   1.000000
  124      -49.645736    -45.927268   1.000000   1.000000
  125      -49.645680    -45.927249   1.000000   1.000000
  126      -49.645629    -45.927220   1.000000   1.000000
  127      -49.645620    -45.927188   1.000000   1.000000
  128      -49.645583    -45.927164   1.000000   1.000000
  129      -49.645546    -45.927137   1.000000   1.000000
  130      -49.645544    -45.927132   1.000000   1.000000
  131      -49.645497    -45.927126   1.000000   1.000000
  132      -49.645481    -45.927094   1.000000   1.000000
  133      -49.645466    -45.927075   1.000000   1.000000
  134      -49.645446    -45.927021   1.000000   1.000000
  135      -49.645443    -45.926998   1.000000   1.000000
  136      -49.645398    -45.926948   1.000000   1.000000
  137      -49.645375    -45.926924   1.000000   1.000000
  138      -49.645334    -45.926898   1.000000   1.000000
  139      -49.645298    -45.926881   1.000000   1.000000
  140      -49.645270    -45.926863   1.000000   1.000000
  141      -49.645221    -45.926841   1.000000   1.000000
  142      -49.645192    -45.926807   1.000000   1.000000
  143      -49.645188    -45.926781   1.000000   1.000000
  144      -49.645177    -45.926761   1.000000   1.000000
  145      -49.645150    -45.926725   1.000000   1.000000
  146      -49.645134    -45.926690   1.000000   1.000000
  147      -49.645045    -45.926674   1.000000   1.000000
  148      -49.645037    -45.926656   1.000000   1.000000
  149      -49.645020    -45.926624   1.000000   1.000000
  150      -49.644990    -45.926608   1.000000   1.000000
  151      -49.644901    -45.926586   1.000000   1.000000
  152      -49.644834    -45.926566   1.000000   1.000000
  153      -49.644825    -45.926545   1.000000   1.000000
  154      -49.644786    -45.926528   1.000000   1.000000
  155      -49.644772    -45.926503   1.000000   1.000000
  156      -49.644749    -45.926493   1.000000   1.000000
  157      -49.644705    -45.926473   1.000000   1.000000
  158      -49.644677    -45.926444   1.000000   1.000000
  159      -49.644669    -45.926402   1.000000   1.000000
  160      -49.644603    -45.926386   1.000000   1.000000
  161      -49.644581    -45.926369   1.000000   1.000000
  162      -49.644540    -45.926355   1.000000   1.000000
  163      -49.644521    -45.926325   1.000000   1.000000
  164      -49.644497    -45.926284   1.000000   1.000000
  165      -49.644476    -45.926265   1.000000   1.000000
  166      -49.644416    -45.926239   1.000000   1.000000
  167      -49.644381    -45.926220   1.000000   1.000000
  168      -49.644364    -45.926175   1.000000   1.000000
  169      -49.644322    -45.926128   1.000000   1.000000
  170      -49.644280    -45.926113   1.000000   1.000000
  171      -49.644266    -45.926081   1.000000   1.000000
  172      -49.644214    -45.926050   1.000000   1.000000
  173      -49.644212    -45.926023   1.000000   1.000000
  174      -49.644172    -45.926002   1.000000   1.000000
  175      -49.644122    -45.925965   1.000000   1.000000
  176      -49.644115    -45.925915   1.000000   1.000000
  177      -49.644090    -45.925835   1.000000   1.000000
  178      -49.644075    -45.925759   1.000000   1.000000
  179      -49.644013    -45.925713   1.000000   1.000000
  180      -49.643990    -45.925707   1.000000   1.000000
  181      -49.643970    -45.925654   1.000000   1.000000
  182      -49.643897    -45.925610   1.000000   1.000000
  183      -49.643789    -45.925577   1.000000   1.000000
  184      -49.643726    -45.925549   1.000000   1.000000
  185      -49.643635    -45.925514   1.000000   1.000000
  186      -49.643561    -45.925478   1.000000   1.000000
  187      -49.643402    -45.925462   1.000000   1.000000
  188      -49.643362    -45.925377   1.000000   1.000000
  189      -49.643277    -45.925144   1.000000   1.000000
  190      -49.643253    -45.925057   1.000000   1.000000
  191      -49.642861    -45.924916   1.000000   1.000000
  192      -49.642768    -45.924812   1.000000   1.000000
  193      -39.643607    -39.642741   1.000000   1.000000
  194      -39.641048    -39.640130   1.000000   1.000000
  195      -39.638030    -39.637165   1.000000   1.000000
  196      -39.633550    -39.632677   1.000000   1.000000
  197      -39.633440    -39.632567   1.000000   1.000000
  198      -39.633434    -39.632561   1.000000   1.000000
  199      -39.633393    -39.632520   1.000000   1.000000
  200      -39.633355    -39.632483   1.000000   1.000000
  201      -39.633355    -39.632482   1.000000   1.000000
  202      -39.632495    -39.631626   1.000000   1.000000
  203      -39.629748    -39.628907   1.000000   1.000000
  204      -39.627955    -39.627118   1.000000   1.000000
  205      -39.627797    -39.626960   1.000000   1.000000
  206      -39.627763    -39.626925   1.000000   1.000000
  207      -39.627756    -39.626918   1.000000   1.000000
  208      -39.627692    -39.626853   1.000000   1.000000
  209      -39.627615    -39.626777   1.000000   1.000000
  210      -39.626321    -39.625484   1.000000   1.000000
  211      -39.620990    -39.620211   1.000000   1.000000
  212      -39.616501    -39.615726   1.000000   1.000000
  213      -39.616292    -39.615522   1.000000   1.000000
  214      -39.616106    -39.615329   1.000000   1.000000
  215      -39.615967    -39.615190   1.000000   1.000000
  216      -39.615813    -39.615037   1.000000   1.000000
  217      -39.615610    -39.614829   1.000000   1.000000
  218      -39.615598    -39.614818   1.000000   1.000000
  219      -39.615527    -39.614755   1.000000   1.000000
  220      -39.615359    -39.614587   1.000000   1.000000
  221      -39.615268    -39.614497   1.000000   1.000000
  222      -39.615225    -39.614457   1.000000   1.000000
  223      -39.615213    -39.614445   1.000000   1.000000
  224      -39.615163    -39.614395   1.000000   1.000000
  225      -39.615158    -39.614390   1.000000   1.000000
  226      -39.615145    -39.614378   1.000000   1.000000
  227      -39.614995    -39.614226   1.000000   1.000000
  228      -39.614993    -39.614223   1.000000   1.000000
  229      -39.614984    -39.614217   1.000000   1.000000
  230      -39.614865    -39.614098   1.000000   1.000000
  231      -39.614849    -39.614082   1.000000   1.000000
  232      -39.614827    -39.614056   1.000000   1.000000
  233      -39.614509    -39.613739   1.000000   1.000000
  234      -39.614373    -39.613610   1.000000   1.000000
  235      -39.614322    -39.613564   1.000000   1.000000
  236      -39.614220    -39.613461   1.000000   1.000000
  237      -39.613788    -39.613024   1.000000   1.000000
  238      -39.609813    -39.609047   1.000000   1.000000
  239      -39.605275    -39.604554   1.000000   1.000000
  240      -39.603915    -39.603196   1.000000   1.000000
  241      -39.603878    -39.603159   1.000000   1.000000
  242      -39.603803    -39.603084   1.000000   1.000000
  243      -39.603800    -39.603080   1.000000   1.000000
  244      -39.603772    -39.603052   1.000000   1.000000
  245      -39.603672    -39.602952   1.000000   1.000000
  246      -39.602219    -39.601500   1.000000   1.000000
  247      -39.600319    -39.599612   1.000000   1.000000
  248      -39.599593    -39.598887   1.000000   1.000000
  249      -39.599590    -39.598884   1.000000   1.000000
  250      -39.599565    -39.598859   1.000000   1.000000
  251      -39.599515    -39.598809   1.000000   1.000000
  252      -39.599506    -39.598800   1.000000   1.000000
  253      -39.599402    -39.598695   1.000000   1.000000
  254      -39.595202    -39.594497   1.000000   1.000000
  255      -39.593281    -39.592598   1.000000   1.000000
  256      -39.589455    -39.588716   1.000000   1.000000
  257      -12.747212    -12.467743   1.000000   1.000000
  258      -12.747194    -12.467724   1.000000   1.000000
  259      -12.719767    -12.440028   1.000000   1.000000
  260      -12.719401    -12.439641   1.000000   1.000000
  261      -12.719371    -12.439611   1.000000   1.000000
  262      -12.719330    -12.439579   1.000000   1.000000
  263      -12.719326    -12.439576   1.000000   1.000000
  264      -12.719271    -12.439527   1.000000   1.000000
  265      -12.719258    -12.439514   1.000000   1.000000
  266      -12.718930    -12.439169   1.000000   1.000000
  267      -12.697225    -12.417055   1.000000   1.000000
  268      -12.697161    -12.416989   1.000000   1.000000
  269      -12.694912    -12.415304   1.000000   1.000000
  270      -12.694761    -12.415153   1.000000   1.000000
  271      -12.694748    -12.415140   1.000000   1.000000
  272      -12.694668    -12.415059   1.000000   1.000000
  273      -12.692459    -12.413374   1.000000   1.000000
  274      -12.692341    -12.413291   1.000000   1.000000
  275      -12.691254    -12.411222   1.000000   1.000000
  276      -12.691253    -12.411220   1.000000   1.000000
  277      -12.691244    -12.411211   1.000000   1.000000
  278      -12.691057    -12.411065   1.000000   1.000000
  279      -12.672999    -12.392990   1.000000   1.000000
  280      -12.672674    -12.392660   1.000000   1.000000
  281      -12.672656    -12.392640   1.000000   1.000000
  282      -12.672360    -12.392348   1.000000   1.000000
  283      -12.667912    -12.389019   1.000000   1.000000
  284      -12.667604    -12.388715   1.000000   1.000000
  285      -12.667587    -12.388696   1.000000   1.000000
  286      -12.667264    -12.388366   1.000000   1.000000
  287      -12.654517    -12.374564   1.000000   1.000000
  288      -12.643743    -12.366018   1.000000   1.000000
  289       -7.800026     -7.599027   1.000000   1.000000
  290       -7.748234     -7.551513   1.000000   1.000000
  291       -7.505808     -7.319558   1.000000   1.000000
  292       -7.505407     -7.319153   1.000000   1.000000
  293       -7.505319     -7.319061   1.000000   1.000000
  294       -7.504932     -7.318661   1.000000   1.000000
  295       -7.501281     -7.309162   1.000000   1.000000
  296       -7.500998     -7.308857   1.000000   1.000000
  297       -7.500867     -7.308730   1.000000   1.000000
  298       -7.500569     -7.308416   1.000000   1.000000
  299       -7.315184     -7.117728   1.000000   1.000000
  300       -7.315130     -7.117679   1.000000   1.000000
  301       -7.296849     -7.093565   1.000000   1.000000
  302       -7.296821     -7.093539   1.000000   1.000000
  303       -7.296804     -7.093521   1.000000   1.000000
  304       -7.296768     -7.093486   1.000000   1.000000
  305       -7.269239     -7.061938   1.000000   1.000000
  306       -7.269224     -7.061928   1.000000   1.000000
  307       -7.088673     -6.893859   1.000000   1.000000
  308       -7.084672     -6.893845   1.000000   1.000000
  309       -7.084656     -6.893837   1.000000   1.000000
  310       -7.084628     -6.893829   1.000000   1.000000
  311       -7.084592     -6.796734   1.000000   1.000000
  312       -7.046571     -6.783806   1.000000   1.000000
  313       -7.000629     -6.767932   1.000000   1.000000
  314       -6.999850     -6.767919   1.000000   1.000000
  315       -6.999830     -6.767894   1.000000   1.000000
  316       -6.999805     -6.767891   1.000000   1.000000
  317       -6.999766     -6.766974   1.000000   1.000000
  318       -6.999700     -6.766151   1.000000   1.000000
  319       -6.999685     -6.766134   1.000000   1.000000
  320       -6.998963     -6.766093   1.000000   1.000000
  321       -6.994536     -6.766083   1.000000   1.000000
  322       -6.994203     -6.766007   1.000000   1.000000
  323       -6.994093     -6.766002   1.000000   1.000000
  324       -6.993747     -6.765213   1.000000   1.000000
  325       -6.955786     -6.745286   1.000000   1.000000
  326       -6.955766     -6.744925   1.000000   1.000000
  327       -6.955756     -6.744816   1.000000   1.000000
  328       -6.955736     -6.744434   1.000000   1.000000
  329       -6.948325     -6.697465   1.000000   1.000000
  330       -6.948302     -6.697432   1.000000   1.000000
  331       -6.928995     -6.689466   1.000000   1.000000
  332       -6.928665     -6.689124   1.000000   1.000000
  333       -6.928566     -6.689020   1.000000   1.000000
  334       -6.928211     -6.688660   1.000000   1.000000
  335       -6.911315     -6.640041   1.000000   1.000000
  336       -6.911294     -6.639313   1.000000   1.000000
  337       -6.885679     -6.639117   1.000000   1.000000
  338       -6.885666     -6.639102   1.000000   1.000000
  339       -6.885646     -6.639039   1.000000   1.000000
  340       -6.885622     -6.638980   1.000000   1.000000
  341       -6.877629     -6.638966   1.000000   1.000000
  342       -6.876879     -6.638622   1.000000   1.000000
  343       -6.876869     -6.638364   1.000000   1.000000
  344       -6.876809     -6.638317   1.000000   1.000000
  345       -6.876773     -6.638074   1.000000   1.000000
  346       -6.876742     -6.637745   1.000000   1.000000
  347       -6.876730     -6.628071   1.000000   1.000000
  348       -6.875951     -6.628051   1.000000   1.000000
  349       -6.832594     -6.586630   1.000000   1.000000
  350       -6.832585     -6.586624   1.000000   1.000000
  351       -6.794268     -6.499089   1.000000   1.000000
  352       -6.794247     -6.499070   1.000000   1.000000
  353       -1.525517     -0.414585   1.000000   1.000000
  354       -1.467843     -0.414568   1.000000   1.000000
  355       -1.467729     -0.414461   1.000000   1.000000
  356       -1.467615     -0.414442   1.000000   1.000000
  357       -1.467506      0.026126   1.000000   1.000000
  358       -1.460333      0.026286   1.000000   1.000000
  359       -1.460319      0.026450   1.000000   1.000000
  360       -1.460193      0.026599   1.000000   1.000000
  361       -1.460142      0.037404   1.000000   1.000000
  362       -1.421473      0.037895   1.000000   1.000000
  363       -1.421253      0.037969   1.000000   1.000000
  364       -1.382832      0.038025   1.000000   1.000000
  365       -1.382810      0.038061   1.000000   1.000000
  366       -1.382747      0.038123   1.000000   1.000000
  367       -1.382710      0.038232   1.000000   1.000000
  368       -1.332923      0.038717   1.000000   1.000000
  369       -1.332662      0.102800   1.000000   1.000000
  370       -1.332609      0.103005   1.000000   1.000000
  371       -1.332531      0.207420   1.000000   1.000000
  372       -1.332480      0.207497   1.000000   1.000000
  373       -1.332393      0.207596   1.000000   1.000000
  374       -1.332339      0.207676   1.000000   1.000000
  375       -1.332049      0.304164   1.000000   1.000000
  376       -1.292718      0.392310   1.000000   1.000000
  377       -1.292561      0.392511   1.000000   1.000000
  378       -1.292398      0.392687   1.000000   1.000000
  379       -1.292230      0.392873   1.000000   1.000000
  380       -1.256796      0.490895   1.000000   1.000000
  381       -1.256784      0.490897   1.000000   1.000000
  382       -1.232224      0.497565   1.000000   1.000000
  383       -1.232113      0.497647   1.000000   1.000000
  384       -1.220383      0.497749   1.000000   1.000000
  385       -0.822762      0.497825   1.000000   1.000000
  386       -0.822734      0.510663   1.000000   1.000000
  387       -0.822664      0.510697   1.000000   1.000000
  388       -0.822629      0.531188   1.000000   1.000000
  389       -0.722686      0.531210   1.000000   1.000000
  390       -0.722615      0.531294   1.000000   1.000000
  391       -0.699145      0.531304   1.000000   1.000000
  392       -0.699121      0.573799   1.000000   1.000000
  393       -0.698968      0.574240   1.000000   1.000000
  394       -0.698947      0.574329   1.000000   1.000000
  395       -0.688465      0.574378   1.000000   1.000000
  396       -0.688428      0.574394   1.000000   1.000000
  397       -0.688198      0.574419   1.000000   1.000000
  398       -0.688154      0.574519   1.000000   1.000000
  399       -0.666689      0.575004   1.000000   1.000000
  400       -0.666686      0.638614   1.000000   1.000000
  401       -0.666473      0.666238   1.000000   1.000000
  402       -0.666328      0.666399   1.000000   1.000000
  403       -0.651977      0.733084   1.000000   1.000000
  404       -0.651909      0.733104   1.000000   1.000000
  405       -0.651828      0.931376   1.000000   1.000000
  406       -0.651712      0.932548   1.000000   1.000000
  407       -0.589462      0.935562   1.000000   1.000000
  408       -0.589364      0.935685   1.000000   1.000000
  409       -0.576618      0.948917   1.000000   1.000000
  410       -0.576550      0.948949   1.000000   1.000000
  411       -0.576532      0.948963   1.000000   1.000000
  412       -0.576469      0.948984   1.000000   1.000000
  413       -0.553430      0.986106   1.000000   1.000000
  414       -0.553374      0.986134   1.000000   1.000000
  415       -0.553144      0.986279   1.000000   1.000000
  416       -0.552872      0.986313   1.000000   1.000000
  417       -0.497626      0.992779   1.000000   1.000000
  418       -0.496874      0.992976   1.000000   1.000000
  419       -0.472906      1.008926   1.000000   1.000000
  420       -0.472679      1.008937   1.000000   1.000000
  421       -0.461583      1.008953   1.000000   1.000000
  422       -0.461546      1.008965   1.000000   1.000000
  423       -0.461258      1.018469   1.000000   1.000000
  424       -0.461123      1.048960   1.000000   1.000000
  425       -0.459825      1.049242   1.000000   1.000000
  426       -0.459729      1.051630   1.000000   1.000000
  427       -0.459426      1.051695   1.000000   1.000000
  428       -0.459326      1.051787   1.000000   1.000000
  429       -0.410041      1.051863   1.000000   1.000000
  430       -0.409983      1.078667   1.000000   1.000000
  431       -0.407691      1.078772   1.000000   1.000000
  432       -0.407561      1.078825   1.000000   1.000000
  433       -0.407439      1.078906   1.000000   1.000000
  434       -0.407390      1.079775   1.000000   1.000000
  435       -0.407365      1.079840   1.000000   1.000000
  436       -0.407330      1.079897   1.000000   1.000000
  437       -0.383356      1.080101   1.000000   1.000000
  438       -0.383218      1.192861   1.000000   1.000000
  439       -0.378170      1.192869   1.000000   1.000000
  440       -0.368849      1.376458   1.000000   1.000000
  441       -0.368823      1.390350   1.000000   1.000000
  442       -0.368771      1.391143   1.000000   1.000000
  443       -0.368701      1.391216   1.000000   1.000000
  444       -0.368676      1.391330   1.000000   1.000000
  445       -0.368654      1.391385   1.000000   1.000000
  446       -0.368607      1.437313   1.000000   1.000000
  447       -0.368504      1.450205   1.000000   1.000000
  448       -0.353593      1.526139   1.000000   1.000000
  449       -0.353488      1.526385   1.000000   1.000000
  450       -0.349051      1.526462   1.000000   1.000000
  451       -0.341786      1.526584   1.000000   1.000000
  452       -0.335832      1.528744   1.000000   1.000000
  453       -0.335796      1.528891   1.000000   1.000000
  454       -0.335391      1.529021   1.000000   1.000000
  455       -0.335354      1.529214   1.000000   1.000000
  456       -0.334199      1.558299   1.000000   1.000000
  457       -0.334174      1.558325   1.000000   1.000000
  458       -0.334053      1.558336   1.000000   1.000000
  459       -0.334043      1.558385   1.000000   1.000000
  460       -0.324316      1.566408   1.000000   1.000000
  461       -0.324201      1.566833   1.000000   1.000000
  462       -0.323894      1.566915   1.000000   1.000000
  463       -0.323803      1.567054   1.000000   1.000000
  464       -0.321649      1.568003   1.000000   1.000000
  465       -0.321634      1.568383   1.000000   1.000000
  466       -0.321206      1.568433   1.000000   1.000000
  467       -0.321174      1.568674   1.000000   1.000000
  468       -0.303839      1.586596   1.000000   1.000000
  469       -0.295919      1.586661   1.000000   1.000000
  470       -0.288095      1.695595   1.000000   1.000000
  471       -0.287914      1.695844   1.000000   1.000000
  472       -0.287789      1.740897   1.000000   1.000000
  473       -0.287602      1.741034   1.000000   1.000000
  474       -0.280412      1.741228   1.000000   1.000000
  475       -0.280364      1.741346   1.000000   1.000000
  476       -0.275072      1.746859   1.000000   1.000000
  477       -0.275065      1.746860   1.000000   1.000000
  478       -0.274823      1.746897   1.000000   1.000000
  479       -0.274800      1.746898   1.000000   1.000000
  480       -0.241759      1.779043   1.000000   1.000000
  481       -0.241662      1.780548   1.000000   1.000000
  482       -0.241584      1.780708   1.000000   1.000000
  483       -0.241521      1.836892   1.000000   1.000000
  484       -0.241372      1.836921   1.000000   1.000000
  485       -0.241328      1.837077   1.000000   1.000000
  486       -0.241302      1.837454   1.000000   1.000000
  487       -0.241266      1.837734   1.000000   1.000000
  488       -0.207399      1.837792   1.000000   1.000000
  489       -0.207393      1.838442   1.000000   1.000000
  490       -0.199691      1.838674   1.000000   1.000000
  491       -0.199597      1.866207   1.000000   1.000000
  492       -0.199525      1.866410   1.000000   1.000000
  493       -0.199439      1.912912   1.000000   1.000000
  494       -0.194080      1.913301   1.000000   1.000000
  495       -0.193941      1.913534   1.000000   1.000000
  496       -0.163969      1.913576   1.000000   1.000000
  497       -0.163943      1.913615   1.000000   1.000000
  498       -0.163836      1.913633   1.000000   1.000000
  499       -0.163675      1.913828   1.000000   1.000000
  500       -0.156666      1.914248   1.000000   1.000000
  501       -0.156640      1.926929   1.000000   1.000000
  502       -0.156183      1.926983   1.000000   1.000000
  503       -0.156176      1.927044   1.000000   1.000000
  504       -0.139049      1.927156   1.000000   1.000000
  505       -0.139023      2.133130   1.000000   1.000000
  506       -0.138845      2.133373   1.000000   1.000000
  507       -0.138813      2.191259   1.000000   1.000000
  508       -0.091024      2.193190   1.000000   1.000000
  509       -0.090910      2.300586   1.000000   1.000000
  510       -0.082556      2.300731   1.000000   1.000000
  511       -0.082502      2.301068   1.000000   1.000000
  512       -0.082470      2.301310   1.000000   1.000000