    9    9    1    2
  0.1323389E+02  0.3782572E-09  0.5611659E-09  0.5611659E-09  0.5000000E-15
  1.000000000000000E-004
  CAR 
 unknown system                          
     72     28     52
 
  0.0000000E+00  0.0000000E+00  0.0000000E+00  0.1041667E-01
    1      -56.034385    -49.458103   1.000000   1.000000
    2      -56.032109    -49.454277   1.000000   1.000000
    3      -55.728036    -49.420886   1.000000   1.000000
    4      -54.758706    -49.382152   1.000000   1.000000
    5      -54.756380    -49.379222   1.000000   1.000000
    6      -54.442424    -49.375961   1.000000   1.000000
    7      -54.412673    -49.061783   1.000000   1.000000
    8      -54.303576    -49.030911   1.000000   1.000000
    9      -54.158447    -49.022094   1.000000   1.000000
   10      -43.494098    -43.500696   1.000000   1.000000
   11      -43.493045    -43.499557   1.000000   1.000000
   12      -16.168021    -15.665995   1.000000   1.000000
   13      -16.043802    -15.546110   1.000000   1.000000
   14       -9.238044     -8.879741   1.000000   1.000000
   15       -8.684602     -8.339412   1.000000   1.000000
   16       -2.783084     -1.660013   1.000000   1.000000
   17       -2.246144     -0.862059   1.000000   1.000000
   18       -2.076401     -0.471887   1.000000   1.000000
   19       -1.929163     -0.376330   1.000000   1.000000
   20       -1.650114     -0.315075   1.000000   1.000000
   21       -1.223349     -0.167885   1.000000   1.000000
   22       -0.707536      1.011297   1.000000   1.000000
   23       -0.626921      2.541140   1.000000   1.000000
   24       -0.580277      2.679273   1.000000   1.000000
   25       -0.269449      2.739241   1.000000   1.000000
   26       -0.203523      2.784041   1.000000   1.000000
   27        0.034289      3.141058   1.000000   1.000000
   28        0.104094      3.360680   1.000000   1.000000
   29        0.123626      3.835313   1.000000   1.000000
   30        0.293016      4.892871   1.000000   1.000000
   31        0.611623      7.269435   1.000000   0.000000
   32        0.724859      7.494400   1.000000   0.000000
   33        0.841216      7.557716   1.000000   0.000000
   34        1.254405      7.563337   1.000000   0.000000
   35        2.031329      8.355025   1.000000   0.000000
   36        2.110176      8.361049   1.000000   0.000000
   37        2.420680      8.692532   1.000000   0.000000
   38        3.403065      8.781297   1.000000   0.000000
   39        3.568499      9.210015   1.000000   0.000000
   40        3.579750      9.269460   1.000000   0.000000
   41        4.353529      9.372853   1.000000   0.000000
   42        4.409482      9.541767   1.000000   0.000000
   43        7.772485      9.904228   0.000000   0.000000
   44        8.239789     10.427205   0.000000   0.000000
   45        9.834200     10.498473   0.000000   0.000000
   46       10.268878     11.303537   0.000000   0.000000
   47       11.668579     12.427211   0.000000   0.000000
   48       12.604211     13.623587   0.000000   0.000000
   49       13.270262     14.518003   0.000000   0.000000
   50       15.199510     15.895059   0.000000   0.000000
   51       15.257576     15.996443   0.000000   0.000000
   52       16.726902     17.099676   0.000000   0.000000
 
  0.1666667E+00  0.0000000E+00  0.0000000E+00  0.2083333E-01
    1      -56.035011    -49.457891   1.000000   1.000000
    2      -56.032736    -49.454014   1.000000   1.000000
    3      -55.727926    -49.420997   1.000000   1.000000
    4      -54.758700    -49.382121   1.000000   1.000000
    5      -54.756372    -49.380259   1.000000   1.000000
    6      -54.442439    -49.377053   1.000000   1.000000
    7      -54.412682    -49.061708   1.000000   1.000000
    8      -54.303542    -49.031268   1.000000   1.000000
    9      -54.158755    -49.022024   1.000000   1.000000
   10      -43.493908    -43.500476   1.000000   1.000000
   11      -43.492829    -43.499364   1.000000   1.000000
   12      -16.107872    -15.605753   1.000000   1.000000
   13      -15.988878    -15.492275   1.000000   1.000000
   14       -9.179514     -8.827814   1.000000   1.000000
   15       -8.619325     -8.263626   1.000000   1.000000
   16       -2.907556     -1.495709   1.000000   1.000000
   17       -2.558053     -0.723315   1.000000   1.000000
   18       -1.957680     -0.684785   1.000000   1.000000
   19       -1.904012     -0.676578   1.000000   1.000000
   20       -1.325142     -0.159951   1.000000   1.000000
   21       -1.294594     -0.140846   1.000000   1.000000
   22       -1.082185      1.016568   1.000000   1.000000
   23       -0.534327      2.334368   1.000000   1.000000
   24       -0.493089      2.368055   1.000000   1.000000
   25       -0.084183      2.481289   1.000000   1.000000
   26       -0.065687      2.512088   1.000000   1.000000
   27        0.012733      2.649894   1.000000   1.000000
   28        0.098040      2.729649   1.000000   1.000000
   29        0.101195      4.132025   1.000000   1.000000
   30        0.235307      4.929052   1.000000   1.000000
   31        0.490614      7.285540   1.000000   0.000000
   32        0.753159      7.471420   1.000000   0.000000
   33        0.886338      7.570986   1.000000   0.000000
   34        1.321288      7.792394   1.000000   0.000000
   35        1.332908      7.801363   1.000000   0.000000
   36        2.293052      8.454132   1.000000   0.000000
   37        2.344403      8.698924   1.000000   0.000000
   38        2.720397      8.870505   1.000000   0.000000
   39        3.237427      9.011174   1.000000   0.000000
   40        3.590350      9.209877   1.000000   0.000000
   41        3.719157      9.565529   1.000000   0.000000
   42        4.227778      9.646343   1.000000   0.000000
   43        8.486634     10.206942   0.000000   0.000000
   44        8.999731     11.190264   0.000000   0.000000
   45       10.222361     11.471399   0.000000   0.000000
   46       11.651762     12.041178   0.000000   0.000000
   47       12.313298     13.112710   0.000000   0.000000
   48       12.576367     13.588023   0.000000   0.000000
   49       12.701925     14.016354   0.000000   0.000000
   50       14.560172     14.928796   0.000000   0.000000
   51       15.219143     15.706541   0.000000   0.000000
   52       15.404260     16.035705   0.000000   0.000000
 
  0.3333333E+00  0.0000000E+00  0.0000000E+00  0.2083333E-01
    1      -56.036247    -49.457446   1.000000   1.000000
    2      -56.034021    -49.453480   1.000000   1.000000
    3      -55.727731    -49.421217   1.000000   1.000000
    4      -54.758684    -49.382319   1.000000   1.000000
    5      -54.756344    -49.382036   1.000000   1.000000
    6      -54.442484    -49.379253   1.000000   1.000000
    7      -54.412707    -49.061520   1.000000   1.000000
    8      -54.303463    -49.032015   1.000000   1.000000
    9      -54.159358    -49.021902   1.000000   1.000000
   10      -43.493532    -43.500044   1.000000   1.000000
   11      -43.492390    -43.498973   1.000000   1.000000
   12      -15.984023    -15.481881   1.000000   1.000000
   13      -15.876221    -15.382122   1.000000   1.000000
   14       -9.061476     -8.724647   1.000000   1.000000
   15       -8.482339     -8.102665   1.000000   1.000000
   16       -2.953000     -1.212148   1.000000   1.000000
   17       -2.905082     -1.199530   1.000000   1.000000
   18       -2.022787     -0.823331   1.000000   1.000000
   19       -2.001039     -0.334086   1.000000   1.000000
   20       -1.755616     -0.081235   1.000000   1.000000
   21       -0.933875      0.219291   1.000000   1.000000
   22       -0.751881      0.784618   1.000000   1.000000
   23       -0.643037      1.137094   1.000000   1.000000
   24       -0.390028      1.495516   1.000000   1.000000
   25       -0.369211      1.508068   1.000000   1.000000
   26       -0.311622      2.273422   1.000000   1.000000
   27        0.074405      2.300947   1.000000   1.000000
   28        0.224524      2.799479   1.000000   1.000000
   29        0.461722      4.260921   1.000000   1.000000
   30        0.501311      5.004621   1.000000   1.000000
   31        0.614904      6.843172   1.000000   0.000000
   32        0.633627      7.144086   1.000000   0.000000
   33        0.745600      7.336407   1.000000   0.000000
   34        0.764396      8.013333   1.000000   0.000000
   35        1.215950      8.311348   1.000000   0.000000
   36        2.000885      8.520485   1.000000   0.000000
   37        2.067034      8.747969   1.000000   0.000000
   38        2.209861      8.754741   1.000000   0.000000
   39        2.210423      9.073995   1.000000   0.000000
   40        3.460521      9.383152   1.000000   0.000000
   41        3.609764      9.594895   1.000000   0.000000
   42        3.680521      9.905154   1.000000   0.000000
   43        9.757641     11.283171   0.000000   0.000000
   44       10.563024     11.623826   0.000000   0.000000
   45       10.605525     12.495346   0.000000   0.000000
   46       11.901089     13.353149   0.000000   0.000000
   47       12.687760     13.504011   0.000000   0.000000
   48       13.053662     13.604494   0.000000   0.000000
   49       13.709361     14.515129   0.000000   0.000000
   50       14.039374     14.525830   0.000000   0.000000
   51       14.710385     15.193325   0.000000   0.000000
   52       14.713030     15.405454   0.000000   0.000000
 
  0.5000000E+00  0.0000000E+00  0.0000000E+00  0.1041667E-01
    1      -56.036816    -49.457207   1.000000   1.000000
    2      -56.034651    -49.453220   1.000000   1.000000
    3      -55.727616    -49.421320   1.000000   1.000000
    4      -54.758657    -49.383327   1.000000   1.000000
    5      -54.756336    -49.381960   1.000000   1.000000
    6      -54.442501    -49.380358   1.000000   1.000000
    7      -54.412699    -49.061418   1.000000   1.000000
    8      -54.303415    -49.032388   1.000000   1.000000
    9      -54.159653    -49.021833   1.000000   1.000000
   10      -43.493304    -43.499789   1.000000   1.000000
   11      -43.492171    -43.498779   1.000000   1.000000
   12      -15.920104    -15.418046   1.000000   1.000000
   13      -15.818408    -15.325752   1.000000   1.000000
   14       -9.002237     -8.673776   1.000000   1.000000
   15       -8.410231     -8.016773   1.000000   1.000000
   16       -3.039748     -1.438264   1.000000   1.000000
   17       -2.855558     -1.203935   1.000000   1.000000
   18       -2.286716     -0.567801   1.000000   1.000000
   19       -2.058048     -0.049179   1.000000   1.000000
   20       -1.904720      0.033369   1.000000   1.000000
   21       -0.805460      0.422214   1.000000   1.000000
   22       -0.671020      0.492355   1.000000   1.000000
   23       -0.563819      0.680538   1.000000   1.000000
   24       -0.523292      0.953700   1.000000   1.000000
   25       -0.372769      1.062528   1.000000   1.000000
   26       -0.210629      2.028691   1.000000   1.000000
   27        0.015507      2.144894   1.000000   1.000000
   28        0.187697      2.824711   1.000000   1.000000
   29        0.454152      4.294346   1.000000   1.000000
   30        0.485627      5.041726   1.000000   1.000000
   31        0.515527      6.688333   1.000000   0.000000
   32        0.651506      7.059389   1.000000   0.000000
   33        0.699921      7.104706   1.000000   0.000000
   34        0.818157      8.189253   1.000000   0.000000
   35        1.494331      8.408765   1.000000   0.000000
   36        1.687678      8.738420   1.000000   0.000000
   37        1.784355      8.775885   1.000000   0.000000
   38        1.927529      8.803094   1.000000   0.000000
   39        2.155803      8.953766   1.000000   0.000000
   40        2.966982      9.545786   1.000000   0.000000
   41        3.627821      9.574891   1.000000   0.000000
   42        3.702656     10.113996   1.000000   0.000000
   43       10.422729     11.356021   0.000000   0.000000
   44       10.728885     12.276009   0.000000   0.000000
   45       11.661361     12.731451   0.000000   0.000000
   46       11.690032     13.352052   0.000000   0.000000
   47       12.506652     13.575059   0.000000   0.000000
   48       12.870541     13.683740   0.000000   0.000000
   49       13.464135     14.291771   0.000000   0.000000
   50       13.828541     14.583365   0.000000   0.000000
   51       14.319150     14.849911   0.000000   0.000000
   52       15.377923     15.864996   0.000000   0.000000
 
  0.0000000E+00  0.2500000E+00  0.3401495E-14  0.4166667E-01
    1      -56.034374    -49.458139   1.000000   1.000000
    2      -56.032090    -49.454117   1.000000   1.000000
    3      -55.728010    -49.421044   1.000000   1.000000
    4      -54.758798    -49.381792   1.000000   1.000000
    5      -54.756313    -49.379145   1.000000   1.000000
    6      -54.442420    -49.376021   1.000000   1.000000
    7      -54.412688    -49.061803   1.000000   1.000000
    8      -54.303581    -49.030920   1.000000   1.000000
    9      -54.158441    -49.022117   1.000000   1.000000
   10      -43.493892    -43.500461   1.000000   1.000000
   11      -43.493125    -43.499633   1.000000   1.000000
   12      -16.165861    -15.662826   1.000000   1.000000
   13      -16.042228    -15.544928   1.000000   1.000000
   14       -9.170829     -8.822117   1.000000   1.000000
   15       -8.768302     -8.433737   1.000000   1.000000
   16       -2.705971     -1.421167   1.000000   1.000000
   17       -2.288471     -0.644271   1.000000   1.000000
   18       -2.030128     -0.443232   1.000000   1.000000
   19       -1.892847     -0.440021   1.000000   1.000000
   20       -1.732202     -0.321055   1.000000   1.000000
   21       -1.289025     -0.064798   1.000000   1.000000
   22       -0.841954      0.897576   1.000000   1.000000
   23       -0.668777      1.866453   1.000000   1.000000
   24       -0.569668      2.157533   1.000000   1.000000
   25       -0.238446      2.539256   1.000000   1.000000
   26       -0.223376      3.016422   1.000000   1.000000
   27       -0.060748      3.144494   1.000000   1.000000
   28        0.062218      3.346796   1.000000   1.000000
   29        0.126261      3.820737   1.000000   1.000000
   30        0.424101      4.793987   1.000000   1.000000
   31        0.656948      7.427816   1.000000   0.000000
   32        0.917577      7.662516   1.000000   0.000000
   33        1.122544      7.948161   1.000000   0.000000
   34        1.222857      8.100258   1.000000   0.000000
   35        1.930692      8.295477   1.000000   0.000000
   36        2.161929      8.590538   1.000000   0.000000
   37        2.278442      8.710879   1.000000   0.000000
   38        3.168726      8.822431   1.000000   0.000000
   39        3.353270      8.951427   1.000000   0.000000
   40        3.470658      9.262186   1.000000   0.000000
   41        4.242016      9.662697   1.000000   0.000000
   42        4.326303      9.904007   1.000000   0.000000
   43        8.700906      9.947101   0.000000   0.000000
   44        8.902985     10.480145   0.000000   0.000000
   45       10.369529     11.002208   0.000000   0.000000
   46       10.584168     11.689916   0.000000   0.000000
   47       11.787250     12.504106   0.000000   0.000000
   48       12.913629     13.753627   0.000000   0.000000
   49       13.629875     14.712781   0.000000   0.000000
   50       14.010534     14.723482   0.000000   0.000000
   51       14.454867     15.147540   0.000000   0.000000
   52       15.116463     15.708516   0.000000   0.000000
 
  0.1666667E+00  0.2500000E+00  0.3401495E-14  0.8333333E-01
    1      -56.035031    -49.457907   1.000000   1.000000
    2      -56.032735    -49.453854   1.000000   1.000000
    3      -55.727922    -49.421086   1.000000   1.000000
    4      -54.758786    -49.381875   1.000000   1.000000
    5      -54.756303    -49.380229   1.000000   1.000000
    6      -54.442437    -49.377059   1.000000   1.000000
    7      -54.412709    -49.061712   1.000000   1.000000
    8      -54.303542    -49.031277   1.000000   1.000000
    9      -54.158749    -49.022052   1.000000   1.000000
   10      -43.493715    -43.500263   1.000000   1.000000
   11      -43.492958    -43.499482   1.000000   1.000000
   12      -16.108004    -15.605027   1.000000   1.000000
   13      -15.985787    -15.489526   1.000000   1.000000
   14       -9.102961     -8.758819   1.000000   1.000000
   15       -8.699174     -8.355359   1.000000   1.000000
   16       -2.853326     -1.311800   1.000000   1.000000
   17       -2.596323     -0.800201   1.000000   1.000000
   18       -1.937816     -0.721407   1.000000   1.000000
   19       -1.879633     -0.482953   1.000000   1.000000
   20       -1.441954     -0.254521   1.000000   1.000000
   21       -1.316614      0.004223   1.000000   1.000000
   22       -1.146275      0.987006   1.000000   1.000000
   23       -0.754803      1.771210   1.000000   1.000000
   24       -0.533526      1.926995   1.000000   1.000000
   25       -0.211610      2.311164   1.000000   1.000000
   26       -0.069665      2.517788   1.000000   1.000000
   27       -0.021463      2.664651   1.000000   1.000000
   28        0.168734      3.107841   1.000000   1.000000
   29        0.229467      4.152962   1.000000   1.000000
   30        0.384158      4.790523   1.000000   1.000000
   31        0.585654      7.576312   1.000000   0.000000
   32        0.798505      7.626794   1.000000   0.000000
   33        1.031090      7.861407   1.000000   0.000000
   34        1.225141      7.884034   1.000000   0.000000
   35        1.350026      8.050848   1.000000   0.000000
   36        2.079652      8.559954   1.000000   0.000000
   37        2.464733      8.743734   1.000000   0.000000
   38        2.760608      8.930054   1.000000   0.000000
   39        3.265651      8.985507   1.000000   0.000000
   40        3.510942      9.164676   1.000000   0.000000
   41        3.631581      9.510892   1.000000   0.000000
   42        4.273293      9.834021   1.000000   0.000000
   43        9.210014     10.669293   0.000000   0.000000
   44        9.461203     11.178466   0.000000   0.000000
   45       10.819937     11.917838   0.000000   0.000000
   46       11.703616     12.179110   0.000000   0.000000
   47       12.361334     13.145641   0.000000   0.000000
   48       12.802857     13.646033   0.000000   0.000000
   49       12.897620     14.096640   0.000000   0.000000
   50       13.843498     14.306199   0.000000   0.000000
   51       14.071165     14.692715   0.000000   0.000000
   52       14.497873     15.165619   0.000000   0.000000
 
  0.3333333E+00  0.2500000E+00  0.3401495E-14  0.8333333E-01
    1      -56.036301    -49.457446   1.000000   1.000000
    2      -56.033969    -49.453323   1.000000   1.000000
    3      -55.727733    -49.421145   1.000000   1.000000
    4      -54.758761    -49.382446   1.000000   1.000000
    5      -54.756275    -49.381927   1.000000   1.000000
    6      -54.442462    -49.379125   1.000000   1.000000
    7      -54.412751    -49.061516   1.000000   1.000000
    8      -54.303459    -49.032006   1.000000   1.000000
    9      -54.159347    -49.021918   1.000000   1.000000
   10      -43.493319    -43.499827   1.000000   1.000000
   11      -43.492542    -43.499097   1.000000   1.000000
   12      -15.989127    -15.486507   1.000000   1.000000
   13      -15.869567    -15.375686   1.000000   1.000000
   14       -8.965495     -8.630865   1.000000   1.000000
   15       -8.550899     -8.187005   1.000000   1.000000
   16       -2.980348     -1.379373   1.000000   1.000000
   17       -2.899248     -1.278960   1.000000   1.000000
   18       -2.082180     -0.751739   1.000000   1.000000
   19       -1.940485     -0.302371   1.000000   1.000000
   20       -1.730545     -0.146555   1.000000   1.000000
   21       -1.209869      0.035635   1.000000   1.000000
   22       -0.962644      0.992193   1.000000   1.000000
   23       -0.936162      1.212812   1.000000   1.000000
   24       -0.567060      1.332203   1.000000   1.000000
   25       -0.251593      1.789962   1.000000   1.000000
   26       -0.224773      2.042298   1.000000   1.000000
   27        0.023263      2.210976   1.000000   1.000000
   28        0.201526      3.034962   1.000000   1.000000
   29        0.391872      4.278405   1.000000   1.000000
   30        0.460881      4.787634   1.000000   1.000000
   31        0.532226      7.188653   1.000000   0.000000
   32        0.639613      7.417911   1.000000   0.000000
   33        0.841452      7.764152   1.000000   0.000000
   34        1.085738      8.027324   1.000000   0.000000
   35        1.495686      8.306637   1.000000   0.000000
   36        1.852382      8.537205   1.000000   0.000000
   37        2.169262      8.694555   1.000000   0.000000
   38        2.319945      8.821888   1.000000   0.000000
   39        2.735782      8.963222   1.000000   0.000000
   40        3.369998      9.433016   1.000000   0.000000
   41        3.489136      9.669124   1.000000   0.000000
   42        4.070453      9.758100   1.000000   0.000000
   43       10.114345     11.592064   0.000000   0.000000
   44       10.553817     11.989310   0.000000   0.000000
   45       11.138722     12.104721   0.000000   0.000000
   46       11.908201     12.973604   0.000000   0.000000
   47       12.416507     13.450869   0.000000   0.000000
   48       12.504543     13.520294   0.000000   0.000000
   49       13.096008     14.047488   0.000000   0.000000
   50       13.616138     14.272308   0.000000   0.000000
   51       14.188967     14.891983   0.000000   0.000000
   52       14.628710     15.353812   0.000000   0.000000
 
  0.5000000E+00  0.2500000E+00  0.3401495E-14  0.4166667E-01
    1      -56.036917    -49.457213   1.000000   1.000000
    2      -56.034584    -49.453062   1.000000   1.000000
    3      -55.727644    -49.421174   1.000000   1.000000
    4      -54.758746    -49.383494   1.000000   1.000000
    5      -54.756263    -49.381951   1.000000   1.000000
    6      -54.442480    -49.380206   1.000000   1.000000
    7      -54.412776    -49.061414   1.000000   1.000000
    8      -54.303417    -49.032379   1.000000   1.000000
    9      -54.159647    -49.021858   1.000000   1.000000
   10      -43.493093    -43.499580   1.000000   1.000000
   11      -43.492328    -43.498901   1.000000   1.000000
   12      -15.928039    -15.425740   1.000000   1.000000
   13      -15.809750    -15.317210   1.000000   1.000000
   14       -8.896107     -8.566375   1.000000   1.000000
   15       -8.471129     -8.096258   1.000000   1.000000
   16       -3.084829     -1.605430   1.000000   1.000000
   17       -2.853447     -1.350757   1.000000   1.000000
   18       -2.192449     -0.690536   1.000000   1.000000
   19       -2.177357     -0.359271   1.000000   1.000000
   20       -1.883057     -0.117732   1.000000   1.000000
   21       -1.218000      0.198962   1.000000   1.000000
   22       -0.963791      0.842230   1.000000   1.000000
   23       -0.905584      1.052071   1.000000   1.000000
   24       -0.622398      1.153885   1.000000   1.000000
   25       -0.254383      1.551805   1.000000   1.000000
   26       -0.208213      1.783964   1.000000   1.000000
   27       -0.014492      2.009532   1.000000   1.000000
   28       -0.003502      3.005848   1.000000   1.000000
   29        0.201747      4.297483   1.000000   1.000000
   30        0.569247      4.789174   1.000000   1.000000
   31        0.646715      7.042811   1.000000   0.000000
   32        0.826382      7.310185   1.000000   0.000000
   33        0.974550      7.683800   1.000000   0.000000
   34        1.160774      8.049815   1.000000   0.000000
   35        1.479483      8.597058   1.000000   0.000000
   36        1.690718      8.630745   1.000000   0.000000
   37        1.955348      8.682931   1.000000   0.000000
   38        2.135486      8.686758   1.000000   0.000000
   39        2.657485      8.968449   1.000000   0.000000
   40        3.282030      9.541596   1.000000   0.000000
   41        3.294161      9.644160   1.000000   0.000000
   42        4.071449      9.865411   1.000000   0.000000
   43       10.658665     12.077679   0.000000   0.000000
   44       11.114856     12.159087   0.000000   0.000000
   45       11.310916     12.294542   0.000000   0.000000
   46       11.601080     12.564592   0.000000   0.000000
   47       11.769145     13.335291   0.000000   0.000000
   48       12.462756     13.372757   0.000000   0.000000
   49       12.657995     13.503127   0.000000   0.000000
   50       13.425221     14.195379   0.000000   0.000000
   51       14.249478     15.041867   0.000000   0.000000
   52       14.993246     15.956153   0.000000   0.000000
 
  0.0000000E+00  0.5000000E+00 -0.3045030E-15  0.2083333E-01
    1      -56.034371    -49.458161   1.000000   1.000000
    2      -56.032110    -49.453952   1.000000   1.000000
    3      -55.728018    -49.421212   1.000000   1.000000
    4      -54.758880    -49.381436   1.000000   1.000000
    5      -54.756247    -49.379064   1.000000   1.000000
    6      -54.442426    -49.376106   1.000000   1.000000
    7      -54.412710    -49.061813   1.000000   1.000000
    8      -54.303576    -49.030933   1.000000   1.000000
    9      -54.158442    -49.022159   1.000000   1.000000
   10      -43.493489    -43.500041   1.000000   1.000000
   11      -43.493438    -43.499931   1.000000   1.000000
   12      -16.163736    -15.659665   1.000000   1.000000
   13      -16.040686    -15.543785   1.000000   1.000000
   14       -9.047930     -8.707306   1.000000   1.000000
   15       -8.907499     -8.584419   1.000000   1.000000
   16       -2.624493     -1.142855   1.000000   1.000000
   17       -2.318949     -0.602900   1.000000   1.000000
   18       -1.996032     -0.395350   1.000000   1.000000
   19       -1.831594     -0.339825   1.000000   1.000000
   20       -1.830904     -0.200863   1.000000   1.000000
   21       -1.365423      0.241411   1.000000   1.000000
   22       -0.944411      0.654000   1.000000   1.000000
   23       -0.685063      0.957097   1.000000   1.000000
   24       -0.594563      1.833455   1.000000   1.000000
   25       -0.251683      2.414545   1.000000   1.000000
   26       -0.241234      2.913798   1.000000   1.000000
   27        0.025920      3.315133   1.000000   1.000000
   28        0.079145      3.344456   1.000000   1.000000
   29        0.132054      3.795099   1.000000   1.000000
   30        0.333717      4.754564   1.000000   1.000000
   31        0.686270      7.597669   1.000000   0.000000
   32        1.157570      7.816149   1.000000   0.000000
   33        1.202454      8.092771   1.000000   0.000000
   34        1.542022      8.158323   1.000000   0.000000
   35        1.669150      8.320296   1.000000   0.000000
   36        2.107999      8.574106   1.000000   0.000000
   37        2.165464      8.731108   1.000000   0.000000
   38        3.075923      9.157315   1.000000   0.000000
   39        3.160250      9.255659   1.000000   0.000000
   40        3.354941      9.276660   1.000000   0.000000
   41        4.062466      9.611506   1.000000   0.000000
   42        4.309624      9.910470   1.000000   0.000000
   43        9.676975     10.475888   0.000000   0.000000
   44       10.019549     11.156986   0.000000   0.000000
   45       11.001150     11.722942   0.000000   0.000000
   46       11.255955     12.380079   0.000000   0.000000
   47       11.801959     12.406198   0.000000   0.000000
   48       12.758264     13.454723   0.000000   0.000000
   49       13.120785     14.037787   0.000000   0.000000
   50       13.424107     14.108296   0.000000   0.000000
   51       13.501262     14.348830   0.000000   0.000000
   52       14.031762     14.702821   0.000000   0.000000
 
  0.1666667E+00  0.5000000E+00 -0.3045030E-15  0.4166667E-01
    1      -56.035038    -49.457924   1.000000   1.000000
    2      -56.032732    -49.453696   1.000000   1.000000
    3      -55.727940    -49.421176   1.000000   1.000000
    4      -54.758869    -49.381621   1.000000   1.000000
    5      -54.756241    -49.380217   1.000000   1.000000
    6      -54.442436    -49.377056   1.000000   1.000000
    7      -54.412746    -49.061720   1.000000   1.000000
    8      -54.303544    -49.031284   1.000000   1.000000
    9      -54.158744    -49.022094   1.000000   1.000000
   10      -43.493323    -43.499874   1.000000   1.000000
   11      -43.493272    -43.499761   1.000000   1.000000
   12      -16.108097    -15.604286   1.000000   1.000000
   13      -15.982684    -15.486740   1.000000   1.000000
   14       -8.957038     -8.619403   1.000000   1.000000
   15       -8.848488     -8.517139   1.000000   1.000000
   16       -2.776480     -1.085613   1.000000   1.000000
   17       -2.656478     -0.860690   1.000000   1.000000
   18       -1.909345     -0.694042   1.000000   1.000000
   19       -1.851130     -0.422643   1.000000   1.000000
   20       -1.536488     -0.206925   1.000000   1.000000
   21       -1.302795      0.113666   1.000000   1.000000
   22       -1.287237      0.996098   1.000000   1.000000
   23       -0.800869      1.136962   1.000000   1.000000
   24       -0.723956      1.649943   1.000000   1.000000
   25       -0.237958      2.283336   1.000000   1.000000
   26       -0.142312      2.446906   1.000000   1.000000
   27        0.008238      2.634085   1.000000   1.000000
   28        0.246069      3.290305   1.000000   1.000000
   29        0.336860      4.155104   1.000000   1.000000
   30        0.558276      4.734782   1.000000   1.000000
   31        0.653835      7.633029   1.000000   0.000000
   32        0.871076      7.765545   1.000000   0.000000
   33        0.918438      7.905992   1.000000   0.000000
   34        1.143625      8.177754   1.000000   0.000000
   35        1.443001      8.252221   1.000000   0.000000