 vasp.5.4.4.18Apr17-6-g9f103f2a35 (build Oct 25 2017 14:42:18) complex          
  
 executed on             LinuxIFC date 2021.06.02  17:51:19
 running on   24 total cores
 distrk:  each k-point on   12 cores,    2 groups
 distr:  one band on NCORES_PER_BAND=   6 cores,    2 groups


--------------------------------------------------------------------------------------------------------


 INCAR:
 POTCAR:    PAW_PBE Li_sv 10Sep2004               
 POTCAR:    PAW_PBE O 08Apr2002                   
 POTCAR:    PAW_PBE S 06Sep2000                   
 POTCAR:    PAW_PBE Fe_pv 02Aug2007               

 ----------------------------------------------------------------------------- 
|                                                                             |
|           W    W    AA    RRRRR   N    N  II  N    N   GGGG   !!!           |
|           W    W   A  A   R    R  NN   N  II  NN   N  G    G  !!!           |
|           W    W  A    A  R    R  N N  N  II  N N  N  G       !!!           |
|           W WW W  AAAAAA  RRRRR   N  N N  II  N  N N  G  GGG   !            |
|           WW  WW  A    A  R   R   N   NN  II  N   NN  G    G                |
|           W    W  A    A  R    R  N    N  II  N    N   GGGG   !!!           |
|                                                                             |
|      You have enabled k-point parallelism (KPAR>1).                         |
|      This developmental code was originally  written by Paul Kent at ORNL,  |
|      and carefully double checked in Vienna.                                |
|      GW as well as linear response parallelism added by Martijn Marsman     |
|      and Georg Kresse.                                                      |
|      Carefully verify results versus KPAR=1.                                |
|      Report problems to Paul Kent and Vienna.                               |
|                                                                             |
 ----------------------------------------------------------------------------- 

 POTCAR:    PAW_PBE Li_sv 10Sep2004               
  local pseudopotential read in
  atomic valenz-charges read in
  non local Contribution for L=           0  read in
    real space projection operators read in
  non local Contribution for L=           0  read in
    real space projection operators read in
  non local Contribution for L=           1  read in
    real space projection operators read in
    PAW grid and wavefunctions read in
 
   number of l-projection  operators is LMAX  =           3
   number of lm-projection operators is LMMAX =           5
 
 POTCAR:    PAW_PBE O 08Apr2002                   
  local pseudopotential read in
  partial core-charges read in
  partial kinetic energy density read in
  kinetic energy density of atom read in
  atomic valenz-charges read in
  non local Contribution for L=           0  read in
    real space projection operators read in
  non local Contribution for L=           0  read in
    real space projection operators read in
  non local Contribution for L=           1  read in
    real space projection operators read in
  non local Contribution for L=           1  read in
    real space projection operators read in
    PAW grid and wavefunctions read in
 
   number of l-projection  operators is LMAX  =           4
   number of lm-projection operators is LMMAX =           8
 
 POTCAR:    PAW_PBE S 06Sep2000                   
  local pseudopotential read in
  partial core-charges read in
  partial kinetic energy density read in
  atomic valenz-charges read in
  non local Contribution for L=           0  read in
    real space projection operators read in
  non local Contribution for L=           0  read in
    real space projection operators read in
  non local Contribution for L=           1  read in
    real space projection operators read in
  non local Contribution for L=           1  read in
    real space projection operators read in
    PAW grid and wavefunctions read in
 
   number of l-projection  operators is LMAX  =           4
   number of lm-projection operators is LMMAX =           8
 
 POTCAR:    PAW_PBE Fe_pv 02Aug2007               
  local pseudopotential read in
  partial core-charges read in
  partial kinetic energy density read in
  atomic valenz-charges read in
  non local Contribution for L=           1  read in
    real space projection operators read in
  non local Contribution for L=           1  read in
    real space projection operators read in
  non local Contribution for L=           2  read in
    real space projection operators read in
  non local Contribution for L=           2  read in
    real space projection operators read in
  non local Contribution for L=           0  read in
    real space projection operators read in
  non local Contribution for L=           0  read in
    real space projection operators read in
    PAW grid and wavefunctions read in
 
   number of l-projection  operators is LMAX  =           6
   number of lm-projection operators is LMMAX =          18
 

 ----------------------------------------------------------------------------- 
|                                                                             |
|  ADVICE TO THIS USER RUNNING 'VASP/VAMP'   (HEAR YOUR MASTER'S VOICE ...):  |
|                                                                             |
|      You have a (more or less) 'large supercell' and for larger cells       |
|      it might be more efficient to use real space projection opertators     |
|      So try LREAL= Auto  in the INCAR   file.                               |
|      Mind:          For very  accurate calculation you might also keep the  |
|      reciprocal projection scheme          (i.e. LREAL=.FALSE.)             |
|                                                                             |
 ----------------------------------------------------------------------------- 

  PAW_PBE Li_sv 10Sep2004               :
 energy of atom  1       EATOM= -202.7858
 kinetic energy error for atom=    0.0072 (will be added to EATOM!!)
  PAW_PBE O 08Apr2002                   :
 energy of atom  2       EATOM= -432.3788
 kinetic energy error for atom=    0.0129 (will be added to EATOM!!)
  PAW_PBE S 06Sep2000                   :
 energy of atom  3       EATOM= -276.8230
 kinetic energy error for atom=    0.0008 (will be added to EATOM!!)
  PAW_PBE Fe_pv 02Aug2007               :
 energy of atom  4       EATOM=-2457.4239
 kinetic energy error for atom=    0.0041 (will be added to EATOM!!)
 
 
 POSCAR: # Compound: Li16O16S24Fe32. Old comment:
  positions in direct lattice
  No initial velocities read in
 exchange correlation table for  LEXCH =        8
   RHO(1)=    0.500       N(1)  =     2000
   RHO(2)=  100.500       N(2)  =     4000
 


--------------------------------------------------------------------------------------------------------


 ion  position               nearest neighbor table
   1  0.289  0.469  0.156-  27 2.00  29 2.00  49 2.53  55 2.53
   2  0.789  0.469  0.156-  28 2.00  30 2.00  56 2.53  50 2.53
   3  0.289  0.969  0.156-  25 2.00  31 2.00  53 2.53  51 2.53
   4  0.789  0.969  0.156-  26 2.00  32 2.00  54 2.53  52 2.53
   5  0.046  0.219  0.186-  30 1.98  25 1.98
   6  0.546  0.219  0.186-  29 1.98  26 1.98
   7  0.046  0.719  0.186-  32 1.98  27 1.98
   8  0.546  0.719  0.186-  31 1.98  28 1.98
   9  0.454  0.469  0.814-  20 1.98  21 1.98
  10  0.954  0.469  0.814-  19 1.98  22 1.98
  11  0.454  0.969  0.814-  18 1.98  23 1.98
  12  0.954  0.969  0.814-  17 1.98  24 1.98
  13  0.211  0.219  0.844-  21 2.00  17 2.00  53 2.53  49 2.54
  14  0.711  0.219  0.844-  22 2.00  18 2.00  50 2.53  54 2.53
  15  0.211  0.719  0.844-  23 2.00  19 2.00  51 2.53  55 2.53
  16  0.711  0.719  0.844-  24 2.00  20 2.00  52 2.53  56 2.53
  17  0.077  0.095  0.803-  12 1.98  13 2.00  57 2.01  83 2.01  86 2.01
  18  0.577  0.095  0.803-  11 1.98  14 2.00  58 2.01  84 2.01  85 2.01
  19  0.077  0.595  0.803-  10 1.98  15 2.00  59 2.01  81 2.01  88 2.01
  20  0.577  0.595  0.803-   9 1.98  16 2.00  60 2.01  82 2.01  87 2.01
  21  0.325  0.343  0.803-   9 1.98  13 2.00  61 2.01  81 2.01  85 2.01
  22  0.825  0.343  0.803-  10 1.98  14 2.00  62 2.01  82 2.01  86 2.01
  23  0.325  0.843  0.803-  11 1.98  15 2.00  63 2.01  83 2.01  87 2.01
  24  0.825  0.843  0.803-  12 1.98  16 2.00  64 2.01  84 2.01  88 2.01
  25  0.175  0.093  0.197-   5 1.98   3 2.00  65 2.01  77 2.01  75 2.01
  26  0.675  0.093  0.197-   6 1.98   4 2.00  66 2.01  78 2.01  76 2.01
  27  0.175  0.593  0.197-   7 1.98   1 2.00  67 2.01  79 2.01  73 2.01
  28  0.675  0.593  0.197-   8 1.98   2 2.00  68 2.01  80 2.01  74 2.01
  29  0.423  0.345  0.197-   6 1.98   1 2.00  69 2.01  77 2.01  74 2.01
  30  0.923  0.345  0.197-   5 1.98   2 2.00  70 2.01  78 2.01  73 2.01
  31  0.423  0.845  0.197-   8 1.98   3 2.00  71 2.01  79 2.01  76 2.01
  32  0.923  0.845  0.197-   7 1.98   4 2.00  72 2.01  80 2.01  75 2.01
  33  0.219  0.345  0.371-  61 2.41  67 2.65  69 2.65
  34  0.719  0.345  0.371-  62 2.41  68 2.65  70 2.65
  35  0.219  0.845  0.371-  63 2.41  65 2.65  71 2.65
  36  0.719  0.845  0.371-  64 2.41  66 2.65  72 2.65
  37  0.467  0.093  0.371-  58 2.41  71 2.65  65 2.65
  38  0.967  0.093  0.371-  57 2.41  72 2.65  66 2.65
  39  0.467  0.593  0.371-  60 2.41  69 2.65  67 2.65
  40  0.967  0.593  0.371-  59 2.41  70 2.65  68 2.65
  41  0.033  0.343  0.629-  70 2.41  57 2.65  61 2.65
  42  0.533  0.343  0.629-  69 2.41  58 2.65  62 2.65
  43  0.033  0.843  0.629-  72 2.41  59 2.65  63 2.65
  44  0.533  0.843  0.629-  71 2.41  60 2.65  64 2.65
  45  0.281  0.095  0.629-  65 2.41  61 2.65  57 2.65
  46  0.781  0.095  0.629-  66 2.41  62 2.65  58 2.65
  47  0.281  0.595  0.629-  67 2.41  63 2.65  59 2.65
  48  0.781  0.595  0.629-  68 2.41  64 2.65  60 2.65
  49  0.124  0.344  0.001-  73 2.50  86 2.52  77 2.52   1 2.53  81 2.53  13 2.54
  50  0.624  0.344  0.000-  74 2.51  85 2.51  82 2.52  78 2.52  14 2.53   2 2.53
  51  0.124  0.844  0.000-  75 2.51  88 2.51  83 2.52  79 2.52  15 2.53   3 2.53
  52  0.624  0.844  0.000-  76 2.51  87 2.51  84 2.52  80 2.52  16 2.53   4 2.53
  53  0.376  0.094  1.000-  85 2.51  76 2.51  77 2.52  83 2.52   3 2.53  13 2.53
  54  0.876  0.094  1.000-  86 2.51  75 2.51  78 2.52  84 2.52   4 2.53  14 2.53
  55  0.376  0.594  1.000-  87 2.51  74 2.51  79 2.52  81 2.52   1 2.53  15 2.53
  56  0.876  0.594  1.000-  88 2.51  73 2.51  80 2.52  82 2.52   2 2.53  16 2.53
  57  0.038  0.106  0.606-  17 2.01  38 2.41  41 2.65  45 2.65
  58  0.538  0.106  0.606-  18 2.01  37 2.41  42 2.65  46 2.65
  59  0.038  0.606  0.606-  19 2.01  40 2.41  43 2.65  47 2.65
  60  0.538  0.606  0.606-  20 2.01  39 2.41  44 2.65  48 2.65
  61  0.265  0.332  0.606-  21 2.01  33 2.41  45 2.65  41 2.65
  62  0.765  0.332  0.606-  22 2.01  34 2.41  46 2.65  42 2.65
  63  0.265  0.832  0.606-  23 2.01  35 2.41  47 2.65  43 2.65
  64  0.765  0.832  0.606-  24 2.01  36 2.41  48 2.65  44 2.65
  65  0.235  0.082  0.394-  25 2.01  45 2.41  35 2.65  37 2.65
  66  0.735  0.082  0.394-  26 2.01  46 2.41  36 2.65  38 2.65
  67  0.235  0.582  0.394-  27 2.01  47 2.41  33 2.65  39 2.65
  68  0.735  0.582  0.394-  28 2.01  48 2.41  34 2.65  40 2.65
  69  0.462  0.356  0.394-  29 2.01  42 2.41  39 2.65  33 2.65
  70  0.962  0.356  0.394-  30 2.01  41 2.41  40 2.65  34 2.65
  71  0.462  0.856  0.394-  31 2.01  44 2.41  37 2.65  35 2.65
  72  0.962  0.856  0.394-  32 2.01  43 2.41  38 2.65  36 2.65
  73  0.038  0.469  0.154-  30 2.01  27 2.01  49 2.50  56 2.51
  74  0.538  0.469  0.154-  29 2.01  28 2.01  50 2.51  55 2.51
  75  0.038  0.969  0.154-  32 2.01  25 2.01  51 2.51  54 2.51
  76  0.538  0.969  0.154-  31 2.01  26 2.01  52 2.51  53 2.51
  77  0.289  0.219  0.154-  25 2.01  29 2.01  49 2.52  53 2.52
  78  0.789  0.219  0.154-  26 2.01  30 2.01  54 2.52  50 2.52
  79  0.289  0.719  0.154-  27 2.01  31 2.01  55 2.52  51 2.52
  80  0.789  0.719  0.154-  28 2.01  32 2.01  56 2.52  52 2.52
  81  0.211  0.469  0.846-  21 2.01  19 2.01  55 2.52  49 2.53
  82  0.711  0.469  0.846-  22 2.01  20 2.01  50 2.52  56 2.52
  83  0.211  0.969  0.846-  23 2.01  17 2.01  51 2.52  53 2.52
  84  0.711  0.969  0.846-  24 2.01  18 2.01  52 2.52  54 2.52
  85  0.462  0.219  0.846-  18 2.01  21 2.01  53 2.51  50 2.51
  86  0.962  0.219  0.846-  17 2.01  22 2.01  54 2.51  49 2.52
  87  0.462  0.719  0.846-  20 2.01  23 2.01  55 2.51  52 2.51
  88  0.962  0.719  0.846-  19 2.01  24 2.01  56 2.51  51 2.51
 

IMPORTANT INFORMATION: All symmetrisations will be switched off!
NOSYMM: (Re-)initialisation of all symmetry stuff for point group C_1.

 
 
 KPOINTS: # No comment                            

Automatic generation of k-mesh.
Space group operators:
 irot       det(A)        alpha          n_x          n_y          n_z        tau_x        tau_y        tau_z
    1     1.000000     0.000000     1.000000     0.000000     0.000000     0.000000     0.000000     0.000000
 
 Subroutine IBZKPT returns following result:
 ===========================================
 
 Found     14 irreducible k-points:
 
 Following reciprocal coordinates:
            Coordinates               Weight
  0.000000  0.000000  0.000000      1.000000
  0.333333  0.000000  0.000000      2.000000
  0.000000  0.333333  0.000000      2.000000
  0.333333  0.333333  0.000000      2.000000
 -0.333333  0.333333 -0.000000      2.000000
  0.000000  0.000000  0.333333      2.000000
  0.333333  0.000000  0.333333      2.000000
 -0.333333  0.000000  0.333333      2.000000
  0.000000  0.333333  0.333333      2.000000
  0.333333  0.333333  0.333333      2.000000
 -0.333333  0.333333  0.333333      2.000000
  0.000000 -0.333333  0.333333      2.000000
  0.333333 -0.333333  0.333333      2.000000
 -0.333333 -0.333333  0.333333      2.000000
 
 Following cartesian coordinates:
            Coordinates               Weight
  0.000000  0.000000  0.000000      1.000000
  0.029997  0.000000  0.008162      2.000000
  0.000000  0.029983  0.000000      2.000000
  0.029997  0.029983  0.008162      2.000000
 -0.029997  0.029983 -0.008162      2.000000
  0.000001  0.000000  0.032684      2.000000
  0.029998  0.000000  0.040846      2.000000
 -0.029996  0.000000  0.024522      2.000000
  0.000001  0.029983  0.032684      2.000000
  0.029998  0.029983  0.040846      2.000000
 -0.029996  0.029983  0.024522      2.000000
  0.000001 -0.029983  0.032684      2.000000
  0.029998 -0.029983  0.040846      2.000000
 -0.029996 -0.029983  0.024522      2.000000
 


--------------------------------------------------------------------------------------------------------




 Dimension of arrays:
   k-points           NKPTS =     14   k-points in BZ     NKDIM =     14   number of bands    NBANDS=    538
   number of dos      NEDOS =    301   number of ions     NIONS =     88
   non local maximal  LDIM  =      6   non local SUM 2l+1 LMDIM =     18
   total plane-waves  NPLWV = 829440
   max r-space proj   IRMAX =      1   max aug-charges    IRDMAX= 166102
   dimension x,y,z NGX =    96 NGY =   96 NGZ =   90
   dimension x,y,z NGXF=   192 NGYF=  192 NGZF=  180
   support grid    NGXF=   384 NGYF=  384 NGZF=  360
   ions per type =              16  16  24  32
   NGX,Y,Z   is equivalent  to a cutoff of  14.36, 14.36, 14.16 a.u.
   NGXF,Y,Z  is equivalent  to a cutoff of  28.72, 28.71, 28.31 a.u.

 SYSTEM =  unknown system                          
 POSCAR =  # Compound: Li16O16S24Fe32. Old comment:

 Startparameter for this run:
   NWRITE =      1    write-flag & timer
   PREC   = accura    normal or accurate (medium, high low for compatibility)
   ISTART =      0    job   : 0-new  1-cont  2-samecut
   ICHARG =      1    charge: 1-file 2-atom 10-const
   ISPIN  =      2    spin polarized calculation?
   LNONCOLLINEAR =      F non collinear calculations
   LSORBIT =      F    spin-orbit coupling
   INIWAV =      1    electr: 0-lowe 1-rand  2-diag
   LASPH  =      T    aspherical Exc in radial PAW
   METAGGA=      F    non-selfconsistent MetaGGA calc.

 Electronic Relaxation 1
   ENCUT  =  650.0 eV  47.77 Ry    6.91 a.u.  23.10 23.11 21.97*2*pi/ulx,y,z
   ENINI  =  650.0     initial cutoff
   ENAUG  =  628.9 eV  augmentation charge cutoff
   NELM   =    200;   NELMIN=  8; NELMDL=  0     # of ELM steps 
   EDIFF  = 0.1E-05   stopping-criterion for ELM
   LREAL  =      F    real-space projection
   NLSPLINE    = F    spline interpolate recip. space projectors
   LCOMPAT=      F    compatible to vasp.4.4
   GGA_COMPAT  = T    GGA compatible to vasp.4.4-vasp.4.6
   LMAXPAW     = -100 max onsite density
   LMAXMIX     =    4 max onsite mixed and CHGCAR
   VOSKOWN=      0    Vosko Wilk Nusair interpolation
   ROPT   =    0.00000   0.00000   0.00000   0.00000
 Ionic relaxation
   EDIFFG = 0.1E-04   stopping-criterion for IOM
   NSW    =      0    number of steps for IOM
   NBLOCK =      1;   KBLOCK =      1    inner block; outer block 
   IBRION =     -1    ionic relax: 0-MD 1-quasi-New 2-CG
   NFREE  =      0    steps in history (QN), initial steepest desc. (CG)
   ISIF   =      2    stress and relaxation
   IWAVPR =     10    prediction:  0-non 1-charg 2-wave 3-comb
   ISYM   =      0    0-nonsym 1-usesym 2-fastsym
   LCORR  =      T    Harris-Foulkes like correction to forces

   POTIM  = 0.5000    time-step for ionic-motion
   TEIN   =    0.0    initial temperature
   TEBEG  =    0.0;   TEEND  =   0.0 temperature during run
   SMASS  =  -3.00    Nose mass-parameter (am)
   estimated Nose-frequenzy (Omega)   =  0.10E-29 period in steps =****** mass=  -0.282E-26a.u.
   SCALEE = 1.0000    scale energy and forces
   NPACO  =    256;   APACO  = 16.0  distance and # of slots for P.C.
   PSTRESS=    0.0 pullay stress

  Mass of Ions in am
   POMASS =   7.01 16.00 32.07 55.85
  Ionic Valenz
   ZVAL   =   3.00  6.00  6.00 14.00
  Atomic Wigner-Seitz radii
   RWIGS  =  -1.00 -1.00 -1.00 -1.00
  virtual crystal weights 
   VCA    =   1.00  1.00  1.00  1.00
   NELECT =     736.0000    total number of electrons
   NUPDOWN=      -1.0000    fix difference up-down

 DOS related values:
   EMIN   =  10.00;   EMAX   =-10.00  energy-range for DOS
   EFERMI =   0.00
   ISMEAR =     0;   SIGMA  =   0.05  broadening in eV -4-tet -1-fermi 0-gaus

 Electronic relaxation 2 (details)
   IALGO  =     38    algorithm
   LDIAG  =      T    sub-space diagonalisation (order eigenvalues)
   LSUBROT=      F    optimize rotation matrix (better conditioning)
   TURBO    =      0    0=normal 1=particle mesh
   IRESTART =      0    0=no restart 2=restart with 2 vectors
   NREBOOT  =      0    no. of reboots
   NMIN     =      0    reboot dimension
   EREF     =   0.00    reference energy to select bands
   IMIX   =      4    mixing-type and parameters
     AMIX     =   0.40;   BMIX     =  1.00
     AMIX_MAG =   1.60;   BMIX_MAG =  1.00
     AMIN     =   0.10
     WC   =   100.;   INIMIX=   1;  MIXPRE=   1;  MAXMIX= -45

 Intra band minimization:
   WEIMIN = 0.0000     energy-eigenvalue tresh-hold
   EBREAK =  0.46E-09  absolut break condition
   DEPER  =   0.30     relativ break condition  

   TIME   =   0.40     timestep for ELM

  volume/ion in A,a.u.               =      14.32        96.62
  Fermi-wavevector in a.u.,A,eV,Ry     =   1.368520  2.586127 25.481613  1.872846
  Thomas-Fermi vector in A             =   2.494476
 
 Write flags
   LWAVE        =      F    write WAVECAR
   LDOWNSAMPLE  =      F    k-point downsampling of WAVECAR
   LCHARG       =      T    write CHGCAR
   LVTOT        =      F    write LOCPOT, total local potential
   LVHAR        =      F    write LOCPOT, Hartree potential only
   LELF         =      F    write electronic localiz. function (ELF)
   LORBIT       =      0    0 simple, 1 ext, 2 COOP (PROOUT), +10 PAW based schemes


 Dipole corrections
   LMONO  =      F    monopole corrections only (constant potential shift)
   LDIPOL =      F    correct potential (dipole corrections)
   IDIPOL =      0    1-x, 2-y, 3-z, 4-all directions 
   EPSILON=  1.0000000 bulk dielectric constant

 LDA+U is selected, type is set to LDAUTYPE =  2
   angular momentum for each species LDAUL =    -1   -1   -1    2
   U (eV)           for each species LDAUU =   0.0  0.0  0.0  4.0
   J (eV)           for each species LDAUJ =   0.0  0.0  0.0  0.0
 Exchange correlation treatment:
   GGA     =    PE    GGA type
   LEXCH   =     8    internal setting for exchange type
   VOSKOWN=      0    Vosko Wilk Nusair interpolation
   LHFCALC =     F    Hartree Fock is set to
   LHFONE  =     F    Hartree Fock one center treatment
   AEXX    =    0.0000 exact exchange contribution

 Linear response parameters
   LEPSILON=     F    determine dielectric tensor
   LRPA    =     F    only Hartree local field effects (RPA)
   LNABLA  =     F    use nabla operator in PAW spheres
   LVEL    =     F    velocity operator in full k-point grid
   LINTERFAST=   F  fast interpolation
   KINTER  =     0    interpolate to denser k-point grid
   CSHIFT  =0.1000    complex shift for real part using Kramers Kronig
   OMEGAMAX=  -1.0    maximum frequency
   DEG_THRESHOLD= 0.2000000E-02 threshold for treating states as degnerate
   RTIME   =   -0.100 relaxation time in fs
  (WPLASMAI=    0.000 imaginary part of plasma frequency in eV, 0.658/RTIME)
   DFIELD  = 0.0000000 0.0000000 0.0000000 field for delta impulse in time
 
 Orbital magnetization related:
   ORBITALMAG=     F  switch on orbital magnetization
   LCHIMAG   =     F  perturbation theory with respect to B field
   DQ        =  0.001000  dq finite difference perturbation B field
   LLRAUG    =     F  two centre corrections for induced B field



--------------------------------------------------------------------------------------------------------


 Static calculation
 charge density and potential will be updated during run
 spin polarized calculation
 Variant of blocked Davidson
 Davidson routine will perform the subspace rotation
 perform sub-space diagonalisation
    after iterative eigenvector-optimisation
 modified Broyden-mixing scheme, WC =      100.0
 initial mixing is a Kerker type mixing with AMIX =  0.4000 and BMIX =      1.0000
 Hartree-type preconditioning will be used
 using additional bands          170
 reciprocal scheme for non local part
 use partial core corrections
 calculate Harris-corrections to forces 
   (improved forces if not selfconsistent)
 use gradient corrections 
 use of overlap-Matrix (Vanderbilt PP)
 Gauss-broadening in eV      SIGMA  =   0.05


--------------------------------------------------------------------------------------------------------


  energy-cutoff  :      650.00
  volume of cell :     1259.94
      direct lattice vectors                 reciprocal lattice vectors
    11.112233740  0.000000000 -0.000290340     0.089991547  0.000000000  0.024487024
     0.000000000 11.117451940  0.000000000     0.000000000  0.089948669  0.000000000
    -2.775108980  0.000000000 10.198722210     0.000002562  0.000000000  0.098052196

  length of vectors
    11.112233744 11.117451940 10.569539468     0.093263567  0.089948669  0.098052196


 
 k-points in units of 2pi/SCALE and weight: # No comment                            
   0.00000000  0.00000000  0.00000000       0.037
   0.02999718  0.00000000  0.00816234       0.074
   0.00000000  0.02998289  0.00000000       0.074
   0.02999718  0.02998289  0.00816234       0.074
  -0.02999718  0.02998289 -0.00816234       0.074
   0.00000085  0.00000000  0.03268407       0.074
   0.02999804  0.00000000  0.04084641       0.074
  -0.02999633  0.00000000  0.02452172       0.074
   0.00000085  0.02998289  0.03268407       0.074
   0.02999804  0.02998289  0.04084641       0.074
  -0.02999633  0.02998289  0.02452172       0.074
   0.00000085 -0.02998289  0.03268407       0.074
   0.02999804 -0.02998289  0.04084641       0.074
  -0.02999633 -0.02998289  0.02452172       0.074
 
 k-points in reciprocal lattice and weights: # No comment                            
   0.00000000  0.00000000  0.00000000       0.037
   0.33333333  0.00000000  0.00000000       0.074
   0.00000000  0.33333333  0.00000000       0.074
   0.33333333  0.33333333  0.00000000       0.074
  -0.33333333  0.33333333 -0.00000000       0.074
   0.00000000  0.00000000  0.33333333       0.074
   0.33333333  0.00000000  0.33333333       0.074
  -0.33333333  0.00000000  0.33333333       0.074
   0.00000000  0.33333333  0.33333333       0.074
   0.33333333  0.33333333  0.33333333       0.074
  -0.33333333  0.33333333  0.33333333       0.074
   0.00000000 -0.33333333  0.33333333       0.074
   0.33333333 -0.33333333  0.33333333       0.074
  -0.33333333 -0.33333333  0.33333333       0.074
 
 position of ions in fractional coordinates (direct lattice) 
   0.28894969  0.46933910  0.15583616
   0.78894969  0.46933910  0.15583616
   0.28894969  0.96933910  0.15583616
   0.78894969  0.96933910  0.15583616
   0.04646972  0.21934976  0.18586770
   0.54646972  0.21934976  0.18586770
   0.04646972  0.71934976  0.18586770
   0.54646972  0.71934976  0.18586770
   0.45353028  0.46934976  0.81413230
   0.95353028  0.46934976  0.81413230
   0.45353028  0.96934976  0.81413230
   0.95353028  0.96934976  0.81413230
   0.21105031  0.21933910  0.84416384
   0.71105031  0.21933910  0.84416384
   0.21105031  0.71933910  0.84416384
   0.71105031  0.71933910  0.84416384
   0.07654971  0.09530995  0.80250593
   0.57654971  0.09530995  0.80250593
   0.07654971  0.59530995  0.80250593
   0.57654971  0.59530995  0.80250593
   0.32470466  0.34338175  0.80250383
   0.82470466  0.34338175  0.80250383
   0.32470466  0.84338175  0.80250383
   0.82470466  0.84338175  0.80250383
   0.17529534  0.09338175  0.19749617
   0.67529534  0.09338175  0.19749617
   0.17529534  0.59338175  0.19749617
   0.67529534  0.59338175  0.19749617
   0.42345029  0.34530995  0.19749407
   0.92345029  0.34530995  0.19749407
   0.42345029  0.84530995  0.19749407
   0.92345029  0.84530995  0.19749407
   0.21868463  0.34523395  0.37102476
   0.71868463  0.34523395  0.37102476
   0.21868463  0.84523395  0.37102476
   0.71868463  0.84523395  0.37102476
   0.46681660  0.09344897  0.37102399
   0.96681660  0.09344897  0.37102399
   0.46681660  0.59344897  0.37102399
   0.96681660  0.59344897  0.37102399
   0.03318340  0.34344897  0.62897601
   0.53318340  0.34344897  0.62897601
   0.03318340  0.84344897  0.62897601
   0.53318340  0.84344897  0.62897601
   0.28131537  0.09523395  0.62897524
   0.78131537  0.09523395  0.62897524
   0.28131537  0.59523395  0.62897524
   0.78131537  0.59523395  0.62897524
   0.12439279  0.34434306  0.00095023
   0.62439279  0.34434306  0.00000412
   0.12439279  0.84434306  0.00000412
   0.62439279  0.84434306  0.00000412
   0.37560721  0.09434306  0.99999588
   0.87560721  0.09434306  0.99999588
   0.37560721  0.59434306  0.99999588
   0.87560721  0.59434306  0.99999588
   0.03824426  0.10634799  0.60632306
   0.53824426  0.10634799  0.60632306
   0.03824426  0.60634799  0.60632306
   0.53824426  0.60634799  0.60632306
   0.26492712  0.33232651  0.60632763
   0.76492712  0.33232651  0.60632763
   0.26492712  0.83232651  0.60632763
   0.76492712  0.83232651  0.60632763
   0.23507288  0.08232651  0.39367237
   0.73507288  0.08232651  0.39367237
   0.23507288  0.58232651  0.39367237
   0.73507288  0.58232651  0.39367237
   0.46175574  0.35634799  0.39367694
   0.96175574  0.35634799  0.39367694
   0.46175574  0.85634799  0.39367694
   0.96175574  0.85634799  0.39367694
   0.03848398  0.46936404  0.15397331
   0.53848398  0.46936404  0.15397331
   0.03848398  0.96936404  0.15397331
   0.53848398  0.96936404  0.15397331
   0.28861657  0.21935690  0.15447525
   0.78861657  0.21935690  0.15447525
   0.28861657  0.71935690  0.15447525
   0.78861657  0.71935690  0.15447525
   0.21138343  0.46935690  0.84552475
   0.71138343  0.46935690  0.84552475
   0.21138343  0.96935690  0.84552475
   0.71138343  0.96935690  0.84552475
   0.46151602  0.21936404  0.84602669
   0.96151602  0.21936404  0.84602669
   0.46151602  0.71936404  0.84602669
   0.96151602  0.71936404  0.84602669
 
 position of ions in cartesian coordinates  (Angst):
   2.77841422  5.21785483  1.58924581
   8.33453109  5.21785483  1.58910064
   2.77841422 10.77658080  1.58924581
   8.33453109 10.77658080  1.58910064
   0.00057921  2.43861041  1.89559955
   5.55669608  2.43861041  1.89545438
   0.00057921  7.99733638  1.89559955
   5.55669608  7.99733638  1.89545438
   2.78042868  5.21797340  8.30297749
   8.33654555  5.21797340  8.30283232
   2.78042868 10.77669937  8.30297749
   8.33654555 10.77669937  8.30283232
   0.00259367  2.43849185  8.60933123
   5.55871054  2.43849185  8.60918606
   0.00259367  7.99721782  8.60933123
   5.55871054  7.99721782  8.60918606
  -1.37640314  1.05960384  8.18451283
   4.17971373  1.05960384  8.18436766
  -1.37640314  6.61832981  8.18451283
   4.17971373  6.61832981  8.18436766
   1.38115855  3.81753010  8.18441936
   6.93727542  3.81753010  8.18427419
   1.38115855  9.37625607  8.18441936
   6.93727542  9.37625607  8.18427419
   1.39984934  1.03816712  2.01415768
   6.95596621  1.03816712  2.01401251
   1.39984934  6.59689309  2.01415768
   6.95596621  6.59689309  2.01401251
   4.15741103  3.83896683  2.01406421
   9.71352790  3.83896683  2.01391904
   4.15741103  9.39769280  2.01406421
   9.71352790  9.39769280  2.01391904
   1.40044058  3.83812185  3.78391497
   6.95655745  3.83812185  3.78376980
   1.40044058  9.39684782  3.78391497
   6.95655745  9.39684782  3.78376980
   4.15774317  1.03891443  3.78383507
   9.71386004  1.03891443  3.78368990
   4.15774317  6.59764040  3.78383507
   9.71386004  6.59764040  3.78368990
  -1.37673528  3.81827742  6.41474197
   4.17938159  3.81827742  6.41459680
  -1.37673528  9.37700339  6.41474197
   4.17938159  9.37700339  6.41459680
   1.38056731  1.05875886  6.41466207
   6.93668418  1.05875886  6.41451690
   1.38056731  6.61748483  6.41466207
   6.93668418  6.61748483  6.41451690
   1.37964475  3.82821742  0.00965507
   6.93838719  3.82821742 -0.00013927
   1.38227032  9.38694339  0.00000590
   6.93838719  9.38694339 -0.00013927
   1.39873757  1.04885444 10.19857114
   6.95485444  1.04885444 10.19842597
   1.39873757  6.60758041 10.19857114
   6.95485444  6.60758041 10.19842597
  -1.25763347  1.18231867  6.18370935
   4.29848340  1.18231867  6.18356418
  -1.25763347  6.74104464  6.18370935
   4.29848340  6.74104464  6.18356418
   1.26130689  3.69462400  6.18369015
   6.81742376  3.69462400  6.18354498
   1.26130689  9.25334997  6.18369015
   6.81742376  9.25334997  6.18354498
   1.51970100  0.91526102  4.01488689
   7.07581787  0.91526102  4.01474172
   1.51970100  6.47398699  4.01488689
   7.07581787  6.47398699  4.01474172
   4.03864136  3.96168165  4.01486769
   9.59475823  3.96168165  4.01472252
   4.03864136  9.52040762  4.01486769
   9.59475823  9.52040762  4.01472252
   0.00035027  5.21813216  1.57031984
   5.55646714  5.21813216  1.57017467
   0.00035027 10.77685813  1.57031984
   5.55646714 10.77685813  1.57017467
   2.77848919  2.43868979  1.57536637
   8.33460606  2.43868979  1.57522120
   2.77848919  7.99741576  1.57536637
   8.33460606  7.99741576  1.57522120
   0.00251870  5.21805278  8.62321067
   5.55863557  5.21805278  8.62306550
   0.00251870 10.77677875  8.62321067
   5.55863557 10.77677875  8.62306550
   2.78065762  2.43876917  8.62825720
   8.33677449  2.43876917  8.62811203
   2.78065762  7.99749514  8.62825720
   8.33677449  7.99749514  8.62811203
 


--------------------------------------------------------------------------------------------------------


 k-point  1 :   0.0000 0.0000 0.0000  plane waves:   47369
 k-point  2 :   0.3333 0.0000 0.0000  plane waves:   47373
 k-point  3 :   0.0000 0.3333 0.0000  plane waves:   47370
 k-point  4 :   0.3333 0.3333 0.0000  plane waves:   47404
 k-point  5 :  -0.3333 0.3333-0.0000  plane waves:   47404
 k-point  6 :   0.0000 0.0000 0.3333  plane waves:   47419
 k-point  7 :   0.3333 0.0000 0.3333  plane waves:   47399
 k-point  8 :  -0.3333 0.0000 0.3333  plane waves:   47417
 k-point  9 :   0.0000 0.3333 0.3333  plane waves:   47409
 k-point 10 :   0.3333 0.3333 0.3333  plane waves:   47422
 k-point 11 :  -0.3333 0.3333 0.3333  plane waves:   47440
 k-point 12 :   0.0000-0.3333 0.3333  plane waves:   47409
 k-point 13 :   0.3333-0.3333 0.3333  plane waves:   47422
 k-point 14 :  -0.3333-0.3333 0.3333  plane waves:   47440

 maximum and minimum number of plane-waves per node :      7942     7858

 maximum number of plane-waves:     47440
 maximum index in each direction: 
   IXMAX=   23   IYMAX=   23   IZMAX=   21
   IXMIN=  -23   IYMIN=  -23   IZMIN=  -22


 parallel 3D FFT for wavefunctions:
    minimum data exchange during FFTs selected (reduces bandwidth)
 parallel 3D FFT for charge:
    minimum data exchange during FFTs selected (reduces bandwidth)


 total amount of memory used by VASP MPI-rank0  1233264. kBytes
=======================================================================

   base      :      30000. kBytes
   nonl-proj :      75226. kBytes
   fftplans  :      85054. kBytes
   grid      :      64684. kBytes
   one-center:        466. kBytes
   wavefun   :     977834. kBytes
 
     INWAV:  cpu time    0.0000: real time    0.0001
 Broyden mixing: mesh for mixing (old mesh)
   NGX = 47   NGY = 47   NGZ = 43
  (NGX  =192   NGY  =192   NGZ  =180)
  gives a total of  94987 points

 initial charge density was supplied:
 number of electron     736.0000016 magnetization     127.9999885
 keeping initial charge density in first step


--------------------------------------------------------------------------------------------------------


 Maximum index for augmentation-charges        13237 (set IRDMAX)


--------------------------------------------------------------------------------------------------------


 First call to EWALD:  gamma=   0.164
 Maximum number of real-space cells 3x 3x 3
 Maximum number of reciprocal cells 3x 3x 3

    FEWALD:  cpu time    0.0061: real time    0.0061


--------------------------------------- Iteration      1(   1)  ---------------------------------------


    POTLOK:  cpu time    1.0555: real time    1.0701
    SETDIJ:  cpu time    2.3071: real time    2.3084
     EDDAV:  cpu time  313.5322: real time  316.4101
       DOS:  cpu time    0.0081: real time    0.0081
    --------------------------------------------
      LOOP:  cpu time  316.9029: real time  319.7967

 eigenvalue-minimisations  : 30944
 total energy-change (2. order) : 0.1040964E+05  (-0.4118847E+05)
 number of electron     736.0000016 magnetization     127.9999885
 augmentation part      736.0000016 magnetization     127.9999885

 Free energy of the ion-electron system (eV)
  ---------------------------------------------------
  alpha Z        PSCENC =      2314.49656628
  Ewald energy   TEWEN  =    -57723.05690009
  -Hartree energ DENC   =    -30348.86471594
  -exchange      EXHF   =         0.00000000
  -V(xc)+E(xc)   XCENC  =      3229.29936370
  PAW double counting   =     92679.89207989   -95535.38516353
  entropy T*S    EENTRO =        -0.01854268
  eigenvalues    EBANDS =       349.79563662
  atomic energy  EATOM  =     95443.47970955
  Solvation  Ediel_sol  =         0.00000000
  ---------------------------------------------------
  free energy    TOTEN  =     10409.63803380 eV

  energy without entropy =    10409.65657648  energy(sigma->0) =    10409.64730514


--------------------------------------------------------------------------------------------------------




--------------------------------------- Iteration      1(   2)  ---------------------------------------


     EDDAV:  cpu time  306.8837: real time  309.6670
       DOS:  cpu time    0.0082: real time    0.0082
    --------------------------------------------
      LOOP:  cpu time  306.8919: real time  309.6753

 eigenvalue-minimisations  : 30128
 total energy-change (2. order) :-0.9232160E+04  (-0.8658365E+04)
 number of electron     736.0000016 magnetization     127.9999885
 augmentation part      736.0000016 magnetization     127.9999885

 Free energy of the ion-electron system (eV)
  ---------------------------------------------------
  alpha Z        PSCENC =      2314.49656628
  Ewald energy   TEWEN  =    -57723.05690009
  -Hartree energ DENC   =    -30348.86471594
  -exchange      EXHF   =         0.00000000
  -V(xc)+E(xc)   XCENC  =      3229.29936370
  PAW double counting   =     92679.89207989   -95535.38516353
  entropy T*S    EENTRO =        -0.06583899
  eigenvalues    EBANDS =     -8882.31716474
  atomic energy  EATOM  =     95443.47970955
  Solvation  Ediel_sol  =         0.00000000
  ---------------------------------------------------
  free energy    TOTEN  =      1177.47793613 eV

  energy without entropy =     1177.54377512  energy(sigma->0) =     1177.51085562


--------------------------------------------------------------------------------------------------------




--------------------------------------- Iteration      1(   3)  ---------------------------------------


     EDDAV:  cpu time  325.0602: real time  328.4649
       DOS:  cpu time    0.0026: real time    0.0026
    --------------------------------------------
      LOOP:  cpu time  325.0628: real time  328.4675

 eigenvalue-minimisations  : 32376
 total energy-change (2. order) :-0.1485572E+04  (-0.1278919E+04)
 number of electron     736.0000016 magnetization     127.9999885
 augmentation part      736.0000016 magnetization     127.9999885

 Free energy of the ion-electron system (eV)
  ---------------------------------------------------
  alpha Z        PSCENC =      2314.49656628
  Ewald energy   TEWEN  =    -57723.05690009
  -Hartree energ DENC   =    -30348.86471594
  -exchange      EXHF   =         0.00000000
  -V(xc)+E(xc)   XCENC  =      3229.29936370
  PAW double counting   =     92679.89207989   -95535.38516353
  entropy T*S    EENTRO =        -0.00000000
  eigenvalues    EBANDS =    -10367.95461920
  atomic energy  EATOM  =     95443.47970955
  Solvation  Ediel_sol  =         0.00000000
  ---------------------------------------------------
  free energy    TOTEN  =      -308.09367934 eV

  energy without entropy =     -308.09367934  energy(sigma->0) =     -308.09367934


--------------------------------------------------------------------------------------------------------




--------------------------------------- Iteration      1(   4)  ---------------------------------------


     EDDAV:  cpu time  345.4015: real time  348.6340
       DOS:  cpu time    0.0025: real time    0.0028
    --------------------------------------------
      LOOP:  cpu time  345.4040: real time  348.6368

 eigenvalue-minimisations  : 35000
 total energy-change (2. order) :-0.1682072E+03  (-0.1654560E+03)
 number of electron     736.0000016 magnetization     127.9999885
 augmentation part      736.0000016 magnetization     127.9999885

 Free energy of the ion-electron system (eV)
  ---------------------------------------------------
  alpha Z        PSCENC =      2314.49656628
  Ewald energy   TEWEN  =    -57723.05690009
  -Hartree energ DENC   =    -30348.86471594
  -exchange      EXHF   =         0.00000000
  -V(xc)+E(xc)   XCENC  =      3229.29936370
  PAW double counting   =     92679.89207989   -95535.38516353
  entropy T*S    EENTRO =        -0.00000000
  eigenvalues    EBANDS =    -10536.16182422
  atomic energy  EATOM  =     95443.47970955
  Solvation  Ediel_sol  =         0.00000000
  ---------------------------------------------------
  free energy    TOTEN  =      -476.30088436 eV

  energy without entropy =     -476.30088436  energy(sigma->0) =     -476.30088436


--------------------------------------------------------------------------------------------------------




--------------------------------------- Iteration      1(   5)  ---------------------------------------


     EDDAV:  cpu time  461.1869: real time  465.3066
       DOS:  cpu time    0.0028: real time    0.0028
    CHARGE:  cpu time    9.2000: real time    9.2753
    MIXING:  cpu time    0.0324: real time    0.0324
    --------------------------------------------
      LOOP:  cpu time  470.4220: real time  474.6171

 eigenvalue-minimisations  : 49784
 total energy-change (2. order) :-0.1243225E+02  (-0.1230890E+02)
 number of electron     736.0000016 magnetization     127.9999932
 augmentation part      278.4632441 magnetization      84.1339879

 Broyden mixing:
  rms(total) = 0.20672E+00    rms(broyden)= 0.20655E+00
  rms(prec ) = 0.21019E+00
  weight for this iteration     100.00

 Free energy of the ion-electron system (eV)
  ---------------------------------------------------
  alpha Z        PSCENC =      2314.49656628
  Ewald energy   TEWEN  =    -57723.05690009
  -Hartree energ DENC   =    -30348.86471594
  -exchange      EXHF   =         0.00000000
  -V(xc)+E(xc)   XCENC  =      3229.29936370
  PAW double counting   =     92679.89207989   -95535.38516353
  entropy T*S    EENTRO =        -0.00000000
  eigenvalues    EBANDS =    -10548.59407018
  atomic energy  EATOM  =     95443.47970955
  Solvation  Ediel_sol  =         0.00000000
  ---------------------------------------------------
  free energy    TOTEN  =      -488.73313032 eV

  energy without entropy =     -488.73313032  energy(sigma->0) =     -488.73313032


--------------------------------------------------------------------------------------------------------




--------------------------------------- Iteration      1(   6)  ---------------------------------------


    POTLOK:  cpu time    1.0549: real time    1.0564
    SETDIJ:  cpu time    2.2900: real time    2.2915
     EDDAV:  cpu time  400.7681: real time  404.5151
       DOS:  cpu time    0.0027: real time    0.0027
    CHARGE:  cpu time    9.2792: real time    9.4342
    MIXING:  cpu time    0.0379: real time    0.0438
    --------------------------------------------
      LOOP:  cpu time  413.4328: real time  417.3438

 eigenvalue-minimisations  : 42088
 total energy-change (2. order) :-0.4673461E+00  (-0.4815013E+00)
 number of electron     736.0000016 magnetization     127.9999951
 augmentation part      277.9605916 magnetization      84.1626713

 Broyden mixing:
  rms(total) = 0.10189E+00    rms(broyden)= 0.10173E+00
  rms(prec ) = 0.10258E+00
  weight for this iteration     100.00

 eigenvalues of (default mixing * dielectric matrix)
  average eigenvalue GAMMA=   0.6587
  0.6587

 Free energy of the ion-electron system (eV)
  ---------------------------------------------------
  alpha Z        PSCENC =      2314.49656628
  Ewald energy   TEWEN  =    -57723.05690009
  -Hartree energ DENC   =    -30347.04706441
  -exchange      EXHF   =         0.00000000
  -V(xc)+E(xc)   XCENC  =      3228.99995187
  PAW double counting   =     92523.14208863   -95376.98285836
  entropy T*S    EENTRO =        -0.00000000
  eigenvalues    EBANDS =    -10552.23196992
  atomic energy  EATOM  =     95443.47970955
  Solvation  Ediel_sol  =         0.00000000
  ---------------------------------------------------
  free energy    TOTEN  =      -489.20047644 eV

  energy without entropy =     -489.20047644  energy(sigma->0) =     -489.20047644


--------------------------------------------------------------------------------------------------------




--------------------------------------- Iteration      1(   7)  ---------------------------------------


    POTLOK:  cpu time    1.0433: real time    1.0629
    SETDIJ:  cpu time    2.3007: real time    2.3022
     EDDAV:  cpu time  435.6348: real time  439.6927
       DOS:  cpu time    0.0028: real time    0.0028
    CHARGE:  cpu time    9.3315: real time    9.3569
    MIXING:  cpu time    0.0352: real time    0.0352
    --------------------------------------------
      LOOP:  cpu time  448.3483: real time  452.4528

 eigenvalue-minimisations  : 46432
 total energy-change (2. order) :-0.1665961E-01  (-0.1751242E-01)
 number of electron     736.0000016 magnetization     127.9999959
 augmentation part      277.8792443 magnetization      84.1547674

 Broyden mixing:
  rms(total) = 0.58989E-01    rms(broyden)= 0.58947E-01
  rms(prec ) = 0.60415E-01
  weight for this iteration     100.00

 eigenvalues of (default mixing * dielectric matrix)
  average eigenvalue GAMMA=   0.5754
  0.5754  0.5754

 Free energy of the ion-electron system (eV)
  ---------------------------------------------------
  alpha Z        PSCENC =      2314.49656628
  Ewald energy   TEWEN  =    -57723.05690009
  -Hartree energ DENC   =    -30347.97335858
  -exchange      EXHF   =         0.00000000
  -V(xc)+E(xc)   XCENC  =      3229.08474211
  PAW double counting   =     92580.64557332   -95435.06133095
  entropy T*S    EENTRO =        -0.00000000
  eigenvalues    EBANDS =    -10550.83213768
  atomic energy  EATOM  =     95443.47970955
  Solvation  Ediel_sol  =         0.00000000
  ---------------------------------------------------
  free energy    TOTEN  =      -489.21713605 eV

  energy without entropy =     -489.21713605  energy(sigma->0) =     -489.21713605


--------------------------------------------------------------------------------------------------------




--------------------------------------- Iteration      1(   8)  ---------------------------------------


    POTLOK:  cpu time    1.0557: real time    1.0577
    SETDIJ:  cpu time    2.2893: real time    2.2905
     EDDAV:  cpu time  407.0087: real time  410.3669
       DOS:  cpu time    0.0056: real time    0.0058
    CHARGE:  cpu time    9.3678: real time    9.4111
    MIXING:  cpu time    0.0315: real time    0.0315
    --------------------------------------------
      LOOP:  cpu time  419.7587: real time  423.1636

 eigenvalue-minimisations  : 42744
 total energy-change (2. order) : 0.5060620E-03  (-0.3356530E-03)
 number of electron     736.0000016 magnetization     127.9999963
 augmentation part      277.8714056 magnetization      84.1567494

 Broyden mixing:
  rms(total) = 0.52583E-01    rms(broyden)= 0.52579E-01
  rms(prec ) = 0.53832E-01
  weight for this iteration     100.00

 eigenvalues of (default mixing * dielectric matrix)
  average eigenvalue GAMMA=   0.5520
  0.6091  0.6091  0.4380

 Free energy of the ion-electron system (eV)
  ---------------------------------------------------
  alpha Z        PSCENC =      2314.49656628
  Ewald energy   TEWEN  =    -57723.05690009
  -Hartree energ DENC   =    -30347.93537609
  -exchange      EXHF   =         0.00000000
  -V(xc)+E(xc)   XCENC  =      3229.11376701
  PAW double counting   =     92594.20943388   -95448.75901798
  entropy T*S    EENTRO =        -0.00000000
  eigenvalues    EBANDS =    -10550.76481255
  atomic energy  EATOM  =     95443.47970955
  Solvation  Ediel_sol  =         0.00000000
  ---------------------------------------------------
  free energy    TOTEN  =      -489.21662999 eV

  energy without entropy =     -489.21662999  energy(sigma->0) =     -489.21662999


--------------------------------------------------------------------------------------------------------




--------------------------------------- Iteration      1(   9)  ---------------------------------------


    POTLOK:  cpu time    1.0582: real time    1.0603
    SETDIJ:  cpu time    2.2946: real time    2.3124
     EDDAV:  cpu time  447.9900: real time  452.0042
       DOS:  cpu time    0.0029: real time    0.0029
    CHARGE:  cpu time    9.3815: real time    9.3917
    MIXING:  cpu time    0.0359: real time    0.0359
    --------------------------------------------
      LOOP:  cpu time  460.7632: real time  464.8074

 eigenvalue-minimisations  : 47944
 total energy-change (2. order) : 0.3992969E-03  (-0.2111708E-04)
 number of electron     736.0000016 magnetization     127.9999975
 augmentation part      277.8735905 magnetization      84.1567749

 Broyden mixing:
  rms(total) = 0.46747E-01    rms(broyden)= 0.46747E-01
  rms(prec ) = 0.47829E-01
  weight for this iteration     100.00

 eigenvalues of (default mixing * dielectric matrix)
  average eigenvalue GAMMA=   0.6632
  0.8155  0.8155  0.5108  0.5108

 Free energy of the ion-electron system (eV)
  ---------------------------------------------------
  alpha Z        PSCENC =      2314.49656628
  Ewald energy   TEWEN  =    -57723.05690009
  -Hartree energ DENC   =    -30348.00565405
  -exchange      EXHF   =         0.00000000
  -V(xc)+E(xc)   XCENC  =      3229.13529672
  PAW double counting   =     92601.64251591   -95456.29187104
  entropy T*S    EENTRO =        -0.00000000
  eigenvalues    EBANDS =    -10550.61589397
  atomic energy  EATOM  =     95443.47970955
  Solvation  Ediel_sol  =         0.00000000
  ---------------------------------------------------
  free energy    TOTEN  =      -489.21623069 eV

  energy without entropy =     -489.21623069  energy(sigma->0) =     -489.21623069


--------------------------------------------------------------------------------------------------------




--------------------------------------- Iteration      1(  10)  ---------------------------------------


    POTLOK:  cpu time    1.0533: real time    1.0554
    SETDIJ:  cpu time    2.2707: real time    2.2923
     EDDAV:  cpu time  445.6403: real time  449.9483
       DOS:  cpu time    0.0030: real time    0.0036
    CHARGE:  cpu time    9.2569: real time    9.4123
    MIXING:  cpu time    0.0373: real time    0.0416
    --------------------------------------------
      LOOP:  cpu time  458.2614: real time  462.7535

 eigenvalue-minimisations  : 47680
 total energy-change (2. order) : 0.7334575E-03  (-0.3463807E-04)
 number of electron     736.0000016 magnetization     127.9999992
 augmentation part      277.8813312 magnetization      84.1575320

 Broyden mixing:
  rms(total) = 0.31960E-01    rms(broyden)= 0.31960E-01
  rms(prec ) = 0.32562E-01
  weight for this iteration     100.00

 eigenvalues of (default mixing * dielectric matrix)
  average eigenvalue GAMMA=   0.8760
  1.3640  1.3640  0.5919  0.5919  0.4682

 Free energy of the ion-electron system (eV)
  ---------------------------------------------------
  alpha Z        PSCENC =      2314.49656628
  Ewald energy   TEWEN  =    -57723.05690009
  -Hartree energ DENC   =    -30348.30178134
  -exchange      EXHF   =         0.00000000
  -V(xc)+E(xc)   XCENC  =      3229.19633516
  PAW double counting   =     92623.53636609   -95478.47681816
  entropy T*S    EENTRO =        -0.00000000
  eigenvalues    EBANDS =    -10550.08897471
  atomic energy  EATOM  =     95443.47970955
  Solvation  Ediel_sol  =         0.00000000
  ---------------------------------------------------
  free energy    TOTEN  =      -489.21549723 eV

  energy without entropy =     -489.21549723  energy(sigma->0) =     -489.21549723


--------------------------------------------------------------------------------------------------------




--------------------------------------- Iteration      1(  11)  ---------------------------------------


    POTLOK:  cpu time    1.0653: real time    1.0800
    SETDIJ:  cpu time    2.2715: real time    2.3306
     EDDAV:  cpu time  397.6964: real time  400.8618
       DOS:  cpu time    0.0026: real time    0.0026
    CHARGE:  cpu time    9.3542: real time    9.4456
    MIXING:  cpu time    0.0371: real time    0.0393
    --------------------------------------------
      LOOP:  cpu time  410.4271: real time  413.7598

 eigenvalue-minimisations  : 41816
 total energy-change (2. order) : 0.4206308E-03  (-0.4994776E-04)
 number of electron     736.0000016 magnetization     127.9999996
 augmentation part      277.8894445 magnetization      84.1582126

 Broyden mixing:
  rms(total) = 0.13198E-01    rms(broyden)= 0.13197E-01
  rms(prec ) = 0.13286E-01
  weight for this iteration     100.00

 eigenvalues of (default mixing * dielectric matrix)
  average eigenvalue GAMMA=   0.8773
  1.4532  1.4532  0.6575  0.6575  0.5211  0.5211

 Free energy of the ion-electron system (eV)
  ---------------------------------------------------
  alpha Z        PSCENC =      2314.49656628
  Ewald energy   TEWEN  =    -57723.05690009
  -Hartree energ DENC   =    -30348.66726837
  -exchange      EXHF   =         0.00000000
  -V(xc)+E(xc)   XCENC  =      3229.27091252
  PAW double counting   =     92653.92479686   -95509.23492320
  entropy T*S    EENTRO =        -0.00000000
  eigenvalues    EBANDS =    -10549.42797014
  atomic energy  EATOM  =     95443.47970955
  Solvation  Ediel_sol  =         0.00000000
  ---------------------------------------------------
  free energy    TOTEN  =      -489.21507660 eV

  energy without entropy =     -489.21507660  energy(sigma->0) =     -489.21507660


--------------------------------------------------------------------------------------------------------




--------------------------------------- Iteration      1(  12)  ---------------------------------------


    POTLOK:  cpu time    1.0458: real time    1.0626
    SETDIJ:  cpu time    2.2781: real time    2.3115
     EDDAV:  cpu time  375.6321: real time  379.2053
       DOS:  cpu time    0.0026: real time    0.0026
    CHARGE:  cpu time    9.3206: real time    9.4589
    MIXING:  cpu time    0.0368: real time    0.0370
    --------------------------------------------
      LOOP:  cpu time  388.3160: real time  392.0779

 eigenvalue-minimisations  : 39112
 total energy-change (2. order) : 0.5150883E-05  (-0.1391732E-04)
 number of electron     736.0000016 magnetization     127.9999997
 augmentation part      277.8910762 magnetization      84.1581647

 Broyden mixing:
  rms(total) = 0.89919E-02    rms(broyden)= 0.89911E-02
  rms(prec ) = 0.90257E-02
  weight for this iteration     100.00

 eigenvalues of (default mixing * dielectric matrix)
  average eigenvalue GAMMA=   0.9300
  1.5874  1.5874  0.8536  0.8536  0.5674  0.5674  0.4929

 Free energy of the ion-electron system (eV)
  ---------------------------------------------------
  alpha Z        PSCENC =      2314.49656628
  Ewald energy   TEWEN  =    -57723.05690009
  -Hartree energ DENC   =    -30348.73373260
  -exchange      EXHF   =         0.00000000
  -V(xc)+E(xc)   XCENC  =      3229.28358600
  PAW double counting   =     92661.57470450   -95516.95058797
  entropy T*S    EENTRO =        -0.00000000
  eigenvalues    EBANDS =    -10549.30841713
  atomic energy  EATOM  =     95443.47970955
  Solvation  Ediel_sol  =         0.00000000
  ---------------------------------------------------
  free energy    TOTEN  =      -489.21507145 eV

  energy without entropy =     -489.21507145  energy(sigma->0) =     -489.21507145


--------------------------------------------------------------------------------------------------------




--------------------------------------- Iteration      1(  13)  ---------------------------------------


    POTLOK:  cpu time    1.0533: real time    1.0616
    SETDIJ:  cpu time    2.2819: real time    2.3022
     EDDAV:  cpu time  366.4942: real time  369.6940
       DOS:  cpu time    0.0026: real time    0.0026
    CHARGE:  cpu time    9.4907: real time    9.4969
    MIXING:  cpu time    0.0396: real time    0.0395
    --------------------------------------------
      LOOP:  cpu time  379.3623: real time  382.5969

 eigenvalue-minimisations  : 37888
 total energy-change (2. order) :-0.6925751E-05  (-0.1597824E-05)
 number of electron     736.0000016 magnetization     128.0000002
 augmentation part      277.8923226 magnetization      84.1581275

 Broyden mixing:
  rms(total) = 0.78854E-02    rms(broyden)= 0.78845E-02
  rms(prec ) = 0.79239E-02
  weight for this iteration     100.00

 eigenvalues of (default mixing * dielectric matrix)
  average eigenvalue GAMMA=   1.1092
  2.3220  2.3220  0.9799  0.9799  0.6342  0.6342  0.5005  0.5005

 Free energy of the ion-electron system (eV)
  ---------------------------------------------------
  alpha Z        PSCENC =      2314.49656628
  Ewald energy   TEWEN  =    -57723.05690009
  -Hartree energ DENC   =    -30348.74053001
  -exchange      EXHF   =         0.00000000
  -V(xc)+E(xc)   XCENC  =      3229.28346060
  PAW double counting   =     92663.97757233   -95519.35553702
  entropy T*S    EENTRO =        -0.00000000
  eigenvalues    EBANDS =    -10549.29942002
  atomic energy  EATOM  =     95443.47970955
  Solvation  Ediel_sol  =         0.00000000
  ---------------------------------------------------
  free energy    TOTEN  =      -489.21507838 eV

  energy without entropy =     -489.21507838  energy(sigma->0) =     -489.21507838


--------------------------------------------------------------------------------------------------------




--------------------------------------- Iteration      1(  14)  ---------------------------------------


    POTLOK:  cpu time    1.0535: real time    1.0541
    SETDIJ:  cpu time    2.2722: real time    2.2929
     EDDAV:  cpu time  249.3160: real time  251.5040
       DOS:  cpu time    0.0025: real time    0.0025
    --------------------------------------------
      LOOP:  cpu time  252.6442: real time  254.8535

 eigenvalue-minimisations  : 22504
 total energy-change (2. order) :-0.9456708E-06  (-0.1903829E-06)
 number of electron     736.0000016 magnetization     128.0000002
 augmentation part      277.8923226 magnetization      84.1581275

 Free energy of the ion-electron system (eV)
  ---------------------------------------------------
  alpha Z        PSCENC =      2314.49656628
  Ewald energy   TEWEN  =    -57723.05690009
  -Hartree energ DENC   =    -30348.80730516
  -exchange      EXHF   =         0.00000000
  -V(xc)+E(xc)   XCENC  =      3229.29111385
  PAW double counting   =     92673.78886809   -95529.21882828
  entropy T*S    EENTRO =        -0.00000000
  eigenvalues    EBANDS =    -10549.18830356
  atomic energy  EATOM  =     95443.47970955
  Solvation  Ediel_sol  =         0.00000000
  ---------------------------------------------------
  free energy    TOTEN  =      -489.21507932 eV

  energy without entropy =     -489.21507932  energy(sigma->0) =     -489.21507932


--------------------------------------------------------------------------------------------------------




 average (electrostatic) potential at core
  the test charge radii are     0.7079  0.7215  0.9698  0.9500
  (the norm of the test charge is              1.0000)
       1 -58.9472       2 -58.9506       3 -58.9510       4 -58.9513       5 -58.9453
       6 -58.9499       7 -58.9500       8 -58.9504       9 -58.9514      10 -58.9537
      11 -58.9506      12 -58.9513      13 -58.9579      14 -58.9515      15 -58.9522
      16 -58.9511      17 -69.8188      18 -69.8166      19 -69.8189      20 -69.8165
      21 -69.8195      22 -69.8181      23 -69.8166      24 -69.8165      25 -69.8140
      26 -69.8163      27 -69.8138      28 -69.8163      29 -69.8146      30 -69.8134
      31 -69.8163      32 -69.8162      33 -85.5770      34 -85.5794      35 -85.5791
      36 -85.5795      37 -85.5791      38 -85.5795      39 -85.5792      40 -85.5792
      41 -85.5821      42 -85.5798      43 -85.5800      44 -85.5796      45 -85.5798
      46 -85.5800      47 -85.5799      48 -85.5798      49 -85.6383      50 -85.6384
      51 -85.6384      52 -85.6384      53 -85.6386      54 -85.6382      55 -85.6391
      56 -85.6376      57 -78.5751      58 -78.5743      59 -78.5750      60 -78.5743
      61 -78.5743      62 -78.5747      63 -78.5742      64 -78.5743      65 -78.5732
      66 -78.5740      67 -78.5731      68 -78.5739      69 -78.5734      70 -78.5741
      71 -78.5739      72 -78.5741      73 -78.5764      74 -78.5817      75 -78.5814
      76 -78.5819      77 -78.5880      78 -78.5909      79 -78.5911      80 -78.5913
      81 -78.5972      82 -78.5918      83 -78.5922      84 -78.5916      85 -78.5827
      86 -78.5856      87 -78.5823      88 -78.5824
 
 
 
 E-fermi :   5.2122     XC(G=0): -10.4849     alpha+bet :-11.8156


 spin component 1

 k-point     1 :       0.0000    0.0000    0.0000
  band No.  band energies     occupation 
      1     -51.0567      1.00000
      2     -51.0555      1.00000
      3     -51.0544      1.00000
      4     -51.0543      1.00000
      5     -51.0542      1.00000
      6     -51.0542      1.00000
      7     -51.0536      1.00000
      8     -51.0535      1.00000
      9     -51.0528      1.00000
     10     -51.0526      1.00000
     11     -51.0524      1.00000
     12     -51.0522      1.00000
     13     -51.0521      1.00000
     14     -51.0516      1.00000
     15     -51.0508      1.00000
     16     -51.0502      1.00000
     17     -51.0483      1.00000
     18     -51.0450      1.00000
     19     -51.0444      1.00000
     20     -51.0442      1.00000
     21     -51.0438      1.00000
     22     -51.0436      1.00000
     23     -51.0433      1.00000
     24     -51.0429      1.00000
     25     -51.0406      1.00000
     26     -51.0401      1.00000
     27     -51.0399      1.00000
     28     -51.0397      1.00000
     29     -51.0393      1.00000
     30     -51.0390      1.00000
     31     -51.0388      1.00000
     32     -51.0337      1.00000
     33     -49.7057      1.00000
     34     -49.7022      1.00000
     35     -49.7019      1.00000
     36     -49.7017      1.00000
     37     -49.7013      1.00000
     38     -49.7011      1.00000
     39     -49.7010      1.00000
     40     -49.6997      1.00000
     41     -49.6960      1.00000
     42     -49.6947      1.00000
     43     -49.6945      1.00000
     44     -49.6944      1.00000
     45     -49.6940      1.00000
     46     -49.6937      1.00000
     47     -49.6935      1.00000
     48     -49.6900      1.00000
     49     -49.5986      1.00000
     50     -49.5980      1.00000
     51     -49.5976      1.00000
     52     -49.5975      1.00000
     53     -49.5974      1.00000
     54     -49.5973      1.00000
     55     -49.5970      1.00000
     56     -49.5966      1.00000
     57     -49.5964      1.00000
     58     -49.5962      1.00000
     59     -49.5962      1.00000
     60     -49.5961      1.00000
     61     -49.5960      1.00000
     62     -49.5957      1.00000
     63     -49.5955      1.00000
     64     -49.5954      1.00000
     65     -49.5674      1.00000
     66     -49.5668      1.00000
     67     -49.5666      1.00000
     68     -49.5664      1.00000
     69     -49.5660      1.00000
     70     -49.5659      1.00000
     71     -49.5655      1.00000
     72     -49.5650      1.00000
     73     -49.5647      1.00000
     74     -49.5646      1.00000
     75     -49.5644      1.00000
     76     -49.5643      1.00000
     77     -49.5642      1.00000
     78     -49.5641      1.00000
     79     -49.5636      1.00000
     80     -49.5634      1.00000
     81     -49.5610      1.00000
     82     -49.5547      1.00000
     83     -49.5544      1.00000
     84     -49.5542      1.00000
     85     -49.5539      1.00000
     86     -49.5538      1.00000
     87     -49.5535      1.00000
     88     -49.5492      1.00000
     89     -49.5444      1.00000
     90     -49.5401      1.00000
     91     -49.5398      1.00000
     92     -49.5398      1.00000
     93     -49.5394      1.00000
     94     -49.5392      1.00000
     95     -49.5389      1.00000
     96     -49.5325      1.00000
     97     -39.8747      1.00000
     98     -39.8712      1.00000
     99     -39.8691      1.00000
    100     -39.8688      1.00000
    101     -39.8688      1.00000
    102     -39.8683      1.00000
    103     -39.8683      1.00000
    104     -39.8679      1.00000
    105     -39.8678      1.00000
    106     -39.8677      1.00000
    107     -39.8676      1.00000
    108     -39.8674      1.00000
    109     -39.8673      1.00000
    110     -39.8671      1.00000
    111     -39.8638      1.00000
    112     -39.8626      1.00000
    113     -13.2261      1.00000
    114     -13.2237      1.00000
    115     -13.2105      1.00000
    116     -13.1835      1.00000
    117     -13.1012      1.00000
    118     -13.0995      1.00000
    119     -13.0986      1.00000
    120     -13.0932      1.00000
    121     -13.0860      1.00000
    122     -13.0804      1.00000
    123     -13.0796      1.00000
    124     -13.0777      1.00000
    125     -12.9883      1.00000
    126     -12.9773      1.00000
    127     -12.9431      1.00000
    128     -12.9407      1.00000
    129      -7.6452      1.00000
    130      -7.4067      1.00000
    131      -7.3260      1.00000
    132      -7.3260      1.00000
    133      -7.3093      1.00000
    134      -7.3090      1.00000
    135      -7.3086      1.00000
    136      -7.3072      1.00000
    137      -7.1699      1.00000
    138      -7.1568      1.00000
    139      -7.1238      1.00000
    140      -7.1236      1.00000
    141      -7.0364      1.00000
    142      -7.0218      1.00000
    143      -7.0023      1.00000
    144      -7.0017      1.00000
    145      -6.9411      1.00000
    146      -6.9404      1.00000
    147      -6.8872      1.00000
    148      -6.8871      1.00000
    149      -6.8658      1.00000
    150      -6.8613      1.00000
    151      -6.8345      1.00000
    152      -6.8037      1.00000
    153      -1.9367      1.00000
    154      -1.9344      1.00000
    155      -1.9106      1.00000
    156      -1.8935      1.00000
    157      -1.6666      1.00000
    158      -1.6663      1.00000
    159      -1.6588      1.00000
    160      -1.6572      1.00000
    161      -1.5998      1.00000
    162      -1.5980      1.00000
    163      -1.5864      1.00000
    164      -1.5861      1.00000
    165      -1.2983      1.00000
    166      -1.1748      1.00000
    167      -1.1746      1.00000
    168      -1.1135      1.00000
    169      -1.1130      1.00000
    170      -1.1072      1.00000
    171      -1.0494      1.00000
    172      -0.9809      1.00000
    173      -0.9647      1.00000
    174      -0.9596      1.00000
    175      -0.9577      1.00000
    176      -0.9575      1.00000
    177      -0.9470      1.00000
    178      -0.9452      1.00000
    179      -0.9229      1.00000
    180      -0.8723      1.00000
    181      -0.8702      1.00000
    182      -0.8036      1.00000
    183      -0.8035      1.00000
    184      -0.8017      1.00000
    185      -0.7751      1.00000
    186      -0.7742      1.00000
    187      -0.7740      1.00000
    188      -0.7611      1.00000
    189      -0.7167      1.00000
    190      -0.7165      1.00000
    191      -0.7065      1.00000
    192      -0.7051      1.00000
    193      -0.6993      1.00000
    194      -0.6989      1.00000
    195      -0.6088      1.00000
    196      -0.6085      1.00000
    197      -0.5616      1.00000
    198      -0.5614      1.00000
    199      -0.5495      1.00000
    200      -0.5480      1.00000
    201      -0.4083      1.00000
    202      -0.4079      1.00000
    203      -0.3574      1.00000
    204      -0.3480      1.00000
    205      -0.3295      1.00000
    206      -0.3293      1.00000
    207      -0.2986      1.00000
    208      -0.2984      1.00000
    209      -0.2814      1.00000
    210      -0.2693      1.00000
    211      -0.2628      1.00000
    212      -0.2557      1.00000
    213      -0.2550      1.00000
    214      -0.2091      1.00000
    215      -0.2088      1.00000
    216      -0.1887      1.00000
    217      -0.1871      1.00000
    218      -0.1863      1.00000
    219      -0.1758      1.00000
    220      -0.1580      1.00000
    221      -0.1259      1.00000
    222      -0.1251      1.00000
    223      -0.1090      1.00000
    224      -0.0709      1.00000
    225      -0.0706      1.00000
    226      -0.0605      1.00000
    227      -0.0433      1.00000
    228      -0.0175      1.00000
    229      -0.0175      1.00000
    230      -0.0117      1.00000
    231       0.0013      1.00000
    232       0.0021      1.00000
    233       0.0463      1.00000
    234       0.0490      1.00000
    235       0.0499      1.00000
    236       0.0914      1.00000
    237       0.0932      1.00000
    238       0.1183      1.00000
    239       0.1186      1.00000
    240       0.1577      1.00000
    241       0.1627      1.00000
    242       0.1767      1.00000
    243       0.1792      1.00000
    244       0.1820      1.00000
    245       0.1821      1.00000
    246       0.1855      1.00000
    247       0.1892      1.00000
    248       0.1933      1.00000
    249       0.1942      1.00000
    250       0.2005      1.00000
    251       0.2015      1.00000
    252       0.2387      1.00000
    253       0.2511      1.00000
    254       0.2566      1.00000
    255       0.2574      1.00000
    256       0.2767      1.00000
    257       0.3373      1.00000
    258       0.3475      1.00000
    259       0.3588      1.00000
    260       0.3590      1.00000
    261       0.3603      1.00000
    262       0.3610      1.00000
    263       0.3883      1.00000
    264       0.4016      1.00000
    265       0.4525      1.00000
    266       0.4526      1.00000
    267       0.5788      1.00000
    268       0.5789      1.00000
    269       0.5842      1.00000
    270       0.6017      1.00000
    271       0.6023      1.00000
    272       0.6065      1.00000
    273       0.6079      1.00000
    274       0.6399      1.00000
    275       0.6510      1.00000
    276       0.6514      1.00000
    277       0.6616      1.00000
    278       0.6628      1.00000
    279       0.6656      1.00000
    280       0.6731      1.00000
    281       0.6749      1.00000
    282       0.6750      1.00000
    283       0.6968      1.00000
    284       0.7229      1.00000
    285       0.7833      1.00000
    286       0.8197      1.00000
    287       0.8296      1.00000
    288       0.8321      1.00000
    289       0.8322      1.00000
    290       0.8608      1.00000
    291       0.8616      1.00000
    292       0.9093      1.00000
    293       0.9404      1.00000
    294       0.9479      1.00000
    295       0.9486      1.00000
    296       0.9832      1.00000
    297       1.0259      1.00000
    298       1.0704      1.00000
    299       1.2693      1.00000
    300       1.2982      1.00000
    301       1.2982      1.00000
    302       1.3117      1.00000
    303       1.3329      1.00000
    304       1.3335      1.00000
    305       1.3379      1.00000
    306       1.3845      1.00000
    307       1.4050      1.00000
    308       1.4283      1.00000
    309       1.4670      1.00000
    310       1.4679      1.00000
    311       1.4681      1.00000
    312       1.4815      1.00000
    313       1.5105      1.00000
    314       1.5115      1.00000
    315       1.5410      1.00000
    316       1.5611      1.00000
    317       1.5770      1.00000
    318       1.6463      1.00000
    319       1.6555      1.00000
    320       1.7561      1.00000
    321       1.7564      1.00000
    322       1.7630      1.00000
    323       1.7784      1.00000
    324       1.8018      1.00000
    325       1.8037      1.00000
    326       1.8108      1.00000
    327       1.8233      1.00000
    328       1.8360      1.00000
    329       1.8373      1.00000
    330       1.8460      1.00000
    331       1.8468      1.00000
    332       1.8784      1.00000
    333       1.8903      1.00000
    334       1.9466      1.00000
    335       1.9933      1.00000
    336       1.9937      1.00000
    337       2.0060      1.00000
    338       2.0069      1.00000
    339       2.0100      1.00000
    340       2.0187      1.00000
    341       2.0200      1.00000
    342       2.0204      1.00000
    343       2.0397      1.00000
    344       2.0463      1.00000
    345       2.0473      1.00000
    346       2.0571      1.00000
    347       2.0686      1.00000
    348       2.0690      1.00000
    349       2.0915      1.00000
    350       2.1131      1.00000
    351       2.1896      1.00000
    352       2.1919      1.00000
    353       2.2469      1.00000
    354       2.2471      1.00000
    355       2.2706      1.00000
    356       2.2730      1.00000
    357       2.2846      1.00000
    358       2.4278      1.00000
    359       2.4661      1.00000
    360       2.4668      1.00000
    361       2.4776      1.00000
    362       2.5036      1.00000
    363       2.5275      1.00000
    364       2.5543      1.00000
    365       2.5922      1.00000
    366       2.6267      1.00000
    367       2.6269      1.00000
    368       2.6561      1.00000
    369       2.7378      1.00000
    370       2.7391      1.00000
    371       2.7605      1.00000
    372       2.7615      1.00000
    373       2.8339      1.00000
    374       2.8724      1.00000
    375       2.9267      1.00000
    376       2.9344      1.00000
    377       2.9345      1.00000
    378       2.9690      1.00000
    379       3.0275      1.00000
    380       3.0275      1.00000
    381       3.0616      1.00000
    382       3.0970      1.00000
    383       3.3081      1.00000
    384       3.3102      1.00000
    385       3.3481      1.00000
    386       3.3757      1.00000
    387       3.4212      1.00000
    388       3.4223      1.00000
    389       3.4405      1.00000
    390       3.4584      1.00000
    391       3.4587      1.00000
    392       3.5316      1.00000
    393       3.7480      1.00000
    394       3.8083      1.00000
    395       3.8091      1.00000
    396       3.8153      1.00000
    397       3.8154      1.00000
    398       3.8824      1.00000
    399       3.8827      1.00000
    400       3.9331      1.00000
    401       3.9344      1.00000
    402       3.9404      1.00000
    403       3.9408      1.00000
    404       4.0384      1.00000
    405       4.0406      1.00000
    406       4.0703      1.00000
    407       4.1387      1.00000
    408       4.1492      1.00000
    409       4.1513      1.00000
    410       4.3147      1.00000
    411       4.3184      1.00000
    412       4.3381      1.00000
    413       4.3584      1.00000
    414       4.3586      1.00000
    415       4.4285      1.00000
    416       4.4441      1.00000
    417       4.4466      1.00000
    418       4.4541      1.00000
    419       4.4565      1.00000
    420       4.4566      1.00000
    421       4.6362      1.00000
    422       4.6366      1.00000
    423       4.7321      1.00000
    424       4.7328      1.00000
    425       4.7641      1.00000
    426       4.7641      1.00000
    427       4.7695      1.00000
    428       4.7697      1.00000
    429       4.8108      1.00000
    430       4.8524      1.00000
    431       4.8541      1.00000
    432       4.8571      1.00000
    433       7.3436      0.00000
    434       8.1284      0.00000
    435       8.4449      0.00000
    436       8.6415      0.00000
    437       8.6435      0.00000
    438       8.8581      0.00000
    439       9.0846      0.00000
    440       9.0846      0.00000
    441       9.2606      0.00000
    442       9.2739      0.00000
    443       9.2889      0.00000
    444       9.2894      0.00000
    445       9.7261      0.00000
    446       9.7717      0.00000
    447       9.7720      0.00000
    448       9.7903      0.00000
    449       9.8546      0.00000
    450       9.8547      0.00000
    451       9.8590      0.00000
    452       9.8788      0.00000
    453       9.8894      0.00000
    454      10.0601      0.00000
    455      10.0835      0.00000
    456      10.1361      0.00000
    457      10.1364      0.00000
    458      10.3061      0.00000
    459      10.3062      0.00000
    460      10.4166      0.00000
    461      10.5266      0.00000
    462      10.5706      0.00000
    463      10.5714      0.00000
    464      10.5722      0.00000
    465      10.5782      0.00000
    466      10.5788      0.00000
    467      10.6758      0.00000
    468      10.9760      0.00000
    469      11.0193      0.00000
    470      11.0194      0.00000
    471      11.0406      0.00000
    472      11.0407      0.00000
    473      11.0779      0.00000
    474      11.1279      0.00000
    475      11.1781      0.00000
    476      11.1888      0.00000
    477      11.2290      0.00000
    478      11.2492      0.00000
    479      11.2496      0.00000
    480      11.2904      0.00000
    481      11.3065      0.00000
    482      11.4171      0.00000
    483      11.4180      0.00000
    484      11.4588      0.00000
    485      11.5210      0.00000
    486      11.5212      0.00000
    487      11.5306      0.00000
    488      11.5765      0.00000
    489      11.6797      0.00000
    490      11.6799      0.00000
    491      11.7973      0.00000
    492      11.7974      0.00000
    493      11.8156      0.00000
    494      11.8158      0.00000
    495      11.8823      0.00000
    496      11.9423      0.00000
    497      11.9756      0.00000
    498      11.9773      0.00000
    499      11.9812      0.00000
    500      12.0278      0.00000
    501      12.0282      0.00000
    502      12.0591      0.00000
    503      12.1610      0.00000
    504      12.2425      0.00000
    505      12.2567      0.00000
    506      12.2571      0.00000
    507      12.3159      0.00000
    508      12.3161      0.00000
    509      12.3207      0.00000
    510      12.3468      0.00000
    511      12.4617      0.00000
    512      12.4808      0.00000
    513      12.5164      0.00000
    514      12.5170      0.00000
    515      12.6140      0.00000
    516      12.6143      0.00000
    517      12.6598      0.00000
    518      12.6630      0.00000
    519      12.6639      0.00000
    520      12.6906      0.00000
    521      12.7473      0.00000
    522      12.8324      0.00000
    523      12.8717      0.00000
    524      12.8731      0.00000
    525      12.8738      0.00000
    526      13.1199      0.00000
    527      13.1204      0.00000
    528      13.2008      0.00000
    529      13.3826      0.00000
    530      13.4091      0.00000
    531      13.4130      0.00000
    532      13.4343      0.00000
    533      13.4384      0.00000
    534      13.4562      0.00000
    535      13.4959      0.00000
    536      13.5122      0.00000
    537      13.5452      0.00000
    538      13.5554      0.00000

 k-point     2 :       0.3333    0.0000    0.0000
  band No.  band energies     occupation 
      1     -51.0567      1.00000
      2     -51.0554      1.00000
      3     -51.0546      1.00000
      4     -51.0545      1.00000
      5     -51.0542      1.00000
      6     -51.0541      1.00000
      7     -51.0536      1.00000
      8     -51.0532      1.00000
      9     -51.0531      1.00000
     10     -51.0526      1.00000
     11     -51.0525      1.00000
     12     -51.0519      1.00000
     13     -51.0517      1.00000
     14     -51.0514      1.00000
     15     -51.0510      1.00000
     16     -51.0505      1.00000
     17     -51.0482      1.00000
     18     -51.0449      1.00000
     19     -51.0445      1.00000
     20     -51.0442      1.00000
     21     -51.0438      1.00000
     22     -51.0435      1.00000
     23     -51.0434      1.00000
     24     -51.0429      1.00000
     25     -51.0406      1.00000
     26     -51.0401      1.00000
     27     -51.0399      1.00000
     28     -51.0397      1.00000
     29     -51.0393      1.00000
     30     -51.0390      1.00000
     31     -51.0388      1.00000
     32     -51.0337      1.00000
     33     -49.7057      1.00000
     34     -49.7022      1.00000
     35     -49.7019      1.00000
     36     -49.7017      1.00000
     37     -49.7013      1.00000
     38     -49.7011      1.00000
     39     -49.7010      1.00000
     40     -49.6997      1.00000
     41     -49.6960      1.00000
     42     -49.6947      1.00000
     43     -49.6945      1.00000
     44     -49.6944      1.00000
     45     -49.6940      1.00000
     46     -49.6937      1.00000
     47     -49.6935      1.00000
     48     -49.6900      1.00000
[...]
   -.139E+00 0.109E+00 -.260E+02   0.134E+00 -.105E+00 0.257E+02   0.375E-02 -.375E-02 0.254E+00   0.195E-03 -.972E-04 0.278E-03
   0.647E-02 -.394E-02 -.259E+02   -.621E-02 0.447E-02 0.257E+02   -.135E-03 -.534E-03 0.251E+00   -.453E-04 -.147E-04 0.266E-03
   -.129E-01 -.144E-01 -.259E+02   0.116E-01 0.137E-01 0.257E+02   0.824E-03 0.216E-03 0.250E+00   0.113E-03 0.656E-04 0.190E-03
   0.172E+00 -.191E+00 -.421E+02   -.164E+00 0.183E+00 0.421E+02   -.997E-02 0.914E-02 0.207E-01   -.187E-03 0.282E-03 0.161E-03
   -.990E-03 0.935E-02 -.420E+02   0.569E-03 -.912E-02 0.420E+02   0.757E-04 -.615E-03 0.105E-01   0.595E-04 0.108E-03 -.288E-04
   0.113E-01 0.362E-01 -.421E+02   -.992E-02 -.338E-01 0.420E+02   -.993E-03 -.197E-02 0.105E-01   -.101E-03 -.111E-05 0.155E-05
   0.518E-02 0.144E-01 -.421E+02   -.447E-02 -.137E-01 0.420E+02   -.641E-03 -.894E-03 0.105E-01   -.211E-04 0.629E-04 0.871E-05
   0.159E+02 0.147E+02 -.126E+03   -.162E+02 -.151E+02 0.131E+03   0.386E+00 0.397E+00 -.462E+01   0.962E-04 0.416E-03 0.317E-03
   0.159E+02 0.149E+02 -.126E+03   -.163E+02 -.153E+02 0.131E+03   0.386E+00 0.381E+00 -.463E+01   -.154E-03 0.197E-03 0.233E-03
   0.159E+02 0.151E+02 -.126E+03   -.162E+02 -.155E+02 0.131E+03   0.390E+00 0.362E+00 -.462E+01   -.428E-03 0.531E-04 0.241E-03
   0.159E+02 0.149E+02 -.126E+03   -.163E+02 -.153E+02 0.131E+03   0.386E+00 0.380E+00 -.463E+01   -.214E-03 0.138E-03 0.235E-03
   -.157E+02 -.149E+02 -.126E+03   0.161E+02 0.153E+02 0.131E+03   -.412E+00 -.376E+00 -.461E+01   -.191E-03 -.419E-03 0.492E-03
   -.161E+02 -.149E+02 -.126E+03   0.164E+02 0.153E+02 0.131E+03   -.376E+00 -.381E+00 -.462E+01   0.138E-03 0.623E-04 0.184E-03
   -.159E+02 -.149E+02 -.126E+03   0.163E+02 0.153E+02 0.131E+03   -.390E+00 -.379E+00 -.463E+01   -.117E-03 -.165E-03 0.252E-03
   -.159E+02 -.149E+02 -.126E+03   0.163E+02 0.153E+02 0.131E+03   -.389E+00 -.379E+00 -.463E+01   -.558E-04 -.213E-03 0.191E-03
   0.159E+02 -.147E+02 0.126E+03   -.163E+02 0.151E+02 -.131E+03   0.389E+00 -.397E+00 0.464E+01   0.258E-03 -.397E-03 -.330E-03
   0.159E+02 -.149E+02 0.126E+03   -.163E+02 0.153E+02 -.131E+03   0.389E+00 -.380E+00 0.463E+01   -.104E-03 -.206E-03 -.368E-03
   0.159E+02 -.151E+02 0.126E+03   -.163E+02 0.154E+02 -.131E+03   0.393E+00 -.361E+00 0.464E+01   -.175E-03 -.161E-04 -.303E-03
   0.159E+02 -.149E+02 0.126E+03   -.163E+02 0.153E+02 -.131E+03   0.389E+00 -.379E+00 0.463E+01   0.387E-04 -.147E-03 -.398E-03
   -.160E+02 0.149E+02 0.126E+03   0.164E+02 -.153E+02 -.131E+03   -.373E+00 0.382E+00 0.463E+01   0.375E-03 0.433E-04 -.358E-03
   -.157E+02 0.149E+02 0.126E+03   0.161E+02 -.153E+02 -.131E+03   -.409E+00 0.378E+00 0.464E+01   -.160E-03 0.406E-03 -.209E-03
   -.159E+02 0.149E+02 0.126E+03   0.163E+02 -.153E+02 -.131E+03   -.386E+00 0.380E+00 0.463E+01   0.206E-03 0.212E-03 -.513E-03
   -.159E+02 0.149E+02 0.126E+03   0.163E+02 -.153E+02 -.131E+03   -.387E+00 0.380E+00 0.463E+01   0.832E-04 0.176E-03 -.319E-03
   0.280E+02 0.282E+02 0.331E+02   -.283E+02 -.285E+02 -.336E+02   0.351E+00 0.353E+00 0.536E+00   -.464E-04 0.131E-04 0.111E-03
   0.280E+02 0.282E+02 0.333E+02   -.284E+02 -.285E+02 -.338E+02   0.350E+00 0.353E+00 0.521E+00   -.803E-04 0.330E-04 0.162E-03
   0.280E+02 0.282E+02 0.333E+02   -.284E+02 -.285E+02 -.338E+02   0.350E+00 0.353E+00 0.520E+00   -.291E-05 0.948E-04 0.509E-04
   0.280E+02 0.282E+02 0.333E+02   -.284E+02 -.285E+02 -.338E+02   0.351E+00 0.353E+00 0.519E+00   0.550E-04 0.143E-03 -.172E-04
   -.279E+02 -.282E+02 0.333E+02   0.283E+02 0.286E+02 -.338E+02   -.348E+00 -.355E+00 0.520E+00   -.691E-05 -.153E-03 -.171E-04
   -.279E+02 -.282E+02 0.333E+02   0.282E+02 0.286E+02 -.338E+02   -.350E+00 -.354E+00 0.521E+00   -.747E-04 -.193E-03 0.203E-03
   -.279E+02 -.282E+02 0.333E+02   0.283E+02 0.286E+02 -.338E+02   -.348E+00 -.353E+00 0.520E+00   0.764E-04 -.468E-04 0.270E-04
   -.279E+02 -.282E+02 0.333E+02   0.282E+02 0.286E+02 -.338E+02   -.351E+00 -.353E+00 0.521E+00   0.204E-05 -.509E-04 -.792E-04
   0.279E+02 -.282E+02 -.336E+02   -.283E+02 0.286E+02 0.341E+02   0.349E+00 -.353E+00 -.502E+00   -.614E-04 -.987E-04 0.120E-03
   0.279E+02 -.282E+02 -.334E+02   -.283E+02 0.286E+02 0.339E+02   0.349E+00 -.354E+00 -.517E+00   0.130E-03 -.600E-04 0.181E-03
   0.279E+02 -.282E+02 -.333E+02   -.283E+02 0.286E+02 0.339E+02   0.349E+00 -.354E+00 -.518E+00   0.121E-03 -.109E-03 0.188E-03
   0.279E+02 -.282E+02 -.333E+02   -.283E+02 0.286E+02 0.339E+02   0.349E+00 -.354E+00 -.518E+00   -.196E-04 -.110E-03 0.111E-03
   -.280E+02 0.282E+02 -.334E+02   0.283E+02 -.285E+02 0.339E+02   -.351E+00 0.353E+00 -.517E+00   -.173E-04 0.600E-04 0.262E-03
   -.280E+02 0.282E+02 -.334E+02   0.284E+02 -.285E+02 0.339E+02   -.349E+00 0.354E+00 -.518E+00   0.147E-03 0.147E-03 -.133E-05
   -.280E+02 0.282E+02 -.334E+02   0.283E+02 -.286E+02 0.339E+02   -.352E+00 0.352E+00 -.517E+00   0.510E-05 0.185E-03 0.120E-03
   -.280E+02 0.282E+02 -.334E+02   0.284E+02 -.286E+02 0.339E+02   -.350E+00 0.353E+00 -.518E+00   0.132E-03 -.523E-04 0.178E-03
   0.945E+01 0.182E+00 0.281E+01   -.957E+01 -.180E+00 -.277E+01   0.141E+00 -.815E-02 -.104E+00   0.373E-03 -.143E-04 -.230E-02
   0.993E+01 0.468E-01 0.259E-01   -.100E+02 -.475E-01 -.252E-01   0.114E+00 0.482E-03 -.118E-02   -.308E-03 0.168E-03 -.112E-03
   0.989E+01 0.471E-01 0.286E-01   -.100E+02 -.475E-01 -.277E-01   0.115E+00 0.395E-03 -.146E-02   -.223E-03 -.200E-04 -.965E-04
   0.991E+01 0.469E-01 0.395E-02   -.100E+02 -.475E-01 -.365E-02   0.114E+00 0.462E-03 -.280E-03   -.379E-03 0.721E-04 -.432E-04
   -.988E+01 0.156E-01 0.787E-01   0.100E+02 -.167E-01 -.786E-01   -.115E+00 0.153E-02 -.964E-03   0.724E-04 0.643E-04 0.218E-04
   -.988E+01 0.788E-01 0.804E-01   0.100E+02 -.785E-01 -.800E-01   -.115E+00 -.890E-03 -.124E-02   0.347E-03 -.231E-04 -.520E-04
   -.988E+01 0.790E-01 0.795E-01   0.100E+02 -.783E-01 -.786E-01   -.116E+00 -.188E-02 -.185E-02   0.356E-03 0.973E-04 -.920E-05
   -.988E+01 0.152E-01 0.808E-01   0.100E+02 -.165E-01 -.800E-01   -.116E+00 0.241E-02 -.190E-02   0.388E-03 -.140E-03 0.160E-04
   0.190E+02 0.188E+02 0.185E+03   -.180E+02 -.177E+02 -.182E+03   -.106E+01 -.108E+01 -.240E+01   0.207E-03 0.438E-03 0.377E-03
   0.190E+02 0.189E+02 0.185E+03   -.180E+02 -.178E+02 -.183E+03   -.106E+01 -.108E+01 -.241E+01   0.453E-03 0.238E-03 -.122E-03
   0.190E+02 0.190E+02 0.185E+03   -.180E+02 -.180E+02 -.183E+03   -.106E+01 -.109E+01 -.240E+01   0.249E-03 0.148E-03 0.923E-03
   0.190E+02 0.189E+02 0.185E+03   -.180E+02 -.179E+02 -.183E+03   -.106E+01 -.108E+01 -.241E+01   0.370E-03 0.219E-03 0.708E-05
   -.188E+02 -.189E+02 0.185E+03   0.177E+02 0.178E+02 -.182E+03   0.106E+01 0.108E+01 -.239E+01   -.324E-03 -.908E-03 0.104E-02
   -.190E+02 -.189E+02 0.185E+03   0.179E+02 0.178E+02 -.183E+03   0.107E+01 0.109E+01 -.240E+01   0.370E-03 -.705E-03 -.841E-04
   -.189E+02 -.189E+02 0.185E+03   0.178E+02 0.178E+02 -.183E+03   0.106E+01 0.108E+01 -.241E+01   -.125E-03 -.800E-03 -.177E-03
   -.189E+02 -.189E+02 0.185E+03   0.179E+02 0.178E+02 -.183E+03   0.106E+01 0.109E+01 -.241E+01   0.135E-03 -.697E-03 -.723E-03
   0.189E+02 -.188E+02 -.185E+03   -.178E+02 0.177E+02 0.183E+03   -.106E+01 0.108E+01 0.242E+01   -.167E-04 -.981E-03 0.140E-02
   0.189E+02 -.189E+02 -.185E+03   -.178E+02 0.178E+02 0.183E+03   -.106E+01 0.109E+01 0.241E+01   -.201E-04 -.835E-03 0.183E-02
   0.189E+02 -.190E+02 -.185E+03   -.178E+02 0.179E+02 0.183E+03   -.106E+01 0.109E+01 0.242E+01   -.171E-03 -.302E-03 0.172E-02
   0.189E+02 -.189E+02 -.185E+03   -.178E+02 0.178E+02 0.183E+03   -.106E+01 0.109E+01 0.241E+01   -.151E-03 -.724E-03 0.127E-02
   -.191E+02 0.189E+02 -.185E+03   0.181E+02 -.178E+02 0.183E+03   0.107E+01 -.108E+01 0.241E+01   0.144E-03 0.286E-03 0.107E-02
   -.189E+02 0.189E+02 -.185E+03   0.178E+02 -.178E+02 0.183E+03   0.106E+01 -.109E+01 0.243E+01   -.535E-03 0.255E-03 0.215E-02
   -.190E+02 0.189E+02 -.185E+03   0.180E+02 -.179E+02 0.183E+03   0.106E+01 -.109E+01 0.241E+01   -.327E-03 0.304E-03 0.507E-03
   -.190E+02 0.189E+02 -.185E+03   0.179E+02 -.179E+02 0.183E+03   0.106E+01 -.108E+01 0.241E+01   -.531E-03 0.340E-03 0.731E-03
   0.811E+00 -.106E+01 0.208E+03   -.776E+00 0.101E+01 -.211E+03   -.400E-01 0.489E-01 0.210E+01   -.199E-02 0.196E-02 -.735E-03
   -.999E-02 -.884E-01 0.209E+03   0.625E-02 0.811E-01 -.211E+03   0.290E-02 0.614E-02 0.206E+01   0.149E-03 0.239E-03 -.195E-02
   0.441E-01 0.361E-01 0.209E+03   -.395E-01 -.334E-01 -.211E+03   -.337E-02 -.130E-02 0.206E+01   -.258E-03 -.336E-03 -.174E-02
   0.158E-01 -.633E-01 0.209E+03   -.155E-01 0.606E-01 -.211E+03   0.196E-03 0.298E-02 0.206E+01   -.516E-03 -.426E-03 -.183E-02
   -.765E+00 0.540E+00 0.199E+03   0.730E+00 -.514E+00 -.201E+03   0.358E-01 -.266E-01 0.208E+01   0.109E-02 -.179E-02 -.143E-02
   0.172E+00 0.527E-02 0.199E+03   -.166E+00 -.614E-03 -.201E+03   -.458E-02 -.332E-02 0.206E+01   -.540E-03 -.753E-04 -.160E-02
   -.333E-01 -.121E+00 0.199E+03   0.260E-01 0.114E+00 -.201E+03   0.579E-02 0.537E-02 0.206E+01   0.214E-03 0.442E-03 -.193E-02
   0.576E-01 -.801E-01 0.199E+03   -.566E-01 0.777E-01 -.201E+03   -.451E-03 0.236E-02 0.206E+01   -.390E-03 0.290E-06 -.112E-02
   0.760E+00 0.910E+00 -.199E+03   -.724E+00 -.868E+00 0.202E+03   -.410E-01 -.450E-01 -.202E+01   -.125E-02 -.196E-02 0.193E-02
   -.538E-01 -.349E-01 -.199E+03   0.506E-01 0.382E-01 0.201E+03   0.166E-02 -.175E-02 -.207E+01   0.917E-03 -.720E-03 0.694E-03
   0.264E-02 -.160E+00 -.199E+03   0.246E-02 0.153E+00 0.201E+03   -.428E-02 0.571E-02 -.206E+01   0.159E-03 0.232E-03 0.794E-03
   -.268E-01 -.605E-01 -.199E+03   0.275E-01 0.593E-01 0.201E+03   -.940E-03 0.148E-02 -.206E+01   0.240E-03 -.247E-03 0.991E-03
   0.129E+00 -.129E+00 -.209E+03   -.122E+00 0.120E+00 0.211E+03   -.571E-02 0.731E-02 -.207E+01   -.778E-03 0.679E-03 0.860E-03
   -.811E+00 -.673E+00 -.209E+03   0.778E+00 0.645E+00 0.211E+03   0.334E-01 0.295E-01 -.204E+01   0.151E-02 0.116E-02 0.120E-02
   0.157E-01 -.442E-01 -.209E+03   -.139E-01 0.423E-01 0.211E+03   -.155E-02 0.179E-02 -.206E+01   -.821E-04 0.130E-03 0.142E-02
   -.757E-01 -.258E-02 -.209E+03   0.686E-01 0.503E-02 0.211E+03   0.458E-02 -.811E-03 -.207E+01   0.118E-02 -.768E-03 0.849E-03
 -----------------------------------------------------------------------------------------------
   0.161E-01 -.260E-01 -.225E+00   -.697E-13 -.170E-12 -.398E-12   -.159E-01 0.294E-01 0.219E+00   -.241E-03 -.483E-02 0.605E-02
 
 
 POSITION                                       TOTAL-FORCE (eV/Angst)
 -----------------------------------------------------------------------------------
      2.77841      5.21785      1.58925         0.000563      0.001074      0.002499
      8.33453      5.21785      1.58910         0.000680     -0.000383      0.000108
      2.77841     10.77658      1.58925        -0.000386      0.000380      0.000278
      8.33453     10.77658      1.58910         0.000074      0.000035     -0.000010
      0.00058      2.43861      1.89560         0.000753      0.001214     -0.000024
      5.55670      2.43861      1.89545        -0.000295      0.000308      0.000189
      0.00058      7.99734      1.89560         0.000377     -0.000467      0.000101
      5.55670      7.99734      1.89545         0.000026      0.000083      0.000289
      2.78043      5.21797      8.30298         0.000718      0.000514      0.000027
      8.33655      5.21797      8.30283        -0.001158      0.000672      0.000371
      2.78043     10.77670      8.30298         0.000085     -0.000000      0.000014
      8.33655     10.77670      8.30283        -0.000444     -0.000402      0.000215
      0.00259      2.43849      8.60933        -0.001983      0.001433      0.003265
      5.55871      2.43849      8.60919        -0.000285     -0.000253      0.000237
      0.00259      7.99722      8.60933         0.000287      0.000493      0.000173
      5.55871      7.99722      8.60919         0.000054     -0.000091      0.000278
     -1.37640      1.05960      8.18451        -0.000761      0.005900      0.003161
      4.17971      1.05960      8.18437        -0.000011      0.000196     -0.000142
     -1.37640      6.61833      8.18451         0.001993     -0.006403      0.003131
      4.17971      6.61833      8.18437         0.000037     -0.000128     -0.000176
      1.38116      3.81753      8.18442        -0.008036      0.001869      0.005019
      6.93728      3.81753      8.18427         0.004475     -0.001035      0.001746
      1.38116      9.37626      8.18442        -0.000327      0.000086      0.000013
      6.93728      9.37626      8.18427         0.000040      0.000026     -0.000345
      1.39985      1.03817      2.01416        -0.000643     -0.006012      0.003297
      6.95597      1.03817      2.01401         0.000005     -0.000155      0.000063
      1.39985      6.59689      2.01416         0.002179      0.006528      0.003491
      6.95597      6.59689      2.01401         0.000019      0.000148      0.000010
      4.15741      3.83897      2.01406         0.004479      0.001141      0.001993
      9.71353      3.83897      2.01392        -0.008101     -0.001577      0.005087
      4.15741      9.39769      2.01406         0.000038      0.000018     -0.000151
      9.71353      9.39769      2.01392        -0.000378     -0.000018      0.000220
      1.40044      3.83812      3.78391        -0.000156     -0.000169      0.007923
      6.95656      3.83812      3.78377         0.000124     -0.000169      0.001233
      1.40044      9.39685      3.78391        -0.000113     -0.000161      0.000904
      6.95656      9.39685      3.78377         0.000017     -0.000101      0.000383
      4.15774      1.03891      3.78384         0.000661     -0.000325      0.000855
      9.71386      1.03891      3.78369        -0.000339      0.000087      0.001256
      4.15774      6.59764      3.78384         0.000479      0.000446      0.000711
      9.71386      6.59764      3.78369        -0.000515      0.000368      0.001518
     -1.37674      3.81828      6.41474        -0.000168      0.000132      0.007402
      4.17938      3.81828      6.41460         0.000085      0.000140      0.000831
     -1.37674      9.37700      6.41474        -0.000120      0.000171      0.000504
      4.17938      9.37700      6.41460        -0.000044      0.000136      0.000005
      1.38057      1.05876      6.41466        -0.000427     -0.000038      0.000926
      6.93668      1.05876      6.41452         0.000668      0.000283      0.000458
      1.38057      6.61748      6.41466        -0.000518     -0.000404      0.001139
      6.93668      6.61748      6.41452         0.000413     -0.000387      0.000304
      1.37964      3.82822      0.00966         0.017054     -0.006474     -0.071072
      6.93839      3.82822     -0.00014        -0.000272     -0.000056     -0.000625
      1.38227      9.38694      0.00001         0.000107     -0.000019     -0.000727
      6.93839      9.38694     -0.00014        -0.000217     -0.000018     -0.000025
      1.39874      1.04885     10.19857        -0.000369      0.000529     -0.000842
      6.95485      1.04885     10.19843        -0.000370     -0.000538     -0.000908
      1.39874      6.60758     10.19857        -0.000859     -0.001062     -0.000975
      6.95485      6.60758     10.19843        -0.000817      0.000969     -0.001010
     -1.25763      1.18232      6.18371        -0.000030     -0.000631     -0.001627
      4.29848      1.18232      6.18356        -0.000357     -0.000033     -0.000363
     -1.25763      6.74104      6.18371        -0.000358      0.000620     -0.001846
      4.29848      6.74104      6.18356        -0.000243      0.000059     -0.000225
      1.26131      3.69462      6.18369         0.001152     -0.000126     -0.003757
      6.81742      3.69462      6.18354        -0.000459      0.000080     -0.001141
      1.26131      9.25335      6.18369         0.000359      0.000047     -0.000304
      6.81742      9.25335      6.18354         0.000146     -0.000118     -0.000004
      1.51970      0.91526      4.01489        -0.000143      0.000528     -0.001825
      7.07582      0.91526      4.01474        -0.000307     -0.000004     -0.000483
      1.51970      6.47399      4.01489        -0.000472     -0.000787     -0.002084
      7.07582      6.47399      4.01474        -0.000187     -0.000045     -0.000338
      4.03864      3.96168      4.01487        -0.000520     -0.000137     -0.001341
      9.59476      3.96168      4.01472         0.000787      0.000257     -0.003825
      4.03864      9.52041      4.01487         0.000167      0.000091     -0.000178
      9.59476      9.52041      4.01472         0.000348     -0.000076     -0.000472
      0.00035      5.21813      1.57032        -0.007211      0.006616      0.009746
      5.55647      5.21813      1.57017        -0.000690     -0.000875      0.000699
      0.00035     10.77686      1.57032         0.001013      0.001037      0.000489
      5.55647     10.77686      1.57017         0.000013     -0.000070      0.000279
      2.77849      2.43869      1.57537         0.001857     -0.002892      0.005877
      8.33461      2.43869      1.57522         0.001405      0.001278      0.000405
      2.77849      7.99742      1.57537        -0.001275     -0.001020      0.000750
      8.33461      7.99742      1.57522         0.000166     -0.000081     -0.000240
      0.00252      5.21805      8.62321        -0.006515     -0.005153      0.008539
      5.55864      5.21805      8.62307        -0.000628      0.000831      0.000660
      0.00252     10.77678      8.62321         0.000983     -0.001143      0.000511
      5.55864     10.77678      8.62307         0.000038     -0.000004      0.000310
      2.78066      2.43877      8.62826         0.001478     -0.001261      0.000459
      8.33677      2.43877      8.62811         0.002191      0.003552      0.006236
      2.78066      7.99750      8.62826         0.000185      0.000039     -0.000250
      8.33677      7.99750      8.62811        -0.001271      0.000883      0.000746
 -----------------------------------------------------------------------------------
    total drift:                               -0.000106     -0.001473     -0.000097


--------------------------------------------------------------------------------------------------------



  FREE ENERGIE OF THE ION-ELECTRON SYSTEM (eV)
  ---------------------------------------------------
  free  energy   TOTEN  =      -489.21507932 eV

  energy  without entropy=     -489.21507932  energy(sigma->0) =     -489.21507932
 


--------------------------------------------------------------------------------------------------------


    POTLOK:  cpu time    3.2944: real time    3.3597


--------------------------------------------------------------------------------------------------------


     LOOP+:  cpu time 5930.0691: real time 5983.0030
    4ORBIT:  cpu time    0.0000: real time    0.0000

 total amount of memory used by VASP MPI-rank0  1233264. kBytes
=======================================================================

   base      :      30000. kBytes
   nonl-proj :      75226. kBytes
   fftplans  :      85054. kBytes
   grid      :      64684. kBytes
   one-center:        466. kBytes
   wavefun   :     977834. kBytes
 
  
  
 General timing and accounting informations for this job:
 ========================================================
  
                  Total CPU time used (sec):     6028.659
                            User time (sec):     5967.476
                          System time (sec):       61.183
                         Elapsed time (sec):     6083.686
  
                   Maximum memory used (kb):     1433736.
                   Average memory used (kb):           0.
  
                          Minor page faults:       935072
                          Major page faults:           10
                 Voluntary context switches:        58769
