 224 224   0   0
  0.1357572E+02  0.1537960E-08  0.1537962E-08  0.1395899E-08  0.5000000E-15
  1.000000000000000E-004
  CAR 
 unknown system                          
     17.69845763    -54.42546240  301      5.25708143      1.00000000
    -54.425  0.0000E+00  0.0000E+00  0.0000E+00  0.0000E+00
    -54.185  0.0000E+00  0.0000E+00  0.0000E+00  0.0000E+00
    -53.945  0.0000E+00  0.0000E+00  0.0000E+00  0.0000E+00
    -53.704  0.0000E+00  0.0000E+00  0.0000E+00  0.0000E+00
    -53.464  0.0000E+00  0.0000E+00  0.0000E+00  0.0000E+00
    -53.223  0.0000E+00  0.0000E+00  0.0000E+00  0.0000E+00
    -52.983  0.0000E+00  0.0000E+00  0.0000E+00  0.0000E+00
    -52.743  0.0000E+00  0.0000E+00  0.0000E+00  0.0000E+00
    -52.502  0.0000E+00  0.0000E+00  0.0000E+00  0.0000E+00
    -52.262  0.0000E+00  0.0000E+00  0.0000E+00  0.0000E+00
    -52.021  0.0000E+00  0.0000E+00  0.0000E+00  0.0000E+00
    -51.781  0.0000E+00  0.0000E+00  0.0000E+00  0.0000E+00
    -51.541  0.0000E+00  0.0000E+00  0.0000E+00  0.0000E+00
    -51.300  0.8371E-03  0.0000E+00  0.2012E-03  0.0000E+00
    -51.060  0.2632E+03  0.0000E+00  0.6327E+02  0.0000E+00
    -50.819  0.3018E+01  0.0000E+00  0.6400E+02  0.0000E+00
    -50.579  0.0000E+00  0.0000E+00  0.6400E+02  0.0000E+00
    -50.338  0.0000E+00  0.0000E+00  0.6400E+02  0.0000E+00
    -50.098  0.0000E+00  0.0000E+00  0.6400E+02  0.0000E+00
    -49.858  0.5548E-06  0.0000E+00  0.6400E+02  0.0000E+00
    -49.617  0.4199E+03  0.0000E+00  0.1650E+03  0.0000E+00
    -49.377  0.1125E+03  0.0000E+00  0.1920E+03  0.0000E+00
    -49.136  0.0000E+00  0.0000E+00  0.1920E+03  0.0000E+00
    -48.896  0.0000E+00  0.0000E+00  0.1920E+03  0.0000E+00
    -48.656  0.0000E+00  0.0000E+00  0.1920E+03  0.0000E+00
    -48.415  0.0000E+00  0.0000E+00  0.1920E+03  0.0000E+00
    -48.175  0.0000E+00  0.0000E+00  0.1920E+03  0.0000E+00
    -47.934  0.0000E+00  0.0000E+00  0.1920E+03  0.0000E+00
    -47.694  0.0000E+00  0.0000E+00  0.1920E+03  0.0000E+00
    -47.453  0.0000E+00  0.0000E+00  0.1920E+03  0.0000E+00
    -47.213  0.0000E+00  0.0000E+00  0.1920E+03  0.0000E+00
    -46.973  0.0000E+00  0.0000E+00  0.1920E+03  0.0000E+00
    -46.732  0.0000E+00  0.0000E+00  0.1920E+03  0.0000E+00
    -46.492  0.0000E+00  0.4952E+00  0.1920E+03  0.1191E+00
    -46.251  0.0000E+00  0.2657E+03  0.1920E+03  0.6400E+02
    -46.011  0.0000E+00  0.4755E+01  0.1920E+03  0.6514E+02
    -45.771  0.0000E+00  0.5277E+03  0.1920E+03  0.1920E+03
    -45.530  0.0000E+00  0.2547E-02  0.1920E+03  0.1920E+03
    -45.290  0.0000E+00  0.0000E+00  0.1920E+03  0.1920E+03
    -45.049  0.0000E+00  0.0000E+00  0.1920E+03  0.1920E+03
    -44.809  0.0000E+00  0.0000E+00  0.1920E+03  0.1920E+03
    -44.569  0.0000E+00  0.0000E+00  0.1920E+03  0.1920E+03
    -44.328  0.0000E+00  0.0000E+00  0.1920E+03  0.1920E+03
    -44.088  0.0000E+00  0.0000E+00  0.1920E+03  0.1920E+03
    -43.847  0.0000E+00  0.0000E+00  0.1920E+03  0.1920E+03
    -43.607  0.0000E+00  0.0000E+00  0.1920E+03  0.1920E+03
    -43.366  0.0000E+00  0.0000E+00  0.1920E+03  0.1920E+03
    -43.126  0.0000E+00  0.0000E+00  0.1920E+03  0.1920E+03
    -42.886  0.0000E+00  0.0000E+00  0.1920E+03  0.1920E+03
    -42.645  0.0000E+00  0.0000E+00  0.1920E+03  0.1920E+03
    -42.405  0.0000E+00  0.0000E+00  0.1920E+03  0.1920E+03
    -42.164  0.0000E+00  0.0000E+00  0.1920E+03  0.1920E+03
    -41.924  0.0000E+00  0.0000E+00  0.1920E+03  0.1920E+03
    -41.684  0.0000E+00  0.0000E+00  0.1920E+03  0.1920E+03
    -41.443  0.0000E+00  0.0000E+00  0.1920E+03  0.1920E+03
    -41.203  0.0000E+00  0.0000E+00  0.1920E+03  0.1920E+03
    -40.962  0.0000E+00  0.0000E+00  0.1920E+03  0.1920E+03
    -40.722  0.0000E+00  0.0000E+00  0.1920E+03  0.1920E+03
    -40.482  0.0000E+00  0.0000E+00  0.1920E+03  0.1920E+03
    -40.241  0.0000E+00  0.0000E+00  0.1920E+03  0.1920E+03
    -40.001  0.0000E+00  0.0000E+00  0.1920E+03  0.1920E+03
    -39.760  0.1497E-01  0.1363E-01  0.1920E+03  0.1920E+03
    -39.520  0.2649E+03  0.2648E+03  0.2557E+03  0.2557E+03
    -39.279  0.1309E+01  0.1386E+01  0.2560E+03  0.2560E+03
    -39.039  0.0000E+00  0.0000E+00  0.2560E+03  0.2560E+03
    -38.799  0.0000E+00  0.0000E+00  0.2560E+03  0.2560E+03
    -38.558  0.0000E+00  0.0000E+00  0.2560E+03  0.2560E+03
    -38.318  0.0000E+00  0.0000E+00  0.2560E+03  0.2560E+03
    -38.077  0.0000E+00  0.0000E+00  0.2560E+03  0.2560E+03
    -37.837  0.0000E+00  0.0000E+00  0.2560E+03  0.2560E+03
    -37.597  0.0000E+00  0.0000E+00  0.2560E+03  0.2560E+03
    -37.356  0.0000E+00  0.0000E+00  0.2560E+03  0.2560E+03
    -37.116  0.0000E+00  0.0000E+00  0.2560E+03  0.2560E+03
    -36.875  0.0000E+00  0.0000E+00  0.2560E+03  0.2560E+03
    -36.635  0.0000E+00  0.0000E+00  0.2560E+03  0.2560E+03
    -36.394  0.0000E+00  0.0000E+00  0.2560E+03  0.2560E+03
    -36.154  0.0000E+00  0.0000E+00  0.2560E+03  0.2560E+03
    -35.914  0.0000E+00  0.0000E+00  0.2560E+03  0.2560E+03
    -35.673  0.0000E+00  0.0000E+00  0.2560E+03  0.2560E+03
    -35.433  0.0000E+00  0.0000E+00  0.2560E+03  0.2560E+03
    -35.192  0.0000E+00  0.0000E+00  0.2560E+03  0.2560E+03
    -34.952  0.0000E+00  0.0000E+00  0.2560E+03  0.2560E+03
    -34.712  0.0000E+00  0.0000E+00  0.2560E+03  0.2560E+03
    -34.471  0.0000E+00  0.0000E+00  0.2560E+03  0.2560E+03
    -34.231  0.0000E+00  0.0000E+00  0.2560E+03  0.2560E+03
    -33.990  0.0000E+00  0.0000E+00  0.2560E+03  0.2560E+03
    -33.750  0.0000E+00  0.0000E+00  0.2560E+03  0.2560E+03
    -33.510  0.0000E+00  0.0000E+00  0.2560E+03  0.2560E+03
    -33.269  0.0000E+00  0.0000E+00  0.2560E+03  0.2560E+03
    -33.029  0.0000E+00  0.0000E+00  0.2560E+03  0.2560E+03
    -32.788  0.0000E+00  0.0000E+00  0.2560E+03  0.2560E+03
    -32.548  0.0000E+00  0.0000E+00  0.2560E+03  0.2560E+03
    -32.307  0.0000E+00  0.0000E+00  0.2560E+03  0.2560E+03
    -32.067  0.0000E+00  0.0000E+00  0.2560E+03  0.2560E+03
    -31.827  0.0000E+00  0.0000E+00  0.2560E+03  0.2560E+03
    -31.586  0.0000E+00  0.0000E+00  0.2560E+03  0.2560E+03
    -31.346  0.0000E+00  0.0000E+00  0.2560E+03  0.2560E+03
    -31.105  0.0000E+00  0.0000E+00  0.2560E+03  0.2560E+03
    -30.865  0.0000E+00  0.0000E+00  0.2560E+03  0.2560E+03
    -30.625  0.0000E+00  0.0000E+00  0.2560E+03  0.2560E+03
    -30.384  0.0000E+00  0.0000E+00  0.2560E+03  0.2560E+03
    -30.144  0.0000E+00  0.0000E+00  0.2560E+03  0.2560E+03
    -29.903  0.0000E+00  0.0000E+00  0.2560E+03  0.2560E+03
    -29.663  0.0000E+00  0.0000E+00  0.2560E+03  0.2560E+03
    -29.423  0.0000E+00  0.0000E+00  0.2560E+03  0.2560E+03
    -29.182  0.0000E+00  0.0000E+00  0.2560E+03  0.2560E+03
    -28.942  0.0000E+00  0.0000E+00  0.2560E+03  0.2560E+03
    -28.701  0.0000E+00  0.0000E+00  0.2560E+03  0.2560E+03
    -28.461  0.0000E+00  0.0000E+00  0.2560E+03  0.2560E+03
    -28.220  0.0000E+00  0.0000E+00  0.2560E+03  0.2560E+03
    -27.980  0.0000E+00  0.0000E+00  0.2560E+03  0.2560E+03
    -27.740  0.0000E+00  0.0000E+00  0.2560E+03  0.2560E+03
    -27.499  0.0000E+00  0.0000E+00  0.2560E+03  0.2560E+03
    -27.259  0.0000E+00  0.0000E+00  0.2560E+03  0.2560E+03
    -27.018  0.0000E+00  0.0000E+00  0.2560E+03  0.2560E+03
    -26.778  0.0000E+00  0.0000E+00  0.2560E+03  0.2560E+03
    -26.538  0.0000E+00  0.0000E+00  0.2560E+03  0.2560E+03
    -26.297  0.0000E+00  0.0000E+00  0.2560E+03  0.2560E+03
    -26.057  0.0000E+00  0.0000E+00  0.2560E+03  0.2560E+03
    -25.816  0.0000E+00  0.0000E+00  0.2560E+03  0.2560E+03
    -25.576  0.0000E+00  0.0000E+00  0.2560E+03  0.2560E+03
    -25.335  0.0000E+00  0.0000E+00  0.2560E+03  0.2560E+03
    -25.095  0.0000E+00  0.0000E+00  0.2560E+03  0.2560E+03
    -24.855  0.0000E+00  0.0000E+00  0.2560E+03  0.2560E+03
    -24.614  0.0000E+00  0.0000E+00  0.2560E+03  0.2560E+03
    -24.374  0.0000E+00  0.0000E+00  0.2560E+03  0.2560E+03
    -24.133  0.0000E+00  0.0000E+00  0.2560E+03  0.2560E+03
    -23.893  0.0000E+00  0.0000E+00  0.2560E+03  0.2560E+03
    -23.653  0.0000E+00  0.0000E+00  0.2560E+03  0.2560E+03
    -23.412  0.0000E+00  0.0000E+00  0.2560E+03  0.2560E+03
    -23.172  0.0000E+00  0.0000E+00  0.2560E+03  0.2560E+03
    -22.931  0.0000E+00  0.0000E+00  0.2560E+03  0.2560E+03
    -22.691  0.0000E+00  0.0000E+00  0.2560E+03  0.2560E+03
    -22.451  0.0000E+00  0.0000E+00  0.2560E+03  0.2560E+03
    -22.210  0.0000E+00  0.0000E+00  0.2560E+03  0.2560E+03
    -21.970  0.0000E+00  0.0000E+00  0.2560E+03  0.2560E+03
    -21.729  0.0000E+00  0.0000E+00  0.2560E+03  0.2560E+03
    -21.489  0.0000E+00  0.0000E+00  0.2560E+03  0.2560E+03
    -21.248  0.0000E+00  0.0000E+00  0.2560E+03  0.2560E+03
    -21.008  0.0000E+00  0.0000E+00  0.2560E+03  0.2560E+03
    -20.768  0.0000E+00  0.0000E+00  0.2560E+03  0.2560E+03
    -20.527  0.0000E+00  0.0000E+00  0.2560E+03  0.2560E+03
    -20.287  0.0000E+00  0.0000E+00  0.2560E+03  0.2560E+03
    -20.046  0.0000E+00  0.0000E+00  0.2560E+03  0.2560E+03
    -19.806  0.0000E+00  0.0000E+00  0.2560E+03  0.2560E+03
    -19.566  0.0000E+00  0.0000E+00  0.2560E+03  0.2560E+03
    -19.325  0.0000E+00  0.0000E+00  0.2560E+03  0.2560E+03
    -19.085  0.0000E+00  0.0000E+00  0.2560E+03  0.2560E+03
    -18.844  0.0000E+00  0.0000E+00  0.2560E+03  0.2560E+03
    -18.604  0.0000E+00  0.0000E+00  0.2560E+03  0.2560E+03
    -18.364  0.0000E+00  0.0000E+00  0.2560E+03  0.2560E+03
    -18.123  0.0000E+00  0.0000E+00  0.2560E+03  0.2560E+03
    -17.883  0.0000E+00  0.0000E+00  0.2560E+03  0.2560E+03
    -17.642  0.0000E+00  0.0000E+00  0.2560E+03  0.2560E+03
    -17.402  0.0000E+00  0.0000E+00  0.2560E+03  0.2560E+03
    -17.161  0.0000E+00  0.0000E+00  0.2560E+03  0.2560E+03
    -16.921  0.0000E+00  0.0000E+00  0.2560E+03  0.2560E+03
    -16.681  0.0000E+00  0.0000E+00  0.2560E+03  0.2560E+03
    -16.440  0.0000E+00  0.0000E+00  0.2560E+03  0.2560E+03
    -16.200  0.0000E+00  0.0000E+00  0.2560E+03  0.2560E+03
    -15.959  0.0000E+00  0.0000E+00  0.2560E+03  0.2560E+03
    -15.719  0.0000E+00  0.0000E+00  0.2560E+03  0.2560E+03
    -15.479  0.0000E+00  0.0000E+00  0.2560E+03  0.2560E+03
    -15.238  0.0000E+00  0.0000E+00  0.2560E+03  0.2560E+03
    -14.998  0.0000E+00  0.0000E+00  0.2560E+03  0.2560E+03
    -14.757  0.0000E+00  0.0000E+00  0.2560E+03  0.2560E+03
    -14.517  0.0000E+00  0.0000E+00  0.2560E+03  0.2560E+03
    -14.276  0.0000E+00  0.0000E+00  0.2560E+03  0.2560E+03
    -14.036  0.0000E+00  0.0000E+00  0.2560E+03  0.2560E+03
    -13.796  0.0000E+00  0.0000E+00  0.2560E+03  0.2560E+03
    -13.555  0.0000E+00  0.0000E+00  0.2560E+03  0.2560E+03
    -13.315  0.0000E+00  0.0000E+00  0.2560E+03  0.2560E+03
    -13.074  0.0000E+00  0.0000E+00  0.2560E+03  0.2560E+03
    -12.834  0.8536E-01  0.0000E+00  0.2560E+03  0.2560E+03
    -12.594  0.1319E+03  0.1694E-02  0.2877E+03  0.2560E+03
    -12.353  0.1078E+01  0.1234E+03  0.2880E+03  0.2857E+03
    -12.113  0.0000E+00  0.9669E+01  0.2880E+03  0.2880E+03
    -11.872  0.0000E+00  0.0000E+00  0.2880E+03  0.2880E+03
    -11.632  0.0000E+00  0.0000E+00  0.2880E+03  0.2880E+03
    -11.392  0.0000E+00  0.0000E+00  0.2880E+03  0.2880E+03
    -11.151  0.0000E+00  0.0000E+00  0.2880E+03  0.2880E+03
    -10.911  0.0000E+00  0.0000E+00  0.2880E+03  0.2880E+03
    -10.670  0.0000E+00  0.0000E+00  0.2880E+03  0.2880E+03
    -10.430  0.0000E+00  0.0000E+00  0.2880E+03  0.2880E+03
    -10.189  0.0000E+00  0.0000E+00  0.2880E+03  0.2880E+03
     -9.949  0.0000E+00  0.0000E+00  0.2880E+03  0.2880E+03
     -9.709  0.0000E+00  0.0000E+00  0.2880E+03  0.2880E+03
     -9.468  0.0000E+00  0.0000E+00  0.2880E+03  0.2880E+03
     -9.228  0.0000E+00  0.0000E+00  0.2880E+03  0.2880E+03
     -8.987  0.0000E+00  0.0000E+00  0.2880E+03  0.2880E+03
     -8.747  0.0000E+00  0.0000E+00  0.2880E+03  0.2880E+03
     -8.507  0.0000E+00  0.0000E+00  0.2880E+03  0.2880E+03
     -8.266  0.0000E+00  0.0000E+00  0.2880E+03  0.2880E+03
     -8.026  0.4372E-10  0.0000E+00  0.2880E+03  0.2880E+03
     -7.785  0.9108E+00  0.3603E-07  0.2882E+03  0.2880E+03
     -7.545  0.1877E+02  0.2803E+01  0.2927E+03  0.2887E+03
     -7.305  0.2812E+02  0.2227E+02  0.2995E+03  0.2940E+03
     -7.064  0.5356E+02  0.3100E+02  0.3124E+03  0.3015E+03
     -6.824  0.1469E+03  0.4885E+02  0.3477E+03  0.3132E+03
     -6.583  0.1797E+02  0.1389E+03  0.3520E+03  0.3466E+03
     -6.343  0.0000E+00  0.2240E+02  0.3520E+03  0.3520E+03
     -6.102  0.0000E+00  0.1262E-04  0.3520E+03  0.3520E+03
     -5.862  0.0000E+00  0.0000E+00  0.3520E+03  0.3520E+03
     -5.622  0.0000E+00  0.0000E+00  0.3520E+03  0.3520E+03
     -5.381  0.0000E+00  0.0000E+00  0.3520E+03  0.3520E+03
     -5.141  0.0000E+00  0.0000E+00  0.3520E+03  0.3520E+03
     -4.900  0.0000E+00  0.0000E+00  0.3520E+03  0.3520E+03
     -4.660  0.0000E+00  0.0000E+00  0.3520E+03  0.3520E+03
     -4.420  0.0000E+00  0.0000E+00  0.3520E+03  0.3520E+03
     -4.179  0.0000E+00  0.0000E+00  0.3520E+03  0.3520E+03
     -3.939  0.0000E+00  0.0000E+00  0.3520E+03  0.3520E+03
     -3.698  0.0000E+00  0.0000E+00  0.3520E+03  0.3520E+03
     -3.458  0.0000E+00  0.0000E+00  0.3520E+03  0.3520E+03
     -3.217  0.0000E+00  0.0000E+00  0.3520E+03  0.3520E+03
     -2.977  0.0000E+00  0.0000E+00  0.3520E+03  0.3520E+03
     -2.737  0.0000E+00  0.0000E+00  0.3520E+03  0.3520E+03
     -2.496  0.0000E+00  0.0000E+00  0.3520E+03  0.3520E+03
     -2.256  0.0000E+00  0.0000E+00  0.3520E+03  0.3520E+03
     -2.015  0.0000E+00  0.0000E+00  0.3520E+03  0.3520E+03
     -1.775  0.5380E-12  0.0000E+00  0.3520E+03  0.3520E+03
     -1.535  0.1270E+01  0.0000E+00  0.3523E+03  0.3520E+03
     -1.294  0.1001E+03  0.0000E+00  0.3764E+03  0.3520E+03
     -1.054  0.3173E+02  0.0000E+00  0.3840E+03  0.3520E+03
     -0.813  0.1245E+02  0.0000E+00  0.3870E+03  0.3520E+03
     -0.573  0.8943E+02  0.7963E-05  0.4085E+03  0.3520E+03
     -0.333  0.2237E+03  0.4076E+01  0.4623E+03  0.3530E+03
     -0.092  0.2015E+03  0.2467E+02  0.5107E+03  0.3589E+03
      0.148  0.1769E+03  0.4108E+02  0.5533E+03  0.3688E+03
      0.389  0.1518E+03  0.4239E+02  0.5897E+03  0.3790E+03
      0.629  0.1198E+03  0.7188E+02  0.6185E+03  0.3963E+03
      0.870  0.5441E+02  0.6048E+02  0.6316E+03  0.4108E+03
      1.110  0.6963E+02  0.6539E+02  0.6484E+03  0.4265E+03
      1.350  0.7346E+02  0.6775E+02  0.6660E+03  0.4428E+03
      1.591  0.6803E+02  0.7756E+02  0.6824E+03  0.4615E+03
      1.831  0.1106E+03  0.1111E+03  0.7089E+03  0.4882E+03
      2.072  0.2136E+03  0.6199E+02  0.7603E+03  0.5031E+03
      2.312  0.1399E+03  0.3784E+02  0.7939E+03  0.5122E+03
      2.552  0.8449E+02  0.7745E+02  0.8142E+03  0.5308E+03
      2.793  0.6865E+02  0.1040E+03  0.8308E+03  0.5558E+03
      3.033  0.3528E+02  0.7074E+02  0.8392E+03  0.5728E+03
      3.274  0.4043E+02  0.1313E+03  0.8490E+03  0.6044E+03
      3.514  0.5192E+02  0.1173E+03  0.8614E+03  0.6326E+03
      3.754  0.6737E+02  0.2513E+02  0.8776E+03  0.6386E+03
      3.995  0.7977E+02  0.4394E+02  0.8968E+03  0.6492E+03
      4.235  0.8007E+02  0.1786E+03  0.9161E+03  0.6921E+03
      4.476  0.7577E+02  0.4786E+02  0.9343E+03  0.7036E+03
      4.716  0.2870E+02  0.1665E+01  0.9412E+03  0.7040E+03
      4.957  0.6461E+02  0.0000E+00  0.9567E+03  0.7040E+03
      5.197  0.1370E+02  0.0000E+00  0.9600E+03  0.7040E+03
      5.437  0.0000E+00  0.0000E+00  0.9600E+03  0.7040E+03
      5.678  0.0000E+00  0.0000E+00  0.9600E+03  0.7040E+03
      5.918  0.0000E+00  0.0000E+00  0.9600E+03  0.7040E+03
      6.159  0.0000E+00  0.8866E-07  0.9600E+03  0.7040E+03
      6.399  0.0000E+00  0.1032E+01  0.9600E+03  0.7042E+03
      6.639  0.0000E+00  0.1013E+02  0.9600E+03  0.7067E+03
      6.880  0.0000E+00  0.2655E+02  0.9600E+03  0.7131E+03
      7.120  0.2886E-16  0.6586E+02  0.9600E+03  0.7289E+03
      7.361  0.5914E-01  0.1114E+03  0.9600E+03  0.7557E+03
      7.601  0.1501E+01  0.1393E+03  0.9604E+03  0.7892E+03
      7.842  0.5147E+01  0.1182E+03  0.9616E+03  0.8176E+03
      8.082  0.7083E+01  0.1787E+03  0.9633E+03  0.8605E+03
      8.322  0.9298E+01  0.1457E+03  0.9656E+03  0.8956E+03
      8.563  0.1252E+02  0.6201E+02  0.9686E+03  0.9105E+03
      8.803  0.1451E+02  0.8255E+02  0.9720E+03  0.9303E+03
      9.044  0.2713E+02  0.7293E+02  0.9786E+03  0.9479E+03
      9.284  0.3347E+02  0.5732E+02  0.9866E+03  0.9616E+03
      9.524  0.3542E+02  0.2314E+02  0.9951E+03  0.9672E+03
      9.765  0.5317E+02  0.3406E+02  0.1008E+04  0.9754E+03
     10.005  0.5115E+02  0.2267E+02  0.1020E+04  0.9808E+03
     10.246  0.3385E+02  0.3880E+02  0.1028E+04  0.9902E+03
     10.486  0.2157E+02  0.4336E+02  0.1034E+04  0.1001E+04
     10.726  0.4557E+02  0.6114E+02  0.1044E+04  0.1015E+04
     10.967  0.3308E+02  0.4346E+02  0.1052E+04  0.1026E+04
     11.207  0.4361E+02  0.4018E+02  0.1063E+04  0.1035E+04
     11.448  0.7799E+02  0.3453E+02  0.1082E+04  0.1044E+04
     11.688  0.4281E+02  0.4375E+02  0.1092E+04  0.1054E+04
     11.929  0.6451E+02  0.5195E+02  0.1107E+04  0.1067E+04
     12.169  0.6672E+02  0.5744E+02  0.1124E+04  0.1081E+04
     12.409  0.6928E+02  0.5325E+02  0.1140E+04  0.1093E+04
     12.650  0.6094E+02  0.6698E+02  0.1155E+04  0.1109E+04
     12.890  0.5277E+02  0.7974E+02  0.1168E+04  0.1129E+04
     13.131  0.5849E+02  0.6456E+02  0.1182E+04  0.1144E+04
     13.371  0.4851E+02  0.6635E+02  0.1193E+04  0.1160E+04
     13.611  0.4033E+02  0.6464E+02  0.1203E+04  0.1176E+04
     13.852  0.1862E+02  0.5724E+02  0.1207E+04  0.1189E+04
     14.092  0.2479E+01  0.5311E+02  0.1208E+04  0.1202E+04
     14.333  0.0000E+00  0.2129E+02  0.1208E+04  0.1207E+04
     14.573  0.0000E+00  0.3089E+01  0.1208E+04  0.1208E+04
     14.814  0.0000E+00  0.3926E-05  0.1208E+04  0.1208E+04
     15.054  0.0000E+00  0.0000E+00  0.1208E+04  0.1208E+04
     15.294  0.0000E+00  0.0000E+00  0.1208E+04  0.1208E+04
     15.535  0.0000E+00  0.0000E+00  0.1208E+04  0.1208E+04
     15.775  0.0000E+00  0.0000E+00  0.1208E+04  0.1208E+04
     16.016  0.0000E+00  0.0000E+00  0.1208E+04  0.1208E+04
     16.256  0.0000E+00  0.0000E+00  0.1208E+04  0.1208E+04
     16.496  0.0000E+00  0.0000E+00  0.1208E+04  0.1208E+04
     16.737  0.0000E+00  0.0000E+00  0.1208E+04  0.1208E+04
     16.977  0.0000E+00  0.0000E+00  0.1208E+04  0.1208E+04
     17.218  0.0000E+00  0.0000E+00  0.1208E+04  0.1208E+04
     17.458  0.0000E+00  0.0000E+00  0.1208E+04  0.1208E+04
     17.698  0.0000E+00  0.0000E+00  0.1208E+04  0.1208E+04
