  224  224    1    2
  0.1357572E+02  0.1537960E-08  0.1537962E-08  0.1395899E-08  0.5000000E-15
  1.000000000000000E-004
  CAR 
 unknown system                          
   1664      8   1208
 
  0.0000000E+00  0.0000000E+00  0.0000000E+00  0.1250000E+00
    1      -51.147100    -46.395533   1.000000   1.000000
    2      -51.141806    -46.391221   1.000000   1.000000
    3      -51.141663    -46.390866   1.000000   1.000000
    4      -51.141545    -46.390815   1.000000   1.000000
    5      -51.141433    -46.390670   1.000000   1.000000
    6      -51.141347    -46.390632   1.000000   1.000000
    7      -51.141316    -46.390506   1.000000   1.000000
    8      -51.141207    -46.390421   1.000000   1.000000
    9      -51.141180    -46.390334   1.000000   1.000000
   10      -51.141093    -46.390263   1.000000   1.000000
   11      -51.141047    -46.390165   1.000000   1.000000
   12      -51.141001    -46.390126   1.000000   1.000000
   13      -51.140943    -46.390047   1.000000   1.000000
   14      -51.140900    -46.389998   1.000000   1.000000
   15      -51.140883    -46.389977   1.000000   1.000000
   16      -51.140858    -46.389916   1.000000   1.000000
   17      -51.140852    -46.389880   1.000000   1.000000
   18      -51.140796    -46.389863   1.000000   1.000000
   19      -51.140721    -46.389769   1.000000   1.000000
   20      -51.140701    -46.389733   1.000000   1.000000
   21      -51.140691    -46.389706   1.000000   1.000000
   22      -51.140671    -46.389665   1.000000   1.000000
   23      -51.140582    -46.389594   1.000000   1.000000
   24      -51.140559    -46.389587   1.000000   1.000000
   25      -51.140552    -46.389566   1.000000   1.000000
   26      -51.140539    -46.389538   1.000000   1.000000
   27      -51.140519    -46.389525   1.000000   1.000000
   28      -51.140513    -46.389469   1.000000   1.000000
   29      -51.140503    -46.389445   1.000000   1.000000
   30      -51.140436    -46.389291   1.000000   1.000000
   31      -51.140347    -46.389287   1.000000   1.000000
   32      -51.140318    -46.389204   1.000000   1.000000
   33      -51.140248    -46.389082   1.000000   1.000000
   34      -51.140188    -46.389018   1.000000   1.000000
   35      -51.140146    -46.388972   1.000000   1.000000
   36      -51.140114    -46.388872   1.000000   1.000000
   37      -51.140109    -46.388834   1.000000   1.000000
   38      -51.140082    -46.388826   1.000000   1.000000
   39      -51.140045    -46.388815   1.000000   1.000000
   40      -51.140031    -46.388793   1.000000   1.000000
   41      -51.140001    -46.388770   1.000000   1.000000
   42      -51.139975    -46.388730   1.000000   1.000000
   43      -51.139951    -46.388705   1.000000   1.000000
   44      -51.139927    -46.388657   1.000000   1.000000
   45      -51.139910    -46.388623   1.000000   1.000000
   46      -51.139872    -46.388616   1.000000   1.000000
   47      -51.139812    -46.388560   1.000000   1.000000
   48      -51.139778    -46.388501   1.000000   1.000000
   49      -51.139738    -46.388459   1.000000   1.000000
   50      -51.139690    -46.388420   1.000000   1.000000
   51      -51.139657    -46.388374   1.000000   1.000000
   52      -51.139637    -46.388299   1.000000   1.000000
   53      -51.139574    -46.388259   1.000000   1.000000
   54      -51.139536    -46.388235   1.000000   1.000000
   55      -51.139483    -46.388123   1.000000   1.000000
   56      -51.139430    -46.387991   1.000000   1.000000
   57      -51.139361    -46.387987   1.000000   1.000000
   58      -51.139305    -46.387875   1.000000   1.000000
   59      -51.139223    -46.387803   1.000000   1.000000
   60      -51.139057    -46.387585   1.000000   1.000000
   61      -51.138311    -46.387027   1.000000   1.000000
   62      -51.138248    -46.386907   1.000000   1.000000
   63      -51.137548    -46.386294   1.000000   1.000000
   64      -51.136450    -46.385373   1.000000   1.000000
   65      -49.651981    -45.933311   1.000000   1.000000
   66      -49.651020    -45.932557   1.000000   1.000000
   67      -49.647977    -45.929353   1.000000   1.000000
   68      -49.647766    -45.929325   1.000000   1.000000
   69      -49.647752    -45.929305   1.000000   1.000000
   70      -49.647710    -45.929032   1.000000   1.000000
   71      -49.647631    -45.929005   1.000000   1.000000
   72      -49.647542    -45.928938   1.000000   1.000000
   73      -49.647508    -45.928873   1.000000   1.000000
   74      -49.647467    -45.928809   1.000000   1.000000
   75      -49.647390    -45.928787   1.000000   1.000000
   76      -49.647382    -45.928744   1.000000   1.000000
   77      -49.647374    -45.928722   1.000000   1.000000
   78      -49.647340    -45.928680   1.000000   1.000000
   79      -49.647306    -45.928616   1.000000   1.000000
   80      -49.647294    -45.928590   1.000000   1.000000
   81      -49.647274    -45.928558   1.000000   1.000000
   82      -49.647258    -45.928539   1.000000   1.000000
   83      -49.647241    -45.928517   1.000000   1.000000
   84      -49.647160    -45.928482   1.000000   1.000000
   85      -49.647146    -45.928445   1.000000   1.000000
   86      -49.647049    -45.928429   1.000000   1.000000
   87      -49.647045    -45.928404   1.000000   1.000000
   88      -49.646993    -45.928383   1.000000   1.000000
   89      -49.646932    -45.928353   1.000000   1.000000
   90      -49.646905    -45.928305   1.000000   1.000000
   91      -49.646895    -45.928286   1.000000   1.000000
   92      -49.646886    -45.928252   1.000000   1.000000
   93      -49.646851    -45.928241   1.000000   1.000000
   94      -49.646835    -45.928182   1.000000   1.000000
   95      -49.646756    -45.928163   1.000000   1.000000
   96      -49.646691    -45.928130   1.000000   1.000000
   97      -49.646677    -45.928054   1.000000   1.000000
   98      -49.646656    -45.928004   1.000000   1.000000
   99      -49.646628    -45.927994   1.000000   1.000000
  100      -49.646584    -45.927990   1.000000   1.000000
  101      -49.646533    -45.927968   1.000000   1.000000
  102      -49.646490    -45.927935   1.000000   1.000000
  103      -49.646444    -45.927899   1.000000   1.000000
  104      -49.646404    -45.927823   1.000000   1.000000
  105      -49.646357    -45.927769   1.000000   1.000000
  106      -49.646347    -45.927746   1.000000   1.000000
  107      -49.646273    -45.927675   1.000000   1.000000
  108      -49.646256    -45.927658   1.000000   1.000000
  109      -49.646224    -45.927638   1.000000   1.000000
  110      -49.646160    -45.927592   1.000000   1.000000
  111      -49.646122    -45.927571   1.000000   1.000000
  112      -49.646079    -45.927554   1.000000   1.000000
  113      -49.646035    -45.927507   1.000000   1.000000
  114      -49.646006    -45.927491   1.000000   1.000000
  115      -49.645940    -45.927429   1.000000   1.000000
  116      -49.645894    -45.927418   1.000000   1.000000
  117      -49.645892    -45.927391   1.000000   1.000000
  118      -49.645874    -45.927318   1.000000   1.000000
  119      -49.645827    -45.927302   1.000000   1.000000
  120      -49.645751    -45.927292   1.000000   1.000000
  121      -49.645713    -45.927279   1.000000   1.000000
  122      -49.645650    -45.927242   1.000000   1.000000
  123      -49.645585    -45.927224   1.000000   1.000000
  124      -49.645581    -45.927201   1.000000   1.000000
  125      -49.645565    -45.927168   1.000000   1.000000
  126      -49.645550    -45.927162   1.000000   1.000000
  127      -49.645495    -45.927148   1.000000   1.000000
  128      -49.645487    -45.927124   1.000000   1.000000
  129      -49.645436    -45.927048   1.000000   1.000000
  130      -49.645409    -45.927037   1.000000   1.000000
  131      -49.645391    -45.927023   1.000000   1.000000
  132      -49.645378    -45.926976   1.000000   1.000000
  133      -49.645350    -45.926952   1.000000   1.000000
  134      -49.645347    -45.926916   1.000000   1.000000
  135      -49.645318    -45.926900   1.000000   1.000000
  136      -49.645297    -45.926892   1.000000   1.000000
  137      -49.645258    -45.926888   1.000000   1.000000
  138      -49.645233    -45.926863   1.000000   1.000000
  139      -49.645203    -45.926853   1.000000   1.000000
  140      -49.645176    -45.926822   1.000000   1.000000
  141      -49.645130    -45.926750   1.000000   1.000000
  142      -49.645127    -45.926740   1.000000   1.000000
  143      -49.645082    -45.926709   1.000000   1.000000
  144      -49.645031    -45.926687   1.000000   1.000000
  145      -49.645029    -45.926662   1.000000   1.000000
  146      -49.645009    -45.926654   1.000000   1.000000
  147      -49.644993    -45.926637   1.000000   1.000000
  148      -49.644988    -45.926613   1.000000   1.000000
  149      -49.644927    -45.926605   1.000000   1.000000
  150      -49.644844    -45.926595   1.000000   1.000000
  151      -49.644828    -45.926574   1.000000   1.000000
  152      -49.644792    -45.926518   1.000000   1.000000
  153      -49.644741    -45.926506   1.000000   1.000000
  154      -49.644731    -45.926494   1.000000   1.000000
  155      -49.644687    -45.926482   1.000000   1.000000
  156      -49.644682    -45.926414   1.000000   1.000000
  157      -49.644641    -45.926388   1.000000   1.000000
  158      -49.644619    -45.926352   1.000000   1.000000
  159      -49.644609    -45.926319   1.000000   1.000000
  160      -49.644532    -45.926308   1.000000   1.000000
  161      -49.644513    -45.926269   1.000000   1.000000
  162      -49.644502    -45.926268   1.000000   1.000000
  163      -49.644431    -45.926235   1.000000   1.000000
  164      -49.644371    -45.926221   1.000000   1.000000
  165      -49.644364    -45.926159   1.000000   1.000000
  166      -49.644321    -45.926156   1.000000   1.000000
  167      -49.644314    -45.926145   1.000000   1.000000
  168      -49.644274    -45.926078   1.000000   1.000000
  169      -49.644218    -45.926037   1.000000   1.000000
  170      -49.644187    -45.926021   1.000000   1.000000
  171      -49.644157    -45.925990   1.000000   1.000000
  172      -49.644106    -45.925974   1.000000   1.000000
  173      -49.644099    -45.925895   1.000000   1.000000
  174      -49.644047    -45.925857   1.000000   1.000000
  175      -49.643943    -45.925837   1.000000   1.000000
  176      -49.643920    -45.925824   1.000000   1.000000
  177      -49.643894    -45.925773   1.000000   1.000000
  178      -49.643813    -45.925737   1.000000   1.000000
  179      -49.643766    -45.925692   1.000000   1.000000
  180      -49.643753    -45.925586   1.000000   1.000000
  181      -49.643718    -45.925557   1.000000   1.000000
  182      -49.643699    -45.925539   1.000000   1.000000
  183      -49.643583    -45.925451   1.000000   1.000000
  184      -49.643502    -45.925261   1.000000   1.000000
  185      -49.643457    -45.925185   1.000000   1.000000
  186      -49.643372    -45.924926   1.000000   1.000000
  187      -49.643206    -45.924802   1.000000   1.000000
  188      -49.642988    -45.924726   1.000000   1.000000
  189      -49.642594    -45.924371   1.000000   1.000000
  190      -49.642261    -45.924076   1.000000   1.000000
  191      -49.641921    -45.923867   1.000000   1.000000
  192      -49.641676    -45.923390   1.000000   1.000000
  193      -39.642804    -39.641897   1.000000   1.000000
  194      -39.640640    -39.639724   1.000000   1.000000
  195      -39.636336    -39.635466   1.000000   1.000000
  196      -39.634285    -39.633418   1.000000   1.000000
  197      -39.634211    -39.633343   1.000000   1.000000
  198      -39.633588    -39.632715   1.000000   1.000000
  199      -39.633248    -39.632376   1.000000   1.000000
  200      -39.633128    -39.632256   1.000000   1.000000
  201      -39.633019    -39.632147   1.000000   1.000000
  202      -39.632465    -39.631596   1.000000   1.000000
  203      -39.629065    -39.628229   1.000000   1.000000
  204      -39.629010    -39.628176   1.000000   1.000000
  205      -39.628923    -39.628084   1.000000   1.000000
  206      -39.627852    -39.627015   1.000000   1.000000
  207      -39.627526    -39.626689   1.000000   1.000000
  208      -39.627350    -39.626513   1.000000   1.000000
  209      -39.627236    -39.626400   1.000000   1.000000
  210      -39.626940    -39.626104   1.000000   1.000000
  211      -39.619614    -39.618849   1.000000   1.000000
  212      -39.619455    -39.618688   1.000000   1.000000
  213      -39.617798    -39.617028   1.000000   1.000000
  214      -39.616814    -39.616038   1.000000   1.000000
  215      -39.615949    -39.615176   1.000000   1.000000
  216      -39.615837    -39.615065   1.000000   1.000000
  217      -39.615793    -39.615018   1.000000   1.000000
  218      -39.615720    -39.614945   1.000000   1.000000
  219      -39.615390    -39.614612   1.000000   1.000000
  220      -39.615353    -39.614584   1.000000   1.000000
  221      -39.615302    -39.614529   1.000000   1.000000
  222      -39.615300    -39.614525   1.000000   1.000000
  223      -39.615259    -39.614489   1.000000   1.000000
  224      -39.615223    -39.614454   1.000000   1.000000
  225      -39.615085    -39.614318   1.000000   1.000000
  226      -39.615056    -39.614289   1.000000   1.000000
  227      -39.615039    -39.614271   1.000000   1.000000
  228      -39.614931    -39.614165   1.000000   1.000000
  229      -39.614778    -39.614010   1.000000   1.000000
  230      -39.614659    -39.613891   1.000000   1.000000
  231      -39.614574    -39.613808   1.000000   1.000000
  232      -39.614551    -39.613789   1.000000   1.000000
  233      -39.614508    -39.613746   1.000000   1.000000
  234      -39.614484    -39.613722   1.000000   1.000000
  235      -39.614439    -39.613680   1.000000   1.000000
  236      -39.614361    -39.613595   1.000000   1.000000
  237      -39.613360    -39.612599   1.000000   1.000000
  238      -39.612795    -39.612039   1.000000   1.000000
  239      -39.606266    -39.605550   1.000000   1.000000
  240      -39.604596    -39.603878   1.000000   1.000000
  241      -39.604540    -39.603821   1.000000   1.000000
  242      -39.603888    -39.603169   1.000000   1.000000
  243      -39.603561    -39.602843   1.000000   1.000000
  244      -39.603421    -39.602702   1.000000   1.000000
  245      -39.603243    -39.602526   1.000000   1.000000
  246      -39.603202    -39.602485   1.000000   1.000000
  247      -39.601154    -39.600447   1.000000   1.000000
  248      -39.599936    -39.599230   1.000000   1.000000
  249      -39.599871    -39.599166   1.000000   1.000000
  250      -39.599707    -39.599001   1.000000   1.000000
  251      -39.599402    -39.598696   1.000000   1.000000
  252      -39.599214    -39.598509   1.000000   1.000000
  253      -39.599015    -39.598311   1.000000   1.000000
  254      -39.598448    -39.597746   1.000000   1.000000
  255      -39.593864    -39.593181   1.000000   1.000000
  256      -39.592684    -39.592003   1.000000   1.000000
  257      -12.751312    -12.471251   1.000000   1.000000
  258      -12.746763    -12.467287   1.000000   1.000000
  259      -12.730405    -12.449625   1.000000   1.000000
  260      -12.719612    -12.439873   1.000000   1.000000
  261      -12.719478    -12.439743   1.000000   1.000000
  262      -12.719410    -12.439668   1.000000   1.000000
  263      -12.719221    -12.439461   1.000000   1.000000
  264      -12.718952    -12.439190   1.000000   1.000000
  265      -12.718838    -12.439085   1.000000   1.000000
  266      -12.718539    -12.438786   1.000000   1.000000
  267      -12.703122    -12.422872   1.000000   1.000000
  268      -12.697162    -12.417004   1.000000   1.000000
  269      -12.696208    -12.416227   1.000000   1.000000
  270      -12.695075    -12.415481   1.000000   1.000000
  271      -12.694329    -12.414714   1.000000   1.000000
  272      -12.694308    -12.414695   1.000000   1.000000
  273      -12.693130    -12.413689   1.000000   1.000000
  274      -12.692339    -12.413252   1.000000   1.000000
  275      -12.691766    -12.412102   1.000000   1.000000
  276      -12.691550    -12.411541   1.000000   1.000000
  277      -12.690779    -12.410742   1.000000   1.000000
  278      -12.690743    -12.410728   1.000000   1.000000
  279      -12.675609    -12.395633   1.000000   1.000000
  280      -12.672668    -12.392654   1.000000   1.000000
  281      -12.672577    -12.392578   1.000000   1.000000
  282      -12.672481    -12.392478   1.000000   1.000000
  283      -12.668584    -12.389449   1.000000   1.000000
  284      -12.667595    -12.388705   1.000000   1.000000
  285      -12.667450    -12.388556   1.000000   1.000000
  286      -12.667355    -12.388452   1.000000   1.000000
  287      -12.654887    -12.374940   1.000000   1.000000
  288      -12.644100    -12.366327   1.000000   1.000000
  289       -7.799824     -7.598837   1.000000   1.000000
  290       -7.748036     -7.551320   1.000000   1.000000
  291       -7.505478     -7.319218   1.000000   1.000000
  292       -7.505428     -7.319161   1.000000   1.000000
  293       -7.505304     -7.319049   1.000000   1.000000
  294       -7.504914     -7.318450   1.000000   1.000000
  295       -7.501075     -7.308933   1.000000   1.000000
  296       -7.500951     -7.308826   1.000000   1.000000
  297       -7.500876     -7.308738   1.000000   1.000000
  298       -7.499531     -7.307698   1.000000   1.000000
  299       -7.315145     -7.117696   1.000000   1.000000
  300       -7.314808     -7.117366   1.000000   1.000000
  301       -7.297148     -7.093865   1.000000   1.000000
  302       -7.297147     -7.093852   1.000000   1.000000
  303       -7.296469     -7.093192   1.000000   1.000000
  304       -7.295655     -7.092442   1.000000   1.000000
  305       -7.269213     -7.061920   1.000000   1.000000
  306       -7.268789     -7.061528   1.000000   1.000000
  307       -7.088538     -6.894119   1.000000   1.000000
  308       -7.084911     -6.894097   1.000000   1.000000
  309       -7.084886     -6.893593   1.000000   1.000000
  310       -7.084397     -6.892879   1.000000   1.000000
  311       -7.083579     -6.796620   1.000000   1.000000
  312       -7.046395     -6.783674   1.000000   1.000000
  313       -7.000739     -6.768325   1.000000   1.000000
  314       -7.000048     -6.768167   1.000000   1.000000
  315       -6.999805     -6.767671   1.000000   1.000000
  316       -6.999728     -6.767398   1.000000   1.000000
  317       -6.999667     -6.766945   1.000000   1.000000
  318       -6.999594     -6.766344   1.000000   1.000000
  319       -6.999542     -6.766119   1.000000   1.000000
  320       -6.997950     -6.766001   1.000000   1.000000
  321       -6.994290     -6.765980   1.000000   1.000000
  322       -6.994222     -6.765849   1.000000   1.000000
  323       -6.994116     -6.765803   1.000000   1.000000
  324       -6.992906     -6.763614   1.000000   1.000000
  325       -6.956027     -6.745024   1.000000   1.000000
  326       -6.955981     -6.744936   1.000000   1.000000
  327       -6.955507     -6.744822   1.000000   1.000000
  328       -6.954716     -6.743989   1.000000   1.000000
  329       -6.948330     -6.697477   1.000000   1.000000
  330       -6.947889     -6.697188   1.000000   1.000000
  331       -6.928699     -6.689165   1.000000   1.000000
  332       -6.928651     -6.689112   1.000000   1.000000
  333       -6.928553     -6.689013   1.000000   1.000000
  334       -6.927659     -6.688203   1.000000   1.000000
  335       -6.911576     -6.640066   1.000000   1.000000
  336       -6.910624     -6.639282   1.000000   1.000000
  337       -6.885982     -6.639123   1.000000   1.000000
  338       -6.885960     -6.639060   1.000000   1.000000
  339       -6.885369     -6.638921   1.000000   1.000000
  340       -6.884638     -6.638913   1.000000   1.000000
  341       -6.877675     -6.638803   1.000000   1.000000
  342       -6.877065     -6.638701   1.000000   1.000000
  343       -6.876849     -6.638608   1.000000   1.000000
  344       -6.876761     -6.638464   1.000000   1.000000
  345       -6.876713     -6.637848   1.000000   1.000000
  346       -6.876587     -6.635681   1.000000   1.000000
  347       -6.876524     -6.628290   1.000000   1.000000
  348       -6.873998     -6.627224   1.000000   1.000000
  349       -6.832594     -6.586641   1.000000   1.000000
  350       -6.832091     -6.586202   1.000000   1.000000
  351       -6.794497     -6.499324   1.000000   1.000000
  352       -6.793512     -6.498404   1.000000   1.000000
  353       -1.526078     -0.415747   1.000000   1.000000
  354       -1.470656     -0.414699   1.000000   1.000000
  355       -1.467672     -0.414258   1.000000   1.000000
  356       -1.467590     -0.414139   1.000000   1.000000
  357       -1.467559      0.023824   1.000000   1.000000
  358       -1.461689      0.026385   1.000000   1.000000
  359       -1.460316      0.026477   1.000000   1.000000
  360       -1.460200      0.026583   1.000000   1.000000
  361       -1.460061      0.035313   1.000000   1.000000
  362       -1.422527      0.037706   1.000000   1.000000
  363       -1.421274      0.037866   1.000000   1.000000
  364       -1.385208      0.037993   1.000000   1.000000
  365       -1.382877      0.038153   1.000000   1.000000
  366       -1.382605      0.038431   1.000000   1.000000
  367       -1.382497      0.038540   1.000000   1.000000
  368       -1.337282      0.038670   1.000000   1.000000
  369       -1.332679      0.101987   1.000000   1.000000
  370       -1.332556      0.102995   1.000000   1.000000
  371       -1.332515      0.205515   1.000000   1.000000
  372       -1.332500      0.207349   1.000000   1.000000
  373       -1.332376      0.207843   1.000000   1.000000
  374       -1.332158      0.207888   1.000000   1.000000
  375       -1.332011      0.303610   1.000000   1.000000
  376       -1.294536      0.390358   1.000000   1.000000
  377       -1.292485      0.392602   1.000000   1.000000
  378       -1.292394      0.392684   1.000000   1.000000
  379       -1.292363      0.392846   1.000000   1.000000
  380       -1.258083      0.489739   1.000000   1.000000
  381       -1.256504      0.490995   1.000000   1.000000
  382       -1.233267      0.497152   1.000000   1.000000
  383       -1.232068      0.497183   1.000000   1.000000
  384       -1.220851      0.497779   1.000000   1.000000
  385       -0.823209      0.498313   1.000000   1.000000
  386       -0.822696      0.510572   1.000000   1.000000
  387       -0.822652      0.510612   1.000000   1.000000
  388       -0.822598      0.531028   1.000000   1.000000
  389       -0.723096      0.531124   1.000000   1.000000
  390       -0.722431      0.531638   1.000000   1.000000
  391       -0.699736      0.531732   1.000000   1.000000
  392       -0.699392      0.573458   1.000000   1.000000
  393       -0.698964      0.573559   1.000000   1.000000
  394       -0.698791      0.574270   1.000000   1.000000
  395       -0.688637      0.574368   1.000000   1.000000
  396       -0.688300      0.574489   1.000000   1.000000
  397       -0.688034      0.574504   1.000000   1.000000
  398       -0.687760      0.575119   1.000000   1.000000
  399       -0.667077      0.575168   1.000000   1.000000
  400       -0.666839      0.638056   1.000000   1.000000
  401       -0.666612      0.666020   1.000000   1.000000
  402       -0.666274      0.666592   1.000000   1.000000
  403       -0.652410      0.731285   1.000000   1.000000
  404       -0.651987      0.733495   1.000000   1.000000
  405       -0.651765      0.930954   1.000000   1.000000
  406       -0.651725      0.931918   1.000000   1.000000
  407       -0.589855      0.935287   1.000000   1.000000
  408       -0.589191      0.935678   1.000000   1.000000
  409       -0.577281      0.948208   1.000000   1.000000
  410       -0.576701      0.948571   1.000000   1.000000
  411       -0.576358      0.949042   1.000000   1.000000
  412       -0.576324      0.949124   1.000000   1.000000
  413       -0.553890      0.984820   1.000000   1.000000
  414       -0.553564      0.985947   1.000000   1.000000
  415       -0.553258      0.986509   1.000000   1.000000
  416       -0.552830      0.986620   1.000000   1.000000
  417       -0.497889      0.992955   1.000000   1.000000
  418       -0.497136      0.993150   1.000000   1.000000
  419       -0.473149      1.008140   1.000000   1.000000
  420       -0.472917      1.008198   1.000000   1.000000
  421       -0.462193      1.008891   1.000000   1.000000
  422       -0.461723      1.009135   1.000000   1.000000
  423       -0.461485      1.018655   1.000000   1.000000
  424       -0.461128      1.048144   1.000000   1.000000
  425       -0.459926      1.049217   1.000000   1.000000
  426       -0.459616      1.051101   1.000000   1.000000
  427       -0.459484      1.051408   1.000000   1.000000
  428       -0.459186      1.051884   1.000000   1.000000
  429       -0.410759      1.052117   1.000000   1.000000
  430       -0.409924      1.077451   1.000000   1.000000
  431       -0.408929      1.078382   1.000000   1.000000
  432       -0.407597      1.078914   1.000000   1.000000
  433       -0.407499      1.079030   1.000000   1.000000
  434       -0.407397      1.079353   1.000000   1.000000
  435       -0.407251      1.079568   1.000000   1.000000
  436       -0.407023      1.080243   1.000000   1.000000
  437       -0.383401      1.080306   1.000000   1.000000
  438       -0.383174      1.192038   1.000000   1.000000
  439       -0.378062      1.192876   1.000000   1.000000
  440       -0.369018      1.375946   1.000000   1.000000
  441       -0.368986      1.389826   1.000000   1.000000
  442       -0.368704      1.391038   1.000000   1.000000
  443       -0.368647      1.391256   1.000000   1.000000
  444       -0.368551      1.391330   1.000000   1.000000
  445       -0.368489      1.391496   1.000000   1.000000
  446       -0.368260      1.436826   1.000000   1.000000
  447       -0.368219      1.449683   1.000000   1.000000
  448       -0.353456      1.524318   1.000000   1.000000
  449       -0.353288      1.524568   1.000000   1.000000
  450       -0.349311      1.526477   1.000000   1.000000
  451       -0.342074      1.526526   1.000000   1.000000
  452       -0.336374      1.528558   1.000000   1.000000
  453       -0.335918      1.528593   1.000000   1.000000
  454       -0.335570      1.529109   1.000000   1.000000
  455       -0.335162      1.529127   1.000000   1.000000
  456       -0.334357      1.557696   1.000000   1.000000
  457       -0.334175      1.558144   1.000000   1.000000
  458       -0.333894      1.558523   1.000000   1.000000
  459       -0.333631      1.558882   1.000000   1.000000
  460       -0.324965      1.563810   1.000000   1.000000
  461       -0.324480      1.566731   1.000000   1.000000
  462       -0.324201      1.566835   1.000000   1.000000
  463       -0.323813      1.567120   1.000000   1.000000
  464       -0.321894      1.568039   1.000000   1.000000
  465       -0.321575      1.568372   1.000000   1.000000
  466       -0.321414      1.568532   1.000000   1.000000
  467       -0.321105      1.568850   1.000000   1.000000
  468       -0.304060      1.586645   1.000000   1.000000
  469       -0.296149      1.586931   1.000000   1.000000
  470       -0.287878      1.695714   1.000000   1.000000
  471       -0.287837      1.695885   1.000000   1.000000
  472       -0.287745      1.740440   1.000000   1.000000
  473       -0.287414      1.740912   1.000000   1.000000
  474       -0.280373      1.741196   1.000000   1.000000
  475       -0.280133      1.741570   1.000000   1.000000
  476       -0.275114      1.745215   1.000000   1.000000
  477       -0.274864      1.745332   1.000000   1.000000
  478       -0.274839      1.747300   1.000000   1.000000
  479       -0.274392      1.747361   1.000000   1.000000
  480       -0.241720      1.779008   1.000000   1.000000
  481       -0.241625      1.780403   1.000000   1.000000
  482       -0.241555      1.780632   1.000000   1.000000
  483       -0.241469      1.834795   1.000000   1.000000
  484       -0.241302      1.837014   1.000000   1.000000
  485       -0.241150      1.837055   1.000000   1.000000
  486       -0.241075      1.837491   1.000000   1.000000
  487       -0.240855      1.837561   1.000000   1.000000
  488       -0.207277      1.838086   1.000000   1.000000
  489       -0.207273      1.838155   1.000000   1.000000
  490       -0.199679      1.838872   1.000000   1.000000
  491       -0.199618      1.866039   1.000000   1.000000
  492       -0.199390      1.867067   1.000000   1.000000
  493       -0.198961      1.911583   1.000000   1.000000
  494       -0.193912      1.912100   1.000000   1.000000
  495       -0.193873      1.913514   1.000000   1.000000
  496       -0.164006      1.913636   1.000000   1.000000
  497       -0.163777      1.913730   1.000000   1.000000
  498       -0.163736      1.913784   1.000000   1.000000
  499       -0.163534      1.913890   1.000000   1.000000
  500       -0.156600      1.913922   1.000000   1.000000
  501       -0.156391      1.926771   1.000000   1.000000
  502       -0.156118      1.926829   1.000000   1.000000
  503       -0.155900      1.927195   1.000000   1.000000
  504       -0.139090      1.927294   1.000000   1.000000
  505       -0.138857      2.133019   1.000000   1.000000
  506       -0.138722      2.133167   1.000000   1.000000
  507       -0.138513      2.191353   1.000000   1.000000
  508       -0.090887      2.193281   1.000000   1.000000
  509       -0.090827      2.300399   1.000000   1.000000
  510       -0.082876      2.300817   1.000000   1.000000
  511       -0.082797      2.301069   1.000000   1.000000
  512       -0.082617      2.301106   1.000000   1.000000