 144 144   0   0
  0.1325381E+02  0.1546422E-08  0.1214491E-08  0.1054520E-08  0.5000000E-15
  1.000000000000000E-004
  CAR 
 unknown system                          
     17.00283780    -54.87023575  301      5.08388643      1.00000000
    -54.870  0.0000E+00  0.0000E+00  0.0000E+00  0.0000E+00
    -54.631  0.0000E+00  0.0000E+00  0.0000E+00  0.0000E+00
    -54.391  0.0000E+00  0.0000E+00  0.0000E+00  0.0000E+00
    -54.152  0.0000E+00  0.0000E+00  0.0000E+00  0.0000E+00
    -53.912  0.0000E+00  0.0000E+00  0.0000E+00  0.0000E+00
    -53.672  0.0000E+00  0.0000E+00  0.0000E+00  0.0000E+00
    -53.433  0.0000E+00  0.0000E+00  0.0000E+00  0.0000E+00
    -53.193  0.0000E+00  0.0000E+00  0.0000E+00  0.0000E+00
    -52.954  0.0000E+00  0.0000E+00  0.0000E+00  0.0000E+00
    -52.714  0.0000E+00  0.0000E+00  0.0000E+00  0.0000E+00
    -52.474  0.0000E+00  0.0000E+00  0.0000E+00  0.0000E+00
    -52.235  0.0000E+00  0.0000E+00  0.0000E+00  0.0000E+00
    -51.995  0.0000E+00  0.0000E+00  0.0000E+00  0.0000E+00
    -51.756  0.3706E-03  0.0000E+00  0.8878E-04  0.0000E+00
    -51.516  0.4986E+02  0.0000E+00  0.1194E+02  0.0000E+00
    -51.277  0.8652E+02  0.0000E+00  0.3267E+02  0.0000E+00
    -51.037  0.1389E+02  0.0000E+00  0.3600E+02  0.0000E+00
    -50.797  0.0000E+00  0.0000E+00  0.3600E+02  0.0000E+00
    -50.558  0.0000E+00  0.0000E+00  0.3600E+02  0.0000E+00
    -50.318  0.1315E-03  0.0000E+00  0.3600E+02  0.0000E+00
    -50.079  0.6732E+02  0.0000E+00  0.5213E+02  0.0000E+00
    -49.839  0.2084E+03  0.0000E+00  0.1021E+03  0.0000E+00
    -49.600  0.2478E+02  0.0000E+00  0.1080E+03  0.0000E+00
    -49.360  0.0000E+00  0.0000E+00  0.1080E+03  0.0000E+00
    -49.120  0.0000E+00  0.0000E+00  0.1080E+03  0.0000E+00
    -48.881  0.0000E+00  0.0000E+00  0.1080E+03  0.0000E+00
    -48.641  0.0000E+00  0.0000E+00  0.1080E+03  0.0000E+00
    -48.402  0.0000E+00  0.0000E+00  0.1080E+03  0.0000E+00
    -48.162  0.0000E+00  0.0000E+00  0.1080E+03  0.0000E+00
    -47.923  0.0000E+00  0.0000E+00  0.1080E+03  0.0000E+00
    -47.683  0.0000E+00  0.0000E+00  0.1080E+03  0.0000E+00
    -47.443  0.0000E+00  0.0000E+00  0.1080E+03  0.0000E+00
    -47.204  0.0000E+00  0.0000E+00  0.1080E+03  0.0000E+00
    -46.964  0.0000E+00  0.6494E-01  0.1080E+03  0.1556E-01
    -46.725  0.0000E+00  0.5094E+02  0.1080E+03  0.1222E+02
    -46.485  0.0000E+00  0.9544E+02  0.1080E+03  0.3508E+02
    -46.245  0.0000E+00  0.1459E+03  0.1080E+03  0.7005E+02
    -46.006  0.0000E+00  0.1584E+03  0.1080E+03  0.1080E+03
    -45.766  0.0000E+00  0.4772E-02  0.1080E+03  0.1080E+03
    -45.527  0.0000E+00  0.0000E+00  0.1080E+03  0.1080E+03
    -45.287  0.0000E+00  0.0000E+00  0.1080E+03  0.1080E+03
    -45.048  0.0000E+00  0.0000E+00  0.1080E+03  0.1080E+03
    -44.808  0.0000E+00  0.0000E+00  0.1080E+03  0.1080E+03
    -44.568  0.0000E+00  0.0000E+00  0.1080E+03  0.1080E+03
    -44.329  0.0000E+00  0.0000E+00  0.1080E+03  0.1080E+03
    -44.089  0.0000E+00  0.0000E+00  0.1080E+03  0.1080E+03
    -43.850  0.0000E+00  0.0000E+00  0.1080E+03  0.1080E+03
    -43.610  0.0000E+00  0.0000E+00  0.1080E+03  0.1080E+03
    -43.371  0.0000E+00  0.0000E+00  0.1080E+03  0.1080E+03
    -43.131  0.0000E+00  0.0000E+00  0.1080E+03  0.1080E+03
    -42.891  0.0000E+00  0.0000E+00  0.1080E+03  0.1080E+03
    -42.652  0.0000E+00  0.0000E+00  0.1080E+03  0.1080E+03
    -42.412  0.0000E+00  0.0000E+00  0.1080E+03  0.1080E+03
    -42.173  0.0000E+00  0.0000E+00  0.1080E+03  0.1080E+03
    -41.933  0.0000E+00  0.0000E+00  0.1080E+03  0.1080E+03
    -41.694  0.0000E+00  0.0000E+00  0.1080E+03  0.1080E+03
    -41.454  0.0000E+00  0.0000E+00  0.1080E+03  0.1080E+03
    -41.214  0.0000E+00  0.0000E+00  0.1080E+03  0.1080E+03
    -40.975  0.0000E+00  0.0000E+00  0.1080E+03  0.1080E+03
    -40.735  0.1356E-08  0.4430E-09  0.1080E+03  0.1080E+03
    -40.496  0.2873E+02  0.2546E+02  0.1149E+03  0.1141E+03
    -40.256  0.4626E+02  0.4983E+02  0.1260E+03  0.1260E+03
    -40.016  0.1001E+03  0.1000E+03  0.1499E+03  0.1500E+03
    -39.777  0.2531E+02  0.2502E+02  0.1560E+03  0.1560E+03
    -39.537  0.0000E+00  0.0000E+00  0.1560E+03  0.1560E+03
    -39.298  0.0000E+00  0.0000E+00  0.1560E+03  0.1560E+03
    -39.058  0.0000E+00  0.0000E+00  0.1560E+03  0.1560E+03
    -38.819  0.0000E+00  0.0000E+00  0.1560E+03  0.1560E+03
    -38.579  0.0000E+00  0.0000E+00  0.1560E+03  0.1560E+03
    -38.339  0.0000E+00  0.0000E+00  0.1560E+03  0.1560E+03
    -38.100  0.0000E+00  0.0000E+00  0.1560E+03  0.1560E+03
    -37.860  0.0000E+00  0.0000E+00  0.1560E+03  0.1560E+03
    -37.621  0.0000E+00  0.0000E+00  0.1560E+03  0.1560E+03
    -37.381  0.0000E+00  0.0000E+00  0.1560E+03  0.1560E+03
    -37.142  0.0000E+00  0.0000E+00  0.1560E+03  0.1560E+03
    -36.902  0.0000E+00  0.0000E+00  0.1560E+03  0.1560E+03
    -36.662  0.0000E+00  0.0000E+00  0.1560E+03  0.1560E+03
    -36.423  0.0000E+00  0.0000E+00  0.1560E+03  0.1560E+03
    -36.183  0.0000E+00  0.0000E+00  0.1560E+03  0.1560E+03
    -35.944  0.0000E+00  0.0000E+00  0.1560E+03  0.1560E+03
    -35.704  0.0000E+00  0.0000E+00  0.1560E+03  0.1560E+03
    -35.465  0.0000E+00  0.0000E+00  0.1560E+03  0.1560E+03
    -35.225  0.0000E+00  0.0000E+00  0.1560E+03  0.1560E+03
    -34.985  0.0000E+00  0.0000E+00  0.1560E+03  0.1560E+03
    -34.746  0.0000E+00  0.0000E+00  0.1560E+03  0.1560E+03
    -34.506  0.0000E+00  0.0000E+00  0.1560E+03  0.1560E+03
    -34.267  0.0000E+00  0.0000E+00  0.1560E+03  0.1560E+03
    -34.027  0.0000E+00  0.0000E+00  0.1560E+03  0.1560E+03
    -33.787  0.0000E+00  0.0000E+00  0.1560E+03  0.1560E+03
    -33.548  0.0000E+00  0.0000E+00  0.1560E+03  0.1560E+03
    -33.308  0.0000E+00  0.0000E+00  0.1560E+03  0.1560E+03
    -33.069  0.0000E+00  0.0000E+00  0.1560E+03  0.1560E+03
    -32.829  0.0000E+00  0.0000E+00  0.1560E+03  0.1560E+03
    -32.590  0.0000E+00  0.0000E+00  0.1560E+03  0.1560E+03
    -32.350  0.0000E+00  0.0000E+00  0.1560E+03  0.1560E+03
    -32.110  0.0000E+00  0.0000E+00  0.1560E+03  0.1560E+03
    -31.871  0.0000E+00  0.0000E+00  0.1560E+03  0.1560E+03
    -31.631  0.0000E+00  0.0000E+00  0.1560E+03  0.1560E+03
    -31.392  0.0000E+00  0.0000E+00  0.1560E+03  0.1560E+03
    -31.152  0.0000E+00  0.0000E+00  0.1560E+03  0.1560E+03
    -30.913  0.0000E+00  0.0000E+00  0.1560E+03  0.1560E+03
    -30.673  0.0000E+00  0.0000E+00  0.1560E+03  0.1560E+03
    -30.433  0.0000E+00  0.0000E+00  0.1560E+03  0.1560E+03
    -30.194  0.0000E+00  0.0000E+00  0.1560E+03  0.1560E+03
    -29.954  0.0000E+00  0.0000E+00  0.1560E+03  0.1560E+03
    -29.715  0.0000E+00  0.0000E+00  0.1560E+03  0.1560E+03
    -29.475  0.0000E+00  0.0000E+00  0.1560E+03  0.1560E+03
    -29.236  0.0000E+00  0.0000E+00  0.1560E+03  0.1560E+03
    -28.996  0.0000E+00  0.0000E+00  0.1560E+03  0.1560E+03
    -28.756  0.0000E+00  0.0000E+00  0.1560E+03  0.1560E+03
    -28.517  0.0000E+00  0.0000E+00  0.1560E+03  0.1560E+03
    -28.277  0.0000E+00  0.0000E+00  0.1560E+03  0.1560E+03
    -28.038  0.0000E+00  0.0000E+00  0.1560E+03  0.1560E+03
    -27.798  0.0000E+00  0.0000E+00  0.1560E+03  0.1560E+03
    -27.558  0.0000E+00  0.0000E+00  0.1560E+03  0.1560E+03
    -27.319  0.0000E+00  0.0000E+00  0.1560E+03  0.1560E+03
    -27.079  0.0000E+00  0.0000E+00  0.1560E+03  0.1560E+03
    -26.840  0.0000E+00  0.0000E+00  0.1560E+03  0.1560E+03
    -26.600  0.0000E+00  0.0000E+00  0.1560E+03  0.1560E+03
    -26.361  0.0000E+00  0.0000E+00  0.1560E+03  0.1560E+03
    -26.121  0.0000E+00  0.0000E+00  0.1560E+03  0.1560E+03
    -25.881  0.0000E+00  0.0000E+00  0.1560E+03  0.1560E+03
    -25.642  0.0000E+00  0.0000E+00  0.1560E+03  0.1560E+03
    -25.402  0.0000E+00  0.0000E+00  0.1560E+03  0.1560E+03
    -25.163  0.0000E+00  0.0000E+00  0.1560E+03  0.1560E+03
    -24.923  0.0000E+00  0.0000E+00  0.1560E+03  0.1560E+03
    -24.684  0.0000E+00  0.0000E+00  0.1560E+03  0.1560E+03
    -24.444  0.0000E+00  0.0000E+00  0.1560E+03  0.1560E+03
    -24.204  0.0000E+00  0.0000E+00  0.1560E+03  0.1560E+03
    -23.965  0.0000E+00  0.0000E+00  0.1560E+03  0.1560E+03
    -23.725  0.0000E+00  0.0000E+00  0.1560E+03  0.1560E+03
    -23.486  0.0000E+00  0.0000E+00  0.1560E+03  0.1560E+03
    -23.246  0.0000E+00  0.0000E+00  0.1560E+03  0.1560E+03
    -23.007  0.0000E+00  0.0000E+00  0.1560E+03  0.1560E+03
    -22.767  0.0000E+00  0.0000E+00  0.1560E+03  0.1560E+03
    -22.527  0.0000E+00  0.0000E+00  0.1560E+03  0.1560E+03
    -22.288  0.0000E+00  0.0000E+00  0.1560E+03  0.1560E+03
    -22.048  0.0000E+00  0.0000E+00  0.1560E+03  0.1560E+03
    -21.809  0.0000E+00  0.0000E+00  0.1560E+03  0.1560E+03
    -21.569  0.0000E+00  0.0000E+00  0.1560E+03  0.1560E+03
    -21.329  0.0000E+00  0.0000E+00  0.1560E+03  0.1560E+03
    -21.090  0.0000E+00  0.0000E+00  0.1560E+03  0.1560E+03
    -20.850  0.0000E+00  0.0000E+00  0.1560E+03  0.1560E+03
    -20.611  0.0000E+00  0.0000E+00  0.1560E+03  0.1560E+03
    -20.371  0.0000E+00  0.0000E+00  0.1560E+03  0.1560E+03
    -20.132  0.0000E+00  0.0000E+00  0.1560E+03  0.1560E+03
    -19.892  0.0000E+00  0.0000E+00  0.1560E+03  0.1560E+03
    -19.652  0.0000E+00  0.0000E+00  0.1560E+03  0.1560E+03
    -19.413  0.0000E+00  0.0000E+00  0.1560E+03  0.1560E+03
    -19.173  0.0000E+00  0.0000E+00  0.1560E+03  0.1560E+03
    -18.934  0.0000E+00  0.0000E+00  0.1560E+03  0.1560E+03
    -18.694  0.0000E+00  0.0000E+00  0.1560E+03  0.1560E+03
    -18.455  0.0000E+00  0.0000E+00  0.1560E+03  0.1560E+03
    -18.215  0.0000E+00  0.0000E+00  0.1560E+03  0.1560E+03
    -17.975  0.0000E+00  0.0000E+00  0.1560E+03  0.1560E+03
    -17.736  0.0000E+00  0.0000E+00  0.1560E+03  0.1560E+03
    -17.496  0.0000E+00  0.0000E+00  0.1560E+03  0.1560E+03
    -17.257  0.0000E+00  0.0000E+00  0.1560E+03  0.1560E+03
    -17.017  0.0000E+00  0.0000E+00  0.1560E+03  0.1560E+03
    -16.778  0.0000E+00  0.0000E+00  0.1560E+03  0.1560E+03
    -16.538  0.0000E+00  0.0000E+00  0.1560E+03  0.1560E+03
    -16.298  0.0000E+00  0.0000E+00  0.1560E+03  0.1560E+03
    -16.059  0.0000E+00  0.0000E+00  0.1560E+03  0.1560E+03
    -15.819  0.0000E+00  0.0000E+00  0.1560E+03  0.1560E+03
    -15.580  0.0000E+00  0.0000E+00  0.1560E+03  0.1560E+03
    -15.340  0.0000E+00  0.0000E+00  0.1560E+03  0.1560E+03
    -15.100  0.0000E+00  0.0000E+00  0.1560E+03  0.1560E+03
    -14.861  0.0000E+00  0.0000E+00  0.1560E+03  0.1560E+03
    -14.621  0.0000E+00  0.0000E+00  0.1560E+03  0.1560E+03
    -14.382  0.0000E+00  0.0000E+00  0.1560E+03  0.1560E+03
    -14.142  0.0000E+00  0.0000E+00  0.1560E+03  0.1560E+03
    -13.903  0.8703E-03  0.0000E+00  0.1560E+03  0.1560E+03
    -13.663  0.2173E+02  0.2737E-13  0.1612E+03  0.1560E+03
    -13.423  0.2812E+02  0.1530E+01  0.1679E+03  0.1564E+03
    -13.184  0.8636E+01  0.4426E+02  0.1700E+03  0.1670E+03
    -12.944  0.3113E+02  0.4938E+01  0.1775E+03  0.1682E+03
    -12.705  0.1056E+02  0.4129E+02  0.1800E+03  0.1780E+03
    -12.465  0.0000E+00  0.8157E+01  0.1800E+03  0.1800E+03
    -12.226  0.0000E+00  0.0000E+00  0.1800E+03  0.1800E+03
    -11.986  0.0000E+00  0.0000E+00  0.1800E+03  0.1800E+03
    -11.746  0.0000E+00  0.0000E+00  0.1800E+03  0.1800E+03
    -11.507  0.0000E+00  0.0000E+00  0.1800E+03  0.1800E+03
    -11.267  0.0000E+00  0.0000E+00  0.1800E+03  0.1800E+03
    -11.028  0.0000E+00  0.0000E+00  0.1800E+03  0.1800E+03
    -10.788  0.0000E+00  0.0000E+00  0.1800E+03  0.1800E+03
    -10.549  0.0000E+00  0.0000E+00  0.1800E+03  0.1800E+03
    -10.309  0.0000E+00  0.0000E+00  0.1800E+03  0.1800E+03
    -10.069  0.0000E+00  0.0000E+00  0.1800E+03  0.1800E+03
     -9.830  0.0000E+00  0.0000E+00  0.1800E+03  0.1800E+03
     -9.590  0.0000E+00  0.0000E+00  0.1800E+03  0.1800E+03
     -9.351  0.0000E+00  0.0000E+00  0.1800E+03  0.1800E+03
     -9.111  0.0000E+00  0.0000E+00  0.1800E+03  0.1800E+03
     -8.871  0.0000E+00  0.0000E+00  0.1800E+03  0.1800E+03
     -8.632  0.0000E+00  0.0000E+00  0.1800E+03  0.1800E+03
     -8.392  0.0000E+00  0.0000E+00  0.1800E+03  0.1800E+03
     -8.153  0.0000E+00  0.0000E+00  0.1800E+03  0.1800E+03
     -7.913  0.1643E-02  0.0000E+00  0.1800E+03  0.1800E+03
     -7.674  0.9136E+01  0.1290E-01  0.1822E+03  0.1800E+03
     -7.434  0.2284E+02  0.1170E+02  0.1877E+03  0.1828E+03
     -7.194  0.5506E+02  0.2808E+02  0.2009E+03  0.1895E+03
     -6.955  0.5890E+02  0.5947E+02  0.2150E+03  0.2038E+03
     -6.715  0.4326E+01  0.4738E+02  0.2160E+03  0.2151E+03
     -6.476  0.0000E+00  0.3611E+01  0.2160E+03  0.2160E+03
     -6.236  0.0000E+00  0.0000E+00  0.2160E+03  0.2160E+03
     -5.997  0.0000E+00  0.0000E+00  0.2160E+03  0.2160E+03
     -5.757  0.0000E+00  0.0000E+00  0.2160E+03  0.2160E+03
     -5.517  0.0000E+00  0.0000E+00  0.2160E+03  0.2160E+03
     -5.278  0.0000E+00  0.0000E+00  0.2160E+03  0.2160E+03
     -5.038  0.0000E+00  0.0000E+00  0.2160E+03  0.2160E+03
     -4.799  0.0000E+00  0.0000E+00  0.2160E+03  0.2160E+03
     -4.559  0.0000E+00  0.0000E+00  0.2160E+03  0.2160E+03
     -4.320  0.0000E+00  0.0000E+00  0.2160E+03  0.2160E+03
     -4.080  0.0000E+00  0.0000E+00  0.2160E+03  0.2160E+03
     -3.840  0.0000E+00  0.0000E+00  0.2160E+03  0.2160E+03
     -3.601  0.0000E+00  0.0000E+00  0.2160E+03  0.2160E+03
     -3.361  0.0000E+00  0.0000E+00  0.2160E+03  0.2160E+03
     -3.122  0.0000E+00  0.0000E+00  0.2160E+03  0.2160E+03
     -2.882  0.6513E-14  0.0000E+00  0.2160E+03  0.2160E+03
     -2.642  0.6791E+00  0.0000E+00  0.2162E+03  0.2160E+03
     -2.403  0.1045E+02  0.0000E+00  0.2187E+03  0.2160E+03
     -2.163  0.2015E+02  0.0000E+00  0.2235E+03  0.2160E+03
     -1.924  0.2188E+01  0.0000E+00  0.2240E+03  0.2160E+03
     -1.684  0.3413E+02  0.0000E+00  0.2322E+03  0.2160E+03
     -1.445  0.1911E+02  0.1545E-15  0.2368E+03  0.2160E+03
     -1.205  0.4441E+02  0.6876E-01  0.2474E+03  0.2160E+03
     -0.965  0.4916E+02  0.4377E+01  0.2592E+03  0.2171E+03
     -0.726  0.7465E+02  0.1390E+02  0.2771E+03  0.2204E+03
     -0.486  0.1027E+03  0.1520E+02  0.3017E+03  0.2240E+03
     -0.247  0.8553E+02  0.1920E+02  0.3222E+03  0.2286E+03
     -0.007  0.1104E+03  0.4135E+02  0.3486E+03  0.2385E+03
      0.232  0.7071E+02  0.3398E+02  0.3656E+03  0.2467E+03
      0.472  0.3867E+02  0.4180E+02  0.3748E+03  0.2567E+03
      0.712  0.4567E+02  0.3401E+02  0.3858E+03  0.2648E+03
      0.951  0.4868E+02  0.5236E+02  0.3974E+03  0.2774E+03
      1.191  0.5522E+02  0.6078E+02  0.4107E+03  0.2920E+03
      1.430  0.6384E+02  0.4441E+02  0.4260E+03  0.3026E+03
      1.670  0.1008E+03  0.4036E+02  0.4501E+03  0.3123E+03
      1.909  0.5361E+02  0.3831E+02  0.4630E+03  0.3214E+03
      2.149  0.3838E+02  0.3750E+02  0.4721E+03  0.3304E+03
      2.389  0.4657E+02  0.3817E+02  0.4833E+03  0.3396E+03
      2.628  0.4777E+02  0.4885E+02  0.4948E+03  0.3513E+03
      2.868  0.4369E+02  0.6315E+02  0.5052E+03  0.3664E+03
      3.107  0.4021E+02  0.5875E+02  0.5149E+03  0.3805E+03
      3.347  0.4695E+02  0.4854E+02  0.5261E+03  0.3921E+03
      3.587  0.5269E+02  0.2938E+02  0.5387E+03  0.3991E+03
      3.826  0.4571E+02  0.6067E+02  0.5497E+03  0.4137E+03
      4.066  0.3187E+02  0.7493E+02  0.5573E+03  0.4316E+03
      4.305  0.4261E+02  0.1527E+01  0.5675E+03  0.4320E+03
      4.545  0.2390E+02  0.0000E+00  0.5732E+03  0.4320E+03
      4.784  0.1047E+02  0.0000E+00  0.5758E+03  0.4320E+03
      5.024  0.1027E+01  0.0000E+00  0.5760E+03  0.4320E+03
      5.264  0.0000E+00  0.0000E+00  0.5760E+03  0.4320E+03
      5.503  0.0000E+00  0.0000E+00  0.5760E+03  0.4320E+03
      5.743  0.0000E+00  0.0000E+00  0.5760E+03  0.4320E+03
      5.982  0.0000E+00  0.1948E-11  0.5760E+03  0.4320E+03
      6.222  0.0000E+00  0.1277E+00  0.5760E+03  0.4320E+03
      6.461  0.0000E+00  0.7891E+01  0.5760E+03  0.4339E+03
      6.701  0.0000E+00  0.2987E+02  0.5760E+03  0.4411E+03
      6.941  0.2669E-12  0.4285E+02  0.5760E+03  0.4513E+03
      7.180  0.9408E-01  0.7256E+02  0.5760E+03  0.4687E+03
      7.420  0.1422E+00  0.8112E+02  0.5761E+03  0.4882E+03
      7.659  0.8466E+00  0.6534E+02  0.5763E+03  0.5038E+03
      7.899  0.3450E+01  0.8793E+02  0.5771E+03  0.5249E+03
      8.138  0.4276E+01  0.7167E+02  0.5781E+03  0.5421E+03
      8.378  0.6911E+01  0.5480E+02  0.5798E+03  0.5552E+03
      8.618  0.1611E+02  0.3712E+02  0.5836E+03  0.5641E+03
      8.857  0.2541E+02  0.3963E+02  0.5897E+03  0.5736E+03
      9.097  0.1928E+02  0.1967E+02  0.5943E+03  0.5783E+03
      9.336  0.2506E+02  0.1361E+02  0.6003E+03  0.5815E+03
      9.576  0.3105E+02  0.2056E+02  0.6078E+03  0.5865E+03
      9.816  0.2680E+02  0.2986E+02  0.6142E+03  0.5936E+03
     10.055  0.2979E+02  0.2654E+02  0.6213E+03  0.6000E+03
     10.295  0.2278E+02  0.3433E+02  0.6268E+03  0.6082E+03
     10.534  0.2043E+02  0.3589E+02  0.6317E+03  0.6168E+03
     10.774  0.2816E+02  0.2781E+02  0.6384E+03  0.6235E+03
     11.013  0.3903E+02  0.2275E+02  0.6478E+03  0.6289E+03
     11.253  0.3932E+02  0.2133E+02  0.6572E+03  0.6340E+03
     11.493  0.3743E+02  0.3219E+02  0.6662E+03  0.6417E+03
     11.732  0.4453E+02  0.3882E+02  0.6768E+03  0.6510E+03
     11.972  0.3875E+02  0.4237E+02  0.6861E+03  0.6612E+03
     12.211  0.3842E+02  0.5177E+02  0.6953E+03  0.6736E+03
     12.451  0.3979E+02  0.4709E+02  0.7049E+03  0.6849E+03
     12.690  0.3675E+02  0.3601E+02  0.7137E+03  0.6935E+03
     12.930  0.3433E+02  0.4117E+02  0.7219E+03  0.7034E+03
     13.170  0.2341E+02  0.4006E+02  0.7275E+03  0.7130E+03
     13.409  0.2103E+01  0.3391E+02  0.7280E+03  0.7211E+03
     13.649  0.0000E+00  0.2429E+02  0.7280E+03  0.7269E+03
     13.888  0.0000E+00  0.4534E+01  0.7280E+03  0.7280E+03
     14.128  0.0000E+00  0.3749E-05  0.7280E+03  0.7280E+03
     14.367  0.0000E+00  0.0000E+00  0.7280E+03  0.7280E+03
     14.607  0.0000E+00  0.0000E+00  0.7280E+03  0.7280E+03
     14.847  0.0000E+00  0.0000E+00  0.7280E+03  0.7280E+03
     15.086  0.0000E+00  0.0000E+00  0.7280E+03  0.7280E+03
     15.326  0.0000E+00  0.0000E+00  0.7280E+03  0.7280E+03
     15.565  0.0000E+00  0.0000E+00  0.7280E+03  0.7280E+03
     15.805  0.0000E+00  0.0000E+00  0.7280E+03  0.7280E+03
     16.045  0.0000E+00  0.0000E+00  0.7280E+03  0.7280E+03
     16.284  0.0000E+00  0.0000E+00  0.7280E+03  0.7280E+03
     16.524  0.0000E+00  0.0000E+00  0.7280E+03  0.7280E+03
     16.763  0.0000E+00  0.0000E+00  0.7280E+03  0.7280E+03
     17.003  0.0000E+00  0.0000E+00  0.7280E+03  0.7280E+03
