 144 144   0   0
  0.1325381E+02  0.1546422E-08  0.1214491E-08  0.1054520E-08  0.5000000E-15
  1.000000000000000E-004
  CAR 
 unknown system                          
     17.00936607    -54.86997915  301      5.08937465      1.00000000
    -54.870  0.0000E+00  0.0000E+00  0.0000E+00  0.0000E+00
    -54.630  0.0000E+00  0.0000E+00  0.0000E+00  0.0000E+00
    -54.391  0.0000E+00  0.0000E+00  0.0000E+00  0.0000E+00
    -54.151  0.0000E+00  0.0000E+00  0.0000E+00  0.0000E+00
    -53.912  0.0000E+00  0.0000E+00  0.0000E+00  0.0000E+00
    -53.672  0.0000E+00  0.0000E+00  0.0000E+00  0.0000E+00
    -53.432  0.0000E+00  0.0000E+00  0.0000E+00  0.0000E+00
    -53.193  0.0000E+00  0.0000E+00  0.0000E+00  0.0000E+00
    -52.953  0.0000E+00  0.0000E+00  0.0000E+00  0.0000E+00
    -52.714  0.0000E+00  0.0000E+00  0.0000E+00  0.0000E+00
    -52.474  0.0000E+00  0.0000E+00  0.0000E+00  0.0000E+00
    -52.234  0.0000E+00  0.0000E+00  0.0000E+00  0.0000E+00
    -51.995  0.0000E+00  0.0000E+00  0.0000E+00  0.0000E+00
    -51.755  0.3734E-03  0.0000E+00  0.8946E-04  0.0000E+00
    -51.516  0.4986E+02  0.0000E+00  0.1195E+02  0.0000E+00
    -51.276  0.8684E+02  0.0000E+00  0.3275E+02  0.0000E+00
    -51.036  0.1355E+02  0.0000E+00  0.3600E+02  0.0000E+00
    -50.797  0.0000E+00  0.0000E+00  0.3600E+02  0.0000E+00
    -50.557  0.0000E+00  0.0000E+00  0.3600E+02  0.0000E+00
    -50.318  0.1340E-03  0.0000E+00  0.3600E+02  0.0000E+00
    -50.078  0.6742E+02  0.0000E+00  0.5215E+02  0.0000E+00
    -49.838  0.2089E+03  0.0000E+00  0.1022E+03  0.0000E+00
    -49.599  0.2415E+02  0.0000E+00  0.1080E+03  0.0000E+00
    -49.359  0.0000E+00  0.0000E+00  0.1080E+03  0.0000E+00
    -49.120  0.0000E+00  0.0000E+00  0.1080E+03  0.0000E+00
    -48.880  0.0000E+00  0.0000E+00  0.1080E+03  0.0000E+00
    -48.640  0.0000E+00  0.0000E+00  0.1080E+03  0.0000E+00
    -48.401  0.0000E+00  0.0000E+00  0.1080E+03  0.0000E+00
    -48.161  0.0000E+00  0.0000E+00  0.1080E+03  0.0000E+00
    -47.922  0.0000E+00  0.0000E+00  0.1080E+03  0.0000E+00
    -47.682  0.0000E+00  0.0000E+00  0.1080E+03  0.0000E+00
    -47.442  0.0000E+00  0.0000E+00  0.1080E+03  0.0000E+00
    -47.203  0.0000E+00  0.0000E+00  0.1080E+03  0.0000E+00
    -46.963  0.0000E+00  0.6782E-01  0.1080E+03  0.1625E-01
    -46.724  0.0000E+00  0.5100E+02  0.1080E+03  0.1224E+02
    -46.484  0.0000E+00  0.9564E+02  0.1080E+03  0.3515E+02
    -46.244  0.0000E+00  0.1469E+03  0.1080E+03  0.7034E+02
    -46.005  0.0000E+00  0.1572E+03  0.1080E+03  0.1080E+03
    -45.765  0.0000E+00  0.4089E-02  0.1080E+03  0.1080E+03
    -45.526  0.0000E+00  0.0000E+00  0.1080E+03  0.1080E+03
    -45.286  0.0000E+00  0.0000E+00  0.1080E+03  0.1080E+03
    -45.046  0.0000E+00  0.0000E+00  0.1080E+03  0.1080E+03
    -44.807  0.0000E+00  0.0000E+00  0.1080E+03  0.1080E+03
    -44.567  0.0000E+00  0.0000E+00  0.1080E+03  0.1080E+03
    -44.328  0.0000E+00  0.0000E+00  0.1080E+03  0.1080E+03
    -44.088  0.0000E+00  0.0000E+00  0.1080E+03  0.1080E+03
    -43.848  0.0000E+00  0.0000E+00  0.1080E+03  0.1080E+03
    -43.609  0.0000E+00  0.0000E+00  0.1080E+03  0.1080E+03
    -43.369  0.0000E+00  0.0000E+00  0.1080E+03  0.1080E+03
    -43.130  0.0000E+00  0.0000E+00  0.1080E+03  0.1080E+03
    -42.890  0.0000E+00  0.0000E+00  0.1080E+03  0.1080E+03
    -42.650  0.0000E+00  0.0000E+00  0.1080E+03  0.1080E+03
    -42.411  0.0000E+00  0.0000E+00  0.1080E+03  0.1080E+03
    -42.171  0.0000E+00  0.0000E+00  0.1080E+03  0.1080E+03
    -41.932  0.0000E+00  0.0000E+00  0.1080E+03  0.1080E+03
    -41.692  0.0000E+00  0.0000E+00  0.1080E+03  0.1080E+03
    -41.453  0.0000E+00  0.0000E+00  0.1080E+03  0.1080E+03
    -41.213  0.0000E+00  0.0000E+00  0.1080E+03  0.1080E+03
    -40.973  0.0000E+00  0.0000E+00  0.1080E+03  0.1080E+03
    -40.734  0.1279E-08  0.4175E-09  0.1080E+03  0.1080E+03
    -40.494  0.2861E+02  0.2535E+02  0.1149E+03  0.1141E+03
    -40.255  0.4817E+02  0.5170E+02  0.1264E+03  0.1265E+03
    -40.015  0.9903E+02  0.9899E+02  0.1501E+03  0.1502E+03
    -39.775  0.2453E+02  0.2429E+02  0.1560E+03  0.1560E+03
    -39.536  0.0000E+00  0.0000E+00  0.1560E+03  0.1560E+03
    -39.296  0.0000E+00  0.0000E+00  0.1560E+03  0.1560E+03
    -39.057  0.0000E+00  0.0000E+00  0.1560E+03  0.1560E+03
    -38.817  0.0000E+00  0.0000E+00  0.1560E+03  0.1560E+03
    -38.577  0.0000E+00  0.0000E+00  0.1560E+03  0.1560E+03
    -38.338  0.0000E+00  0.0000E+00  0.1560E+03  0.1560E+03
    -38.098  0.0000E+00  0.0000E+00  0.1560E+03  0.1560E+03
    -37.859  0.0000E+00  0.0000E+00  0.1560E+03  0.1560E+03
    -37.619  0.0000E+00  0.0000E+00  0.1560E+03  0.1560E+03
    -37.379  0.0000E+00  0.0000E+00  0.1560E+03  0.1560E+03
    -37.140  0.0000E+00  0.0000E+00  0.1560E+03  0.1560E+03
    -36.900  0.0000E+00  0.0000E+00  0.1560E+03  0.1560E+03
    -36.661  0.0000E+00  0.0000E+00  0.1560E+03  0.1560E+03
    -36.421  0.0000E+00  0.0000E+00  0.1560E+03  0.1560E+03
    -36.181  0.0000E+00  0.0000E+00  0.1560E+03  0.1560E+03
    -35.942  0.0000E+00  0.0000E+00  0.1560E+03  0.1560E+03
    -35.702  0.0000E+00  0.0000E+00  0.1560E+03  0.1560E+03
    -35.463  0.0000E+00  0.0000E+00  0.1560E+03  0.1560E+03
    -35.223  0.0000E+00  0.0000E+00  0.1560E+03  0.1560E+03
    -34.983  0.0000E+00  0.0000E+00  0.1560E+03  0.1560E+03
    -34.744  0.0000E+00  0.0000E+00  0.1560E+03  0.1560E+03
    -34.504  0.0000E+00  0.0000E+00  0.1560E+03  0.1560E+03
    -34.265  0.0000E+00  0.0000E+00  0.1560E+03  0.1560E+03
    -34.025  0.0000E+00  0.0000E+00  0.1560E+03  0.1560E+03
    -33.785  0.0000E+00  0.0000E+00  0.1560E+03  0.1560E+03
    -33.546  0.0000E+00  0.0000E+00  0.1560E+03  0.1560E+03
    -33.306  0.0000E+00  0.0000E+00  0.1560E+03  0.1560E+03
    -33.067  0.0000E+00  0.0000E+00  0.1560E+03  0.1560E+03
    -32.827  0.0000E+00  0.0000E+00  0.1560E+03  0.1560E+03
    -32.587  0.0000E+00  0.0000E+00  0.1560E+03  0.1560E+03
    -32.348  0.0000E+00  0.0000E+00  0.1560E+03  0.1560E+03
    -32.108  0.0000E+00  0.0000E+00  0.1560E+03  0.1560E+03
    -31.869  0.0000E+00  0.0000E+00  0.1560E+03  0.1560E+03
    -31.629  0.0000E+00  0.0000E+00  0.1560E+03  0.1560E+03
    -31.389  0.0000E+00  0.0000E+00  0.1560E+03  0.1560E+03
    -31.150  0.0000E+00  0.0000E+00  0.1560E+03  0.1560E+03
    -30.910  0.0000E+00  0.0000E+00  0.1560E+03  0.1560E+03
    -30.671  0.0000E+00  0.0000E+00  0.1560E+03  0.1560E+03
    -30.431  0.0000E+00  0.0000E+00  0.1560E+03  0.1560E+03
    -30.191  0.0000E+00  0.0000E+00  0.1560E+03  0.1560E+03
    -29.952  0.0000E+00  0.0000E+00  0.1560E+03  0.1560E+03
    -29.712  0.0000E+00  0.0000E+00  0.1560E+03  0.1560E+03
    -29.473  0.0000E+00  0.0000E+00  0.1560E+03  0.1560E+03
    -29.233  0.0000E+00  0.0000E+00  0.1560E+03  0.1560E+03
    -28.993  0.0000E+00  0.0000E+00  0.1560E+03  0.1560E+03
    -28.754  0.0000E+00  0.0000E+00  0.1560E+03  0.1560E+03
    -28.514  0.0000E+00  0.0000E+00  0.1560E+03  0.1560E+03
    -28.275  0.0000E+00  0.0000E+00  0.1560E+03  0.1560E+03
    -28.035  0.0000E+00  0.0000E+00  0.1560E+03  0.1560E+03
    -27.795  0.0000E+00  0.0000E+00  0.1560E+03  0.1560E+03
    -27.556  0.0000E+00  0.0000E+00  0.1560E+03  0.1560E+03
    -27.316  0.0000E+00  0.0000E+00  0.1560E+03  0.1560E+03
    -27.077  0.0000E+00  0.0000E+00  0.1560E+03  0.1560E+03
    -26.837  0.0000E+00  0.0000E+00  0.1560E+03  0.1560E+03
    -26.597  0.0000E+00  0.0000E+00  0.1560E+03  0.1560E+03
    -26.358  0.0000E+00  0.0000E+00  0.1560E+03  0.1560E+03
    -26.118  0.0000E+00  0.0000E+00  0.1560E+03  0.1560E+03
    -25.879  0.0000E+00  0.0000E+00  0.1560E+03  0.1560E+03
    -25.639  0.0000E+00  0.0000E+00  0.1560E+03  0.1560E+03
    -25.399  0.0000E+00  0.0000E+00  0.1560E+03  0.1560E+03
    -25.160  0.0000E+00  0.0000E+00  0.1560E+03  0.1560E+03
    -24.920  0.0000E+00  0.0000E+00  0.1560E+03  0.1560E+03
    -24.681  0.0000E+00  0.0000E+00  0.1560E+03  0.1560E+03
    -24.441  0.0000E+00  0.0000E+00  0.1560E+03  0.1560E+03
    -24.201  0.0000E+00  0.0000E+00  0.1560E+03  0.1560E+03
    -23.962  0.0000E+00  0.0000E+00  0.1560E+03  0.1560E+03
    -23.722  0.0000E+00  0.0000E+00  0.1560E+03  0.1560E+03
    -23.483  0.0000E+00  0.0000E+00  0.1560E+03  0.1560E+03
    -23.243  0.0000E+00  0.0000E+00  0.1560E+03  0.1560E+03
    -23.003  0.0000E+00  0.0000E+00  0.1560E+03  0.1560E+03
    -22.764  0.0000E+00  0.0000E+00  0.1560E+03  0.1560E+03
    -22.524  0.0000E+00  0.0000E+00  0.1560E+03  0.1560E+03
    -22.285  0.0000E+00  0.0000E+00  0.1560E+03  0.1560E+03
    -22.045  0.0000E+00  0.0000E+00  0.1560E+03  0.1560E+03
    -21.805  0.0000E+00  0.0000E+00  0.1560E+03  0.1560E+03
    -21.566  0.0000E+00  0.0000E+00  0.1560E+03  0.1560E+03
    -21.326  0.0000E+00  0.0000E+00  0.1560E+03  0.1560E+03
    -21.087  0.0000E+00  0.0000E+00  0.1560E+03  0.1560E+03
    -20.847  0.0000E+00  0.0000E+00  0.1560E+03  0.1560E+03
    -20.607  0.0000E+00  0.0000E+00  0.1560E+03  0.1560E+03
    -20.368  0.0000E+00  0.0000E+00  0.1560E+03  0.1560E+03
    -20.128  0.0000E+00  0.0000E+00  0.1560E+03  0.1560E+03
    -19.889  0.0000E+00  0.0000E+00  0.1560E+03  0.1560E+03
    -19.649  0.0000E+00  0.0000E+00  0.1560E+03  0.1560E+03
    -19.410  0.0000E+00  0.0000E+00  0.1560E+03  0.1560E+03
    -19.170  0.0000E+00  0.0000E+00  0.1560E+03  0.1560E+03
    -18.930  0.0000E+00  0.0000E+00  0.1560E+03  0.1560E+03
    -18.691  0.0000E+00  0.0000E+00  0.1560E+03  0.1560E+03
    -18.451  0.0000E+00  0.0000E+00  0.1560E+03  0.1560E+03
    -18.212  0.0000E+00  0.0000E+00  0.1560E+03  0.1560E+03
    -17.972  0.0000E+00  0.0000E+00  0.1560E+03  0.1560E+03
    -17.732  0.0000E+00  0.0000E+00  0.1560E+03  0.1560E+03
    -17.493  0.0000E+00  0.0000E+00  0.1560E+03  0.1560E+03
    -17.253  0.0000E+00  0.0000E+00  0.1560E+03  0.1560E+03
    -17.014  0.0000E+00  0.0000E+00  0.1560E+03  0.1560E+03
    -16.774  0.0000E+00  0.0000E+00  0.1560E+03  0.1560E+03
    -16.534  0.0000E+00  0.0000E+00  0.1560E+03  0.1560E+03
    -16.295  0.0000E+00  0.0000E+00  0.1560E+03  0.1560E+03
    -16.055  0.0000E+00  0.0000E+00  0.1560E+03  0.1560E+03
    -15.816  0.0000E+00  0.0000E+00  0.1560E+03  0.1560E+03
    -15.576  0.0000E+00  0.0000E+00  0.1560E+03  0.1560E+03
    -15.336  0.0000E+00  0.0000E+00  0.1560E+03  0.1560E+03
    -15.097  0.0000E+00  0.0000E+00  0.1560E+03  0.1560E+03
    -14.857  0.0000E+00  0.0000E+00  0.1560E+03  0.1560E+03
    -14.618  0.0000E+00  0.0000E+00  0.1560E+03  0.1560E+03
    -14.378  0.0000E+00  0.0000E+00  0.1560E+03  0.1560E+03
    -14.138  0.0000E+00  0.0000E+00  0.1560E+03  0.1560E+03
    -13.899  0.1331E-02  0.0000E+00  0.1560E+03  0.1560E+03
    -13.659  0.2227E+02  0.6564E-13  0.1613E+03  0.1560E+03
    -13.420  0.2764E+02  0.1846E+01  0.1680E+03  0.1564E+03
    -13.180  0.9081E+01  0.4450E+02  0.1701E+03  0.1671E+03
    -12.940  0.3145E+02  0.4485E+01  0.1777E+03  0.1682E+03
    -12.701  0.9724E+01  0.4221E+02  0.1800E+03  0.1783E+03
    -12.461  0.0000E+00  0.7126E+01  0.1800E+03  0.1800E+03
    -12.222  0.0000E+00  0.0000E+00  0.1800E+03  0.1800E+03
    -11.982  0.0000E+00  0.0000E+00  0.1800E+03  0.1800E+03
    -11.742  0.0000E+00  0.0000E+00  0.1800E+03  0.1800E+03
    -11.503  0.0000E+00  0.0000E+00  0.1800E+03  0.1800E+03
    -11.263  0.0000E+00  0.0000E+00  0.1800E+03  0.1800E+03
    -11.024  0.0000E+00  0.0000E+00  0.1800E+03  0.1800E+03
    -10.784  0.0000E+00  0.0000E+00  0.1800E+03  0.1800E+03
    -10.544  0.0000E+00  0.0000E+00  0.1800E+03  0.1800E+03
    -10.305  0.0000E+00  0.0000E+00  0.1800E+03  0.1800E+03
    -10.065  0.0000E+00  0.0000E+00  0.1800E+03  0.1800E+03
     -9.826  0.0000E+00  0.0000E+00  0.1800E+03  0.1800E+03
     -9.586  0.0000E+00  0.0000E+00  0.1800E+03  0.1800E+03
     -9.346  0.0000E+00  0.0000E+00  0.1800E+03  0.1800E+03
     -9.107  0.0000E+00  0.0000E+00  0.1800E+03  0.1800E+03
     -8.867  0.0000E+00  0.0000E+00  0.1800E+03  0.1800E+03
     -8.628  0.0000E+00  0.0000E+00  0.1800E+03  0.1800E+03
     -8.388  0.0000E+00  0.0000E+00  0.1800E+03  0.1800E+03
     -8.148  0.0000E+00  0.0000E+00  0.1800E+03  0.1800E+03
     -7.909  0.2304E-02  0.0000E+00  0.1800E+03  0.1800E+03
     -7.669  0.9425E+01  0.1712E-01  0.1823E+03  0.1800E+03
     -7.430  0.2318E+02  0.1201E+02  0.1878E+03  0.1829E+03
     -7.190  0.5585E+02  0.2871E+02  0.2012E+03  0.1898E+03
     -6.950  0.5793E+02  0.5991E+02  0.2151E+03  0.2041E+03
     -6.711  0.3873E+01  0.4636E+02  0.2160E+03  0.2152E+03
     -6.471  0.0000E+00  0.3252E+01  0.2160E+03  0.2160E+03
     -6.232  0.0000E+00  0.0000E+00  0.2160E+03  0.2160E+03
     -5.992  0.0000E+00  0.0000E+00  0.2160E+03  0.2160E+03
     -5.752  0.0000E+00  0.0000E+00  0.2160E+03  0.2160E+03
     -5.513  0.0000E+00  0.0000E+00  0.2160E+03  0.2160E+03
     -5.273  0.0000E+00  0.0000E+00  0.2160E+03  0.2160E+03
     -5.034  0.0000E+00  0.0000E+00  0.2160E+03  0.2160E+03
     -4.794  0.0000E+00  0.0000E+00  0.2160E+03  0.2160E+03
     -4.554  0.0000E+00  0.0000E+00  0.2160E+03  0.2160E+03
     -4.315  0.0000E+00  0.0000E+00  0.2160E+03  0.2160E+03
     -4.075  0.0000E+00  0.0000E+00  0.2160E+03  0.2160E+03
     -3.836  0.0000E+00  0.0000E+00  0.2160E+03  0.2160E+03
     -3.596  0.0000E+00  0.0000E+00  0.2160E+03  0.2160E+03
     -3.356  0.0000E+00  0.0000E+00  0.2160E+03  0.2160E+03
     -3.117  0.0000E+00  0.0000E+00  0.2160E+03  0.2160E+03
     -2.877  0.1900E-13  0.0000E+00  0.2160E+03  0.2160E+03
     -2.638  0.8694E+00  0.0000E+00  0.2162E+03  0.2160E+03
     -2.398  0.1026E+02  0.0000E+00  0.2187E+03  0.2160E+03
     -2.158  0.2054E+02  0.0000E+00  0.2236E+03  0.2160E+03
     -1.919  0.1800E+01  0.0000E+00  0.2240E+03  0.2160E+03
     -1.679  0.3464E+02  0.0000E+00  0.2323E+03  0.2160E+03
     -1.440  0.1956E+02  0.5149E-15  0.2370E+03  0.2160E+03
     -1.200  0.4419E+02  0.9014E-01  0.2476E+03  0.2160E+03
     -0.960  0.4969E+02  0.4419E+01  0.2595E+03  0.2171E+03
     -0.721  0.7503E+02  0.1411E+02  0.2775E+03  0.2205E+03
     -0.481  0.1033E+03  0.1534E+02  0.3022E+03  0.2241E+03
     -0.242  0.8558E+02  0.1962E+02  0.3227E+03  0.2288E+03
     -0.002  0.1104E+03  0.4123E+02  0.3492E+03  0.2387E+03
      0.238  0.6965E+02  0.3397E+02  0.3659E+03  0.2469E+03
      0.477  0.3821E+02  0.4216E+02  0.3750E+03  0.2570E+03
      0.717  0.4571E+02  0.3369E+02  0.3860E+03  0.2650E+03
      0.956  0.4867E+02  0.5306E+02  0.3976E+03  0.2777E+03
      1.196  0.5554E+02  0.6034E+02  0.4110E+03  0.2922E+03
      1.436  0.6441E+02  0.4444E+02  0.4264E+03  0.3028E+03
      1.675  0.1009E+03  0.4002E+02  0.4506E+03  0.3124E+03
      1.915  0.5229E+02  0.3847E+02  0.4631E+03  0.3217E+03
      2.154  0.3885E+02  0.3736E+02  0.4724E+03  0.3306E+03
      2.394  0.4652E+02  0.3829E+02  0.4835E+03  0.3398E+03
      2.633  0.4784E+02  0.4950E+02  0.4950E+03  0.3516E+03
      2.873  0.4347E+02  0.6288E+02  0.5054E+03  0.3667E+03
      3.113  0.4015E+02  0.5879E+02  0.5150E+03  0.3808E+03
      3.352  0.4755E+02  0.4785E+02  0.5264E+03  0.3923E+03
      3.592  0.5242E+02  0.2994E+02  0.5390E+03  0.3994E+03
      3.831  0.4535E+02  0.6150E+02  0.5499E+03  0.4142E+03
      4.071  0.3198E+02  0.7308E+02  0.5575E+03  0.4317E+03
      4.311  0.4242E+02  0.1353E+01  0.5677E+03  0.4320E+03
      4.550  0.2360E+02  0.0000E+00  0.5733E+03  0.4320E+03
      4.790  0.1020E+02  0.0000E+00  0.5758E+03  0.4320E+03
      5.029  0.8834E+00  0.0000E+00  0.5760E+03  0.4320E+03
      5.269  0.0000E+00  0.0000E+00  0.5760E+03  0.4320E+03
      5.509  0.0000E+00  0.0000E+00  0.5760E+03  0.4320E+03
      5.748  0.0000E+00  0.0000E+00  0.5760E+03  0.4320E+03
      5.988  0.0000E+00  0.5670E-11  0.5760E+03  0.4320E+03
      6.227  0.0000E+00  0.1464E+00  0.5760E+03  0.4320E+03
      6.467  0.0000E+00  0.8165E+01  0.5760E+03  0.4340E+03
      6.707  0.0000E+00  0.3028E+02  0.5760E+03  0.4412E+03
      6.946  0.8321E-12  0.4346E+02  0.5760E+03  0.4517E+03
      7.186  0.1088E+00  0.7328E+02  0.5760E+03  0.4692E+03
      7.425  0.1297E+00  0.8081E+02  0.5761E+03  0.4886E+03
      7.665  0.9010E+00  0.6540E+02  0.5763E+03  0.5042E+03
      7.905  0.3510E+01  0.8792E+02  0.5771E+03  0.5253E+03
      8.144  0.4264E+01  0.7121E+02  0.5781E+03  0.5424E+03
      8.384  0.7049E+01  0.5440E+02  0.5798E+03  0.5554E+03
      8.623  0.1638E+02  0.3724E+02  0.5837E+03  0.5643E+03
      8.863  0.2527E+02  0.3911E+02  0.5898E+03  0.5737E+03
      9.103  0.1923E+02  0.1934E+02  0.5944E+03  0.5783E+03
      9.342  0.2542E+02  0.1394E+02  0.6005E+03  0.5817E+03
      9.582  0.3125E+02  0.2056E+02  0.6080E+03  0.5866E+03
      9.821  0.2662E+02  0.3002E+02  0.6144E+03  0.5938E+03
     10.061  0.2963E+02  0.2655E+02  0.6215E+03  0.6002E+03
     10.301  0.2278E+02  0.3481E+02  0.6269E+03  0.6085E+03
     10.540  0.2038E+02  0.3537E+02  0.6318E+03  0.6170E+03
     10.780  0.2855E+02  0.2797E+02  0.6387E+03  0.6237E+03
     11.019  0.3896E+02  0.2241E+02  0.6480E+03  0.6290E+03
     11.259  0.3944E+02  0.2161E+02  0.6574E+03  0.6342E+03
     11.499  0.3723E+02  0.3231E+02  0.6664E+03  0.6420E+03
     11.738  0.4487E+02  0.3873E+02  0.6771E+03  0.6512E+03
     11.978  0.3850E+02  0.4264E+02  0.6863E+03  0.6615E+03
     12.217  0.3857E+02  0.5198E+02  0.6956E+03  0.6739E+03
     12.457  0.3988E+02  0.4678E+02  0.7051E+03  0.6851E+03
     12.697  0.3651E+02  0.3596E+02  0.7139E+03  0.6937E+03
     12.936  0.3438E+02  0.4126E+02  0.7221E+03  0.7036E+03
     13.176  0.2276E+02  0.3971E+02  0.7276E+03  0.7131E+03
     13.415  0.1818E+01  0.3423E+02  0.7280E+03  0.7213E+03
     13.655  0.0000E+00  0.2390E+02  0.7280E+03  0.7271E+03
     13.895  0.0000E+00  0.3921E+01  0.7280E+03  0.7280E+03
     14.134  0.0000E+00  0.3742E-05  0.7280E+03  0.7280E+03
     14.374  0.0000E+00  0.0000E+00  0.7280E+03  0.7280E+03
     14.613  0.0000E+00  0.0000E+00  0.7280E+03  0.7280E+03
     14.853  0.0000E+00  0.0000E+00  0.7280E+03  0.7280E+03
     15.093  0.0000E+00  0.0000E+00  0.7280E+03  0.7280E+03
     15.332  0.0000E+00  0.0000E+00  0.7280E+03  0.7280E+03
     15.572  0.0000E+00  0.0000E+00  0.7280E+03  0.7280E+03
     15.811  0.0000E+00  0.0000E+00  0.7280E+03  0.7280E+03
     16.051  0.0000E+00  0.0000E+00  0.7280E+03  0.7280E+03
     16.291  0.0000E+00  0.0000E+00  0.7280E+03  0.7280E+03
     16.530  0.0000E+00  0.0000E+00  0.7280E+03  0.7280E+03
     16.770  0.0000E+00  0.0000E+00  0.7280E+03  0.7280E+03
     17.009  0.0000E+00  0.0000E+00  0.7280E+03  0.7280E+03
