 144 144   0   0
  0.1325381E+02  0.1546422E-08  0.1214491E-08  0.1054520E-08  0.5000000E-15
  1.000000000000000E-004
  CAR 
 unknown system                          
     17.01287152    -54.87163262  301      5.09202458      1.00000000
    -54.872  0.0000E+00  0.0000E+00  0.0000E+00  0.0000E+00
    -54.632  0.0000E+00  0.0000E+00  0.0000E+00  0.0000E+00
    -54.392  0.0000E+00  0.0000E+00  0.0000E+00  0.0000E+00
    -54.153  0.0000E+00  0.0000E+00  0.0000E+00  0.0000E+00
    -53.913  0.0000E+00  0.0000E+00  0.0000E+00  0.0000E+00
    -53.674  0.0000E+00  0.0000E+00  0.0000E+00  0.0000E+00
    -53.434  0.0000E+00  0.0000E+00  0.0000E+00  0.0000E+00
    -53.194  0.0000E+00  0.0000E+00  0.0000E+00  0.0000E+00
    -52.955  0.0000E+00  0.0000E+00  0.0000E+00  0.0000E+00
    -52.715  0.0000E+00  0.0000E+00  0.0000E+00  0.0000E+00
    -52.475  0.0000E+00  0.0000E+00  0.0000E+00  0.0000E+00
    -52.236  0.0000E+00  0.0000E+00  0.0000E+00  0.0000E+00
    -51.996  0.0000E+00  0.0000E+00  0.0000E+00  0.0000E+00
    -51.757  0.3555E-03  0.0000E+00  0.8519E-04  0.0000E+00
    -51.517  0.4983E+02  0.0000E+00  0.1194E+02  0.0000E+00
    -51.277  0.8604E+02  0.0000E+00  0.3256E+02  0.0000E+00
    -51.038  0.1437E+02  0.0000E+00  0.3600E+02  0.0000E+00
    -50.798  0.0000E+00  0.0000E+00  0.3600E+02  0.0000E+00
    -50.559  0.0000E+00  0.0000E+00  0.3600E+02  0.0000E+00
    -50.319  0.1304E-03  0.0000E+00  0.3600E+02  0.0000E+00
    -50.079  0.6731E+02  0.0000E+00  0.5213E+02  0.0000E+00
    -49.840  0.2078E+03  0.0000E+00  0.1019E+03  0.0000E+00
    -49.600  0.2539E+02  0.0000E+00  0.1080E+03  0.0000E+00
    -49.360  0.0000E+00  0.0000E+00  0.1080E+03  0.0000E+00
    -49.121  0.0000E+00  0.0000E+00  0.1080E+03  0.0000E+00
    -48.881  0.0000E+00  0.0000E+00  0.1080E+03  0.0000E+00
    -48.642  0.0000E+00  0.0000E+00  0.1080E+03  0.0000E+00
    -48.402  0.0000E+00  0.0000E+00  0.1080E+03  0.0000E+00
    -48.162  0.0000E+00  0.0000E+00  0.1080E+03  0.0000E+00
    -47.923  0.0000E+00  0.0000E+00  0.1080E+03  0.0000E+00
    -47.683  0.0000E+00  0.0000E+00  0.1080E+03  0.0000E+00
    -47.444  0.0000E+00  0.0000E+00  0.1080E+03  0.0000E+00
    -47.204  0.0000E+00  0.0000E+00  0.1080E+03  0.0000E+00
    -46.964  0.0000E+00  0.6767E-01  0.1080E+03  0.1622E-01
    -46.725  0.0000E+00  0.5091E+02  0.1080E+03  0.1222E+02
    -46.485  0.0000E+00  0.9542E+02  0.1080E+03  0.3508E+02
    -46.245  0.0000E+00  0.1458E+03  0.1080E+03  0.7001E+02
    -46.006  0.0000E+00  0.1585E+03  0.1080E+03  0.1080E+03
    -45.766  0.0000E+00  0.4741E-02  0.1080E+03  0.1080E+03
    -45.527  0.0000E+00  0.0000E+00  0.1080E+03  0.1080E+03
    -45.287  0.0000E+00  0.0000E+00  0.1080E+03  0.1080E+03
    -45.047  0.0000E+00  0.0000E+00  0.1080E+03  0.1080E+03
    -44.808  0.0000E+00  0.0000E+00  0.1080E+03  0.1080E+03
    -44.568  0.0000E+00  0.0000E+00  0.1080E+03  0.1080E+03
    -44.329  0.0000E+00  0.0000E+00  0.1080E+03  0.1080E+03
    -44.089  0.0000E+00  0.0000E+00  0.1080E+03  0.1080E+03
    -43.849  0.0000E+00  0.0000E+00  0.1080E+03  0.1080E+03
    -43.610  0.0000E+00  0.0000E+00  0.1080E+03  0.1080E+03
    -43.370  0.0000E+00  0.0000E+00  0.1080E+03  0.1080E+03
    -43.130  0.0000E+00  0.0000E+00  0.1080E+03  0.1080E+03
    -42.891  0.0000E+00  0.0000E+00  0.1080E+03  0.1080E+03
    -42.651  0.0000E+00  0.0000E+00  0.1080E+03  0.1080E+03
    -42.412  0.0000E+00  0.0000E+00  0.1080E+03  0.1080E+03
    -42.172  0.0000E+00  0.0000E+00  0.1080E+03  0.1080E+03
    -41.932  0.0000E+00  0.0000E+00  0.1080E+03  0.1080E+03
    -41.693  0.0000E+00  0.0000E+00  0.1080E+03  0.1080E+03
    -41.453  0.0000E+00  0.0000E+00  0.1080E+03  0.1080E+03
    -41.214  0.0000E+00  0.0000E+00  0.1080E+03  0.1080E+03
    -40.974  0.0000E+00  0.0000E+00  0.1080E+03  0.1080E+03
    -40.734  0.1486E-08  0.4840E-09  0.1080E+03  0.1080E+03
    -40.495  0.2947E+02  0.2620E+02  0.1151E+03  0.1143E+03
    -40.255  0.4541E+02  0.4895E+02  0.1259E+03  0.1260E+03
    -40.016  0.1008E+03  0.1008E+03  0.1501E+03  0.1502E+03
    -39.776  0.2465E+02  0.2437E+02  0.1560E+03  0.1560E+03
    -39.536  0.0000E+00  0.0000E+00  0.1560E+03  0.1560E+03
    -39.297  0.0000E+00  0.0000E+00  0.1560E+03  0.1560E+03
    -39.057  0.0000E+00  0.0000E+00  0.1560E+03  0.1560E+03
    -38.817  0.0000E+00  0.0000E+00  0.1560E+03  0.1560E+03
    -38.578  0.0000E+00  0.0000E+00  0.1560E+03  0.1560E+03
    -38.338  0.0000E+00  0.0000E+00  0.1560E+03  0.1560E+03
    -38.099  0.0000E+00  0.0000E+00  0.1560E+03  0.1560E+03
    -37.859  0.0000E+00  0.0000E+00  0.1560E+03  0.1560E+03
    -37.619  0.0000E+00  0.0000E+00  0.1560E+03  0.1560E+03
    -37.380  0.0000E+00  0.0000E+00  0.1560E+03  0.1560E+03
    -37.140  0.0000E+00  0.0000E+00  0.1560E+03  0.1560E+03
    -36.901  0.0000E+00  0.0000E+00  0.1560E+03  0.1560E+03
    -36.661  0.0000E+00  0.0000E+00  0.1560E+03  0.1560E+03
    -36.421  0.0000E+00  0.0000E+00  0.1560E+03  0.1560E+03
    -36.182  0.0000E+00  0.0000E+00  0.1560E+03  0.1560E+03
    -35.942  0.0000E+00  0.0000E+00  0.1560E+03  0.1560E+03
    -35.702  0.0000E+00  0.0000E+00  0.1560E+03  0.1560E+03
    -35.463  0.0000E+00  0.0000E+00  0.1560E+03  0.1560E+03
    -35.223  0.0000E+00  0.0000E+00  0.1560E+03  0.1560E+03
    -34.984  0.0000E+00  0.0000E+00  0.1560E+03  0.1560E+03
    -34.744  0.0000E+00  0.0000E+00  0.1560E+03  0.1560E+03
    -34.504  0.0000E+00  0.0000E+00  0.1560E+03  0.1560E+03
    -34.265  0.0000E+00  0.0000E+00  0.1560E+03  0.1560E+03
    -34.025  0.0000E+00  0.0000E+00  0.1560E+03  0.1560E+03
    -33.786  0.0000E+00  0.0000E+00  0.1560E+03  0.1560E+03
    -33.546  0.0000E+00  0.0000E+00  0.1560E+03  0.1560E+03
    -33.306  0.0000E+00  0.0000E+00  0.1560E+03  0.1560E+03
    -33.067  0.0000E+00  0.0000E+00  0.1560E+03  0.1560E+03
    -32.827  0.0000E+00  0.0000E+00  0.1560E+03  0.1560E+03
    -32.587  0.0000E+00  0.0000E+00  0.1560E+03  0.1560E+03
    -32.348  0.0000E+00  0.0000E+00  0.1560E+03  0.1560E+03
    -32.108  0.0000E+00  0.0000E+00  0.1560E+03  0.1560E+03
    -31.869  0.0000E+00  0.0000E+00  0.1560E+03  0.1560E+03
    -31.629  0.0000E+00  0.0000E+00  0.1560E+03  0.1560E+03
    -31.389  0.0000E+00  0.0000E+00  0.1560E+03  0.1560E+03
    -31.150  0.0000E+00  0.0000E+00  0.1560E+03  0.1560E+03
    -30.910  0.0000E+00  0.0000E+00  0.1560E+03  0.1560E+03
    -30.671  0.0000E+00  0.0000E+00  0.1560E+03  0.1560E+03
    -30.431  0.0000E+00  0.0000E+00  0.1560E+03  0.1560E+03
    -30.191  0.0000E+00  0.0000E+00  0.1560E+03  0.1560E+03
    -29.952  0.0000E+00  0.0000E+00  0.1560E+03  0.1560E+03
    -29.712  0.0000E+00  0.0000E+00  0.1560E+03  0.1560E+03
    -29.472  0.0000E+00  0.0000E+00  0.1560E+03  0.1560E+03
    -29.233  0.0000E+00  0.0000E+00  0.1560E+03  0.1560E+03
    -28.993  0.0000E+00  0.0000E+00  0.1560E+03  0.1560E+03
    -28.754  0.0000E+00  0.0000E+00  0.1560E+03  0.1560E+03
    -28.514  0.0000E+00  0.0000E+00  0.1560E+03  0.1560E+03
    -28.274  0.0000E+00  0.0000E+00  0.1560E+03  0.1560E+03
    -28.035  0.0000E+00  0.0000E+00  0.1560E+03  0.1560E+03
    -27.795  0.0000E+00  0.0000E+00  0.1560E+03  0.1560E+03
    -27.556  0.0000E+00  0.0000E+00  0.1560E+03  0.1560E+03
    -27.316  0.0000E+00  0.0000E+00  0.1560E+03  0.1560E+03
    -27.076  0.0000E+00  0.0000E+00  0.1560E+03  0.1560E+03
    -26.837  0.0000E+00  0.0000E+00  0.1560E+03  0.1560E+03
    -26.597  0.0000E+00  0.0000E+00  0.1560E+03  0.1560E+03
    -26.357  0.0000E+00  0.0000E+00  0.1560E+03  0.1560E+03
    -26.118  0.0000E+00  0.0000E+00  0.1560E+03  0.1560E+03
    -25.878  0.0000E+00  0.0000E+00  0.1560E+03  0.1560E+03
    -25.639  0.0000E+00  0.0000E+00  0.1560E+03  0.1560E+03
    -25.399  0.0000E+00  0.0000E+00  0.1560E+03  0.1560E+03
    -25.159  0.0000E+00  0.0000E+00  0.1560E+03  0.1560E+03
    -24.920  0.0000E+00  0.0000E+00  0.1560E+03  0.1560E+03
    -24.680  0.0000E+00  0.0000E+00  0.1560E+03  0.1560E+03
    -24.441  0.0000E+00  0.0000E+00  0.1560E+03  0.1560E+03
    -24.201  0.0000E+00  0.0000E+00  0.1560E+03  0.1560E+03
    -23.961  0.0000E+00  0.0000E+00  0.1560E+03  0.1560E+03
    -23.722  0.0000E+00  0.0000E+00  0.1560E+03  0.1560E+03
    -23.482  0.0000E+00  0.0000E+00  0.1560E+03  0.1560E+03
    -23.242  0.0000E+00  0.0000E+00  0.1560E+03  0.1560E+03
    -23.003  0.0000E+00  0.0000E+00  0.1560E+03  0.1560E+03
    -22.763  0.0000E+00  0.0000E+00  0.1560E+03  0.1560E+03
    -22.524  0.0000E+00  0.0000E+00  0.1560E+03  0.1560E+03
    -22.284  0.0000E+00  0.0000E+00  0.1560E+03  0.1560E+03
    -22.044  0.0000E+00  0.0000E+00  0.1560E+03  0.1560E+03
    -21.805  0.0000E+00  0.0000E+00  0.1560E+03  0.1560E+03
    -21.565  0.0000E+00  0.0000E+00  0.1560E+03  0.1560E+03
    -21.326  0.0000E+00  0.0000E+00  0.1560E+03  0.1560E+03
    -21.086  0.0000E+00  0.0000E+00  0.1560E+03  0.1560E+03
    -20.846  0.0000E+00  0.0000E+00  0.1560E+03  0.1560E+03
    -20.607  0.0000E+00  0.0000E+00  0.1560E+03  0.1560E+03
    -20.367  0.0000E+00  0.0000E+00  0.1560E+03  0.1560E+03
    -20.127  0.0000E+00  0.0000E+00  0.1560E+03  0.1560E+03
    -19.888  0.0000E+00  0.0000E+00  0.1560E+03  0.1560E+03
    -19.648  0.0000E+00  0.0000E+00  0.1560E+03  0.1560E+03
    -19.409  0.0000E+00  0.0000E+00  0.1560E+03  0.1560E+03
    -19.169  0.0000E+00  0.0000E+00  0.1560E+03  0.1560E+03
    -18.929  0.0000E+00  0.0000E+00  0.1560E+03  0.1560E+03
    -18.690  0.0000E+00  0.0000E+00  0.1560E+03  0.1560E+03
    -18.450  0.0000E+00  0.0000E+00  0.1560E+03  0.1560E+03
    -18.211  0.0000E+00  0.0000E+00  0.1560E+03  0.1560E+03
    -17.971  0.0000E+00  0.0000E+00  0.1560E+03  0.1560E+03
    -17.731  0.0000E+00  0.0000E+00  0.1560E+03  0.1560E+03
    -17.492  0.0000E+00  0.0000E+00  0.1560E+03  0.1560E+03
    -17.252  0.0000E+00  0.0000E+00  0.1560E+03  0.1560E+03
    -17.012  0.0000E+00  0.0000E+00  0.1560E+03  0.1560E+03
    -16.773  0.0000E+00  0.0000E+00  0.1560E+03  0.1560E+03
    -16.533  0.0000E+00  0.0000E+00  0.1560E+03  0.1560E+03
    -16.294  0.0000E+00  0.0000E+00  0.1560E+03  0.1560E+03
    -16.054  0.0000E+00  0.0000E+00  0.1560E+03  0.1560E+03
    -15.814  0.0000E+00  0.0000E+00  0.1560E+03  0.1560E+03
    -15.575  0.0000E+00  0.0000E+00  0.1560E+03  0.1560E+03
    -15.335  0.0000E+00  0.0000E+00  0.1560E+03  0.1560E+03
    -15.096  0.0000E+00  0.0000E+00  0.1560E+03  0.1560E+03
    -14.856  0.0000E+00  0.0000E+00  0.1560E+03  0.1560E+03
    -14.616  0.0000E+00  0.0000E+00  0.1560E+03  0.1560E+03
    -14.377  0.0000E+00  0.0000E+00  0.1560E+03  0.1560E+03
    -14.137  0.0000E+00  0.0000E+00  0.1560E+03  0.1560E+03
    -13.897  0.1507E-02  0.0000E+00  0.1560E+03  0.1560E+03
    -13.658  0.2243E+02  0.8443E-13  0.1614E+03  0.1560E+03
    -13.418  0.2749E+02  0.1948E+01  0.1680E+03  0.1565E+03
    -13.179  0.9208E+01  0.4455E+02  0.1702E+03  0.1671E+03
    -12.939  0.3143E+02  0.4362E+01  0.1777E+03  0.1682E+03
    -12.699  0.9599E+01  0.4232E+02  0.1800E+03  0.1783E+03
    -12.460  0.0000E+00  0.6979E+01  0.1800E+03  0.1800E+03
    -12.220  0.0000E+00  0.0000E+00  0.1800E+03  0.1800E+03
    -11.981  0.0000E+00  0.0000E+00  0.1800E+03  0.1800E+03
    -11.741  0.0000E+00  0.0000E+00  0.1800E+03  0.1800E+03
    -11.501  0.0000E+00  0.0000E+00  0.1800E+03  0.1800E+03
    -11.262  0.0000E+00  0.0000E+00  0.1800E+03  0.1800E+03
    -11.022  0.0000E+00  0.0000E+00  0.1800E+03  0.1800E+03
    -10.782  0.0000E+00  0.0000E+00  0.1800E+03  0.1800E+03
    -10.543  0.0000E+00  0.0000E+00  0.1800E+03  0.1800E+03
    -10.303  0.0000E+00  0.0000E+00  0.1800E+03  0.1800E+03
    -10.064  0.0000E+00  0.0000E+00  0.1800E+03  0.1800E+03
     -9.824  0.0000E+00  0.0000E+00  0.1800E+03  0.1800E+03
     -9.584  0.0000E+00  0.0000E+00  0.1800E+03  0.1800E+03
     -9.345  0.0000E+00  0.0000E+00  0.1800E+03  0.1800E+03
     -9.105  0.0000E+00  0.0000E+00  0.1800E+03  0.1800E+03
     -8.866  0.0000E+00  0.0000E+00  0.1800E+03  0.1800E+03
     -8.626  0.0000E+00  0.0000E+00  0.1800E+03  0.1800E+03
     -8.386  0.0000E+00  0.0000E+00  0.1800E+03  0.1800E+03
     -8.147  0.0000E+00  0.0000E+00  0.1800E+03  0.1800E+03
     -7.907  0.2961E-02  0.0000E+00  0.1800E+03  0.1800E+03
     -7.667  0.9639E+01  0.2128E-01  0.1823E+03  0.1800E+03
     -7.428  0.2324E+02  0.1221E+02  0.1879E+03  0.1829E+03
     -7.188  0.5626E+02  0.2884E+02  0.2014E+03  0.1898E+03
     -6.949  0.5725E+02  0.6027E+02  0.2151E+03  0.2043E+03
     -6.709  0.3843E+01  0.4573E+02  0.2160E+03  0.2152E+03
     -6.469  0.0000E+00  0.3176E+01  0.2160E+03  0.2160E+03
     -6.230  0.0000E+00  0.0000E+00  0.2160E+03  0.2160E+03
     -5.990  0.0000E+00  0.0000E+00  0.2160E+03  0.2160E+03
     -5.751  0.0000E+00  0.0000E+00  0.2160E+03  0.2160E+03
     -5.511  0.0000E+00  0.0000E+00  0.2160E+03  0.2160E+03
     -5.271  0.0000E+00  0.0000E+00  0.2160E+03  0.2160E+03
     -5.032  0.0000E+00  0.0000E+00  0.2160E+03  0.2160E+03
     -4.792  0.0000E+00  0.0000E+00  0.2160E+03  0.2160E+03
     -4.552  0.0000E+00  0.0000E+00  0.2160E+03  0.2160E+03
     -4.313  0.0000E+00  0.0000E+00  0.2160E+03  0.2160E+03
     -4.073  0.0000E+00  0.0000E+00  0.2160E+03  0.2160E+03
     -3.834  0.0000E+00  0.0000E+00  0.2160E+03  0.2160E+03
     -3.594  0.0000E+00  0.0000E+00  0.2160E+03  0.2160E+03
     -3.354  0.0000E+00  0.0000E+00  0.2160E+03  0.2160E+03
     -3.115  0.0000E+00  0.0000E+00  0.2160E+03  0.2160E+03
     -2.875  0.2947E-13  0.0000E+00  0.2160E+03  0.2160E+03
     -2.636  0.9595E+00  0.0000E+00  0.2162E+03  0.2160E+03
     -2.396  0.1017E+02  0.0000E+00  0.2187E+03  0.2160E+03
     -2.156  0.2064E+02  0.0000E+00  0.2236E+03  0.2160E+03
     -1.917  0.1710E+01  0.0000E+00  0.2240E+03  0.2160E+03
     -1.677  0.3485E+02  0.0000E+00  0.2324E+03  0.2160E+03
     -1.437  0.1984E+02  0.7980E-15  0.2371E+03  0.2160E+03
     -1.198  0.4402E+02  0.9963E-01  0.2477E+03  0.2160E+03
     -0.958  0.4998E+02  0.4436E+01  0.2597E+03  0.2171E+03
     -0.719  0.7527E+02  0.1419E+02  0.2777E+03  0.2205E+03
     -0.479  0.1037E+03  0.1538E+02  0.3025E+03  0.2242E+03
     -0.239  0.8534E+02  0.1984E+02  0.3230E+03  0.2289E+03
      0.000  0.1105E+03  0.4121E+02  0.3495E+03  0.2388E+03
      0.240  0.6918E+02  0.3389E+02  0.3660E+03  0.2469E+03
      0.479  0.3795E+02  0.4232E+02  0.3751E+03  0.2571E+03
      0.719  0.4572E+02  0.3358E+02  0.3861E+03  0.2651E+03
      0.959  0.4870E+02  0.5331E+02  0.3978E+03  0.2779E+03
      1.198  0.5576E+02  0.6023E+02  0.4111E+03  0.2923E+03
      1.438  0.6462E+02  0.4443E+02  0.4266E+03  0.3030E+03
      1.678  0.1008E+03  0.3987E+02  0.4507E+03  0.3125E+03
      1.917  0.5178E+02  0.3857E+02  0.4632E+03  0.3218E+03
      2.157  0.3904E+02  0.3732E+02  0.4725E+03  0.3307E+03
      2.396  0.4650E+02  0.3837E+02  0.4836E+03  0.3399E+03
      2.636  0.4783E+02  0.4975E+02  0.4951E+03  0.3518E+03
      2.876  0.4345E+02  0.6271E+02  0.5055E+03  0.3668E+03
      3.115  0.4007E+02  0.5872E+02  0.5151E+03  0.3809E+03
      3.355  0.4779E+02  0.4769E+02  0.5266E+03  0.3923E+03
      3.594  0.5245E+02  0.3045E+02  0.5391E+03  0.3996E+03
      3.834  0.4521E+02  0.6162E+02  0.5500E+03  0.4144E+03
      4.074  0.3206E+02  0.7218E+02  0.5577E+03  0.4317E+03
      4.313  0.4225E+02  0.1283E+01  0.5678E+03  0.4320E+03
      4.553  0.2342E+02  0.0000E+00  0.5734E+03  0.4320E+03
      4.793  0.1007E+02  0.0000E+00  0.5758E+03  0.4320E+03
      5.032  0.8184E+00  0.0000E+00  0.5760E+03  0.4320E+03
      5.272  0.0000E+00  0.0000E+00  0.5760E+03  0.4320E+03
      5.511  0.0000E+00  0.0000E+00  0.5760E+03  0.4320E+03
      5.751  0.0000E+00  0.0000E+00  0.5760E+03  0.4320E+03
      5.991  0.0000E+00  0.9489E-11  0.5760E+03  0.4320E+03
      6.230  0.0000E+00  0.1562E+00  0.5760E+03  0.4320E+03
      6.470  0.0000E+00  0.8326E+01  0.5760E+03  0.4340E+03
      6.709  0.0000E+00  0.3053E+02  0.5760E+03  0.4413E+03
      6.949  0.1409E-11  0.4382E+02  0.5760E+03  0.4518E+03
      7.189  0.1158E+00  0.7363E+02  0.5760E+03  0.4695E+03
      7.428  0.1241E+00  0.8056E+02  0.5761E+03  0.4888E+03
      7.668  0.9253E+00  0.6542E+02  0.5763E+03  0.5045E+03
      7.908  0.3531E+01  0.8784E+02  0.5771E+03  0.5255E+03
      8.147  0.4262E+01  0.7111E+02  0.5781E+03  0.5426E+03
      8.387  0.7119E+01  0.5416E+02  0.5799E+03  0.5555E+03
      8.626  0.1655E+02  0.3725E+02  0.5838E+03  0.5645E+03
      8.866  0.2518E+02  0.3885E+02  0.5899E+03  0.5738E+03
      9.106  0.1923E+02  0.1917E+02  0.5945E+03  0.5784E+03
      9.345  0.2556E+02  0.1408E+02  0.6006E+03  0.5817E+03
      9.585  0.3138E+02  0.2060E+02  0.6081E+03  0.5867E+03
      9.824  0.2646E+02  0.3009E+02  0.6144E+03  0.5939E+03
     10.064  0.2958E+02  0.2656E+02  0.6215E+03  0.6002E+03
     10.304  0.2275E+02  0.3496E+02  0.6270E+03  0.6086E+03
     10.543  0.2040E+02  0.3518E+02  0.6319E+03  0.6171E+03
     10.783  0.2880E+02  0.2802E+02  0.6388E+03  0.6238E+03
     11.022  0.3888E+02  0.2226E+02  0.6481E+03  0.6291E+03
     11.262  0.3943E+02  0.2177E+02  0.6575E+03  0.6343E+03
     11.502  0.3721E+02  0.3236E+02  0.6665E+03  0.6421E+03
     11.741  0.4500E+02  0.3870E+02  0.6772E+03  0.6513E+03
     11.981  0.3840E+02  0.4272E+02  0.6864E+03  0.6616E+03
     12.221  0.3859E+02  0.5207E+02  0.6957E+03  0.6741E+03
     12.460  0.3997E+02  0.4662E+02  0.7053E+03  0.6852E+03
     12.700  0.3635E+02  0.3594E+02  0.7140E+03  0.6938E+03
     12.939  0.3430E+02  0.4134E+02  0.7222E+03  0.7037E+03
     13.179  0.2234E+02  0.3952E+02  0.7275E+03  0.7132E+03
     13.419  0.1911E+01  0.3429E+02  0.7280E+03  0.7214E+03
     13.658  0.0000E+00  0.2360E+02  0.7280E+03  0.7271E+03
     13.898  0.0000E+00  0.3804E+01  0.7280E+03  0.7280E+03
     14.137  0.0000E+00  0.3737E-05  0.7280E+03  0.7280E+03
     14.377  0.0000E+00  0.0000E+00  0.7280E+03  0.7280E+03
     14.617  0.0000E+00  0.0000E+00  0.7280E+03  0.7280E+03
     14.856  0.0000E+00  0.0000E+00  0.7280E+03  0.7280E+03
     15.096  0.0000E+00  0.0000E+00  0.7280E+03  0.7280E+03
     15.336  0.0000E+00  0.0000E+00  0.7280E+03  0.7280E+03
     15.575  0.0000E+00  0.0000E+00  0.7280E+03  0.7280E+03
     15.815  0.0000E+00  0.0000E+00  0.7280E+03  0.7280E+03
     16.054  0.0000E+00  0.0000E+00  0.7280E+03  0.7280E+03
     16.294  0.0000E+00  0.0000E+00  0.7280E+03  0.7280E+03
     16.534  0.0000E+00  0.0000E+00  0.7280E+03  0.7280E+03
     16.773  0.0000E+00  0.0000E+00  0.7280E+03  0.7280E+03
     17.013  0.0000E+00  0.0000E+00  0.7280E+03  0.7280E+03
