 144 144   0   0
  0.1325381E+02  0.1546422E-08  0.1214491E-08  0.1054520E-08  0.5000000E-15
  1.000000000000000E-004
  CAR 
 unknown system                          
     16.99387758    -54.87053266  301      5.07636288      1.00000000
    -54.871  0.0000E+00  0.0000E+00  0.0000E+00  0.0000E+00
    -54.631  0.0000E+00  0.0000E+00  0.0000E+00  0.0000E+00
    -54.391  0.0000E+00  0.0000E+00  0.0000E+00  0.0000E+00
    -54.152  0.0000E+00  0.0000E+00  0.0000E+00  0.0000E+00
    -53.912  0.0000E+00  0.0000E+00  0.0000E+00  0.0000E+00
    -53.673  0.0000E+00  0.0000E+00  0.0000E+00  0.0000E+00
    -53.433  0.0000E+00  0.0000E+00  0.0000E+00  0.0000E+00
    -53.194  0.0000E+00  0.0000E+00  0.0000E+00  0.0000E+00
    -52.954  0.0000E+00  0.0000E+00  0.0000E+00  0.0000E+00
    -52.715  0.0000E+00  0.0000E+00  0.0000E+00  0.0000E+00
    -52.475  0.0000E+00  0.0000E+00  0.0000E+00  0.0000E+00
    -52.236  0.0000E+00  0.0000E+00  0.0000E+00  0.0000E+00
    -51.996  0.0000E+00  0.0000E+00  0.0000E+00  0.0000E+00
    -51.756  0.3531E-03  0.0000E+00  0.8458E-04  0.0000E+00
    -51.517  0.4984E+02  0.0000E+00  0.1194E+02  0.0000E+00
    -51.277  0.8632E+02  0.0000E+00  0.3262E+02  0.0000E+00
    -51.038  0.1412E+02  0.0000E+00  0.3600E+02  0.0000E+00
    -50.798  0.0000E+00  0.0000E+00  0.3600E+02  0.0000E+00
    -50.559  0.0000E+00  0.0000E+00  0.3600E+02  0.0000E+00
    -50.319  0.1229E-03  0.0000E+00  0.3600E+02  0.0000E+00
    -50.080  0.6702E+02  0.0000E+00  0.5205E+02  0.0000E+00
    -49.840  0.2082E+03  0.0000E+00  0.1019E+03  0.0000E+00
    -49.600  0.2531E+02  0.0000E+00  0.1080E+03  0.0000E+00
    -49.361  0.0000E+00  0.0000E+00  0.1080E+03  0.0000E+00
    -49.121  0.0000E+00  0.0000E+00  0.1080E+03  0.0000E+00
    -48.882  0.0000E+00  0.0000E+00  0.1080E+03  0.0000E+00
    -48.642  0.0000E+00  0.0000E+00  0.1080E+03  0.0000E+00
    -48.403  0.0000E+00  0.0000E+00  0.1080E+03  0.0000E+00
    -48.163  0.0000E+00  0.0000E+00  0.1080E+03  0.0000E+00
    -47.924  0.0000E+00  0.0000E+00  0.1080E+03  0.0000E+00
    -47.684  0.0000E+00  0.0000E+00  0.1080E+03  0.0000E+00
    -47.445  0.0000E+00  0.0000E+00  0.1080E+03  0.0000E+00
    -47.205  0.0000E+00  0.0000E+00  0.1080E+03  0.0000E+00
    -46.965  0.0000E+00  0.5947E-01  0.1080E+03  0.1425E-01
    -46.726  0.0000E+00  0.5087E+02  0.1080E+03  0.1220E+02
    -46.486  0.0000E+00  0.9528E+02  0.1080E+03  0.3502E+02
    -46.247  0.0000E+00  0.1446E+03  0.1080E+03  0.6967E+02
    -46.007  0.0000E+00  0.1600E+03  0.1080E+03  0.1080E+03
    -45.768  0.0000E+00  0.5296E-02  0.1080E+03  0.1080E+03
    -45.528  0.0000E+00  0.0000E+00  0.1080E+03  0.1080E+03
    -45.289  0.0000E+00  0.0000E+00  0.1080E+03  0.1080E+03
    -45.049  0.0000E+00  0.0000E+00  0.1080E+03  0.1080E+03
    -44.810  0.0000E+00  0.0000E+00  0.1080E+03  0.1080E+03
    -44.570  0.0000E+00  0.0000E+00  0.1080E+03  0.1080E+03
    -44.330  0.0000E+00  0.0000E+00  0.1080E+03  0.1080E+03
    -44.091  0.0000E+00  0.0000E+00  0.1080E+03  0.1080E+03
    -43.851  0.0000E+00  0.0000E+00  0.1080E+03  0.1080E+03
    -43.612  0.0000E+00  0.0000E+00  0.1080E+03  0.1080E+03
    -43.372  0.0000E+00  0.0000E+00  0.1080E+03  0.1080E+03
    -43.133  0.0000E+00  0.0000E+00  0.1080E+03  0.1080E+03
    -42.893  0.0000E+00  0.0000E+00  0.1080E+03  0.1080E+03
    -42.654  0.0000E+00  0.0000E+00  0.1080E+03  0.1080E+03
    -42.414  0.0000E+00  0.0000E+00  0.1080E+03  0.1080E+03
    -42.174  0.0000E+00  0.0000E+00  0.1080E+03  0.1080E+03
    -41.935  0.0000E+00  0.0000E+00  0.1080E+03  0.1080E+03
    -41.695  0.0000E+00  0.0000E+00  0.1080E+03  0.1080E+03
    -41.456  0.0000E+00  0.0000E+00  0.1080E+03  0.1080E+03
    -41.216  0.0000E+00  0.0000E+00  0.1080E+03  0.1080E+03
    -40.977  0.0000E+00  0.0000E+00  0.1080E+03  0.1080E+03
    -40.737  0.1116E-08  0.3634E-09  0.1080E+03  0.1080E+03
    -40.498  0.2865E+02  0.2538E+02  0.1149E+03  0.1141E+03
    -40.258  0.4595E+02  0.4966E+02  0.1259E+03  0.1260E+03
    -40.019  0.1000E+03  0.9999E+02  0.1498E+03  0.1499E+03
    -39.779  0.2576E+02  0.2534E+02  0.1560E+03  0.1560E+03
    -39.539  0.0000E+00  0.0000E+00  0.1560E+03  0.1560E+03
    -39.300  0.0000E+00  0.0000E+00  0.1560E+03  0.1560E+03
    -39.060  0.0000E+00  0.0000E+00  0.1560E+03  0.1560E+03
    -38.821  0.0000E+00  0.0000E+00  0.1560E+03  0.1560E+03
    -38.581  0.0000E+00  0.0000E+00  0.1560E+03  0.1560E+03
    -38.342  0.0000E+00  0.0000E+00  0.1560E+03  0.1560E+03
    -38.102  0.0000E+00  0.0000E+00  0.1560E+03  0.1560E+03
    -37.863  0.0000E+00  0.0000E+00  0.1560E+03  0.1560E+03
    -37.623  0.0000E+00  0.0000E+00  0.1560E+03  0.1560E+03
    -37.384  0.0000E+00  0.0000E+00  0.1560E+03  0.1560E+03
    -37.144  0.0000E+00  0.0000E+00  0.1560E+03  0.1560E+03
    -36.904  0.0000E+00  0.0000E+00  0.1560E+03  0.1560E+03
    -36.665  0.0000E+00  0.0000E+00  0.1560E+03  0.1560E+03
    -36.425  0.0000E+00  0.0000E+00  0.1560E+03  0.1560E+03
    -36.186  0.0000E+00  0.0000E+00  0.1560E+03  0.1560E+03
    -35.946  0.0000E+00  0.0000E+00  0.1560E+03  0.1560E+03
    -35.707  0.0000E+00  0.0000E+00  0.1560E+03  0.1560E+03
    -35.467  0.0000E+00  0.0000E+00  0.1560E+03  0.1560E+03
    -35.228  0.0000E+00  0.0000E+00  0.1560E+03  0.1560E+03
    -34.988  0.0000E+00  0.0000E+00  0.1560E+03  0.1560E+03
    -34.748  0.0000E+00  0.0000E+00  0.1560E+03  0.1560E+03
    -34.509  0.0000E+00  0.0000E+00  0.1560E+03  0.1560E+03
    -34.269  0.0000E+00  0.0000E+00  0.1560E+03  0.1560E+03
    -34.030  0.0000E+00  0.0000E+00  0.1560E+03  0.1560E+03
    -33.790  0.0000E+00  0.0000E+00  0.1560E+03  0.1560E+03
    -33.551  0.0000E+00  0.0000E+00  0.1560E+03  0.1560E+03
    -33.311  0.0000E+00  0.0000E+00  0.1560E+03  0.1560E+03
    -33.072  0.0000E+00  0.0000E+00  0.1560E+03  0.1560E+03
    -32.832  0.0000E+00  0.0000E+00  0.1560E+03  0.1560E+03
    -32.593  0.0000E+00  0.0000E+00  0.1560E+03  0.1560E+03
    -32.353  0.0000E+00  0.0000E+00  0.1560E+03  0.1560E+03
    -32.113  0.0000E+00  0.0000E+00  0.1560E+03  0.1560E+03
    -31.874  0.0000E+00  0.0000E+00  0.1560E+03  0.1560E+03
    -31.634  0.0000E+00  0.0000E+00  0.1560E+03  0.1560E+03
    -31.395  0.0000E+00  0.0000E+00  0.1560E+03  0.1560E+03
    -31.155  0.0000E+00  0.0000E+00  0.1560E+03  0.1560E+03
    -30.916  0.0000E+00  0.0000E+00  0.1560E+03  0.1560E+03
    -30.676  0.0000E+00  0.0000E+00  0.1560E+03  0.1560E+03
    -30.437  0.0000E+00  0.0000E+00  0.1560E+03  0.1560E+03
    -30.197  0.0000E+00  0.0000E+00  0.1560E+03  0.1560E+03
    -29.958  0.0000E+00  0.0000E+00  0.1560E+03  0.1560E+03
    -29.718  0.0000E+00  0.0000E+00  0.1560E+03  0.1560E+03
    -29.478  0.0000E+00  0.0000E+00  0.1560E+03  0.1560E+03
    -29.239  0.0000E+00  0.0000E+00  0.1560E+03  0.1560E+03
    -28.999  0.0000E+00  0.0000E+00  0.1560E+03  0.1560E+03
    -28.760  0.0000E+00  0.0000E+00  0.1560E+03  0.1560E+03
    -28.520  0.0000E+00  0.0000E+00  0.1560E+03  0.1560E+03
    -28.281  0.0000E+00  0.0000E+00  0.1560E+03  0.1560E+03
    -28.041  0.0000E+00  0.0000E+00  0.1560E+03  0.1560E+03
    -27.802  0.0000E+00  0.0000E+00  0.1560E+03  0.1560E+03
    -27.562  0.0000E+00  0.0000E+00  0.1560E+03  0.1560E+03
    -27.323  0.0000E+00  0.0000E+00  0.1560E+03  0.1560E+03
    -27.083  0.0000E+00  0.0000E+00  0.1560E+03  0.1560E+03
    -26.843  0.0000E+00  0.0000E+00  0.1560E+03  0.1560E+03
    -26.604  0.0000E+00  0.0000E+00  0.1560E+03  0.1560E+03
    -26.364  0.0000E+00  0.0000E+00  0.1560E+03  0.1560E+03
    -26.125  0.0000E+00  0.0000E+00  0.1560E+03  0.1560E+03
    -25.885  0.0000E+00  0.0000E+00  0.1560E+03  0.1560E+03
    -25.646  0.0000E+00  0.0000E+00  0.1560E+03  0.1560E+03
    -25.406  0.0000E+00  0.0000E+00  0.1560E+03  0.1560E+03
    -25.167  0.0000E+00  0.0000E+00  0.1560E+03  0.1560E+03
    -24.927  0.0000E+00  0.0000E+00  0.1560E+03  0.1560E+03
    -24.687  0.0000E+00  0.0000E+00  0.1560E+03  0.1560E+03
    -24.448  0.0000E+00  0.0000E+00  0.1560E+03  0.1560E+03
    -24.208  0.0000E+00  0.0000E+00  0.1560E+03  0.1560E+03
    -23.969  0.0000E+00  0.0000E+00  0.1560E+03  0.1560E+03
    -23.729  0.0000E+00  0.0000E+00  0.1560E+03  0.1560E+03
    -23.490  0.0000E+00  0.0000E+00  0.1560E+03  0.1560E+03
    -23.250  0.0000E+00  0.0000E+00  0.1560E+03  0.1560E+03
    -23.011  0.0000E+00  0.0000E+00  0.1560E+03  0.1560E+03
    -22.771  0.0000E+00  0.0000E+00  0.1560E+03  0.1560E+03
    -22.532  0.0000E+00  0.0000E+00  0.1560E+03  0.1560E+03
    -22.292  0.0000E+00  0.0000E+00  0.1560E+03  0.1560E+03
    -22.052  0.0000E+00  0.0000E+00  0.1560E+03  0.1560E+03
    -21.813  0.0000E+00  0.0000E+00  0.1560E+03  0.1560E+03
    -21.573  0.0000E+00  0.0000E+00  0.1560E+03  0.1560E+03
    -21.334  0.0000E+00  0.0000E+00  0.1560E+03  0.1560E+03
    -21.094  0.0000E+00  0.0000E+00  0.1560E+03  0.1560E+03
    -20.855  0.0000E+00  0.0000E+00  0.1560E+03  0.1560E+03
    -20.615  0.0000E+00  0.0000E+00  0.1560E+03  0.1560E+03
    -20.376  0.0000E+00  0.0000E+00  0.1560E+03  0.1560E+03
    -20.136  0.0000E+00  0.0000E+00  0.1560E+03  0.1560E+03
    -19.897  0.0000E+00  0.0000E+00  0.1560E+03  0.1560E+03
    -19.657  0.0000E+00  0.0000E+00  0.1560E+03  0.1560E+03
    -19.417  0.0000E+00  0.0000E+00  0.1560E+03  0.1560E+03
    -19.178  0.0000E+00  0.0000E+00  0.1560E+03  0.1560E+03
    -18.938  0.0000E+00  0.0000E+00  0.1560E+03  0.1560E+03
    -18.699  0.0000E+00  0.0000E+00  0.1560E+03  0.1560E+03
    -18.459  0.0000E+00  0.0000E+00  0.1560E+03  0.1560E+03
    -18.220  0.0000E+00  0.0000E+00  0.1560E+03  0.1560E+03
    -17.980  0.0000E+00  0.0000E+00  0.1560E+03  0.1560E+03
    -17.741  0.0000E+00  0.0000E+00  0.1560E+03  0.1560E+03
    -17.501  0.0000E+00  0.0000E+00  0.1560E+03  0.1560E+03
    -17.261  0.0000E+00  0.0000E+00  0.1560E+03  0.1560E+03
    -17.022  0.0000E+00  0.0000E+00  0.1560E+03  0.1560E+03
    -16.782  0.0000E+00  0.0000E+00  0.1560E+03  0.1560E+03
    -16.543  0.0000E+00  0.0000E+00  0.1560E+03  0.1560E+03
    -16.303  0.0000E+00  0.0000E+00  0.1560E+03  0.1560E+03
    -16.064  0.0000E+00  0.0000E+00  0.1560E+03  0.1560E+03
    -15.824  0.0000E+00  0.0000E+00  0.1560E+03  0.1560E+03
    -15.585  0.0000E+00  0.0000E+00  0.1560E+03  0.1560E+03
    -15.345  0.0000E+00  0.0000E+00  0.1560E+03  0.1560E+03
    -15.106  0.0000E+00  0.0000E+00  0.1560E+03  0.1560E+03
    -14.866  0.0000E+00  0.0000E+00  0.1560E+03  0.1560E+03
    -14.626  0.0000E+00  0.0000E+00  0.1560E+03  0.1560E+03
    -14.387  0.0000E+00  0.0000E+00  0.1560E+03  0.1560E+03
    -14.147  0.0000E+00  0.0000E+00  0.1560E+03  0.1560E+03
    -13.908  0.4841E-03  0.0000E+00  0.1560E+03  0.1560E+03
    -13.668  0.2101E+02  0.8304E-14  0.1610E+03  0.1560E+03
    -13.429  0.2876E+02  0.1173E+01  0.1679E+03  0.1563E+03
    -13.189  0.7668E+01  0.4380E+02  0.1698E+03  0.1668E+03
    -12.950  0.3162E+02  0.5552E+01  0.1773E+03  0.1681E+03
    -12.710  0.1114E+02  0.4076E+02  0.1800E+03  0.1779E+03
    -12.471  0.0000E+00  0.8894E+01  0.1800E+03  0.1800E+03
    -12.231  0.0000E+00  0.0000E+00  0.1800E+03  0.1800E+03
    -11.991  0.0000E+00  0.0000E+00  0.1800E+03  0.1800E+03
    -11.752  0.0000E+00  0.0000E+00  0.1800E+03  0.1800E+03
    -11.512  0.0000E+00  0.0000E+00  0.1800E+03  0.1800E+03
    -11.273  0.0000E+00  0.0000E+00  0.1800E+03  0.1800E+03
    -11.033  0.0000E+00  0.0000E+00  0.1800E+03  0.1800E+03
    -10.794  0.0000E+00  0.0000E+00  0.1800E+03  0.1800E+03
    -10.554  0.0000E+00  0.0000E+00  0.1800E+03  0.1800E+03
    -10.315  0.0000E+00  0.0000E+00  0.1800E+03  0.1800E+03
    -10.075  0.0000E+00  0.0000E+00  0.1800E+03  0.1800E+03
     -9.836  0.0000E+00  0.0000E+00  0.1800E+03  0.1800E+03
     -9.596  0.0000E+00  0.0000E+00  0.1800E+03  0.1800E+03
     -9.356  0.0000E+00  0.0000E+00  0.1800E+03  0.1800E+03
     -9.117  0.0000E+00  0.0000E+00  0.1800E+03  0.1800E+03
     -8.877  0.0000E+00  0.0000E+00  0.1800E+03  0.1800E+03
     -8.638  0.0000E+00  0.0000E+00  0.1800E+03  0.1800E+03
     -8.398  0.0000E+00  0.0000E+00  0.1800E+03  0.1800E+03
     -8.159  0.0000E+00  0.0000E+00  0.1800E+03  0.1800E+03
     -7.919  0.9834E-03  0.0000E+00  0.1800E+03  0.1800E+03
     -7.680  0.8713E+01  0.8361E-02  0.1821E+03  0.1800E+03
     -7.440  0.2242E+02  0.1126E+02  0.1875E+03  0.1827E+03
     -7.200  0.5396E+02  0.2730E+02  0.2004E+03  0.1892E+03
     -6.961  0.6023E+02  0.5876E+02  0.2148E+03  0.2033E+03
     -6.721  0.4956E+01  0.4884E+02  0.2160E+03  0.2150E+03
     -6.482  0.0000E+00  0.4115E+01  0.2160E+03  0.2160E+03
     -6.242  0.0000E+00  0.0000E+00  0.2160E+03  0.2160E+03
     -6.003  0.0000E+00  0.0000E+00  0.2160E+03  0.2160E+03
     -5.763  0.0000E+00  0.0000E+00  0.2160E+03  0.2160E+03
     -5.524  0.0000E+00  0.0000E+00  0.2160E+03  0.2160E+03
     -5.284  0.0000E+00  0.0000E+00  0.2160E+03  0.2160E+03
     -5.045  0.0000E+00  0.0000E+00  0.2160E+03  0.2160E+03
     -4.805  0.0000E+00  0.0000E+00  0.2160E+03  0.2160E+03
     -4.565  0.0000E+00  0.0000E+00  0.2160E+03  0.2160E+03
     -4.326  0.0000E+00  0.0000E+00  0.2160E+03  0.2160E+03
     -4.086  0.0000E+00  0.0000E+00  0.2160E+03  0.2160E+03
     -3.847  0.0000E+00  0.0000E+00  0.2160E+03  0.2160E+03
     -3.607  0.0000E+00  0.0000E+00  0.2160E+03  0.2160E+03
     -3.368  0.0000E+00  0.0000E+00  0.2160E+03  0.2160E+03
     -3.128  0.0000E+00  0.0000E+00  0.2160E+03  0.2160E+03
     -2.889  0.1468E-14  0.0000E+00  0.2160E+03  0.2160E+03
     -2.649  0.4742E+00  0.0000E+00  0.2161E+03  0.2160E+03
     -2.410  0.1066E+02  0.0000E+00  0.2187E+03  0.2160E+03
     -2.170  0.1953E+02  0.0000E+00  0.2233E+03  0.2160E+03
     -1.930  0.2763E+01  0.0000E+00  0.2240E+03  0.2160E+03
     -1.691  0.3340E+02  0.0000E+00  0.2320E+03  0.2160E+03
     -1.451  0.1861E+02  0.2575E-16  0.2365E+03  0.2160E+03
     -1.212  0.4466E+02  0.4642E-01  0.2472E+03  0.2160E+03
     -0.972  0.4843E+02  0.4318E+01  0.2588E+03  0.2170E+03
     -0.733  0.7420E+02  0.1360E+02  0.2765E+03  0.2203E+03
     -0.493  0.1018E+03  0.1501E+02  0.3009E+03  0.2239E+03
     -0.254  0.8555E+02  0.1870E+02  0.3214E+03  0.2284E+03
     -0.014  0.1104E+03  0.4146E+02  0.3479E+03  0.2383E+03
      0.226  0.7219E+02  0.3400E+02  0.3652E+03  0.2465E+03
      0.465  0.3934E+02  0.4125E+02  0.3746E+03  0.2563E+03
      0.705  0.4562E+02  0.3451E+02  0.3855E+03  0.2646E+03
      0.944  0.4865E+02  0.5145E+02  0.3972E+03  0.2769E+03
      1.184  0.5477E+02  0.6135E+02  0.4103E+03  0.2916E+03
      1.423  0.6315E+02  0.4436E+02  0.4254E+03  0.3023E+03
      1.663  0.1004E+03  0.4082E+02  0.4495E+03  0.3120E+03
      1.902  0.5551E+02  0.3811E+02  0.4628E+03  0.3212E+03
      2.142  0.3774E+02  0.3767E+02  0.4718E+03  0.3302E+03
      2.381  0.4665E+02  0.3801E+02  0.4830E+03  0.3393E+03
      2.621  0.4768E+02  0.4800E+02  0.4944E+03  0.3508E+03
      2.861  0.4392E+02  0.6349E+02  0.5049E+03  0.3660E+03
      3.100  0.4037E+02  0.5876E+02  0.5146E+03  0.3801E+03
      3.340  0.4607E+02  0.4937E+02  0.5256E+03  0.3919E+03
      3.579  0.5301E+02  0.2869E+02  0.5383E+03  0.3988E+03
      3.819  0.4623E+02  0.5975E+02  0.5494E+03  0.4131E+03
      4.058  0.3174E+02  0.7719E+02  0.5570E+03  0.4316E+03
      4.298  0.4281E+02  0.1790E+01  0.5673E+03  0.4320E+03
      4.537  0.2436E+02  0.0000E+00  0.5731E+03  0.4320E+03
      4.777  0.1087E+02  0.0000E+00  0.5757E+03  0.4320E+03
      5.016  0.1231E+01  0.0000E+00  0.5760E+03  0.4320E+03
      5.256  0.0000E+00  0.0000E+00  0.5760E+03  0.4320E+03
      5.496  0.0000E+00  0.0000E+00  0.5760E+03  0.4320E+03
      5.735  0.0000E+00  0.0000E+00  0.5760E+03  0.4320E+03
      5.975  0.0000E+00  0.4335E-12  0.5760E+03  0.4320E+03
      6.214  0.0000E+00  0.1042E+00  0.5760E+03  0.4320E+03
      6.454  0.0000E+00  0.7520E+01  0.5760E+03  0.4338E+03
      6.693  0.0000E+00  0.2927E+02  0.5760E+03  0.4408E+03
      6.933  0.5475E-13  0.4204E+02  0.5760E+03  0.4509E+03
      7.172  0.7505E-01  0.7156E+02  0.5760E+03  0.4681E+03
      7.412  0.1592E+00  0.8150E+02  0.5761E+03  0.4876E+03
      7.652  0.7777E+00  0.6533E+02  0.5762E+03  0.5032E+03
      7.891  0.3362E+01  0.8794E+02  0.5770E+03  0.5243E+03
      8.131  0.4292E+01  0.7231E+02  0.5781E+03  0.5416E+03
      8.370  0.6724E+01  0.5531E+02  0.5797E+03  0.5549E+03
      8.610  0.1572E+02  0.3703E+02  0.5835E+03  0.5637E+03
      8.849  0.2557E+02  0.4032E+02  0.5896E+03  0.5734E+03
      9.089  0.1937E+02  0.2011E+02  0.5942E+03  0.5782E+03
      9.328  0.2456E+02  0.1318E+02  0.6001E+03  0.5814E+03
      9.568  0.3079E+02  0.2054E+02  0.6075E+03  0.5863E+03
      9.807  0.2705E+02  0.2966E+02  0.6140E+03  0.5934E+03
     10.047  0.3000E+02  0.2651E+02  0.6211E+03  0.5997E+03
     10.287  0.2280E+02  0.3369E+02  0.6266E+03  0.6078E+03
     10.526  0.2049E+02  0.3657E+02  0.6315E+03  0.6166E+03
     10.766  0.2763E+02  0.2759E+02  0.6381E+03  0.6232E+03
     11.005  0.3909E+02  0.2322E+02  0.6475E+03  0.6287E+03
     11.245  0.3920E+02  0.2099E+02  0.6569E+03  0.6338E+03
     11.484  0.3769E+02  0.3204E+02  0.6659E+03  0.6414E+03
     11.724  0.4407E+02  0.3895E+02  0.6765E+03  0.6508E+03
     11.963  0.3914E+02  0.4202E+02  0.6858E+03  0.6608E+03
     12.203  0.3814E+02  0.5147E+02  0.6950E+03  0.6732E+03
     12.442  0.3964E+02  0.4748E+02  0.7045E+03  0.6845E+03
     12.682  0.3711E+02  0.3611E+02  0.7134E+03  0.6932E+03
     12.922  0.3449E+02  0.4103E+02  0.7216E+03  0.7030E+03
     13.161  0.2416E+02  0.4048E+02  0.7274E+03  0.7127E+03
     13.401  0.2427E+01  0.3372E+02  0.7280E+03  0.7208E+03
     13.640  0.0000E+00  0.2511E+02  0.7280E+03  0.7268E+03
     13.880  0.0000E+00  0.4938E+01  0.7280E+03  0.7280E+03
     14.119  0.0000E+00  0.3758E-05  0.7280E+03  0.7280E+03
     14.359  0.0000E+00  0.0000E+00  0.7280E+03  0.7280E+03
     14.598  0.0000E+00  0.0000E+00  0.7280E+03  0.7280E+03
     14.838  0.0000E+00  0.0000E+00  0.7280E+03  0.7280E+03
     15.077  0.0000E+00  0.0000E+00  0.7280E+03  0.7280E+03
     15.317  0.0000E+00  0.0000E+00  0.7280E+03  0.7280E+03
     15.557  0.0000E+00  0.0000E+00  0.7280E+03  0.7280E+03
     15.796  0.0000E+00  0.0000E+00  0.7280E+03  0.7280E+03
     16.036  0.0000E+00  0.0000E+00  0.7280E+03  0.7280E+03
     16.275  0.0000E+00  0.0000E+00  0.7280E+03  0.7280E+03
     16.515  0.0000E+00  0.0000E+00  0.7280E+03  0.7280E+03
     16.754  0.0000E+00  0.0000E+00  0.7280E+03  0.7280E+03
     16.994  0.0000E+00  0.0000E+00  0.7280E+03  0.7280E+03
