 144 144   0   0
  0.1325381E+02  0.1546422E-08  0.1214491E-08  0.1054520E-08  0.5000000E-15
  1.000000000000000E-004
  CAR 
 unknown system                          
     17.00985395    -54.87116429  301      5.08958509      1.00000000
    -54.871  0.0000E+00  0.0000E+00  0.0000E+00  0.0000E+00
    -54.632  0.0000E+00  0.0000E+00  0.0000E+00  0.0000E+00
    -54.392  0.0000E+00  0.0000E+00  0.0000E+00  0.0000E+00
    -54.152  0.0000E+00  0.0000E+00  0.0000E+00  0.0000E+00
    -53.913  0.0000E+00  0.0000E+00  0.0000E+00  0.0000E+00
    -53.673  0.0000E+00  0.0000E+00  0.0000E+00  0.0000E+00
    -53.434  0.0000E+00  0.0000E+00  0.0000E+00  0.0000E+00
    -53.194  0.0000E+00  0.0000E+00  0.0000E+00  0.0000E+00
    -52.954  0.0000E+00  0.0000E+00  0.0000E+00  0.0000E+00
    -52.715  0.0000E+00  0.0000E+00  0.0000E+00  0.0000E+00
    -52.475  0.0000E+00  0.0000E+00  0.0000E+00  0.0000E+00
    -52.236  0.0000E+00  0.0000E+00  0.0000E+00  0.0000E+00
    -51.996  0.0000E+00  0.0000E+00  0.0000E+00  0.0000E+00
    -51.756  0.3459E-03  0.0000E+00  0.8289E-04  0.0000E+00
    -51.517  0.4983E+02  0.0000E+00  0.1194E+02  0.0000E+00
    -51.277  0.8635E+02  0.0000E+00  0.3263E+02  0.0000E+00
    -51.038  0.1407E+02  0.0000E+00  0.3600E+02  0.0000E+00
    -50.798  0.0000E+00  0.0000E+00  0.3600E+02  0.0000E+00
    -50.558  0.0000E+00  0.0000E+00  0.3600E+02  0.0000E+00
    -50.319  0.1250E-03  0.0000E+00  0.3600E+02  0.0000E+00
    -50.079  0.6711E+02  0.0000E+00  0.5208E+02  0.0000E+00
    -49.839  0.2084E+03  0.0000E+00  0.1020E+03  0.0000E+00
    -49.600  0.2496E+02  0.0000E+00  0.1080E+03  0.0000E+00
    -49.360  0.0000E+00  0.0000E+00  0.1080E+03  0.0000E+00
    -49.121  0.0000E+00  0.0000E+00  0.1080E+03  0.0000E+00
    -48.881  0.0000E+00  0.0000E+00  0.1080E+03  0.0000E+00
    -48.641  0.0000E+00  0.0000E+00  0.1080E+03  0.0000E+00
    -48.402  0.0000E+00  0.0000E+00  0.1080E+03  0.0000E+00
    -48.162  0.0000E+00  0.0000E+00  0.1080E+03  0.0000E+00
    -47.923  0.0000E+00  0.0000E+00  0.1080E+03  0.0000E+00
    -47.683  0.0000E+00  0.0000E+00  0.1080E+03  0.0000E+00
    -47.443  0.0000E+00  0.0000E+00  0.1080E+03  0.0000E+00
    -47.204  0.0000E+00  0.0000E+00  0.1080E+03  0.0000E+00
    -46.964  0.0000E+00  0.6483E-01  0.1080E+03  0.1553E-01
    -46.725  0.0000E+00  0.5093E+02  0.1080E+03  0.1222E+02
    -46.485  0.0000E+00  0.9548E+02  0.1080E+03  0.3510E+02
    -46.245  0.0000E+00  0.1459E+03  0.1080E+03  0.7006E+02
    -46.006  0.0000E+00  0.1583E+03  0.1080E+03  0.1080E+03
    -45.766  0.0000E+00  0.4564E-02  0.1080E+03  0.1080E+03
    -45.527  0.0000E+00  0.0000E+00  0.1080E+03  0.1080E+03
    -45.287  0.0000E+00  0.0000E+00  0.1080E+03  0.1080E+03
    -45.047  0.0000E+00  0.0000E+00  0.1080E+03  0.1080E+03
    -44.808  0.0000E+00  0.0000E+00  0.1080E+03  0.1080E+03
    -44.568  0.0000E+00  0.0000E+00  0.1080E+03  0.1080E+03
    -44.329  0.0000E+00  0.0000E+00  0.1080E+03  0.1080E+03
    -44.089  0.0000E+00  0.0000E+00  0.1080E+03  0.1080E+03
    -43.849  0.0000E+00  0.0000E+00  0.1080E+03  0.1080E+03
    -43.610  0.0000E+00  0.0000E+00  0.1080E+03  0.1080E+03
    -43.370  0.0000E+00  0.0000E+00  0.1080E+03  0.1080E+03
    -43.131  0.0000E+00  0.0000E+00  0.1080E+03  0.1080E+03
    -42.891  0.0000E+00  0.0000E+00  0.1080E+03  0.1080E+03
    -42.651  0.0000E+00  0.0000E+00  0.1080E+03  0.1080E+03
    -42.412  0.0000E+00  0.0000E+00  0.1080E+03  0.1080E+03
    -42.172  0.0000E+00  0.0000E+00  0.1080E+03  0.1080E+03
    -41.933  0.0000E+00  0.0000E+00  0.1080E+03  0.1080E+03
    -41.693  0.0000E+00  0.0000E+00  0.1080E+03  0.1080E+03
    -41.453  0.0000E+00  0.0000E+00  0.1080E+03  0.1080E+03
    -41.214  0.0000E+00  0.0000E+00  0.1080E+03  0.1080E+03
    -40.974  0.0000E+00  0.0000E+00  0.1080E+03  0.1080E+03
    -40.735  0.1625E-08  0.5335E-09  0.1080E+03  0.1080E+03
    -40.495  0.2977E+02  0.2652E+02  0.1151E+03  0.1144E+03
    -40.255  0.4643E+02  0.5009E+02  0.1263E+03  0.1264E+03
    -40.016  0.1001E+03  0.1000E+03  0.1502E+03  0.1503E+03
    -39.776  0.2401E+02  0.2367E+02  0.1560E+03  0.1560E+03
    -39.537  0.0000E+00  0.0000E+00  0.1560E+03  0.1560E+03
    -39.297  0.0000E+00  0.0000E+00  0.1560E+03  0.1560E+03
    -39.057  0.0000E+00  0.0000E+00  0.1560E+03  0.1560E+03
    -38.818  0.0000E+00  0.0000E+00  0.1560E+03  0.1560E+03
    -38.578  0.0000E+00  0.0000E+00  0.1560E+03  0.1560E+03
    -38.339  0.0000E+00  0.0000E+00  0.1560E+03  0.1560E+03
    -38.099  0.0000E+00  0.0000E+00  0.1560E+03  0.1560E+03
    -37.859  0.0000E+00  0.0000E+00  0.1560E+03  0.1560E+03
    -37.620  0.0000E+00  0.0000E+00  0.1560E+03  0.1560E+03
    -37.380  0.0000E+00  0.0000E+00  0.1560E+03  0.1560E+03
    -37.141  0.0000E+00  0.0000E+00  0.1560E+03  0.1560E+03
    -36.901  0.0000E+00  0.0000E+00  0.1560E+03  0.1560E+03
    -36.661  0.0000E+00  0.0000E+00  0.1560E+03  0.1560E+03
    -36.422  0.0000E+00  0.0000E+00  0.1560E+03  0.1560E+03
    -36.182  0.0000E+00  0.0000E+00  0.1560E+03  0.1560E+03
    -35.942  0.0000E+00  0.0000E+00  0.1560E+03  0.1560E+03
    -35.703  0.0000E+00  0.0000E+00  0.1560E+03  0.1560E+03
    -35.463  0.0000E+00  0.0000E+00  0.1560E+03  0.1560E+03
    -35.224  0.0000E+00  0.0000E+00  0.1560E+03  0.1560E+03
    -34.984  0.0000E+00  0.0000E+00  0.1560E+03  0.1560E+03
    -34.744  0.0000E+00  0.0000E+00  0.1560E+03  0.1560E+03
    -34.505  0.0000E+00  0.0000E+00  0.1560E+03  0.1560E+03
    -34.265  0.0000E+00  0.0000E+00  0.1560E+03  0.1560E+03
    -34.026  0.0000E+00  0.0000E+00  0.1560E+03  0.1560E+03
    -33.786  0.0000E+00  0.0000E+00  0.1560E+03  0.1560E+03
    -33.546  0.0000E+00  0.0000E+00  0.1560E+03  0.1560E+03
    -33.307  0.0000E+00  0.0000E+00  0.1560E+03  0.1560E+03
    -33.067  0.0000E+00  0.0000E+00  0.1560E+03  0.1560E+03
    -32.828  0.0000E+00  0.0000E+00  0.1560E+03  0.1560E+03
    -32.588  0.0000E+00  0.0000E+00  0.1560E+03  0.1560E+03
    -32.348  0.0000E+00  0.0000E+00  0.1560E+03  0.1560E+03
    -32.109  0.0000E+00  0.0000E+00  0.1560E+03  0.1560E+03
    -31.869  0.0000E+00  0.0000E+00  0.1560E+03  0.1560E+03
    -31.630  0.0000E+00  0.0000E+00  0.1560E+03  0.1560E+03
    -31.390  0.0000E+00  0.0000E+00  0.1560E+03  0.1560E+03
    -31.150  0.0000E+00  0.0000E+00  0.1560E+03  0.1560E+03
    -30.911  0.0000E+00  0.0000E+00  0.1560E+03  0.1560E+03
    -30.671  0.0000E+00  0.0000E+00  0.1560E+03  0.1560E+03
    -30.432  0.0000E+00  0.0000E+00  0.1560E+03  0.1560E+03
    -30.192  0.0000E+00  0.0000E+00  0.1560E+03  0.1560E+03
    -29.952  0.0000E+00  0.0000E+00  0.1560E+03  0.1560E+03
    -29.713  0.0000E+00  0.0000E+00  0.1560E+03  0.1560E+03
    -29.473  0.0000E+00  0.0000E+00  0.1560E+03  0.1560E+03
    -29.234  0.0000E+00  0.0000E+00  0.1560E+03  0.1560E+03
    -28.994  0.0000E+00  0.0000E+00  0.1560E+03  0.1560E+03
    -28.754  0.0000E+00  0.0000E+00  0.1560E+03  0.1560E+03
    -28.515  0.0000E+00  0.0000E+00  0.1560E+03  0.1560E+03
    -28.275  0.0000E+00  0.0000E+00  0.1560E+03  0.1560E+03
    -28.036  0.0000E+00  0.0000E+00  0.1560E+03  0.1560E+03
    -27.796  0.0000E+00  0.0000E+00  0.1560E+03  0.1560E+03
    -27.556  0.0000E+00  0.0000E+00  0.1560E+03  0.1560E+03
    -27.317  0.0000E+00  0.0000E+00  0.1560E+03  0.1560E+03
    -27.077  0.0000E+00  0.0000E+00  0.1560E+03  0.1560E+03
    -26.838  0.0000E+00  0.0000E+00  0.1560E+03  0.1560E+03
    -26.598  0.0000E+00  0.0000E+00  0.1560E+03  0.1560E+03
    -26.358  0.0000E+00  0.0000E+00  0.1560E+03  0.1560E+03
    -26.119  0.0000E+00  0.0000E+00  0.1560E+03  0.1560E+03
    -25.879  0.0000E+00  0.0000E+00  0.1560E+03  0.1560E+03
    -25.640  0.0000E+00  0.0000E+00  0.1560E+03  0.1560E+03
    -25.400  0.0000E+00  0.0000E+00  0.1560E+03  0.1560E+03
    -25.160  0.0000E+00  0.0000E+00  0.1560E+03  0.1560E+03
    -24.921  0.0000E+00  0.0000E+00  0.1560E+03  0.1560E+03
    -24.681  0.0000E+00  0.0000E+00  0.1560E+03  0.1560E+03
    -24.442  0.0000E+00  0.0000E+00  0.1560E+03  0.1560E+03
    -24.202  0.0000E+00  0.0000E+00  0.1560E+03  0.1560E+03
    -23.962  0.0000E+00  0.0000E+00  0.1560E+03  0.1560E+03
    -23.723  0.0000E+00  0.0000E+00  0.1560E+03  0.1560E+03
    -23.483  0.0000E+00  0.0000E+00  0.1560E+03  0.1560E+03
    -23.244  0.0000E+00  0.0000E+00  0.1560E+03  0.1560E+03
    -23.004  0.0000E+00  0.0000E+00  0.1560E+03  0.1560E+03
    -22.764  0.0000E+00  0.0000E+00  0.1560E+03  0.1560E+03
    -22.525  0.0000E+00  0.0000E+00  0.1560E+03  0.1560E+03
    -22.285  0.0000E+00  0.0000E+00  0.1560E+03  0.1560E+03
    -22.045  0.0000E+00  0.0000E+00  0.1560E+03  0.1560E+03
    -21.806  0.0000E+00  0.0000E+00  0.1560E+03  0.1560E+03
    -21.566  0.0000E+00  0.0000E+00  0.1560E+03  0.1560E+03
    -21.327  0.0000E+00  0.0000E+00  0.1560E+03  0.1560E+03
    -21.087  0.0000E+00  0.0000E+00  0.1560E+03  0.1560E+03
    -20.847  0.0000E+00  0.0000E+00  0.1560E+03  0.1560E+03
    -20.608  0.0000E+00  0.0000E+00  0.1560E+03  0.1560E+03
    -20.368  0.0000E+00  0.0000E+00  0.1560E+03  0.1560E+03
    -20.129  0.0000E+00  0.0000E+00  0.1560E+03  0.1560E+03
    -19.889  0.0000E+00  0.0000E+00  0.1560E+03  0.1560E+03
    -19.649  0.0000E+00  0.0000E+00  0.1560E+03  0.1560E+03
    -19.410  0.0000E+00  0.0000E+00  0.1560E+03  0.1560E+03
    -19.170  0.0000E+00  0.0000E+00  0.1560E+03  0.1560E+03
    -18.931  0.0000E+00  0.0000E+00  0.1560E+03  0.1560E+03
    -18.691  0.0000E+00  0.0000E+00  0.1560E+03  0.1560E+03
    -18.451  0.0000E+00  0.0000E+00  0.1560E+03  0.1560E+03
    -18.212  0.0000E+00  0.0000E+00  0.1560E+03  0.1560E+03
    -17.972  0.0000E+00  0.0000E+00  0.1560E+03  0.1560E+03
    -17.733  0.0000E+00  0.0000E+00  0.1560E+03  0.1560E+03
    -17.493  0.0000E+00  0.0000E+00  0.1560E+03  0.1560E+03
    -17.253  0.0000E+00  0.0000E+00  0.1560E+03  0.1560E+03
    -17.014  0.0000E+00  0.0000E+00  0.1560E+03  0.1560E+03
    -16.774  0.0000E+00  0.0000E+00  0.1560E+03  0.1560E+03
    -16.535  0.0000E+00  0.0000E+00  0.1560E+03  0.1560E+03
    -16.295  0.0000E+00  0.0000E+00  0.1560E+03  0.1560E+03
    -16.055  0.0000E+00  0.0000E+00  0.1560E+03  0.1560E+03
    -15.816  0.0000E+00  0.0000E+00  0.1560E+03  0.1560E+03
    -15.576  0.0000E+00  0.0000E+00  0.1560E+03  0.1560E+03
    -15.337  0.0000E+00  0.0000E+00  0.1560E+03  0.1560E+03
    -15.097  0.0000E+00  0.0000E+00  0.1560E+03  0.1560E+03
    -14.857  0.0000E+00  0.0000E+00  0.1560E+03  0.1560E+03
    -14.618  0.0000E+00  0.0000E+00  0.1560E+03  0.1560E+03
    -14.378  0.0000E+00  0.0000E+00  0.1560E+03  0.1560E+03
    -14.139  0.0000E+00  0.0000E+00  0.1560E+03  0.1560E+03
    -13.899  0.1300E-02  0.0000E+00  0.1560E+03  0.1560E+03
    -13.659  0.2224E+02  0.6249E-13  0.1613E+03  0.1560E+03
    -13.420  0.2766E+02  0.1829E+01  0.1680E+03  0.1564E+03
    -13.180  0.9034E+01  0.4449E+02  0.1701E+03  0.1671E+03
    -12.941  0.3147E+02  0.4500E+01  0.1777E+03  0.1682E+03
    -12.701  0.9761E+01  0.4218E+02  0.1800E+03  0.1783E+03
    -12.461  0.0000E+00  0.7168E+01  0.1800E+03  0.1800E+03
    -12.222  0.0000E+00  0.0000E+00  0.1800E+03  0.1800E+03
    -11.982  0.0000E+00  0.0000E+00  0.1800E+03  0.1800E+03
    -11.743  0.0000E+00  0.0000E+00  0.1800E+03  0.1800E+03
    -11.503  0.0000E+00  0.0000E+00  0.1800E+03  0.1800E+03
    -11.263  0.0000E+00  0.0000E+00  0.1800E+03  0.1800E+03
    -11.024  0.0000E+00  0.0000E+00  0.1800E+03  0.1800E+03
    -10.784  0.0000E+00  0.0000E+00  0.1800E+03  0.1800E+03
    -10.545  0.0000E+00  0.0000E+00  0.1800E+03  0.1800E+03
    -10.305  0.0000E+00  0.0000E+00  0.1800E+03  0.1800E+03
    -10.065  0.0000E+00  0.0000E+00  0.1800E+03  0.1800E+03
     -9.826  0.0000E+00  0.0000E+00  0.1800E+03  0.1800E+03
     -9.586  0.0000E+00  0.0000E+00  0.1800E+03  0.1800E+03
     -9.347  0.0000E+00  0.0000E+00  0.1800E+03  0.1800E+03
     -9.107  0.0000E+00  0.0000E+00  0.1800E+03  0.1800E+03
     -8.867  0.0000E+00  0.0000E+00  0.1800E+03  0.1800E+03
     -8.628  0.0000E+00  0.0000E+00  0.1800E+03  0.1800E+03
     -8.388  0.0000E+00  0.0000E+00  0.1800E+03  0.1800E+03
     -8.149  0.0000E+00  0.0000E+00  0.1800E+03  0.1800E+03
     -7.909  0.2390E-02  0.0000E+00  0.1800E+03  0.1800E+03
     -7.669  0.9454E+01  0.1773E-01  0.1823E+03  0.1800E+03
     -7.430  0.2315E+02  0.1203E+02  0.1878E+03  0.1829E+03
     -7.190  0.5587E+02  0.2866E+02  0.2012E+03  0.1898E+03
     -6.950  0.5785E+02  0.5997E+02  0.2151E+03  0.2041E+03
     -6.711  0.3927E+01  0.4629E+02  0.2160E+03  0.2152E+03
     -6.471  0.0000E+00  0.3278E+01  0.2160E+03  0.2160E+03
     -6.232  0.0000E+00  0.0000E+00  0.2160E+03  0.2160E+03
     -5.992  0.0000E+00  0.0000E+00  0.2160E+03  0.2160E+03
     -5.752  0.0000E+00  0.0000E+00  0.2160E+03  0.2160E+03
     -5.513  0.0000E+00  0.0000E+00  0.2160E+03  0.2160E+03
     -5.273  0.0000E+00  0.0000E+00  0.2160E+03  0.2160E+03
     -5.034  0.0000E+00  0.0000E+00  0.2160E+03  0.2160E+03
     -4.794  0.0000E+00  0.0000E+00  0.2160E+03  0.2160E+03
     -4.554  0.0000E+00  0.0000E+00  0.2160E+03  0.2160E+03
     -4.315  0.0000E+00  0.0000E+00  0.2160E+03  0.2160E+03
     -4.075  0.0000E+00  0.0000E+00  0.2160E+03  0.2160E+03
     -3.836  0.0000E+00  0.0000E+00  0.2160E+03  0.2160E+03
     -3.596  0.0000E+00  0.0000E+00  0.2160E+03  0.2160E+03
     -3.356  0.0000E+00  0.0000E+00  0.2160E+03  0.2160E+03
     -3.117  0.0000E+00  0.0000E+00  0.2160E+03  0.2160E+03
     -2.877  0.1915E-13  0.0000E+00  0.2160E+03  0.2160E+03
     -2.638  0.8711E+00  0.0000E+00  0.2162E+03  0.2160E+03
     -2.398  0.1026E+02  0.0000E+00  0.2187E+03  0.2160E+03
     -2.158  0.2053E+02  0.0000E+00  0.2236E+03  0.2160E+03
     -1.919  0.1811E+01  0.0000E+00  0.2240E+03  0.2160E+03
     -1.679  0.3465E+02  0.0000E+00  0.2323E+03  0.2160E+03
     -1.440  0.1959E+02  0.5148E-15  0.2370E+03  0.2160E+03
     -1.200  0.4417E+02  0.9017E-01  0.2476E+03  0.2160E+03
     -0.960  0.4971E+02  0.4419E+01  0.2595E+03  0.2171E+03
     -0.721  0.7506E+02  0.1412E+02  0.2775E+03  0.2205E+03
     -0.481  0.1034E+03  0.1533E+02  0.3023E+03  0.2241E+03
     -0.242  0.8549E+02  0.1963E+02  0.3227E+03  0.2288E+03
     -0.002  0.1105E+03  0.4124E+02  0.3492E+03  0.2387E+03
      0.238  0.6961E+02  0.3395E+02  0.3659E+03  0.2469E+03
      0.477  0.3818E+02  0.4217E+02  0.3750E+03  0.2570E+03
      0.717  0.4571E+02  0.3368E+02  0.3860E+03  0.2650E+03
      0.956  0.4868E+02  0.5307E+02  0.3977E+03  0.2777E+03
      1.196  0.5558E+02  0.6036E+02  0.4110E+03  0.2922E+03
      1.436  0.6441E+02  0.4443E+02  0.4264E+03  0.3029E+03
      1.675  0.1008E+03  0.4001E+02  0.4506E+03  0.3124E+03
      1.915  0.5228E+02  0.3848E+02  0.4631E+03  0.3217E+03
      2.154  0.3887E+02  0.3737E+02  0.4724E+03  0.3306E+03
      2.394  0.4651E+02  0.3830E+02  0.4836E+03  0.3398E+03
      2.634  0.4783E+02  0.4950E+02  0.4950E+03  0.3517E+03
      2.873  0.4349E+02  0.6284E+02  0.5054E+03  0.3667E+03
      3.113  0.4012E+02  0.5876E+02  0.5150E+03  0.3808E+03
      3.352  0.4755E+02  0.4790E+02  0.5264E+03  0.3923E+03
      3.592  0.5248E+02  0.3005E+02  0.5390E+03  0.3995E+03
      3.832  0.4535E+02  0.6143E+02  0.5499E+03  0.4142E+03
      4.071  0.3200E+02  0.7301E+02  0.5575E+03  0.4317E+03
      4.311  0.4239E+02  0.1346E+01  0.5677E+03  0.4320E+03
      4.550  0.2357E+02  0.0000E+00  0.5733E+03  0.4320E+03
      4.790  0.1019E+02  0.0000E+00  0.5758E+03  0.4320E+03
      5.030  0.8766E+00  0.0000E+00  0.5760E+03  0.4320E+03
      5.269  0.0000E+00  0.0000E+00  0.5760E+03  0.4320E+03
      5.509  0.0000E+00  0.0000E+00  0.5760E+03  0.4320E+03
      5.748  0.0000E+00  0.0000E+00  0.5760E+03  0.4320E+03
      5.988  0.0000E+00  0.5963E-11  0.5760E+03  0.4320E+03
      6.228  0.0000E+00  0.1474E+00  0.5760E+03  0.4320E+03
      6.467  0.0000E+00  0.8187E+01  0.5760E+03  0.4340E+03
      6.707  0.0000E+00  0.3032E+02  0.5760E+03  0.4413E+03
      6.947  0.8757E-12  0.4351E+02  0.5760E+03  0.4517E+03
      7.186  0.1095E+00  0.7331E+02  0.5760E+03  0.4693E+03
      7.426  0.1292E+00  0.8077E+02  0.5761E+03  0.4886E+03
      7.665  0.9028E+00  0.6539E+02  0.5763E+03  0.5043E+03
      7.905  0.3510E+01  0.8789E+02  0.5771E+03  0.5253E+03
      8.145  0.4265E+01  0.7123E+02  0.5781E+03  0.5424E+03
      8.384  0.7055E+01  0.5436E+02  0.5798E+03  0.5554E+03
      8.624  0.1641E+02  0.3722E+02  0.5838E+03  0.5643E+03
      8.863  0.2526E+02  0.3909E+02  0.5898E+03  0.5737E+03
      9.103  0.1923E+02  0.1932E+02  0.5944E+03  0.5783E+03
      9.343  0.2542E+02  0.1394E+02  0.6005E+03  0.5817E+03
      9.582  0.3128E+02  0.2059E+02  0.6080E+03  0.5866E+03
      9.822  0.2658E+02  0.3002E+02  0.6144E+03  0.5938E+03
     10.061  0.2963E+02  0.2656E+02  0.6215E+03  0.6002E+03
     10.301  0.2276E+02  0.3480E+02  0.6269E+03  0.6085E+03
     10.541  0.2040E+02  0.3537E+02  0.6318E+03  0.6170E+03
     10.780  0.2860E+02  0.2797E+02  0.6387E+03  0.6237E+03
     11.020  0.3894E+02  0.2240E+02  0.6480E+03  0.6290E+03
     11.259  0.3941E+02  0.2163E+02  0.6574E+03  0.6342E+03
     11.499  0.3725E+02  0.3231E+02  0.6664E+03  0.6420E+03
     11.739  0.4487E+02  0.3874E+02  0.6771E+03  0.6513E+03
     11.978  0.3849E+02  0.4263E+02  0.6863E+03  0.6615E+03
     12.218  0.3857E+02  0.5200E+02  0.6956E+03  0.6739E+03
     12.457  0.3991E+02  0.4675E+02  0.7051E+03  0.6851E+03
     12.697  0.3649E+02  0.3596E+02  0.7139E+03  0.6937E+03
     12.937  0.3440E+02  0.4128E+02  0.7221E+03  0.7036E+03
     13.176  0.2275E+02  0.3969E+02  0.7276E+03  0.7131E+03
     13.416  0.1765E+01  0.3425E+02  0.7280E+03  0.7214E+03
     13.655  0.0000E+00  0.2390E+02  0.7280E+03  0.7271E+03
     13.895  0.0000E+00  0.3847E+01  0.7280E+03  0.7280E+03
     14.135  0.0000E+00  0.3740E-05  0.7280E+03  0.7280E+03
     14.374  0.0000E+00  0.0000E+00  0.7280E+03  0.7280E+03
     14.614  0.0000E+00  0.0000E+00  0.7280E+03  0.7280E+03
     14.853  0.0000E+00  0.0000E+00  0.7280E+03  0.7280E+03
     15.093  0.0000E+00  0.0000E+00  0.7280E+03  0.7280E+03
     15.333  0.0000E+00  0.0000E+00  0.7280E+03  0.7280E+03
     15.572  0.0000E+00  0.0000E+00  0.7280E+03  0.7280E+03
     15.812  0.0000E+00  0.0000E+00  0.7280E+03  0.7280E+03
     16.051  0.0000E+00  0.0000E+00  0.7280E+03  0.7280E+03
     16.291  0.0000E+00  0.0000E+00  0.7280E+03  0.7280E+03
     16.531  0.0000E+00  0.0000E+00  0.7280E+03  0.7280E+03
     16.770  0.0000E+00  0.0000E+00  0.7280E+03  0.7280E+03
     17.010  0.0000E+00  0.0000E+00  0.7280E+03  0.7280E+03
