 144 144   0   0
  0.1325381E+02  0.1546422E-08  0.1214491E-08  0.1054520E-08  0.5000000E-15
  1.000000000000000E-004
  CAR 
 unknown system                          
     17.01133295    -54.87167081  301      5.09073483      1.00000000
    -54.872  0.0000E+00  0.0000E+00  0.0000E+00  0.0000E+00
    -54.632  0.0000E+00  0.0000E+00  0.0000E+00  0.0000E+00
    -54.392  0.0000E+00  0.0000E+00  0.0000E+00  0.0000E+00
    -54.153  0.0000E+00  0.0000E+00  0.0000E+00  0.0000E+00
    -53.913  0.0000E+00  0.0000E+00  0.0000E+00  0.0000E+00
    -53.674  0.0000E+00  0.0000E+00  0.0000E+00  0.0000E+00
    -53.434  0.0000E+00  0.0000E+00  0.0000E+00  0.0000E+00
    -53.194  0.0000E+00  0.0000E+00  0.0000E+00  0.0000E+00
    -52.955  0.0000E+00  0.0000E+00  0.0000E+00  0.0000E+00
    -52.715  0.0000E+00  0.0000E+00  0.0000E+00  0.0000E+00
    -52.476  0.0000E+00  0.0000E+00  0.0000E+00  0.0000E+00
    -52.236  0.0000E+00  0.0000E+00  0.0000E+00  0.0000E+00
    -51.996  0.0000E+00  0.0000E+00  0.0000E+00  0.0000E+00
    -51.757  0.3375E-03  0.0000E+00  0.8086E-04  0.0000E+00
    -51.517  0.4981E+02  0.0000E+00  0.1194E+02  0.0000E+00
    -51.278  0.8623E+02  0.0000E+00  0.3260E+02  0.0000E+00
    -51.038  0.1420E+02  0.0000E+00  0.3600E+02  0.0000E+00
    -50.798  0.0000E+00  0.0000E+00  0.3600E+02  0.0000E+00
    -50.559  0.0000E+00  0.0000E+00  0.3600E+02  0.0000E+00
    -50.319  0.1238E-03  0.0000E+00  0.3600E+02  0.0000E+00
    -50.079  0.6694E+02  0.0000E+00  0.5204E+02  0.0000E+00
    -49.840  0.2084E+03  0.0000E+00  0.1020E+03  0.0000E+00
    -49.600  0.2513E+02  0.0000E+00  0.1080E+03  0.0000E+00
    -49.361  0.0000E+00  0.0000E+00  0.1080E+03  0.0000E+00
    -49.121  0.0000E+00  0.0000E+00  0.1080E+03  0.0000E+00
    -48.881  0.0000E+00  0.0000E+00  0.1080E+03  0.0000E+00
    -48.642  0.0000E+00  0.0000E+00  0.1080E+03  0.0000E+00
    -48.402  0.0000E+00  0.0000E+00  0.1080E+03  0.0000E+00
    -48.163  0.0000E+00  0.0000E+00  0.1080E+03  0.0000E+00
    -47.923  0.0000E+00  0.0000E+00  0.1080E+03  0.0000E+00
    -47.683  0.0000E+00  0.0000E+00  0.1080E+03  0.0000E+00
    -47.444  0.0000E+00  0.0000E+00  0.1080E+03  0.0000E+00
    -47.204  0.0000E+00  0.0000E+00  0.1080E+03  0.0000E+00
    -46.965  0.0000E+00  0.6529E-01  0.1080E+03  0.1564E-01
    -46.725  0.0000E+00  0.5088E+02  0.1080E+03  0.1221E+02
    -46.485  0.0000E+00  0.9549E+02  0.1080E+03  0.3509E+02
    -46.246  0.0000E+00  0.1451E+03  0.1080E+03  0.6986E+02
    -46.006  0.0000E+00  0.1592E+03  0.1080E+03  0.1080E+03
    -45.766  0.0000E+00  0.4616E-02  0.1080E+03  0.1080E+03
    -45.527  0.0000E+00  0.0000E+00  0.1080E+03  0.1080E+03
    -45.287  0.0000E+00  0.0000E+00  0.1080E+03  0.1080E+03
    -45.048  0.0000E+00  0.0000E+00  0.1080E+03  0.1080E+03
    -44.808  0.0000E+00  0.0000E+00  0.1080E+03  0.1080E+03
    -44.568  0.0000E+00  0.0000E+00  0.1080E+03  0.1080E+03
    -44.329  0.0000E+00  0.0000E+00  0.1080E+03  0.1080E+03
    -44.089  0.0000E+00  0.0000E+00  0.1080E+03  0.1080E+03
    -43.850  0.0000E+00  0.0000E+00  0.1080E+03  0.1080E+03
    -43.610  0.0000E+00  0.0000E+00  0.1080E+03  0.1080E+03
    -43.370  0.0000E+00  0.0000E+00  0.1080E+03  0.1080E+03
    -43.131  0.0000E+00  0.0000E+00  0.1080E+03  0.1080E+03
    -42.891  0.0000E+00  0.0000E+00  0.1080E+03  0.1080E+03
    -42.652  0.0000E+00  0.0000E+00  0.1080E+03  0.1080E+03
    -42.412  0.0000E+00  0.0000E+00  0.1080E+03  0.1080E+03
    -42.172  0.0000E+00  0.0000E+00  0.1080E+03  0.1080E+03
    -41.933  0.0000E+00  0.0000E+00  0.1080E+03  0.1080E+03
    -41.693  0.0000E+00  0.0000E+00  0.1080E+03  0.1080E+03
    -41.454  0.0000E+00  0.0000E+00  0.1080E+03  0.1080E+03
    -41.214  0.0000E+00  0.0000E+00  0.1080E+03  0.1080E+03
    -40.974  0.0000E+00  0.0000E+00  0.1080E+03  0.1080E+03
    -40.735  0.1274E-08  0.4130E-09  0.1080E+03  0.1080E+03
    -40.495  0.2908E+02  0.2579E+02  0.1150E+03  0.1142E+03
    -40.255  0.4592E+02  0.4949E+02  0.1260E+03  0.1260E+03
    -40.016  0.1003E+03  0.1003E+03  0.1500E+03  0.1501E+03
    -39.776  0.2501E+02  0.2473E+02  0.1560E+03  0.1560E+03
    -39.537  0.0000E+00  0.0000E+00  0.1560E+03  0.1560E+03
    -39.297  0.0000E+00  0.0000E+00  0.1560E+03  0.1560E+03
    -39.057  0.0000E+00  0.0000E+00  0.1560E+03  0.1560E+03
    -38.818  0.0000E+00  0.0000E+00  0.1560E+03  0.1560E+03
    -38.578  0.0000E+00  0.0000E+00  0.1560E+03  0.1560E+03
    -38.339  0.0000E+00  0.0000E+00  0.1560E+03  0.1560E+03
    -38.099  0.0000E+00  0.0000E+00  0.1560E+03  0.1560E+03
    -37.859  0.0000E+00  0.0000E+00  0.1560E+03  0.1560E+03
    -37.620  0.0000E+00  0.0000E+00  0.1560E+03  0.1560E+03
    -37.380  0.0000E+00  0.0000E+00  0.1560E+03  0.1560E+03
    -37.141  0.0000E+00  0.0000E+00  0.1560E+03  0.1560E+03
    -36.901  0.0000E+00  0.0000E+00  0.1560E+03  0.1560E+03
    -36.661  0.0000E+00  0.0000E+00  0.1560E+03  0.1560E+03
    -36.422  0.0000E+00  0.0000E+00  0.1560E+03  0.1560E+03
    -36.182  0.0000E+00  0.0000E+00  0.1560E+03  0.1560E+03
    -35.942  0.0000E+00  0.0000E+00  0.1560E+03  0.1560E+03
    -35.703  0.0000E+00  0.0000E+00  0.1560E+03  0.1560E+03
    -35.463  0.0000E+00  0.0000E+00  0.1560E+03  0.1560E+03
    -35.224  0.0000E+00  0.0000E+00  0.1560E+03  0.1560E+03
    -34.984  0.0000E+00  0.0000E+00  0.1560E+03  0.1560E+03
    -34.744  0.0000E+00  0.0000E+00  0.1560E+03  0.1560E+03
    -34.505  0.0000E+00  0.0000E+00  0.1560E+03  0.1560E+03
    -34.265  0.0000E+00  0.0000E+00  0.1560E+03  0.1560E+03
    -34.026  0.0000E+00  0.0000E+00  0.1560E+03  0.1560E+03
    -33.786  0.0000E+00  0.0000E+00  0.1560E+03  0.1560E+03
    -33.546  0.0000E+00  0.0000E+00  0.1560E+03  0.1560E+03
    -33.307  0.0000E+00  0.0000E+00  0.1560E+03  0.1560E+03
    -33.067  0.0000E+00  0.0000E+00  0.1560E+03  0.1560E+03
    -32.828  0.0000E+00  0.0000E+00  0.1560E+03  0.1560E+03
    -32.588  0.0000E+00  0.0000E+00  0.1560E+03  0.1560E+03
    -32.348  0.0000E+00  0.0000E+00  0.1560E+03  0.1560E+03
    -32.109  0.0000E+00  0.0000E+00  0.1560E+03  0.1560E+03
    -31.869  0.0000E+00  0.0000E+00  0.1560E+03  0.1560E+03
    -31.629  0.0000E+00  0.0000E+00  0.1560E+03  0.1560E+03
    -31.390  0.0000E+00  0.0000E+00  0.1560E+03  0.1560E+03
    -31.150  0.0000E+00  0.0000E+00  0.1560E+03  0.1560E+03
    -30.911  0.0000E+00  0.0000E+00  0.1560E+03  0.1560E+03
    -30.671  0.0000E+00  0.0000E+00  0.1560E+03  0.1560E+03
    -30.431  0.0000E+00  0.0000E+00  0.1560E+03  0.1560E+03
    -30.192  0.0000E+00  0.0000E+00  0.1560E+03  0.1560E+03
    -29.952  0.0000E+00  0.0000E+00  0.1560E+03  0.1560E+03
    -29.713  0.0000E+00  0.0000E+00  0.1560E+03  0.1560E+03
    -29.473  0.0000E+00  0.0000E+00  0.1560E+03  0.1560E+03
    -29.233  0.0000E+00  0.0000E+00  0.1560E+03  0.1560E+03
    -28.994  0.0000E+00  0.0000E+00  0.1560E+03  0.1560E+03
    -28.754  0.0000E+00  0.0000E+00  0.1560E+03  0.1560E+03
    -28.515  0.0000E+00  0.0000E+00  0.1560E+03  0.1560E+03
    -28.275  0.0000E+00  0.0000E+00  0.1560E+03  0.1560E+03
    -28.035  0.0000E+00  0.0000E+00  0.1560E+03  0.1560E+03
    -27.796  0.0000E+00  0.0000E+00  0.1560E+03  0.1560E+03
    -27.556  0.0000E+00  0.0000E+00  0.1560E+03  0.1560E+03
    -27.317  0.0000E+00  0.0000E+00  0.1560E+03  0.1560E+03
    -27.077  0.0000E+00  0.0000E+00  0.1560E+03  0.1560E+03
    -26.837  0.0000E+00  0.0000E+00  0.1560E+03  0.1560E+03
    -26.598  0.0000E+00  0.0000E+00  0.1560E+03  0.1560E+03
    -26.358  0.0000E+00  0.0000E+00  0.1560E+03  0.1560E+03
    -26.118  0.0000E+00  0.0000E+00  0.1560E+03  0.1560E+03
    -25.879  0.0000E+00  0.0000E+00  0.1560E+03  0.1560E+03
    -25.639  0.0000E+00  0.0000E+00  0.1560E+03  0.1560E+03
    -25.400  0.0000E+00  0.0000E+00  0.1560E+03  0.1560E+03
    -25.160  0.0000E+00  0.0000E+00  0.1560E+03  0.1560E+03
    -24.920  0.0000E+00  0.0000E+00  0.1560E+03  0.1560E+03
    -24.681  0.0000E+00  0.0000E+00  0.1560E+03  0.1560E+03
    -24.441  0.0000E+00  0.0000E+00  0.1560E+03  0.1560E+03
    -24.202  0.0000E+00  0.0000E+00  0.1560E+03  0.1560E+03
    -23.962  0.0000E+00  0.0000E+00  0.1560E+03  0.1560E+03
    -23.722  0.0000E+00  0.0000E+00  0.1560E+03  0.1560E+03
    -23.483  0.0000E+00  0.0000E+00  0.1560E+03  0.1560E+03
    -23.243  0.0000E+00  0.0000E+00  0.1560E+03  0.1560E+03
    -23.004  0.0000E+00  0.0000E+00  0.1560E+03  0.1560E+03
    -22.764  0.0000E+00  0.0000E+00  0.1560E+03  0.1560E+03
    -22.524  0.0000E+00  0.0000E+00  0.1560E+03  0.1560E+03
    -22.285  0.0000E+00  0.0000E+00  0.1560E+03  0.1560E+03
    -22.045  0.0000E+00  0.0000E+00  0.1560E+03  0.1560E+03
    -21.805  0.0000E+00  0.0000E+00  0.1560E+03  0.1560E+03
    -21.566  0.0000E+00  0.0000E+00  0.1560E+03  0.1560E+03
    -21.326  0.0000E+00  0.0000E+00  0.1560E+03  0.1560E+03
    -21.087  0.0000E+00  0.0000E+00  0.1560E+03  0.1560E+03
    -20.847  0.0000E+00  0.0000E+00  0.1560E+03  0.1560E+03
    -20.607  0.0000E+00  0.0000E+00  0.1560E+03  0.1560E+03
    -20.368  0.0000E+00  0.0000E+00  0.1560E+03  0.1560E+03
    -20.128  0.0000E+00  0.0000E+00  0.1560E+03  0.1560E+03
    -19.889  0.0000E+00  0.0000E+00  0.1560E+03  0.1560E+03
    -19.649  0.0000E+00  0.0000E+00  0.1560E+03  0.1560E+03
    -19.409  0.0000E+00  0.0000E+00  0.1560E+03  0.1560E+03
    -19.170  0.0000E+00  0.0000E+00  0.1560E+03  0.1560E+03
    -18.930  0.0000E+00  0.0000E+00  0.1560E+03  0.1560E+03
    -18.691  0.0000E+00  0.0000E+00  0.1560E+03  0.1560E+03
    -18.451  0.0000E+00  0.0000E+00  0.1560E+03  0.1560E+03
    -18.211  0.0000E+00  0.0000E+00  0.1560E+03  0.1560E+03
    -17.972  0.0000E+00  0.0000E+00  0.1560E+03  0.1560E+03
    -17.732  0.0000E+00  0.0000E+00  0.1560E+03  0.1560E+03
    -17.493  0.0000E+00  0.0000E+00  0.1560E+03  0.1560E+03
    -17.253  0.0000E+00  0.0000E+00  0.1560E+03  0.1560E+03
    -17.013  0.0000E+00  0.0000E+00  0.1560E+03  0.1560E+03
    -16.774  0.0000E+00  0.0000E+00  0.1560E+03  0.1560E+03
    -16.534  0.0000E+00  0.0000E+00  0.1560E+03  0.1560E+03
    -16.294  0.0000E+00  0.0000E+00  0.1560E+03  0.1560E+03
    -16.055  0.0000E+00  0.0000E+00  0.1560E+03  0.1560E+03
    -15.815  0.0000E+00  0.0000E+00  0.1560E+03  0.1560E+03
    -15.576  0.0000E+00  0.0000E+00  0.1560E+03  0.1560E+03
    -15.336  0.0000E+00  0.0000E+00  0.1560E+03  0.1560E+03
    -15.096  0.0000E+00  0.0000E+00  0.1560E+03  0.1560E+03
    -14.857  0.0000E+00  0.0000E+00  0.1560E+03  0.1560E+03
    -14.617  0.0000E+00  0.0000E+00  0.1560E+03  0.1560E+03
    -14.378  0.0000E+00  0.0000E+00  0.1560E+03  0.1560E+03
    -14.138  0.0000E+00  0.0000E+00  0.1560E+03  0.1560E+03
    -13.898  0.1209E-02  0.0000E+00  0.1560E+03  0.1560E+03
    -13.659  0.2203E+02  0.6011E-13  0.1613E+03  0.1560E+03
    -13.419  0.2784E+02  0.1755E+01  0.1679E+03  0.1564E+03
    -13.180  0.9173E+01  0.4431E+02  0.1701E+03  0.1670E+03
    -12.940  0.3145E+02  0.4782E+01  0.1777E+03  0.1682E+03
    -12.700  0.9665E+01  0.4226E+02  0.1800E+03  0.1783E+03
    -12.461  0.0000E+00  0.7056E+01  0.1800E+03  0.1800E+03
    -12.221  0.0000E+00  0.0000E+00  0.1800E+03  0.1800E+03
    -11.981  0.0000E+00  0.0000E+00  0.1800E+03  0.1800E+03
    -11.742  0.0000E+00  0.0000E+00  0.1800E+03  0.1800E+03
    -11.502  0.0000E+00  0.0000E+00  0.1800E+03  0.1800E+03
    -11.263  0.0000E+00  0.0000E+00  0.1800E+03  0.1800E+03
    -11.023  0.0000E+00  0.0000E+00  0.1800E+03  0.1800E+03
    -10.783  0.0000E+00  0.0000E+00  0.1800E+03  0.1800E+03
    -10.544  0.0000E+00  0.0000E+00  0.1800E+03  0.1800E+03
    -10.304  0.0000E+00  0.0000E+00  0.1800E+03  0.1800E+03
    -10.065  0.0000E+00  0.0000E+00  0.1800E+03  0.1800E+03
     -9.825  0.0000E+00  0.0000E+00  0.1800E+03  0.1800E+03
     -9.585  0.0000E+00  0.0000E+00  0.1800E+03  0.1800E+03
     -9.346  0.0000E+00  0.0000E+00  0.1800E+03  0.1800E+03
     -9.106  0.0000E+00  0.0000E+00  0.1800E+03  0.1800E+03
     -8.867  0.0000E+00  0.0000E+00  0.1800E+03  0.1800E+03
     -8.627  0.0000E+00  0.0000E+00  0.1800E+03  0.1800E+03
     -8.387  0.0000E+00  0.0000E+00  0.1800E+03  0.1800E+03
     -8.148  0.0000E+00  0.0000E+00  0.1800E+03  0.1800E+03
     -7.908  0.2699E-02  0.0000E+00  0.1800E+03  0.1800E+03
     -7.668  0.9565E+01  0.1961E-01  0.1823E+03  0.1800E+03
     -7.429  0.2319E+02  0.1213E+02  0.1878E+03  0.1829E+03
     -7.189  0.5608E+02  0.2876E+02  0.2013E+03  0.1898E+03
     -6.950  0.5754E+02  0.6013E+02  0.2151E+03  0.2042E+03
     -6.710  0.3863E+01  0.4599E+02  0.2160E+03  0.2152E+03
     -6.470  0.0000E+00  0.3214E+01  0.2160E+03  0.2160E+03
     -6.231  0.0000E+00  0.0000E+00  0.2160E+03  0.2160E+03
     -5.991  0.0000E+00  0.0000E+00  0.2160E+03  0.2160E+03
     -5.752  0.0000E+00  0.0000E+00  0.2160E+03  0.2160E+03
     -5.512  0.0000E+00  0.0000E+00  0.2160E+03  0.2160E+03
     -5.272  0.0000E+00  0.0000E+00  0.2160E+03  0.2160E+03
     -5.033  0.0000E+00  0.0000E+00  0.2160E+03  0.2160E+03
     -4.793  0.0000E+00  0.0000E+00  0.2160E+03  0.2160E+03
     -4.554  0.0000E+00  0.0000E+00  0.2160E+03  0.2160E+03
     -4.314  0.0000E+00  0.0000E+00  0.2160E+03  0.2160E+03
     -4.074  0.0000E+00  0.0000E+00  0.2160E+03  0.2160E+03
     -3.835  0.0000E+00  0.0000E+00  0.2160E+03  0.2160E+03
     -3.595  0.0000E+00  0.0000E+00  0.2160E+03  0.2160E+03
     -3.356  0.0000E+00  0.0000E+00  0.2160E+03  0.2160E+03
     -3.116  0.0000E+00  0.0000E+00  0.2160E+03  0.2160E+03
     -2.876  0.1812E-13  0.0000E+00  0.2160E+03  0.2160E+03
     -2.637  0.8555E+00  0.0000E+00  0.2162E+03  0.2160E+03
     -2.397  0.1028E+02  0.0000E+00  0.2187E+03  0.2160E+03
     -2.157  0.2060E+02  0.0000E+00  0.2236E+03  0.2160E+03
     -1.918  0.1752E+01  0.0000E+00  0.2240E+03  0.2160E+03
     -1.678  0.3461E+02  0.0000E+00  0.2323E+03  0.2160E+03
     -1.439  0.1963E+02  0.5148E-15  0.2370E+03  0.2160E+03
     -1.199  0.4427E+02  0.8977E-01  0.2476E+03  0.2160E+03
     -0.959  0.4979E+02  0.4419E+01  0.2596E+03  0.2171E+03
     -0.720  0.7522E+02  0.1414E+02  0.2776E+03  0.2205E+03
     -0.480  0.1035E+03  0.1535E+02  0.3024E+03  0.2241E+03
     -0.241  0.8547E+02  0.1964E+02  0.3229E+03  0.2289E+03
     -0.001  0.1105E+03  0.4121E+02  0.3493E+03  0.2387E+03
      0.239  0.6940E+02  0.3395E+02  0.3660E+03  0.2469E+03
      0.478  0.3808E+02  0.4214E+02  0.3751E+03  0.2570E+03
      0.718  0.4570E+02  0.3381E+02  0.3860E+03  0.2651E+03
      0.957  0.4867E+02  0.5317E+02  0.3977E+03  0.2778E+03
      1.197  0.5563E+02  0.6030E+02  0.4110E+03  0.2923E+03
      1.437  0.6452E+02  0.4444E+02  0.4265E+03  0.3029E+03
      1.676  0.1008E+03  0.3996E+02  0.4506E+03  0.3125E+03
      1.916  0.5206E+02  0.3854E+02  0.4631E+03  0.3217E+03
      2.156  0.3900E+02  0.3733E+02  0.4725E+03  0.3307E+03
      2.395  0.4647E+02  0.3833E+02  0.4836E+03  0.3398E+03
      2.635  0.4784E+02  0.4964E+02  0.4951E+03  0.3517E+03
      2.874  0.4346E+02  0.6278E+02  0.5055E+03  0.3668E+03
      3.114  0.4009E+02  0.5875E+02  0.5151E+03  0.3808E+03
      3.354  0.4767E+02  0.4778E+02  0.5265E+03  0.3923E+03
      3.593  0.5247E+02  0.3022E+02  0.5391E+03  0.3995E+03
      3.833  0.4529E+02  0.6155E+02  0.5499E+03  0.4143E+03
      4.072  0.3202E+02  0.7262E+02  0.5576E+03  0.4317E+03
      4.312  0.4232E+02  0.1311E+01  0.5677E+03  0.4320E+03
      4.552  0.2348E+02  0.0000E+00  0.5734E+03  0.4320E+03
      4.791  0.1014E+02  0.0000E+00  0.5758E+03  0.4320E+03
      5.031  0.8463E+00  0.0000E+00  0.5760E+03  0.4320E+03
      5.270  0.0000E+00  0.0000E+00  0.5760E+03  0.4320E+03
      5.510  0.0000E+00  0.0000E+00  0.5760E+03  0.4320E+03
      5.750  0.0000E+00  0.0000E+00  0.5760E+03  0.4320E+03
      5.989  0.0000E+00  0.6828E-11  0.5760E+03  0.4320E+03
      6.229  0.0000E+00  0.1499E+00  0.5760E+03  0.4320E+03
      6.468  0.0000E+00  0.8236E+01  0.5760E+03  0.4340E+03
      6.708  0.0000E+00  0.3044E+02  0.5760E+03  0.4413E+03
      6.948  0.1100E-11  0.4374E+02  0.5760E+03  0.4518E+03
      7.187  0.1125E+00  0.7339E+02  0.5760E+03  0.4694E+03
      7.427  0.1267E+00  0.8066E+02  0.5761E+03  0.4887E+03
      7.667  0.9131E+00  0.6540E+02  0.5763E+03  0.5044E+03
      7.906  0.3520E+01  0.8788E+02  0.5771E+03  0.5254E+03
      8.146  0.4263E+01  0.7118E+02  0.5781E+03  0.5425E+03
      8.385  0.7087E+01  0.5425E+02  0.5798E+03  0.5555E+03
      8.625  0.1647E+02  0.3721E+02  0.5838E+03  0.5644E+03
      8.865  0.2522E+02  0.3900E+02  0.5898E+03  0.5737E+03
      9.104  0.1923E+02  0.1926E+02  0.5944E+03  0.5783E+03
      9.344  0.2549E+02  0.1402E+02  0.6005E+03  0.5817E+03
      9.583  0.3133E+02  0.2059E+02  0.6081E+03  0.5866E+03
      9.823  0.2652E+02  0.3005E+02  0.6144E+03  0.5938E+03
     10.063  0.2960E+02  0.2655E+02  0.6215E+03  0.6002E+03
     10.302  0.2276E+02  0.3488E+02  0.6270E+03  0.6086E+03
     10.542  0.2041E+02  0.3528E+02  0.6318E+03  0.6170E+03
     10.781  0.2871E+02  0.2798E+02  0.6387E+03  0.6237E+03
     11.021  0.3890E+02  0.2234E+02  0.6480E+03  0.6291E+03
     11.261  0.3942E+02  0.2170E+02  0.6575E+03  0.6343E+03
     11.500  0.3722E+02  0.3235E+02  0.6664E+03  0.6420E+03
     11.740  0.4494E+02  0.3872E+02  0.6772E+03  0.6513E+03
     11.980  0.3845E+02  0.4268E+02  0.6864E+03  0.6615E+03
     12.219  0.3858E+02  0.5203E+02  0.6956E+03  0.6740E+03
     12.459  0.3994E+02  0.4669E+02  0.7052E+03  0.6852E+03
     12.698  0.3642E+02  0.3595E+02  0.7139E+03  0.6938E+03
     12.938  0.3429E+02  0.4131E+02  0.7221E+03  0.7037E+03
     13.178  0.2251E+02  0.3961E+02  0.7275E+03  0.7132E+03
     13.417  0.1937E+01  0.3422E+02  0.7280E+03  0.7214E+03
     13.657  0.0000E+00  0.2354E+02  0.7280E+03  0.7270E+03
     13.896  0.0000E+00  0.4083E+01  0.7280E+03  0.7280E+03
     14.136  0.0000E+00  0.3738E-05  0.7280E+03  0.7280E+03
     14.376  0.0000E+00  0.0000E+00  0.7280E+03  0.7280E+03
     14.615  0.0000E+00  0.0000E+00  0.7280E+03  0.7280E+03
     14.855  0.0000E+00  0.0000E+00  0.7280E+03  0.7280E+03
     15.094  0.0000E+00  0.0000E+00  0.7280E+03  0.7280E+03
     15.334  0.0000E+00  0.0000E+00  0.7280E+03  0.7280E+03
     15.574  0.0000E+00  0.0000E+00  0.7280E+03  0.7280E+03
     15.813  0.0000E+00  0.0000E+00  0.7280E+03  0.7280E+03
     16.053  0.0000E+00  0.0000E+00  0.7280E+03  0.7280E+03
     16.293  0.0000E+00  0.0000E+00  0.7280E+03  0.7280E+03
     16.532  0.0000E+00  0.0000E+00  0.7280E+03  0.7280E+03
     16.772  0.0000E+00  0.0000E+00  0.7280E+03  0.7280E+03
     17.011  0.0000E+00  0.0000E+00  0.7280E+03  0.7280E+03
