 320 320   0   0
  0.1216366E+02  0.1589065E-08  0.1589065E-08  0.1541455E-08  0.5000000E-15
  1.000000000000000E-004
  CAR 
 unknown system                          
     16.93675276    -54.72794800  301      5.02249626      1.00000000
    -54.728  0.0000E+00  0.0000E+00  0.0000E+00  0.0000E+00
    -54.489  0.0000E+00  0.0000E+00  0.0000E+00  0.0000E+00
    -54.250  0.0000E+00  0.0000E+00  0.0000E+00  0.0000E+00
    -54.011  0.0000E+00  0.0000E+00  0.0000E+00  0.0000E+00
    -53.772  0.0000E+00  0.0000E+00  0.0000E+00  0.0000E+00
    -53.534  0.0000E+00  0.0000E+00  0.0000E+00  0.0000E+00
    -53.295  0.0000E+00  0.0000E+00  0.0000E+00  0.0000E+00
    -53.056  0.0000E+00  0.0000E+00  0.0000E+00  0.0000E+00
    -52.817  0.0000E+00  0.0000E+00  0.0000E+00  0.0000E+00
    -52.578  0.0000E+00  0.0000E+00  0.0000E+00  0.0000E+00
    -52.339  0.0000E+00  0.0000E+00  0.0000E+00  0.0000E+00
    -52.100  0.0000E+00  0.0000E+00  0.0000E+00  0.0000E+00
    -51.861  0.0000E+00  0.0000E+00  0.0000E+00  0.0000E+00
    -51.622  0.1644E-02  0.0000E+00  0.3926E-03  0.0000E+00
    -51.384  0.2656E+03  0.0000E+00  0.6345E+02  0.0000E+00
    -51.145  0.2307E+01  0.0000E+00  0.6400E+02  0.0000E+00
    -50.906  0.0000E+00  0.0000E+00  0.6400E+02  0.0000E+00
    -50.667  0.0000E+00  0.0000E+00  0.6400E+02  0.0000E+00
    -50.428  0.0000E+00  0.0000E+00  0.6400E+02  0.0000E+00
    -50.189  0.3806E-01  0.0000E+00  0.6401E+02  0.0000E+00
    -49.950  0.5331E+03  0.0000E+00  0.1913E+03  0.0000E+00
    -49.711  0.2725E+01  0.0000E+00  0.1920E+03  0.0000E+00
    -49.473  0.0000E+00  0.0000E+00  0.1920E+03  0.0000E+00
    -49.234  0.0000E+00  0.0000E+00  0.1920E+03  0.0000E+00
    -48.995  0.0000E+00  0.0000E+00  0.1920E+03  0.0000E+00
    -48.756  0.0000E+00  0.0000E+00  0.1920E+03  0.0000E+00
    -48.517  0.0000E+00  0.0000E+00  0.1920E+03  0.0000E+00
    -48.278  0.0000E+00  0.0000E+00  0.1920E+03  0.0000E+00
    -48.039  0.0000E+00  0.0000E+00  0.1920E+03  0.0000E+00
    -47.800  0.0000E+00  0.0000E+00  0.1920E+03  0.0000E+00
    -47.561  0.0000E+00  0.0000E+00  0.1920E+03  0.0000E+00
    -47.323  0.0000E+00  0.0000E+00  0.1920E+03  0.0000E+00
    -47.084  0.0000E+00  0.0000E+00  0.1920E+03  0.0000E+00
    -46.845  0.0000E+00  0.1018E+00  0.1920E+03  0.2431E-01
    -46.606  0.0000E+00  0.2677E+03  0.1920E+03  0.6398E+02
    -46.367  0.0000E+00  0.1144E+03  0.1920E+03  0.9130E+02
    -46.128  0.0000E+00  0.4215E+03  0.1920E+03  0.1920E+03
    -45.889  0.0000E+00  0.0000E+00  0.1920E+03  0.1920E+03
    -45.650  0.0000E+00  0.0000E+00  0.1920E+03  0.1920E+03
    -45.412  0.0000E+00  0.0000E+00  0.1920E+03  0.1920E+03
    -45.173  0.0000E+00  0.0000E+00  0.1920E+03  0.1920E+03
    -44.934  0.0000E+00  0.0000E+00  0.1920E+03  0.1920E+03
    -44.695  0.0000E+00  0.0000E+00  0.1920E+03  0.1920E+03
    -44.456  0.0000E+00  0.0000E+00  0.1920E+03  0.1920E+03
    -44.217  0.0000E+00  0.0000E+00  0.1920E+03  0.1920E+03
    -43.978  0.0000E+00  0.0000E+00  0.1920E+03  0.1920E+03
    -43.739  0.0000E+00  0.0000E+00  0.1920E+03  0.1920E+03
    -43.500  0.0000E+00  0.0000E+00  0.1920E+03  0.1920E+03
    -43.262  0.0000E+00  0.0000E+00  0.1920E+03  0.1920E+03
    -43.023  0.0000E+00  0.0000E+00  0.1920E+03  0.1920E+03
    -42.784  0.0000E+00  0.0000E+00  0.1920E+03  0.1920E+03
    -42.545  0.0000E+00  0.0000E+00  0.1920E+03  0.1920E+03
    -42.306  0.0000E+00  0.0000E+00  0.1920E+03  0.1920E+03
    -42.067  0.0000E+00  0.0000E+00  0.1920E+03  0.1920E+03
    -41.828  0.0000E+00  0.0000E+00  0.1920E+03  0.1920E+03
    -41.589  0.0000E+00  0.0000E+00  0.1920E+03  0.1920E+03
    -41.351  0.0000E+00  0.0000E+00  0.1920E+03  0.1920E+03
    -41.112  0.0000E+00  0.0000E+00  0.1920E+03  0.1920E+03
    -40.873  0.0000E+00  0.0000E+00  0.1920E+03  0.1920E+03
    -40.634  0.6138E-10  0.4062E-10  0.1920E+03  0.1920E+03
    -40.395  0.8403E+02  0.7879E+02  0.2121E+03  0.2108E+03
    -40.156  0.4493E+03  0.4550E+03  0.3194E+03  0.3195E+03
    -39.917  0.2476E+01  0.2034E+01  0.3200E+03  0.3200E+03
    -39.678  0.0000E+00  0.0000E+00  0.3200E+03  0.3200E+03
    -39.439  0.0000E+00  0.0000E+00  0.3200E+03  0.3200E+03
    -39.201  0.0000E+00  0.0000E+00  0.3200E+03  0.3200E+03
    -38.962  0.0000E+00  0.0000E+00  0.3200E+03  0.3200E+03
    -38.723  0.0000E+00  0.0000E+00  0.3200E+03  0.3200E+03
    -38.484  0.0000E+00  0.0000E+00  0.3200E+03  0.3200E+03
    -38.245  0.0000E+00  0.0000E+00  0.3200E+03  0.3200E+03
    -38.006  0.0000E+00  0.0000E+00  0.3200E+03  0.3200E+03
    -37.767  0.0000E+00  0.0000E+00  0.3200E+03  0.3200E+03
    -37.528  0.0000E+00  0.0000E+00  0.3200E+03  0.3200E+03
    -37.290  0.0000E+00  0.0000E+00  0.3200E+03  0.3200E+03
    -37.051  0.0000E+00  0.0000E+00  0.3200E+03  0.3200E+03
    -36.812  0.0000E+00  0.0000E+00  0.3200E+03  0.3200E+03
    -36.573  0.0000E+00  0.0000E+00  0.3200E+03  0.3200E+03
    -36.334  0.0000E+00  0.0000E+00  0.3200E+03  0.3200E+03
    -36.095  0.0000E+00  0.0000E+00  0.3200E+03  0.3200E+03
    -35.856  0.0000E+00  0.0000E+00  0.3200E+03  0.3200E+03
    -35.617  0.0000E+00  0.0000E+00  0.3200E+03  0.3200E+03
    -35.378  0.0000E+00  0.0000E+00  0.3200E+03  0.3200E+03
    -35.140  0.0000E+00  0.0000E+00  0.3200E+03  0.3200E+03
    -34.901  0.0000E+00  0.0000E+00  0.3200E+03  0.3200E+03
    -34.662  0.0000E+00  0.0000E+00  0.3200E+03  0.3200E+03
    -34.423  0.0000E+00  0.0000E+00  0.3200E+03  0.3200E+03
    -34.184  0.0000E+00  0.0000E+00  0.3200E+03  0.3200E+03
    -33.945  0.0000E+00  0.0000E+00  0.3200E+03  0.3200E+03
    -33.706  0.0000E+00  0.0000E+00  0.3200E+03  0.3200E+03
    -33.467  0.0000E+00  0.0000E+00  0.3200E+03  0.3200E+03
    -33.229  0.0000E+00  0.0000E+00  0.3200E+03  0.3200E+03
    -32.990  0.0000E+00  0.0000E+00  0.3200E+03  0.3200E+03
    -32.751  0.0000E+00  0.0000E+00  0.3200E+03  0.3200E+03
    -32.512  0.0000E+00  0.0000E+00  0.3200E+03  0.3200E+03
    -32.273  0.0000E+00  0.0000E+00  0.3200E+03  0.3200E+03
    -32.034  0.0000E+00  0.0000E+00  0.3200E+03  0.3200E+03
    -31.795  0.0000E+00  0.0000E+00  0.3200E+03  0.3200E+03
    -31.556  0.0000E+00  0.0000E+00  0.3200E+03  0.3200E+03
    -31.317  0.0000E+00  0.0000E+00  0.3200E+03  0.3200E+03
    -31.079  0.0000E+00  0.0000E+00  0.3200E+03  0.3200E+03
    -30.840  0.0000E+00  0.0000E+00  0.3200E+03  0.3200E+03
    -30.601  0.0000E+00  0.0000E+00  0.3200E+03  0.3200E+03
    -30.362  0.0000E+00  0.0000E+00  0.3200E+03  0.3200E+03
    -30.123  0.0000E+00  0.0000E+00  0.3200E+03  0.3200E+03
    -29.884  0.0000E+00  0.0000E+00  0.3200E+03  0.3200E+03
    -29.645  0.0000E+00  0.0000E+00  0.3200E+03  0.3200E+03
    -29.406  0.0000E+00  0.0000E+00  0.3200E+03  0.3200E+03
    -29.168  0.0000E+00  0.0000E+00  0.3200E+03  0.3200E+03
    -28.929  0.0000E+00  0.0000E+00  0.3200E+03  0.3200E+03
    -28.690  0.0000E+00  0.0000E+00  0.3200E+03  0.3200E+03
    -28.451  0.0000E+00  0.0000E+00  0.3200E+03  0.3200E+03
    -28.212  0.0000E+00  0.0000E+00  0.3200E+03  0.3200E+03
    -27.973  0.0000E+00  0.0000E+00  0.3200E+03  0.3200E+03
    -27.734  0.0000E+00  0.0000E+00  0.3200E+03  0.3200E+03
    -27.495  0.0000E+00  0.0000E+00  0.3200E+03  0.3200E+03
    -27.256  0.0000E+00  0.0000E+00  0.3200E+03  0.3200E+03
    -27.018  0.0000E+00  0.0000E+00  0.3200E+03  0.3200E+03
    -26.779  0.0000E+00  0.0000E+00  0.3200E+03  0.3200E+03
    -26.540  0.0000E+00  0.0000E+00  0.3200E+03  0.3200E+03
    -26.301  0.0000E+00  0.0000E+00  0.3200E+03  0.3200E+03
    -26.062  0.0000E+00  0.0000E+00  0.3200E+03  0.3200E+03
    -25.823  0.0000E+00  0.0000E+00  0.3200E+03  0.3200E+03
    -25.584  0.0000E+00  0.0000E+00  0.3200E+03  0.3200E+03
    -25.345  0.0000E+00  0.0000E+00  0.3200E+03  0.3200E+03
    -25.107  0.0000E+00  0.0000E+00  0.3200E+03  0.3200E+03
    -24.868  0.0000E+00  0.0000E+00  0.3200E+03  0.3200E+03
    -24.629  0.0000E+00  0.0000E+00  0.3200E+03  0.3200E+03
    -24.390  0.0000E+00  0.0000E+00  0.3200E+03  0.3200E+03
    -24.151  0.0000E+00  0.0000E+00  0.3200E+03  0.3200E+03
    -23.912  0.0000E+00  0.0000E+00  0.3200E+03  0.3200E+03
    -23.673  0.0000E+00  0.0000E+00  0.3200E+03  0.3200E+03
    -23.434  0.0000E+00  0.0000E+00  0.3200E+03  0.3200E+03
    -23.195  0.0000E+00  0.0000E+00  0.3200E+03  0.3200E+03
    -22.957  0.0000E+00  0.0000E+00  0.3200E+03  0.3200E+03
    -22.718  0.0000E+00  0.0000E+00  0.3200E+03  0.3200E+03
    -22.479  0.0000E+00  0.0000E+00  0.3200E+03  0.3200E+03
    -22.240  0.0000E+00  0.0000E+00  0.3200E+03  0.3200E+03
    -22.001  0.0000E+00  0.0000E+00  0.3200E+03  0.3200E+03
    -21.762  0.0000E+00  0.0000E+00  0.3200E+03  0.3200E+03
    -21.523  0.0000E+00  0.0000E+00  0.3200E+03  0.3200E+03
    -21.284  0.0000E+00  0.0000E+00  0.3200E+03  0.3200E+03
    -21.046  0.0000E+00  0.0000E+00  0.3200E+03  0.3200E+03
    -20.807  0.0000E+00  0.0000E+00  0.3200E+03  0.3200E+03
    -20.568  0.0000E+00  0.0000E+00  0.3200E+03  0.3200E+03
    -20.329  0.0000E+00  0.0000E+00  0.3200E+03  0.3200E+03
    -20.090  0.0000E+00  0.0000E+00  0.3200E+03  0.3200E+03
    -19.851  0.0000E+00  0.0000E+00  0.3200E+03  0.3200E+03
    -19.612  0.0000E+00  0.0000E+00  0.3200E+03  0.3200E+03
    -19.373  0.0000E+00  0.0000E+00  0.3200E+03  0.3200E+03
    -19.134  0.0000E+00  0.0000E+00  0.3200E+03  0.3200E+03
    -18.896  0.0000E+00  0.0000E+00  0.3200E+03  0.3200E+03
    -18.657  0.0000E+00  0.0000E+00  0.3200E+03  0.3200E+03
    -18.418  0.0000E+00  0.0000E+00  0.3200E+03  0.3200E+03
    -18.179  0.0000E+00  0.0000E+00  0.3200E+03  0.3200E+03
    -17.940  0.0000E+00  0.0000E+00  0.3200E+03  0.3200E+03
    -17.701  0.0000E+00  0.0000E+00  0.3200E+03  0.3200E+03
    -17.462  0.0000E+00  0.0000E+00  0.3200E+03  0.3200E+03
    -17.223  0.0000E+00  0.0000E+00  0.3200E+03  0.3200E+03
    -16.985  0.0000E+00  0.0000E+00  0.3200E+03  0.3200E+03
    -16.746  0.0000E+00  0.0000E+00  0.3200E+03  0.3200E+03
    -16.507  0.0000E+00  0.0000E+00  0.3200E+03  0.3200E+03
    -16.268  0.0000E+00  0.0000E+00  0.3200E+03  0.3200E+03
    -16.029  0.0000E+00  0.0000E+00  0.3200E+03  0.3200E+03
    -15.790  0.0000E+00  0.0000E+00  0.3200E+03  0.3200E+03
    -15.551  0.0000E+00  0.0000E+00  0.3200E+03  0.3200E+03
    -15.312  0.0000E+00  0.0000E+00  0.3200E+03  0.3200E+03
    -15.073  0.0000E+00  0.0000E+00  0.3200E+03  0.3200E+03
    -14.835  0.0000E+00  0.0000E+00  0.3200E+03  0.3200E+03
    -14.596  0.0000E+00  0.0000E+00  0.3200E+03  0.3200E+03
    -14.357  0.0000E+00  0.0000E+00  0.3200E+03  0.3200E+03
    -14.118  0.0000E+00  0.0000E+00  0.3200E+03  0.3200E+03
    -13.879  0.6649E-08  0.0000E+00  0.3200E+03  0.3200E+03
    -13.640  0.2877E+02  0.0000E+00  0.3269E+03  0.3200E+03
    -13.401  0.1439E+03  0.5939E+00  0.3613E+03  0.3201E+03
    -13.162  0.9522E+02  0.1654E+03  0.3840E+03  0.3597E+03
    -12.924  0.1486E-01  0.1019E+03  0.3840E+03  0.3840E+03
    -12.685  0.0000E+00  0.1039E-02  0.3840E+03  0.3840E+03
    -12.446  0.0000E+00  0.0000E+00  0.3840E+03  0.3840E+03
    -12.207  0.0000E+00  0.0000E+00  0.3840E+03  0.3840E+03
    -11.968  0.0000E+00  0.0000E+00  0.3840E+03  0.3840E+03
    -11.729  0.0000E+00  0.0000E+00  0.3840E+03  0.3840E+03
    -11.490  0.0000E+00  0.0000E+00  0.3840E+03  0.3840E+03
    -11.251  0.0000E+00  0.0000E+00  0.3840E+03  0.3840E+03
    -11.012  0.0000E+00  0.0000E+00  0.3840E+03  0.3840E+03
    -10.774  0.0000E+00  0.0000E+00  0.3840E+03  0.3840E+03
    -10.535  0.0000E+00  0.0000E+00  0.3840E+03  0.3840E+03
    -10.296  0.0000E+00  0.0000E+00  0.3840E+03  0.3840E+03
    -10.057  0.0000E+00  0.0000E+00  0.3840E+03  0.3840E+03
     -9.818  0.0000E+00  0.0000E+00  0.3840E+03  0.3840E+03
     -9.579  0.0000E+00  0.0000E+00  0.3840E+03  0.3840E+03
     -9.340  0.0000E+00  0.0000E+00  0.3840E+03  0.3840E+03
     -9.101  0.0000E+00  0.0000E+00  0.3840E+03  0.3840E+03
     -8.863  0.0000E+00  0.0000E+00  0.3840E+03  0.3840E+03
     -8.624  0.0000E+00  0.0000E+00  0.3840E+03  0.3840E+03
     -8.385  0.0000E+00  0.0000E+00  0.3840E+03  0.3840E+03
     -8.146  0.0000E+00  0.0000E+00  0.3840E+03  0.3840E+03
     -7.907  0.0000E+00  0.0000E+00  0.3840E+03  0.3840E+03
     -7.668  0.9104E-04  0.0000E+00  0.3840E+03  0.3840E+03
     -7.429  0.2304E+02  0.4211E-02  0.3895E+03  0.3840E+03
     -7.190  0.1143E+03  0.5258E+02  0.4168E+03  0.3966E+03
     -6.951  0.1147E+03  0.1234E+03  0.4442E+03  0.4260E+03
     -6.713  0.1590E+02  0.8204E+02  0.4480E+03  0.4456E+03
     -6.474  0.4972E-04  0.9845E+01  0.4480E+03  0.4480E+03
     -6.235  0.0000E+00  0.3657E-04  0.4480E+03  0.4480E+03
     -5.996  0.0000E+00  0.0000E+00  0.4480E+03  0.4480E+03
     -5.757  0.0000E+00  0.0000E+00  0.4480E+03  0.4480E+03
     -5.518  0.0000E+00  0.0000E+00  0.4480E+03  0.4480E+03
     -5.279  0.0000E+00  0.0000E+00  0.4480E+03  0.4480E+03
     -5.040  0.0000E+00  0.0000E+00  0.4480E+03  0.4480E+03
     -4.802  0.0000E+00  0.0000E+00  0.4480E+03  0.4480E+03
     -4.563  0.0000E+00  0.0000E+00  0.4480E+03  0.4480E+03
     -4.324  0.0000E+00  0.0000E+00  0.4480E+03  0.4480E+03
     -4.085  0.0000E+00  0.0000E+00  0.4480E+03  0.4480E+03
     -3.846  0.0000E+00  0.0000E+00  0.4480E+03  0.4480E+03
     -3.607  0.0000E+00  0.0000E+00  0.4480E+03  0.4480E+03
     -3.368  0.0000E+00  0.0000E+00  0.4480E+03  0.4480E+03
     -3.129  0.0000E+00  0.0000E+00  0.4480E+03  0.4480E+03
     -2.890  0.1907E-06  0.0000E+00  0.4480E+03  0.4480E+03
     -2.652  0.2844E+02  0.0000E+00  0.4548E+03  0.4480E+03
     -2.413  0.5048E+02  0.0000E+00  0.4669E+03  0.4480E+03
     -2.174  0.2155E+02  0.0000E+00  0.4720E+03  0.4480E+03
     -1.935  0.7739E-06  0.0000E+00  0.4720E+03  0.4480E+03
     -1.696  0.4787E+02  0.0000E+00  0.4834E+03  0.4480E+03
     -1.457  0.2116E+02  0.0000E+00  0.4885E+03  0.4480E+03
     -1.218  0.1120E+03  0.4782E-03  0.5152E+03  0.4480E+03
     -0.979  0.1358E+03  0.1797E+02  0.5477E+03  0.4523E+03
     -0.741  0.1499E+03  0.7430E+02  0.5835E+03  0.4700E+03
     -0.502  0.1399E+03  0.1501E+02  0.6169E+03  0.4736E+03
     -0.263  0.1686E+03  0.5107E+02  0.6572E+03  0.4858E+03
     -0.024  0.1881E+03  0.1234E+02  0.7021E+03  0.4888E+03
      0.215  0.1126E+03  0.5594E+02  0.7290E+03  0.5021E+03
      0.454  0.1051E+03  0.1635E+03  0.7541E+03  0.5412E+03
      0.693  0.9867E+02  0.1500E+03  0.7777E+03  0.5770E+03
      0.932  0.9509E+02  0.2048E+03  0.8004E+03  0.6260E+03
      1.171  0.1224E+03  0.6053E+02  0.8296E+03  0.6404E+03
      1.409  0.1900E+03  0.2949E+02  0.8750E+03  0.6475E+03
      1.648  0.1684E+03  0.9461E+02  0.9152E+03  0.6701E+03
      1.887  0.5454E+02  0.8648E+02  0.9282E+03  0.6907E+03
      2.126  0.9692E+02  0.7643E+02  0.9514E+03  0.7090E+03
      2.365  0.6667E+02  0.5015E+02  0.9673E+03  0.7210E+03
      2.604  0.9409E+02  0.9689E+02  0.9898E+03  0.7441E+03
      2.843  0.1016E+03  0.1172E+03  0.1014E+04  0.7721E+03
      3.082  0.1068E+03  0.1516E+03  0.1040E+04  0.8083E+03
      3.320  0.1061E+03  0.7606E+02  0.1065E+04  0.8265E+03
      3.559  0.1004E+03  0.7134E+02  0.1089E+04  0.8436E+03
      3.798  0.9664E+02  0.1597E+03  0.1112E+04  0.8817E+03
      4.037  0.8410E+02  0.5978E+02  0.1132E+04  0.8960E+03
      4.276  0.4519E+02  0.6307E-02  0.1143E+04  0.8960E+03
      4.515  0.3483E+02  0.0000E+00  0.1151E+04  0.8960E+03
      4.754  0.3387E+01  0.0000E+00  0.1152E+04  0.8960E+03
      4.993  0.2676E-03  0.0000E+00  0.1152E+04  0.8960E+03
      5.232  0.0000E+00  0.0000E+00  0.1152E+04  0.8960E+03
      5.470  0.0000E+00  0.0000E+00  0.1152E+04  0.8960E+03
      5.709  0.0000E+00  0.0000E+00  0.1152E+04  0.8960E+03
      5.948  0.0000E+00  0.0000E+00  0.1152E+04  0.8960E+03
      6.187  0.0000E+00  0.0000E+00  0.1152E+04  0.8960E+03
      6.426  0.0000E+00  0.7936E-06  0.1152E+04  0.8960E+03
      6.665  0.0000E+00  0.1673E+02  0.1152E+04  0.9000E+03
      6.904  0.5083E-14  0.1350E+03  0.1152E+04  0.9323E+03
      7.143  0.9662E-01  0.1324E+03  0.1152E+04  0.9639E+03
      7.381  0.4266E+00  0.1347E+03  0.1152E+04  0.9961E+03
      7.620  0.2226E+01  0.1075E+03  0.1153E+04  0.1022E+04
      7.859  0.2131E+01  0.1615E+03  0.1153E+04  0.1060E+04
      8.098  0.7046E+01  0.1575E+03  0.1155E+04  0.1098E+04
      8.337  0.2028E+02  0.1364E+03  0.1160E+04  0.1131E+04
      8.576  0.3321E+02  0.7848E+02  0.1168E+04  0.1149E+04
      8.815  0.3332E+02  0.1920E+02  0.1176E+04  0.1154E+04
      9.054  0.4770E+02  0.1503E+02  0.1187E+04  0.1157E+04
      9.293  0.7535E+02  0.2022E+02  0.1205E+04  0.1162E+04
      9.531  0.5516E+02  0.3498E+02  0.1218E+04  0.1171E+04
      9.770  0.4917E+02  0.5731E+02  0.1230E+04  0.1184E+04
     10.009  0.3609E+02  0.8322E+02  0.1239E+04  0.1204E+04
     10.248  0.3819E+02  0.7209E+02  0.1248E+04  0.1221E+04
     10.487  0.7331E+02  0.6543E+02  0.1265E+04  0.1237E+04
     10.726  0.6527E+02  0.4180E+02  0.1281E+04  0.1247E+04
     10.965  0.6492E+02  0.8228E+02  0.1296E+04  0.1267E+04
     11.204  0.9898E+02  0.4489E+02  0.1320E+04  0.1277E+04
     11.442  0.1289E+03  0.4928E+02  0.1351E+04  0.1289E+04
     11.681  0.1176E+03  0.9000E+02  0.1379E+04  0.1311E+04
     11.920  0.8117E+02  0.1405E+03  0.1398E+04  0.1344E+04
     12.159  0.3544E+02  0.1487E+03  0.1407E+04  0.1380E+04
     12.398  0.6939E+02  0.6912E+02  0.1423E+04  0.1396E+04
     12.637  0.6369E+02  0.5138E+02  0.1438E+04  0.1409E+04
     12.876  0.6335E+02  0.5438E+02  0.1454E+04  0.1422E+04
     13.115  0.4800E+02  0.7902E+02  0.1465E+04  0.1440E+04
     13.354  0.1220E+02  0.5778E+02  0.1468E+04  0.1454E+04
     13.592  0.2255E+00  0.5302E+02  0.1468E+04  0.1467E+04
     13.831  0.0000E+00  0.4604E+01  0.1468E+04  0.1468E+04
     14.070  0.0000E+00  0.4475E-05  0.1468E+04  0.1468E+04
     14.309  0.0000E+00  0.0000E+00  0.1468E+04  0.1468E+04
     14.548  0.0000E+00  0.0000E+00  0.1468E+04  0.1468E+04
     14.787  0.0000E+00  0.0000E+00  0.1468E+04  0.1468E+04
     15.026  0.0000E+00  0.0000E+00  0.1468E+04  0.1468E+04
     15.265  0.0000E+00  0.0000E+00  0.1468E+04  0.1468E+04
     15.503  0.0000E+00  0.0000E+00  0.1468E+04  0.1468E+04
     15.742  0.0000E+00  0.0000E+00  0.1468E+04  0.1468E+04
     15.981  0.0000E+00  0.0000E+00  0.1468E+04  0.1468E+04
     16.220  0.0000E+00  0.0000E+00  0.1468E+04  0.1468E+04
     16.459  0.0000E+00  0.0000E+00  0.1468E+04  0.1468E+04
     16.698  0.0000E+00  0.0000E+00  0.1468E+04  0.1468E+04
     16.937  0.0000E+00  0.0000E+00  0.1468E+04  0.1468E+04
