  320  320    1    2
  0.1216366E+02  0.1589065E-08  0.1589065E-08  0.1541455E-08  0.5000000E-15
  1.000000000000000E-004
  CAR 
 unknown system                          
   2048      8   1468
 
  0.0000000E+00  0.0000000E+00  0.0000000E+00  0.1250000E+00
    1      -51.470460    -46.728791   1.000000   1.000000
    2      -51.469725    -46.727547   1.000000   1.000000
    3      -51.469148    -46.727531   1.000000   1.000000
    4      -51.468776    -46.727190   1.000000   1.000000
    5      -51.468776    -46.727132   1.000000   1.000000
    6      -51.468758    -46.727119   1.000000   1.000000
    7      -51.468709    -46.727116   1.000000   1.000000
    8      -51.468704    -46.727105   1.000000   1.000000
    9      -51.468621    -46.727030   1.000000   1.000000
   10      -51.468595    -46.727017   1.000000   1.000000
   11      -51.468586    -46.726994   1.000000   1.000000
   12      -51.468573    -46.726977   1.000000   1.000000
   13      -51.468516    -46.726923   1.000000   1.000000
   14      -51.468432    -46.726847   1.000000   1.000000
   15      -51.468411    -46.726721   1.000000   1.000000
   16      -51.468333    -46.726555   1.000000   1.000000
   17      -51.468323    -46.726512   1.000000   1.000000
   18      -51.468290    -46.726364   1.000000   1.000000
   19      -51.468238    -46.726282   1.000000   1.000000
   20      -51.468155    -46.726203   1.000000   1.000000
   21      -51.468020    -46.725913   1.000000   1.000000
   22      -51.468016    -46.725909   1.000000   1.000000
   23      -51.468007    -46.725907   1.000000   1.000000
   24      -51.467971    -46.725878   1.000000   1.000000
   25      -51.467967    -46.725858   1.000000   1.000000
   26      -51.467958    -46.725844   1.000000   1.000000
   27      -51.467947    -46.725839   1.000000   1.000000
   28      -51.467935    -46.725820   1.000000   1.000000
   29      -51.467883    -46.725762   1.000000   1.000000
   30      -51.467871    -46.725753   1.000000   1.000000
   31      -51.467869    -46.725750   1.000000   1.000000
   32      -51.467850    -46.725749   1.000000   1.000000
   33      -51.467846    -46.725740   1.000000   1.000000
   34      -51.467838    -46.725728   1.000000   1.000000
   35      -51.467837    -46.725724   1.000000   1.000000
   36      -51.467786    -46.725684   1.000000   1.000000
   37      -51.467781    -46.725668   1.000000   1.000000
   38      -51.467778    -46.725661   1.000000   1.000000
   39      -51.467696    -46.725584   1.000000   1.000000
   40      -51.467676    -46.725572   1.000000   1.000000
   41      -51.467607    -46.725502   1.000000   1.000000
   42      -51.467599    -46.725483   1.000000   1.000000
   43      -51.467597    -46.725460   1.000000   1.000000
   44      -51.467585    -46.725453   1.000000   1.000000
   45      -51.467564    -46.725290   1.000000   1.000000
   46      -51.467559    -46.725211   1.000000   1.000000
   47      -51.467419    -46.725134   1.000000   1.000000
   48      -51.467297    -46.725113   1.000000   1.000000
   49      -51.467232    -46.724958   1.000000   1.000000
   50      -51.467227    -46.724713   1.000000   1.000000
   51      -51.467208    -46.724621   1.000000   1.000000
   52      -51.467198    -46.724587   1.000000   1.000000
   53      -51.467140    -46.724576   1.000000   1.000000
   54      -51.467117    -46.724513   1.000000   1.000000
   55      -51.467107    -46.724496   1.000000   1.000000
   56      -51.467067    -46.724486   1.000000   1.000000
   57      -51.467049    -46.724453   1.000000   1.000000
   58      -51.466946    -46.724425   1.000000   1.000000
   59      -51.466915    -46.724327   1.000000   1.000000
   60      -51.466852    -46.724298   1.000000   1.000000
   61      -51.466846    -46.724292   1.000000   1.000000
   62      -51.466834    -46.724214   1.000000   1.000000
   63      -51.466566    -46.723966   1.000000   1.000000
   64      -51.464180    -46.721651   1.000000   1.000000
   65      -50.062357    -46.348972   1.000000   1.000000
   66      -50.062297    -46.348880   1.000000   1.000000
   67      -50.061294    -46.347754   1.000000   1.000000
   68      -50.061234    -46.347663   1.000000   1.000000
   69      -50.061105    -46.347594   1.000000   1.000000
   70      -50.061102    -46.347590   1.000000   1.000000
   71      -50.060883    -46.347353   1.000000   1.000000
   72      -50.060842    -46.347304   1.000000   1.000000
   73      -50.060795    -46.347262   1.000000   1.000000
   74      -50.060780    -46.347242   1.000000   1.000000
   75      -50.060767    -46.347185   1.000000   1.000000
   76      -50.060717    -46.347172   1.000000   1.000000
   77      -50.060691    -46.347168   1.000000   1.000000
   78      -50.060675    -46.347138   1.000000   1.000000
   79      -50.060670    -46.347130   1.000000   1.000000
   80      -50.060656    -46.347129   1.000000   1.000000
   81      -50.060652    -46.347110   1.000000   1.000000
   82      -50.060639    -46.347080   1.000000   1.000000
   83      -50.060617    -46.347073   1.000000   1.000000
   84      -50.060614    -46.347065   1.000000   1.000000
   85      -50.060605    -46.347062   1.000000   1.000000
   86      -50.060598    -46.347060   1.000000   1.000000
   87      -50.060582    -46.347048   1.000000   1.000000
   88      -50.060574    -46.347029   1.000000   1.000000
   89      -50.060567    -46.347020   1.000000   1.000000
   90      -50.060559    -46.347015   1.000000   1.000000
   91      -50.060551    -46.347001   1.000000   1.000000
   92      -50.060550    -46.346997   1.000000   1.000000
   93      -50.060536    -46.346983   1.000000   1.000000
   94      -50.060531    -46.346975   1.000000   1.000000
   95      -50.060522    -46.346959   1.000000   1.000000
   96      -50.060521    -46.346950   1.000000   1.000000
   97      -50.060508    -46.346946   1.000000   1.000000
   98      -50.060496    -46.346934   1.000000   1.000000
   99      -50.060481    -46.346925   1.000000   1.000000
  100      -50.060470    -46.346910   1.000000   1.000000
  101      -50.060463    -46.346896   1.000000   1.000000
  102      -50.060459    -46.346878   1.000000   1.000000
  103      -50.060458    -46.346870   1.000000   1.000000
  104      -50.060439    -46.346861   1.000000   1.000000
  105      -50.060431    -46.346858   1.000000   1.000000
  106      -50.060413    -46.346854   1.000000   1.000000
  107      -50.060400    -46.346849   1.000000   1.000000
  108      -50.060395    -46.346834   1.000000   1.000000
  109      -50.060390    -46.346814   1.000000   1.000000
  110      -50.060372    -46.346799   1.000000   1.000000
  111      -50.060356    -46.346792   1.000000   1.000000
  112      -50.060336    -46.346756   1.000000   1.000000
  113      -50.060308    -46.346750   1.000000   1.000000
  114      -50.060305    -46.346746   1.000000   1.000000
  115      -50.060261    -46.346691   1.000000   1.000000
  116      -50.060254    -46.346690   1.000000   1.000000
  117      -50.060246    -46.346660   1.000000   1.000000
  118      -50.060212    -46.346657   1.000000   1.000000
  119      -50.060211    -46.346656   1.000000   1.000000
  120      -50.060174    -46.346649   1.000000   1.000000
  121      -50.060115    -46.346614   1.000000   1.000000
  122      -50.060098    -46.346525   1.000000   1.000000
  123      -50.059985    -46.346437   1.000000   1.000000
  124      -50.059838    -46.346276   1.000000   1.000000
  125      -50.059802    -46.346223   1.000000   1.000000
  126      -50.059791    -46.346211   1.000000   1.000000
  127      -50.059774    -46.346181   1.000000   1.000000
  128      -50.057216    -46.343232   1.000000   1.000000
  129      -50.035591    -46.331230   1.000000   1.000000
  130      -50.035534    -46.331140   1.000000   1.000000
  131      -50.034454    -46.330147   1.000000   1.000000
  132      -50.034359    -46.330019   1.000000   1.000000
  133      -50.034303    -46.329993   1.000000   1.000000
  134      -50.034298    -46.329909   1.000000   1.000000
  135      -50.034274    -46.329868   1.000000   1.000000
  136      -50.034125    -46.329853   1.000000   1.000000
  137      -50.034093    -46.329828   1.000000   1.000000
  138      -50.034084    -46.329824   1.000000   1.000000
  139      -50.034035    -46.329766   1.000000   1.000000
  140      -50.034023    -46.329726   1.000000   1.000000
  141      -50.033927    -46.329703   1.000000   1.000000
  142      -50.033916    -46.329612   1.000000   1.000000
  143      -50.033902    -46.329602   1.000000   1.000000
  144      -50.033890    -46.329553   1.000000   1.000000
  145      -50.033867    -46.329510   1.000000   1.000000
  146      -50.033808    -46.329481   1.000000   1.000000
  147      -50.033799    -46.329451   1.000000   1.000000
  148      -50.033760    -46.329436   1.000000   1.000000
  149      -50.033746    -46.329386   1.000000   1.000000
  150      -50.033740    -46.329338   1.000000   1.000000
  151      -50.033730    -46.329328   1.000000   1.000000
  152      -50.033720    -46.329311   1.000000   1.000000
  153      -50.033711    -46.329311   1.000000   1.000000
  154      -50.033710    -46.329274   1.000000   1.000000
  155      -50.033693    -46.329258   1.000000   1.000000
  156      -50.033665    -46.329256   1.000000   1.000000
  157      -50.033653    -46.329246   1.000000   1.000000
  158      -50.033632    -46.329226   1.000000   1.000000
  159      -50.033583    -46.329187   1.000000   1.000000
  160      -50.033581    -46.329183   1.000000   1.000000
  161      -50.033564    -46.329179   1.000000   1.000000
  162      -50.033554    -46.329168   1.000000   1.000000
  163      -50.033548    -46.329150   1.000000   1.000000
  164      -50.033545    -46.329121   1.000000   1.000000
  165      -50.033533    -46.329113   1.000000   1.000000
  166      -50.033520    -46.329099   1.000000   1.000000
  167      -50.033510    -46.329095   1.000000   1.000000
  168      -50.033496    -46.329084   1.000000   1.000000
  169      -50.033479    -46.329045   1.000000   1.000000
  170      -50.033445    -46.328993   1.000000   1.000000
  171      -50.033424    -46.328987   1.000000   1.000000
  172      -50.033388    -46.328959   1.000000   1.000000
  173      -50.033387    -46.328930   1.000000   1.000000
  174      -50.033380    -46.328906   1.000000   1.000000
  175      -50.033348    -46.328892   1.000000   1.000000
  176      -50.033327    -46.328868   1.000000   1.000000
  177      -50.033322    -46.328831   1.000000   1.000000
  178      -50.033308    -46.328772   1.000000   1.000000
  179      -50.033264    -46.328767   1.000000   1.000000
  180      -50.033210    -46.328703   1.000000   1.000000
  181      -50.033202    -46.328667   1.000000   1.000000
  182      -50.033194    -46.328636   1.000000   1.000000
  183      -50.033156    -46.328632   1.000000   1.000000
  184      -50.033137    -46.328597   1.000000   1.000000
  185      -50.033021    -46.328495   1.000000   1.000000
  186      -50.032964    -46.328465   1.000000   1.000000
  187      -50.032930    -46.328422   1.000000   1.000000
  188      -50.032868    -46.328392   1.000000   1.000000
  189      -50.032837    -46.328392   1.000000   1.000000
  190      -50.032788    -46.328322   1.000000   1.000000
  191      -50.032778    -46.328310   1.000000   1.000000
  192      -50.029946    -46.325539   1.000000   1.000000
  193      -40.382331    -40.380376   1.000000   1.000000
  194      -40.380978    -40.379076   1.000000   1.000000
  195      -40.379959    -40.378016   1.000000   1.000000
  196      -40.379935    -40.377991   1.000000   1.000000
  197      -40.379887    -40.377949   1.000000   1.000000
  198      -40.379697    -40.377748   1.000000   1.000000
  199      -40.379522    -40.377573   1.000000   1.000000
  200      -40.379349    -40.377412   1.000000   1.000000
  201      -40.379182    -40.377212   1.000000   1.000000
  202      -40.379140    -40.377176   1.000000   1.000000
  203      -40.379087    -40.377103   1.000000   1.000000
  204      -40.379022    -40.377033   1.000000   1.000000
  205      -40.378936    -40.376960   1.000000   1.000000
  206      -40.378890    -40.376916   1.000000   1.000000
  207      -40.378790    -40.376789   1.000000   1.000000
  208      -40.378731    -40.376761   1.000000   1.000000
  209      -40.378702    -40.376740   1.000000   1.000000
  210      -40.378659    -40.376699   1.000000   1.000000
  211      -40.378627    -40.376639   1.000000   1.000000
  212      -40.378376    -40.376393   1.000000   1.000000
  213      -40.378210    -40.376236   1.000000   1.000000
  214      -40.378197    -40.376223   1.000000   1.000000
  215      -40.378084    -40.376117   1.000000   1.000000
  216      -40.378025    -40.376048   1.000000   1.000000
  217      -40.377917    -40.375933   1.000000   1.000000
  218      -40.377884    -40.375916   1.000000   1.000000
  219      -40.377845    -40.375865   1.000000   1.000000
  220      -40.377844    -40.375860   1.000000   1.000000
  221      -40.377838    -40.375849   1.000000   1.000000
  222      -40.377801    -40.375812   1.000000   1.000000
  223      -40.377784    -40.375796   1.000000   1.000000
  224      -40.377727    -40.375750   1.000000   1.000000
  225      -40.377719    -40.375744   1.000000   1.000000
  226      -40.377665    -40.375684   1.000000   1.000000
  227      -40.377649    -40.375670   1.000000   1.000000
  228      -40.377592    -40.375597   1.000000   1.000000
  229      -40.377573    -40.375580   1.000000   1.000000
  230      -40.377501    -40.375516   1.000000   1.000000
  231      -40.377439    -40.375443   1.000000   1.000000
  232      -40.377409    -40.375419   1.000000   1.000000
  233      -40.377209    -40.375217   1.000000   1.000000
  234      -40.377184    -40.375190   1.000000   1.000000
  235      -40.377089    -40.375097   1.000000   1.000000
  236      -40.377057    -40.375066   1.000000   1.000000
  237      -40.376964    -40.374980   1.000000   1.000000
  238      -40.376946    -40.374946   1.000000   1.000000
  239      -40.376919    -40.374921   1.000000   1.000000
  240      -40.376797    -40.374803   1.000000   1.000000
  241      -40.376795    -40.374796   1.000000   1.000000
  242      -40.376714    -40.374724   1.000000   1.000000
  243      -40.376681    -40.374691   1.000000   1.000000
  244      -40.376587    -40.374593   1.000000   1.000000
  245      -40.376561    -40.374571   1.000000   1.000000
  246      -40.376520    -40.374520   1.000000   1.000000
  247      -40.376477    -40.374493   1.000000   1.000000
  248      -40.376465    -40.374473   1.000000   1.000000
  249      -40.376414    -40.374431   1.000000   1.000000
  250      -40.376413    -40.374428   1.000000   1.000000
  251      -40.376397    -40.374406   1.000000   1.000000
  252      -40.376392    -40.374404   1.000000   1.000000
  253      -40.376283    -40.374302   1.000000   1.000000
  254      -40.375899    -40.373892   1.000000   1.000000
  255      -40.375762    -40.373775   1.000000   1.000000
  256      -40.374618    -40.372625   1.000000   1.000000
  257      -40.241393    -40.243942   1.000000   1.000000
  258      -40.240822    -40.243383   1.000000   1.000000
  259      -40.240592    -40.243147   1.000000   1.000000
  260      -40.240524    -40.243106   1.000000   1.000000
  261      -40.240523    -40.243086   1.000000   1.000000
  262      -40.240348    -40.242929   1.000000   1.000000
  263      -40.240216    -40.242796   1.000000   1.000000
  264      -40.240201    -40.242785   1.000000   1.000000
  265      -40.240142    -40.242701   1.000000   1.000000
  266      -40.240121    -40.242697   1.000000   1.000000
  267      -40.240117    -40.242684   1.000000   1.000000
  268      -40.239974    -40.242533   1.000000   1.000000
  269      -40.239946    -40.242510   1.000000   1.000000
  270      -40.239925    -40.242458   1.000000   1.000000
  271      -40.239911    -40.242456   1.000000   1.000000
  272      -40.239883    -40.242415   1.000000   1.000000
  273      -40.239775    -40.242358   1.000000   1.000000
  274      -40.239739    -40.242316   1.000000   1.000000
  275      -40.239739    -40.242315   1.000000   1.000000
  276      -40.239727    -40.242299   1.000000   1.000000
  277      -40.239714    -40.242272   1.000000   1.000000
  278      -40.239679    -40.242260   1.000000   1.000000
  279      -40.239661    -40.242232   1.000000   1.000000
  280      -40.239652    -40.242232   1.000000   1.000000
  281      -40.239626    -40.242206   1.000000   1.000000
  282      -40.239605    -40.242183   1.000000   1.000000
  283      -40.239582    -40.242163   1.000000   1.000000
  284      -40.239569    -40.242159   1.000000   1.000000
  285      -40.239539    -40.242111   1.000000   1.000000
  286      -40.239534    -40.242094   1.000000   1.000000
  287      -40.239485    -40.242073   1.000000   1.000000
  288      -40.239450    -40.242006   1.000000   1.000000
  289      -40.239435    -40.242000   1.000000   1.000000
  290      -40.239432    -40.241990   1.000000   1.000000
  291      -40.239412    -40.241968   1.000000   1.000000
  292      -40.239400    -40.241957   1.000000   1.000000
  293      -40.239390    -40.241942   1.000000   1.000000
  294      -40.239381    -40.241939   1.000000   1.000000
  295      -40.239333    -40.241886   1.000000   1.000000
  296      -40.239304    -40.241847   1.000000   1.000000
  297      -40.239302    -40.241843   1.000000   1.000000
  298      -40.239270    -40.241813   1.000000   1.000000
  299      -40.239252    -40.241792   1.000000   1.000000
  300      -40.239216    -40.241770   1.000000   1.000000
  301      -40.239198    -40.241740   1.000000   1.000000
  302      -40.239158    -40.241699   1.000000   1.000000
  303      -40.239146    -40.241691   1.000000   1.000000
  304      -40.239045    -40.241593   1.000000   1.000000
  305      -40.238979    -40.241519   1.000000   1.000000
  306      -40.238973    -40.241511   1.000000   1.000000
  307      -40.238904    -40.241438   1.000000   1.000000
  308      -40.238808    -40.241347   1.000000   1.000000
  309      -40.238764    -40.241300   1.000000   1.000000
  310      -40.238697    -40.241231   1.000000   1.000000
  311      -40.238648    -40.241180   1.000000   1.000000
  312      -40.238599    -40.241125   1.000000   1.000000
  313      -40.238525    -40.241056   1.000000   1.000000
  314      -40.238522    -40.241050   1.000000   1.000000
  315      -40.238462    -40.240988   1.000000   1.000000
  316      -40.238330    -40.240858   1.000000   1.000000
  317      -40.238272    -40.240797   1.000000   1.000000
  318      -40.238186    -40.240710   1.000000   1.000000
  319      -40.237759    -40.240280   1.000000   1.000000
  320      -40.237433    -40.239968   1.000000   1.000000
  321      -13.667822    -13.340176   1.000000   1.000000
  322      -13.667305    -13.339654   1.000000   1.000000
  323      -13.665069    -13.336261   1.000000   1.000000
  324      -13.664575    -13.335749   1.000000   1.000000
  325      -13.650131    -13.322699   1.000000   1.000000
  326      -13.649404    -13.322102   1.000000   1.000000
  327      -13.648956    -13.322075   1.000000   1.000000
  328      -13.648868    -13.321693   1.000000   1.000000
  329      -13.648479    -13.320862   1.000000   1.000000
  330      -13.645022    -13.316743   1.000000   1.000000
  331      -13.644618    -13.316303   1.000000   1.000000
  332      -13.644556    -13.316244   1.000000   1.000000
  333      -13.643966    -13.315669   1.000000   1.000000
  334      -13.624603    -13.296849   1.000000   1.000000
  335      -13.624108    -13.296341   1.000000   1.000000
  336      -13.598830    -13.272350   1.000000   1.000000
  337      -13.507826    -13.233888   1.000000   1.000000
  338      -13.507634    -13.233530   1.000000   1.000000
  339      -13.507605    -13.233516   1.000000   1.000000
  340      -13.507566    -13.233483   1.000000   1.000000
  341      -13.504467    -13.232589   1.000000   1.000000
  342      -13.503984    -13.232260   1.000000   1.000000
  343      -13.503974    -13.232236   1.000000   1.000000
  344      -13.503573    -13.231812   1.000000   1.000000
  345      -13.498822    -13.224702   1.000000   1.000000
  346      -13.498395    -13.224234   1.000000   1.000000
  347      -13.498376    -13.224231   1.000000   1.000000
  348      -13.497843    -13.223682   1.000000   1.000000
  349      -13.476752    -13.202649   1.000000   1.000000
  350      -13.475853    -13.201698   1.000000   1.000000
  351      -13.475834    -13.201695   1.000000   1.000000
  352      -13.475776    -13.201638   1.000000   1.000000
  353      -13.475769    -13.201625   1.000000   1.000000
  354      -13.475710    -13.201568   1.000000   1.000000
  355      -13.475693    -13.201567   1.000000   1.000000
  356      -13.474793    -13.200617   1.000000   1.000000
  357      -13.453618    -13.179508   1.000000   1.000000
  358      -13.453073    -13.178947   1.000000   1.000000
  359      -13.453057    -13.178947   1.000000   1.000000
  360      -13.452646    -13.178496   1.000000   1.000000
  361      -13.449017    -13.173493   1.000000   1.000000
  362      -13.448634    -13.173082   1.000000   1.000000
  363      -13.448607    -13.173065   1.000000   1.000000
  364      -13.448089    -13.172574   1.000000   1.000000
  365      -13.443795    -13.169621   1.000000   1.000000
  366      -13.443748    -13.169579   1.000000   1.000000
  367      -13.443712    -13.169553   1.000000   1.000000
  368      -13.443550    -13.169360   1.000000   1.000000
  369      -13.355933    -13.144070   1.000000   1.000000
  370      -13.320154    -13.107905   1.000000   1.000000
  371      -13.319644    -13.107386   1.000000   1.000000
  372      -13.294885    -13.082264   1.000000   1.000000
  373      -13.294314    -13.081711   1.000000   1.000000
  374      -13.294257    -13.081654   1.000000   1.000000
  375      -13.293816    -13.081178   1.000000   1.000000
  376      -13.288772    -13.073722   1.000000   1.000000
  377      -13.288354    -13.073303   1.000000   1.000000
  378      -13.288307    -13.073265   1.000000   1.000000
  379      -13.287763    -13.072754   1.000000   1.000000
  380      -13.283356    -13.070668   1.000000   1.000000
  381      -13.268763    -13.055789   1.000000   1.000000
  382      -13.268269    -13.055281   1.000000   1.000000
  383      -13.265701    -13.051536   1.000000   1.000000
  384      -13.265190    -13.051024   1.000000   1.000000
  385       -7.538693     -7.332737   1.000000   1.000000
  386       -7.469858     -7.287580   1.000000   1.000000
  387       -7.469577     -7.287295   1.000000   1.000000
  388       -7.469572     -7.287291   1.000000   1.000000
  389       -7.469291     -7.287006   1.000000   1.000000
  390       -7.404735     -7.245237   1.000000   1.000000
  391       -7.404732     -7.245229   1.000000   1.000000
  392       -7.395428     -7.218955   1.000000   1.000000
  393       -7.395415     -7.218942   1.000000   1.000000
  394       -7.356155     -7.188371   1.000000   1.000000
  395       -7.356151     -7.188368   1.000000   1.000000
  396       -7.355767     -7.187983   1.000000   1.000000
  397       -7.355766     -7.187975   1.000000   1.000000
  398       -7.351722     -7.166423   1.000000   1.000000
  399       -7.351486     -7.166185   1.000000   1.000000
  400       -7.351484     -7.166181   1.000000   1.000000
  401       -7.351228     -7.165928   1.000000   1.000000
  402       -7.315295     -7.117887   1.000000   1.000000
  403       -7.315277     -7.117865   1.000000   1.000000
  404       -7.277507     -7.116738   1.000000   1.000000
  405       -7.277263     -7.116511   1.000000   1.000000
  406       -7.277261     -7.116509   1.000000   1.000000
  407       -7.277026     -7.116253   1.000000   1.000000
  408       -7.237974     -7.092090   1.000000   1.000000
  409       -7.237688     -7.085387   1.000000   1.000000
  410       -7.237687     -7.085098   1.000000   1.000000
  411       -7.237411     -7.085090   1.000000   1.000000
  412       -7.233097     -7.084816   1.000000   1.000000
  413       -7.209540     -7.034526   1.000000   1.000000
  414       -7.209533     -7.034518   1.000000   1.000000
  415       -7.209234     -7.034209   1.000000   1.000000
  416       -7.209233     -7.034208   1.000000   1.000000
  417       -7.209151     -7.034129   1.000000   1.000000
  418       -7.209150     -7.034129   1.000000   1.000000
  419       -7.208852     -7.033824   1.000000   1.000000
  420       -7.208837     -7.033808   1.000000   1.000000
  421       -7.147441     -7.005137   1.000000   1.000000
  422       -7.147438     -7.005130   1.000000   1.000000
  423       -7.143224     -6.978915   1.000000   1.000000
  424       -7.142996     -6.978628   1.000000   1.000000
  425       -7.142980     -6.978627   1.000000   1.000000
  426       -7.142757     -6.978332   1.000000   1.000000
  427       -7.140889     -6.950859   1.000000   1.000000
  428       -7.140626     -6.950609   1.000000   1.000000
  429       -7.140601     -6.950597   1.000000   1.000000
  430       -7.140325     -6.950369   1.000000   1.000000
  431       -7.052342     -6.907029   1.000000   1.000000
  432       -7.052082     -6.889626   1.000000   1.000000
  433       -7.052080     -6.889385   1.000000   1.000000
  434       -7.051856     -6.889381   1.000000   1.000000
  435       -7.050837     -6.889128   1.000000   1.000000
  436       -7.046410     -6.862537   1.000000   1.000000
  437       -7.046396     -6.862530   1.000000   1.000000
  438       -7.046012     -6.862140   1.000000   1.000000
  439       -7.046012     -6.862135   1.000000   1.000000
  440       -7.042288     -6.856027   1.000000   1.000000
  441       -7.042279     -6.856026   1.000000   1.000000
  442       -6.950624     -6.764356   1.000000   1.000000
  443       -6.950611     -6.764350   1.000000   1.000000
  444       -6.946393     -6.737116   1.000000   1.000000
  445       -6.946122     -6.736830   1.000000   1.000000
  446       -6.946122     -6.736828   1.000000   1.000000
  447       -6.945818     -6.736533   1.000000   1.000000
  448       -6.844542     -6.608369   1.000000   1.000000
  449       -2.693899     -1.100168   1.000000   1.000000
  450       -2.693486     -1.099800   1.000000   1.000000
  451       -2.690751     -1.046876   1.000000   1.000000
  452       -2.690313     -1.046457   1.000000   1.000000
  453       -2.690058     -1.040404   1.000000   1.000000
  454       -2.689706     -1.040069   1.000000   1.000000
  455       -2.687723     -0.973407   1.000000   1.000000
  456       -2.687137     -0.972992   1.000000   1.000000
  457       -2.687122     -0.972942   1.000000   1.000000
  458       -2.687105     -0.972543   1.000000   1.000000
  459       -2.686904     -0.914800   1.000000   1.000000
  460       -2.686575     -0.914371   1.000000   1.000000
  461       -2.685631     -0.914327   1.000000   1.000000
  462       -2.685447     -0.913902   1.000000   1.000000
  463       -2.685328     -0.898495   1.000000   1.000000
  464       -2.684689     -0.898096   1.000000   1.000000
  465       -1.748828     -0.599832   1.000000   1.000000
  466       -1.748487     -0.599455   1.000000   1.000000
  467       -1.748378     -0.599444   1.000000   1.000000
  468       -1.748191     -0.599066   1.000000   1.000000
  469       -1.746661     -0.494418   1.000000   1.000000
  470       -1.746470     -0.494132   1.000000   1.000000
  471       -1.746365     -0.494108   1.000000   1.000000
  472       -1.746053     -0.493784   1.000000   1.000000
  473       -1.725542     -0.417128   1.000000   1.000000
  474       -1.725158     -0.416854   1.000000   1.000000
  475       -1.725141     -0.416841   1.000000   1.000000
  476       -1.724846     -0.416533   1.000000   1.000000
  477       -1.720164     -0.391805   1.000000   1.000000
  478       -1.719667     -0.391480   1.000000   1.000000
  479       -1.719562     -0.391472   1.000000   1.000000
  480       -1.719479     -0.391117   1.000000   1.000000
  481       -1.719461     -0.376393   1.000000   1.000000
  482       -1.719430     -0.376052   1.000000   1.000000
  483       -1.719334     -0.376033   1.000000   1.000000
  484       -1.718986     -0.375658   1.000000   1.000000
  485       -1.717960     -0.285973   1.000000   1.000000
  486       -1.717743     -0.285261   1.000000   1.000000
  487       -1.717710     -0.285235   1.000000   1.000000
  488       -1.717223     -0.285181   1.000000   1.000000
  489       -1.691105     -0.285166   1.000000   1.000000
  490       -1.690823     -0.285133   1.000000   1.000000
  491       -1.690716     -0.285100   1.000000   1.000000
  492       -1.690515     -0.284364   1.000000   1.000000
  493       -1.689006     -0.028483   1.000000   1.000000
  494       -1.688840     -0.028016   1.000000   1.000000
  495       -1.688734     -0.028015   1.000000   1.000000
  496       -1.688375     -0.027543   1.000000   1.000000
  497       -1.449113      0.029426   1.000000   1.000000
  498       -1.448876      0.029518   1.000000   1.000000
  499       -1.438571      0.046129   1.000000   1.000000
  500       -1.438322      0.046293   1.000000   1.000000
  501       -1.398282      0.186251   1.000000   1.000000
  502       -1.398010      0.186570   1.000000   1.000000
  503       -1.382667      0.186598   1.000000   1.000000
  504       -1.382389      0.186886   1.000000   1.000000
  505       -1.326607      0.211913   1.000000   1.000000
  506       -1.326335      0.212216   1.000000   1.000000
  507       -1.326257      0.262143   1.000000   1.000000
  508       -1.326004      0.262315   1.000000   1.000000
  509       -1.321107      0.262480   1.000000   1.000000
  510       -1.320837      0.262594   1.000000   1.000000
  511       -1.320769      0.284839   1.000000   1.000000
  512       -1.320510      0.284967   1.000000   1.000000