   95   95   60    2
  0.1340737E+02  0.1119672E-08  0.1119672E-08  0.1055337E-08  0.5000000E-15
   1.0000000000000000E-004
  CAR 
 unknown system                          
    668      8    488

  0.1262379E-14  0.1262379E-14  0.1262379E-14  0.1250000E+00
    1      -51.720604    -46.975588   1.000000   1.000000
    2      -51.716018    -46.968124   1.000000   1.000000
    3      -51.711881    -46.967268   1.000000   1.000000
    4      -51.688046    -46.952423   1.000000   1.000000
    5      -51.686180    -46.949223   1.000000   1.000000
    6      -51.686000    -46.947398   1.000000   1.000000
    7      -51.682493    -46.946875   1.000000   1.000000
    8      -51.639988    -46.946065   1.000000   1.000000
    9      -51.639489    -46.944666   1.000000   1.000000
   10      -51.628774    -46.944439   1.000000   1.000000
   11      -51.628226    -46.944262   1.000000   1.000000
   12      -51.626931    -46.934356   1.000000   1.000000
   13      -51.624533    -46.930340   1.000000   1.000000
   14      -51.617862    -46.912686   1.000000   1.000000
   15      -51.572004    -46.909309   1.000000   1.000000
   16      -51.571227    -46.877628   1.000000   1.000000
   17      -51.567060    -46.829419   1.000000   1.000000
   18      -51.565551    -46.828131   1.000000   1.000000
   19      -51.554342    -46.815177   1.000000   1.000000
   20      -51.549833    -46.809941   1.000000   1.000000
   21      -51.548283    -46.808741   1.000000   1.000000
   22      -51.547608    -46.807413   1.000000   1.000000
   23      -51.478486    -46.734369   1.000000   1.000000
   24      -51.476367    -46.733049   1.000000   1.000000
   25      -50.275748    -46.520102   1.000000   1.000000
   26      -50.261438    -46.511331   1.000000   1.000000
   27      -50.259741    -46.508953   1.000000   1.000000
   28      -50.246015    -46.496395   1.000000   1.000000
   29      -50.242206    -46.493581   1.000000   1.000000
   30      -50.229862    -46.487637   1.000000   1.000000
   31      -50.195670    -46.486276   1.000000   1.000000
   32      -50.192490    -46.485840   1.000000   1.000000
   33      -50.182878    -46.485450   1.000000   1.000000
   34      -50.182325    -46.485150   1.000000   1.000000
   35      -50.181932    -46.484686   1.000000   1.000000
   36      -50.179419    -46.481490   1.000000   1.000000
   37      -50.178649    -46.480336   1.000000   1.000000
   38      -50.172926    -46.477994   1.000000   1.000000
   39      -50.170863    -46.472494   1.000000   1.000000
   40      -50.169283    -46.470121   1.000000   1.000000
   41      -50.167166    -46.464894   1.000000   1.000000
   42      -50.166524    -46.463727   1.000000   1.000000
   43      -50.165806    -46.462704   1.000000   1.000000
   44      -50.164279    -46.462454   1.000000   1.000000
   45      -50.160833    -46.460833   1.000000   1.000000
   46      -50.135241    -46.460453   1.000000   1.000000
   47      -50.134781    -46.459108   1.000000   1.000000
   48      -50.126270    -46.458474   1.000000   1.000000
   49      -50.125087    -46.457011   1.000000   1.000000
   50      -50.124560    -46.455876   1.000000   1.000000
   51      -50.120820    -46.454799   1.000000   1.000000
   52      -50.118450    -46.430337   1.000000   1.000000
   53      -50.117541    -46.428361   1.000000   1.000000
   54      -50.111396    -46.415604   1.000000   1.000000
   55      -50.110335    -46.412842   1.000000   1.000000
   56      -50.096298    -46.410855   1.000000   1.000000
   57      -50.095411    -46.410250   1.000000   1.000000
   58      -50.095153    -46.396378   1.000000   1.000000
   59      -50.092511    -46.396335   1.000000   1.000000
   60      -50.089833    -46.395920   1.000000   1.000000
   61      -50.084100    -46.393535   1.000000   1.000000
   62      -50.083392    -46.393177   1.000000   1.000000
   63      -50.074859    -46.389850   1.000000   1.000000
   64      -50.070738    -46.387574   1.000000   1.000000
   65      -50.067445    -46.381584   1.000000   1.000000
   66      -50.066257    -46.372312   1.000000   1.000000
   67      -50.065571    -46.370400   1.000000   1.000000
   68      -50.065437    -46.364054   1.000000   1.000000
   69      -50.024921    -46.318975   1.000000   1.000000
   70      -50.021265    -46.315791   1.000000   1.000000
   71      -50.013172    -46.307315   1.000000   1.000000
   72      -50.009969    -46.304346   1.000000   1.000000
   73      -40.615242    -40.609364   1.000000   1.000000
   74      -40.607867    -40.601918   1.000000   1.000000
   75      -40.596995    -40.591156   1.000000   1.000000
   76      -40.573586    -40.567231   1.000000   1.000000
   77      -40.570281    -40.564391   1.000000   1.000000
   78      -40.555706    -40.549270   1.000000   1.000000
   79      -40.551671    -40.545518   1.000000   1.000000
   80      -40.395670    -40.389938   1.000000   1.000000
   81      -40.310226    -40.310617   1.000000   1.000000
   82      -40.303905    -40.304028   1.000000   1.000000
   83      -40.297428    -40.297572   1.000000   1.000000
   84      -40.294134    -40.294118   1.000000   1.000000
   85      -40.294009    -40.293970   1.000000   1.000000
   86      -40.285809    -40.286163   1.000000   1.000000
   87      -40.282090    -40.281929   1.000000   1.000000
   88      -40.279770    -40.279600   1.000000   1.000000
   89      -40.151347    -40.153337   1.000000   1.000000
   90      -40.137551    -40.139692   1.000000   1.000000
   91      -40.106974    -40.106819   1.000000   1.000000
   92      -40.098978    -40.100996   1.000000   1.000000
   93      -40.096315    -40.098378   1.000000   1.000000
   94      -40.091678    -40.093722   1.000000   1.000000
   95      -40.089538    -40.089342   1.000000   1.000000
   96      -40.086519    -40.088851   1.000000   1.000000
   97      -40.082679    -40.084987   1.000000   1.000000
   98      -40.080500    -40.080026   1.000000   1.000000
   99      -40.073288    -40.072890   1.000000   1.000000
  100      -40.038730    -40.037691   1.000000   1.000000
  101      -40.038493    -40.037404   1.000000   1.000000
  102      -39.858014    -39.855908   1.000000   1.000000
  103      -39.841074    -39.838574   1.000000   1.000000
  104      -13.857557    -13.490119   1.000000   1.000000
  105      -13.762696    -13.409604   1.000000   1.000000
  106      -13.723166    -13.398899   1.000000   1.000000
  107      -13.708297    -13.383779   1.000000   1.000000
  108      -13.618371    -13.306038   1.000000   1.000000
  109      -13.581281    -13.291031   1.000000   1.000000
  110      -13.566737    -13.274337   1.000000   1.000000
  111      -13.389702    -13.139162   1.000000   1.000000
  112      -13.375791    -13.052320   1.000000   1.000000
  113      -13.278659    -13.045321   1.000000   1.000000
  114      -13.248436    -13.042571   1.000000   1.000000
  115      -13.239973    -13.032874   1.000000   1.000000
  116      -13.142644    -12.957574   1.000000   1.000000
  117      -13.099388    -12.934901   1.000000   1.000000
  118      -13.087766    -12.913419   1.000000   1.000000
  119      -12.891340    -12.707159   1.000000   1.000000
  120       -7.880865     -7.698618   1.000000   1.000000
  121       -7.634929     -7.476678   1.000000   1.000000
  122       -7.617981     -7.455520   1.000000   1.000000
  123       -7.603657     -7.440096   1.000000   1.000000
  124       -7.501521     -7.346798   1.000000   1.000000
  125       -7.496093     -7.334801   1.000000   1.000000
  126       -7.443524     -7.292123   1.000000   1.000000
  127       -7.413584     -7.277182   1.000000   1.000000
  128       -7.401710     -7.204079   1.000000   1.000000
  129       -7.340142     -7.196753   1.000000   1.000000
  130       -7.333855     -7.172092   1.000000   1.000000
  131       -7.326272     -7.165635   1.000000   1.000000
  132       -7.293487     -7.109191   1.000000   1.000000
  133       -7.253763     -7.078768   1.000000   1.000000
  134       -7.250098     -7.060076   1.000000   1.000000
  135       -7.216546     -7.056300   1.000000   1.000000
  136       -7.199395     -7.053435   1.000000   1.000000
  137       -7.189930     -7.040738   1.000000   1.000000
  138       -7.154705     -7.013718   1.000000   1.000000
  139       -7.150619     -6.968365   1.000000   1.000000
  140       -7.149215     -6.963919   1.000000   1.000000
  141       -7.132183     -6.945280   1.000000   1.000000
  142       -7.119994     -6.926935   1.000000   1.000000
  143       -6.965373     -6.769960   1.000000   1.000000
  144       -2.715386     -1.242929   1.000000   1.000000
  145       -2.607739     -1.030748   1.000000   1.000000
  146       -2.417996     -0.884096   1.000000   1.000000
  147       -2.309737     -0.613571   1.000000   1.000000
  148       -1.972819     -0.508864   1.000000   1.000000
  149       -1.968449     -0.498613   1.000000   1.000000
  150       -1.906814     -0.419067   1.000000   1.000000
  151       -1.888423     -0.380334   1.000000   1.000000
  152       -1.872397     -0.325447   1.000000   1.000000
  153       -1.783916     -0.316222   1.000000   1.000000
  154       -1.577313     -0.246888   1.000000   1.000000
  155       -1.570270     -0.244671   1.000000   1.000000
  156       -1.553735     -0.181628   1.000000   1.000000
  157       -1.541699     -0.165612   1.000000   1.000000
  158       -1.536854     -0.125836   1.000000   1.000000
  159       -1.494044     -0.082217   1.000000   1.000000
  160       -1.478546     -0.038003   1.000000   1.000000
  161       -1.458352     -0.003180   1.000000   1.000000
  162       -1.455389      0.080031   1.000000   1.000000
  163       -1.434040      0.122636   1.000000   1.000000
  164       -1.390239      0.135210   1.000000   1.000000
  165       -1.286959      0.178627   1.000000   1.000000
  166       -1.231599      0.258205   1.000000   1.000000
  167       -1.218457      0.347132   1.000000   1.000000
  168       -1.209157      0.374106   1.000000   1.000000
  169       -1.163252      0.405045   1.000000   1.000000
  170       -1.156879      0.431628   1.000000   1.000000
  171       -1.153359      0.443488   1.000000   1.000000
  172       -1.109572      0.461083   1.000000   1.000000
  173       -1.086869      0.557307   1.000000   1.000000
  174       -1.064426      0.604800   1.000000   1.000000
  175       -1.045916      0.608706   1.000000   1.000000
  176       -1.035018      0.641675   1.000000   1.000000
  177       -0.969541      0.654109   1.000000   1.000000
  178       -0.955771      0.662198   1.000000   1.000000
  179       -0.936168      0.742816   1.000000   1.000000
  180       -0.934339      0.773285   1.000000   1.000000
  181       -0.929848      0.806140   1.000000   1.000000
  182       -0.922903      0.830947   1.000000   1.000000
  183       -0.869063      0.841657   1.000000   1.000000
  184       -0.863093      0.856346   1.000000   1.000000
  185       -0.849361      0.877042   1.000000   1.000000
  186       -0.816454      0.882657   1.000000   1.000000
  187       -0.810112      0.892709   1.000000   1.000000
  188       -0.801485      0.914857   1.000000   1.000000
  189       -0.773413      0.966923   1.000000   1.000000
  190       -0.771812      0.979809   1.000000   1.000000
  191       -0.764690      0.999044   1.000000   1.000000
  192       -0.755812      1.030501   1.000000   1.000000
  193       -0.751291      1.077713   1.000000   1.000000
  194       -0.704705      1.089113   1.000000   1.000000
  195       -0.700755      1.166484   1.000000   1.000000
  196       -0.692367      1.178084   1.000000   1.000000
  197       -0.687876      1.188667   1.000000   1.000000
  198       -0.639706      1.211545   1.000000   1.000000
  199       -0.609753      1.244488   1.000000   1.000000
  200       -0.598886      1.263780   1.000000   1.000000
  201       -0.570597      1.296122   1.000000   1.000000
  202       -0.566015      1.333707   1.000000   1.000000
  203       -0.555947      1.380941   1.000000   1.000000
  204       -0.542703      1.423884   1.000000   1.000000
  205       -0.534608      1.460383   1.000000   1.000000
  206       -0.519004      1.463771   1.000000   1.000000
  207       -0.510503      1.490632   1.000000   1.000000
  208       -0.440850      1.567204   1.000000   1.000000
  209       -0.437296      1.578329   1.000000   1.000000
  210       -0.431768      1.673824   1.000000   1.000000
  211       -0.385112      1.680017   1.000000   1.000000
  212       -0.367495      1.707490   1.000000   1.000000
  213       -0.357513      1.718620   1.000000   1.000000
  214       -0.348397      1.743294   1.000000   1.000000
  215       -0.340271      1.834197   1.000000   1.000000
  216       -0.325405      1.851843   1.000000   1.000000
  217       -0.318304      1.908671   1.000000   1.000000
  218       -0.292392      1.925402   1.000000   1.000000
  219       -0.285427      1.967717   1.000000   1.000000
  220       -0.276219      2.013745   1.000000   1.000000
  221       -0.251031      2.102157   1.000000   1.000000
  222       -0.241738      2.122359   1.000000   1.000000
  223       -0.214606      2.194389   1.000000   1.000000
  224       -0.209608      2.242378   1.000000   1.000000
  225       -0.192766      2.269998   1.000000   1.000000
  226       -0.167357      2.307735   1.000000   1.000000
  227       -0.163845      2.319047   1.000000   1.000000
  228       -0.149193      2.360259   1.000000   1.000000
  229       -0.138273      2.401005   1.000000   1.000000
  230       -0.130947      2.409691   1.000000   1.000000
  231       -0.115226      2.505303   1.000000   1.000000
  232       -0.108339      2.574970   1.000000   1.000000
  233       -0.104884      2.578785   1.000000   1.000000
  234       -0.095197      2.596371   1.000000   1.000000
  235       -0.073724      2.648409   1.000000   1.000000
  236       -0.068086      2.669146   1.000000   1.000000
  237       -0.038816      2.694045   1.000000   1.000000
  238       -0.007116      2.709569   1.000000   1.000000
  239        0.116278      2.757621   1.000000   1.000000
  240        0.142370      2.771640   1.000000   1.000000
  241        0.155702      2.784837   1.000000   1.000000
  242        0.184909      2.812363   1.000000   1.000000
  243        0.215964      2.853653   1.000000   1.000000
  244        0.314674      2.867201   1.000000   1.000000
  245        0.341512      2.877394   1.000000   1.000000
  246        0.344436      2.882732   1.000000   1.000000
  247        0.371859      2.896255   1.000000   1.000000
  248        0.393259      2.905185   1.000000   1.000000
  249        0.414462      2.914253   1.000000   1.000000
  250        0.418293      2.930230   1.000000   1.000000
  251        0.429757      2.942499   1.000000   1.000000
  252        0.444055      2.977701   1.000000   1.000000
  253        0.461543      2.997276   1.000000   1.000000
  254        0.469505      3.025720   1.000000   1.000000
  255        0.497531      3.084838   1.000000   1.000000
  256        0.605409      3.095789   1.000000   1.000000
  257        0.672875      3.163426   1.000000   1.000000
  258        0.691036      3.170378   1.000000   1.000000
  259        0.701375      3.176267   1.000000   1.000000
  260        0.707787      3.214867   1.000000   1.000000
  261        0.716888      3.278624   1.000000   1.000000
  262        0.754069      3.295580   1.000000   1.000000
  263        0.797941      3.300718   1.000000   1.000000
  264        0.821926      3.468145   1.000000   1.000000
  265        0.865170      3.489274   1.000000   1.000000
  266        0.872927      3.514284   1.000000   1.000000
  267        0.891653      3.550983   1.000000   1.000000
  268        0.903078      3.562356   1.000000   1.000000
  269        0.919635      3.578902   1.000000   1.000000
  270        0.928964      3.581436   1.000000   1.000000
  271        0.942254      3.608532   1.000000   1.000000
  272        0.964083      3.619515   1.000000   1.000000
  273        0.971104      3.629147   1.000000   1.000000
  274        1.049190      3.642235   1.000000   1.000000
  275        1.067050      3.653752   1.000000   1.000000
  276        1.081932      3.669503   1.000000   1.000000
  277        1.091807      3.679564   1.000000   1.000000
  278        1.125654      3.686344   1.000000   1.000000
  279        1.166502      3.716747   1.000000   1.000000
  280        1.209476      3.726744   1.000000   1.000000
  281        1.264572      3.738213   1.000000   1.000000
  282        1.308720      3.742974   1.000000   1.000000
  283        1.329131      3.763986   1.000000   1.000000
  284        1.338495      3.788418   1.000000   1.000000
  285        1.351209      3.792755   1.000000   1.000000
  286        1.369660      3.867020   1.000000   1.000000
  287        1.389071      3.883654   1.000000   1.000000
  288        1.393119      6.128060   1.000000   0.000000
  289        1.447708      6.236376   1.000000   0.000000
  290        1.449891      6.456247   1.000000   0.000000
  291        1.471460      6.516790   1.000000   0.000000
  292        1.486718      6.540028   1.000000   0.000000
  293        1.490444      6.567391   1.000000   0.000000
  294        1.517793      6.570914   1.000000   0.000000
  295        1.533420      6.587703   1.000000   0.000000
  296        1.539263      6.606398   1.000000   0.000000
  297        1.572795      6.664575   1.000000   0.000000
  298        1.590388      6.744723   1.000000   0.000000
  299        1.600944      6.755076   1.000000   0.000000
  300        1.614042      6.782871   1.000000   0.000000
  301        1.616441      6.850133   1.000000   0.000000
  302        1.623936      6.864471   1.000000   0.000000
  303        1.639687      6.870279   1.000000   0.000000
  304        1.659047      6.896220   1.000000   0.000000
  305        1.696382      6.959802   1.000000   0.000000
  306        1.723471      6.963235   1.000000   0.000000
  307        1.736702      6.977235   1.000000   0.000000
  308        1.766182      6.994694   1.000000   0.000000
  309        1.812673      7.017073   1.000000   0.000000
  310        1.832757      7.039948   1.000000   0.000000
  311        1.855248      7.063221   1.000000   0.000000
  312        1.935827      7.080738   1.000000   0.000000
  313        1.960350      7.106867   1.000000   0.000000
  314        1.978734      7.118626   1.000000   0.000000
  315        2.002637      7.127673   1.000000   0.000000
  316        2.143483      7.151157   1.000000   0.000000
  317        2.155027      7.164606   1.000000   0.000000
  318        2.170414      7.177725   1.000000   0.000000
  319        2.327628      7.193551   1.000000   0.000000
  320        2.339212      7.201354   1.000000   0.000000
  321        2.361393      7.214845   1.000000   0.000000
  322        2.383223      7.223670   1.000000   0.000000
  323        2.406041      7.234375   1.000000   0.000000
  324        2.411557      7.240683   1.000000   0.000000
  325        2.414111      7.251067   1.000000   0.000000
  326        2.490781      7.268687   1.000000   0.000000
  327        2.510984      7.279410   1.000000   0.000000
  328        2.533997      7.307196   1.000000   0.000000
  329        2.555284      7.308103   1.000000   0.000000
  330        2.560849      7.314900   1.000000   0.000000
  331        2.588307      7.338230   1.000000   0.000000
  332        2.626347      7.353531   1.000000   0.000000
  333        2.686982      7.396309   1.000000   0.000000
  334        2.710558      7.442209   1.000000   0.000000
  335        2.739318      7.502622   1.000000   0.000000
  336        2.845396      7.526334   1.000000   0.000000
  337        2.866390      7.542784   1.000000   0.000000
  338        2.881714      7.547507   1.000000   0.000000
  339        2.981458      7.555675   1.000000   0.000000
  340        3.012765      7.568409   1.000000   0.000000
  341        3.029755      7.583126   1.000000   0.000000
  342        3.099778      7.596858   1.000000   0.000000
  343        3.123552      7.631910   1.000000   0.000000
  344        3.153945      7.654731   1.000000   0.000000
  345        3.184378      7.661540   1.000000   0.000000
  346        3.229596      7.686259   1.000000   0.000000
  347        3.253645      7.692075   1.000000   0.000000
  348        3.271066      7.728269   1.000000   0.000000
  349        3.292360      7.746657   1.000000   0.000000
  350        3.373745      7.761668   1.000000   0.000000
  351        3.378999      7.763259   1.000000   0.000000
  352        3.404360      7.783346   1.000000   0.000000
  353        3.420423      7.789362   1.000000   0.000000
  354        3.434366      7.796899   1.000000   0.000000
  355        3.458660      7.807661   1.000000   0.000000
  356        3.485678      7.833322   1.000000   0.000000
  357        3.518446      7.849411   1.000000   0.000000
  358        3.576319      7.860207   1.000000   0.000000
  359        3.583592      7.898203   1.000000   0.000000
  360        3.603120      7.961939   1.000000   0.000000
  361        3.618380      8.024527   1.000000   0.000000
  362        3.649545      8.047316   1.000000   0.000000
  363        3.678127      8.093104   1.000000   0.000000
  364        3.689297      8.117041   1.000000   0.000000
  365        3.746333      8.152063   1.000000   0.000000
  366        3.785820      8.175178   1.000000   0.000000
  367        3.854441      8.182453   1.000000   0.000000
  368        3.863600      8.220106   1.000000   0.000000
  369        3.878782      8.233786   1.000000   0.000000
  370        3.967059      8.239653   1.000000   0.000000
  371        3.984666      8.260833   1.000000   0.000000
  372        4.023360      8.327218   1.000000   0.000000
  373        4.037889      8.346115   1.000000   0.000000
  374        4.059120      8.362497   1.000000   0.000000
  375        4.094824      8.380383   1.000000   0.000000
  376        4.131628      8.388097   1.000000   0.000000
  377        4.140980      8.428615   1.000000   0.000000
  378        4.173668      8.522380   1.000000   0.000000
  379        4.178940      8.545187   1.000000   0.000000
  380        4.372795      8.549529   0.998602   0.000000
  381        4.418166      8.619641   0.956035   0.000000
  382        4.568656      8.643271   0.005373   0.000000
  383        4.588860      8.674994   0.000898   0.000000
  384        7.115625      8.778263   0.000000   0.000000
  385        7.656676      8.837171   0.000000   0.000000
  386        8.201274      8.900863   0.000000   0.000000
  387        8.402117      8.968478   0.000000   0.000000
  388        8.536957      9.078988   0.000000   0.000000
  389        8.616744      9.137316   0.000000   0.000000
  390        8.672634      9.468847   0.000000   0.000000
  391        8.713086      9.597907   0.000000   0.000000
  392        8.729346      9.617183   0.000000   0.000000
  393        8.758543      9.733376   0.000000   0.000000
  394        9.131672      9.768277   0.000000   0.000000
  395        9.189408      9.857795   0.000000   0.000000
  396        9.233038      9.905720   0.000000   0.000000
  397        9.259594     10.030494   0.000000   0.000000
  398        9.279292     10.064184   0.000000   0.000000
  399        9.311815     10.086026   0.000000   0.000000
  400        9.344297     10.164355   0.000000   0.000000
  401        9.408768     10.181353   0.000000   0.000000
  402        9.420015     10.197638   0.000000   0.000000
  403        9.551858     10.213299   0.000000   0.000000
  404        9.569319     10.225934   0.000000   0.000000
  405        9.623068     10.381505   0.000000   0.000000
  406        9.654388     10.449227   0.000000   0.000000
  407        9.784945     10.522328   0.000000   0.000000
  408        9.814525     10.546142   0.000000   0.000000
  409        9.993486     10.617451   0.000000   0.000000
  410       10.028694     10.647255   0.000000   0.000000
  411       10.079238     10.712402   0.000000   0.000000
  412       10.123801     10.807433   0.000000   0.000000
  413       10.206073     10.825304   0.000000   0.000000
  414       10.222549     10.837017   0.000000   0.000000
  415       10.275779     10.886957   0.000000   0.000000
  416       10.306272     10.911250   0.000000   0.000000
  417       10.335615     10.985223   0.000000   0.000000
  418       10.467501     11.027676   0.000000   0.000000
  419       10.515083     11.051454   0.000000   0.000000
  420       10.545934     11.094520   0.000000   0.000000
  421       10.591896     11.123189   0.000000   0.000000
  422       10.598908     11.146295   0.000000   0.000000
  423       10.621683     11.164458   0.000000   0.000000
  424       10.646758     11.191952   0.000000   0.000000
  425       10.700950     11.246037   0.000000   0.000000
  426       10.703067     11.306681   0.000000   0.000000
  427       10.745492     11.341791   0.000000   0.000000
  428       10.750109     11.379230   0.000000   0.000000
  429       10.758753     11.438099   0.000000   0.000000
  430       10.896209     11.528531   0.000000   0.000000
  431       10.913219     11.539226   0.000000   0.000000
  432       10.942760     11.570723   0.000000   0.000000
  433       10.983564     11.603693   0.000000   0.000000
  434       10.996906     11.636644   0.000000   0.000000
  435       11.034798     11.693359   0.000000   0.000000
  436       11.174805     11.711510   0.000000   0.000000
  437       11.192349     11.732037   0.000000   0.000000
  438       11.212324     11.753115   0.000000   0.000000
  439       11.241357     11.786625   0.000000   0.000000
  440       11.324843     11.833811   0.000000   0.000000
  441       11.341386     11.884598   0.000000   0.000000
  442       11.361000     11.899368   0.000000   0.000000
  443       11.398345     11.924831   0.000000   0.000000
  444       11.482843     11.950416   0.000000   0.000000
  445       11.500922     11.956653   0.000000   0.000000
  446       11.532423     11.994599   0.000000   0.000000
  447       11.551811     12.063557   0.000000   0.000000
  448       11.595279     12.101594   0.000000   0.000000
  449       11.612518     12.112823   0.000000   0.000000
  450       11.630880     12.140607   0.000000   0.000000
  451       11.655697     12.151665   0.000000   0.000000
  452       11.662416     12.164926   0.000000   0.000000
  453       11.688310     12.194906   0.000000   0.000000
  454       11.711111     12.222097   0.000000   0.000000
  455       11.740493     12.223806   0.000000   0.000000
  456       11.771281     12.292027   0.000000   0.000000
  457       11.808354     12.332298   0.000000   0.000000
  458       11.816424     12.350244   0.000000   0.000000
  459       11.923370     12.365792   0.000000   0.000000
  460       11.963733     12.387242   0.000000   0.000000
  461       11.986454     12.431665   0.000000   0.000000
  462       12.015027     12.461311   0.000000   0.000000
  463       12.053144     12.502529   0.000000   0.000000
  464       12.065800     12.519497   0.000000   0.000000
  465       12.117884     12.668828   0.000000   0.000000
  466       12.235048     12.745905   0.000000   0.000000
  467       12.243104     12.794504   0.000000   0.000000
  468       12.262385     12.821468   0.000000   0.000000
  469       12.292085     12.902340   0.000000   0.000000
  470       12.317552     12.927392   0.000000   0.000000
  471       12.329971     12.945049   0.000000   0.000000
  472       12.421128     12.961157   0.000000   0.000000
  473       12.444884     12.981245   0.000000   0.000000
  474       12.484086     13.035384   0.000000   0.000000
  475       12.511273     13.086946   0.000000   0.000000
  476       12.580366     13.119367   0.000000   0.000000
  477       12.640916     13.174790   0.000000   0.000000
  478       12.685225     13.204317   0.000000   0.000000
  479       12.758025     13.237974   0.000000   0.000000
  480       12.800257     13.256578   0.000000   0.000000
  481       12.865013     13.362716   0.000000   0.000000
  482       12.908207     13.412356   0.000000   0.000000
  483       12.966197     13.531057   0.000000   0.000000
  484       13.257637     13.761653   0.000000   0.000000
  485       13.324570     13.804203   0.000000   0.000000
  486       13.374501     13.847500   0.000000   0.000000
  487       13.464119     13.865898   0.000000   0.000000
  488       13.615064     14.068036   0.000000   0.000000

  0.5000000E+00  0.1339234E-14  0.1262012E-14  0.1250000E+00
    1      -51.720603    -46.975587   1.000000   1.000000
    2      -51.716017    -46.968124   1.000000   1.000000
    3      -51.711880    -46.967266   1.000000   1.000000
    4      -51.688045    -46.952424   1.000000   1.000000
    5      -51.686178    -46.949232   1.000000   1.000000
    6      -51.686000    -46.947392   1.000000   1.000000
    7      -51.682493    -46.946875   1.000000   1.000000
    8      -51.639992    -46.946067   1.000000   1.000000
    9      -51.639490    -46.944670   1.000000   1.000000
   10      -51.628776    -46.944438   1.000000   1.000000
   11      -51.628234    -46.944264   1.000000   1.000000
   12      -51.626930    -46.934356   1.000000   1.000000
   13      -51.624536    -46.930339   1.000000   1.000000
   14      -51.617862    -46.912688   1.000000   1.000000
   15      -51.572008    -46.909311   1.000000   1.000000
   16      -51.571230    -46.877628   1.000000   1.000000
   17      -51.567064    -46.829421   1.000000   1.000000
   18      -51.565552    -46.828132   1.000000   1.000000
   19      -51.554345    -46.815179   1.000000   1.000000
   20      -51.549836    -46.809943   1.000000   1.000000
   21      -51.548286    -46.808742   1.000000   1.000000
   22      -51.547610    -46.807415   1.000000   1.000000
   23      -51.478489    -46.734371   1.000000   1.000000