 224 224   0   0
  0.1357572E+02  0.1537960E-08  0.1537962E-08  0.1395899E-08  0.5000000E-15
  1.000000000000000E-004
  CAR 
 unknown system                          
     17.69894450    -54.42111858  301      5.25823362      1.00000000
    -54.421  0.0000E+00  0.0000E+00  0.0000E+00  0.0000E+00
    -54.181  0.0000E+00  0.0000E+00  0.0000E+00  0.0000E+00
    -53.940  0.0000E+00  0.0000E+00  0.0000E+00  0.0000E+00
    -53.700  0.0000E+00  0.0000E+00  0.0000E+00  0.0000E+00
    -53.460  0.0000E+00  0.0000E+00  0.0000E+00  0.0000E+00
    -53.219  0.0000E+00  0.0000E+00  0.0000E+00  0.0000E+00
    -52.979  0.0000E+00  0.0000E+00  0.0000E+00  0.0000E+00
    -52.738  0.0000E+00  0.0000E+00  0.0000E+00  0.0000E+00
    -52.498  0.0000E+00  0.0000E+00  0.0000E+00  0.0000E+00
    -52.258  0.0000E+00  0.0000E+00  0.0000E+00  0.0000E+00
    -52.017  0.0000E+00  0.0000E+00  0.0000E+00  0.0000E+00
    -51.777  0.0000E+00  0.0000E+00  0.0000E+00  0.0000E+00
    -51.536  0.0000E+00  0.0000E+00  0.0000E+00  0.0000E+00
    -51.296  0.1450E-02  0.0000E+00  0.3485E-03  0.0000E+00
    -51.056  0.2640E+03  0.0000E+00  0.6347E+02  0.0000E+00
    -50.815  0.2194E+01  0.0000E+00  0.6400E+02  0.0000E+00
    -50.575  0.0000E+00  0.0000E+00  0.6400E+02  0.0000E+00
    -50.334  0.0000E+00  0.0000E+00  0.6400E+02  0.0000E+00
    -50.094  0.0000E+00  0.0000E+00  0.6400E+02  0.0000E+00
    -49.854  0.1124E-05  0.0000E+00  0.6400E+02  0.0000E+00
    -49.613  0.4371E+03  0.0000E+00  0.1691E+03  0.0000E+00
    -49.373  0.9536E+02  0.0000E+00  0.1920E+03  0.0000E+00
    -49.132  0.0000E+00  0.0000E+00  0.1920E+03  0.0000E+00
    -48.892  0.0000E+00  0.0000E+00  0.1920E+03  0.0000E+00
    -48.652  0.0000E+00  0.0000E+00  0.1920E+03  0.0000E+00
    -48.411  0.0000E+00  0.0000E+00  0.1920E+03  0.0000E+00
    -48.171  0.0000E+00  0.0000E+00  0.1920E+03  0.0000E+00
    -47.930  0.0000E+00  0.0000E+00  0.1920E+03  0.0000E+00
    -47.690  0.0000E+00  0.0000E+00  0.1920E+03  0.0000E+00
    -47.450  0.0000E+00  0.0000E+00  0.1920E+03  0.0000E+00
    -47.209  0.0000E+00  0.0000E+00  0.1920E+03  0.0000E+00
    -46.969  0.0000E+00  0.0000E+00  0.1920E+03  0.0000E+00
    -46.728  0.0000E+00  0.0000E+00  0.1920E+03  0.0000E+00
    -46.488  0.0000E+00  0.7028E+00  0.1920E+03  0.1690E+00
    -46.248  0.0000E+00  0.2655E+03  0.1920E+03  0.6400E+02
    -46.007  0.0000E+00  0.6378E+01  0.1920E+03  0.6553E+02
    -45.767  0.0000E+00  0.5261E+03  0.1920E+03  0.1920E+03
    -45.526  0.0000E+00  0.4537E-03  0.1920E+03  0.1920E+03
    -45.286  0.0000E+00  0.0000E+00  0.1920E+03  0.1920E+03
    -45.046  0.0000E+00  0.0000E+00  0.1920E+03  0.1920E+03
    -44.805  0.0000E+00  0.0000E+00  0.1920E+03  0.1920E+03
    -44.565  0.0000E+00  0.0000E+00  0.1920E+03  0.1920E+03
    -44.324  0.0000E+00  0.0000E+00  0.1920E+03  0.1920E+03
    -44.084  0.0000E+00  0.0000E+00  0.1920E+03  0.1920E+03
    -43.844  0.0000E+00  0.0000E+00  0.1920E+03  0.1920E+03
    -43.603  0.0000E+00  0.0000E+00  0.1920E+03  0.1920E+03
    -43.363  0.0000E+00  0.0000E+00  0.1920E+03  0.1920E+03
    -43.122  0.0000E+00  0.0000E+00  0.1920E+03  0.1920E+03
    -42.882  0.0000E+00  0.0000E+00  0.1920E+03  0.1920E+03
    -42.642  0.0000E+00  0.0000E+00  0.1920E+03  0.1920E+03
    -42.401  0.0000E+00  0.0000E+00  0.1920E+03  0.1920E+03
    -42.161  0.0000E+00  0.0000E+00  0.1920E+03  0.1920E+03
    -41.920  0.0000E+00  0.0000E+00  0.1920E+03  0.1920E+03
    -41.680  0.0000E+00  0.0000E+00  0.1920E+03  0.1920E+03
    -41.440  0.0000E+00  0.0000E+00  0.1920E+03  0.1920E+03
    -41.199  0.0000E+00  0.0000E+00  0.1920E+03  0.1920E+03
    -40.959  0.0000E+00  0.0000E+00  0.1920E+03  0.1920E+03
    -40.718  0.0000E+00  0.0000E+00  0.1920E+03  0.1920E+03
    -40.478  0.0000E+00  0.0000E+00  0.1920E+03  0.1920E+03
    -40.238  0.0000E+00  0.0000E+00  0.1920E+03  0.1920E+03
    -39.997  0.0000E+00  0.0000E+00  0.1920E+03  0.1920E+03
    -39.757  0.2112E-01  0.1926E-01  0.1920E+03  0.1920E+03
    -39.516  0.2652E+03  0.2651E+03  0.2558E+03  0.2557E+03
    -39.276  0.9996E+00  0.1061E+01  0.2560E+03  0.2560E+03
    -39.036  0.0000E+00  0.0000E+00  0.2560E+03  0.2560E+03
    -38.795  0.0000E+00  0.0000E+00  0.2560E+03  0.2560E+03
    -38.555  0.0000E+00  0.0000E+00  0.2560E+03  0.2560E+03
    -38.314  0.0000E+00  0.0000E+00  0.2560E+03  0.2560E+03
    -38.074  0.0000E+00  0.0000E+00  0.2560E+03  0.2560E+03
    -37.834  0.0000E+00  0.0000E+00  0.2560E+03  0.2560E+03
    -37.593  0.0000E+00  0.0000E+00  0.2560E+03  0.2560E+03
    -37.353  0.0000E+00  0.0000E+00  0.2560E+03  0.2560E+03
    -37.112  0.0000E+00  0.0000E+00  0.2560E+03  0.2560E+03
    -36.872  0.0000E+00  0.0000E+00  0.2560E+03  0.2560E+03
    -36.632  0.0000E+00  0.0000E+00  0.2560E+03  0.2560E+03
    -36.391  0.0000E+00  0.0000E+00  0.2560E+03  0.2560E+03
    -36.151  0.0000E+00  0.0000E+00  0.2560E+03  0.2560E+03
    -35.910  0.0000E+00  0.0000E+00  0.2560E+03  0.2560E+03
    -35.670  0.0000E+00  0.0000E+00  0.2560E+03  0.2560E+03
    -35.430  0.0000E+00  0.0000E+00  0.2560E+03  0.2560E+03
    -35.189  0.0000E+00  0.0000E+00  0.2560E+03  0.2560E+03
    -34.949  0.0000E+00  0.0000E+00  0.2560E+03  0.2560E+03
    -34.708  0.0000E+00  0.0000E+00  0.2560E+03  0.2560E+03
    -34.468  0.0000E+00  0.0000E+00  0.2560E+03  0.2560E+03
    -34.228  0.0000E+00  0.0000E+00  0.2560E+03  0.2560E+03
    -33.987  0.0000E+00  0.0000E+00  0.2560E+03  0.2560E+03
    -33.747  0.0000E+00  0.0000E+00  0.2560E+03  0.2560E+03
    -33.506  0.0000E+00  0.0000E+00  0.2560E+03  0.2560E+03
    -33.266  0.0000E+00  0.0000E+00  0.2560E+03  0.2560E+03
    -33.025  0.0000E+00  0.0000E+00  0.2560E+03  0.2560E+03
    -32.785  0.0000E+00  0.0000E+00  0.2560E+03  0.2560E+03
    -32.545  0.0000E+00  0.0000E+00  0.2560E+03  0.2560E+03
    -32.304  0.0000E+00  0.0000E+00  0.2560E+03  0.2560E+03
    -32.064  0.0000E+00  0.0000E+00  0.2560E+03  0.2560E+03
    -31.823  0.0000E+00  0.0000E+00  0.2560E+03  0.2560E+03
    -31.583  0.0000E+00  0.0000E+00  0.2560E+03  0.2560E+03
    -31.343  0.0000E+00  0.0000E+00  0.2560E+03  0.2560E+03
    -31.102  0.0000E+00  0.0000E+00  0.2560E+03  0.2560E+03
    -30.862  0.0000E+00  0.0000E+00  0.2560E+03  0.2560E+03
    -30.621  0.0000E+00  0.0000E+00  0.2560E+03  0.2560E+03
    -30.381  0.0000E+00  0.0000E+00  0.2560E+03  0.2560E+03
    -30.141  0.0000E+00  0.0000E+00  0.2560E+03  0.2560E+03
    -29.900  0.0000E+00  0.0000E+00  0.2560E+03  0.2560E+03
    -29.660  0.0000E+00  0.0000E+00  0.2560E+03  0.2560E+03
    -29.419  0.0000E+00  0.0000E+00  0.2560E+03  0.2560E+03
    -29.179  0.0000E+00  0.0000E+00  0.2560E+03  0.2560E+03
    -28.939  0.0000E+00  0.0000E+00  0.2560E+03  0.2560E+03
    -28.698  0.0000E+00  0.0000E+00  0.2560E+03  0.2560E+03
    -28.458  0.0000E+00  0.0000E+00  0.2560E+03  0.2560E+03
    -28.217  0.0000E+00  0.0000E+00  0.2560E+03  0.2560E+03
    -27.977  0.0000E+00  0.0000E+00  0.2560E+03  0.2560E+03
    -27.737  0.0000E+00  0.0000E+00  0.2560E+03  0.2560E+03
    -27.496  0.0000E+00  0.0000E+00  0.2560E+03  0.2560E+03
    -27.256  0.0000E+00  0.0000E+00  0.2560E+03  0.2560E+03
    -27.015  0.0000E+00  0.0000E+00  0.2560E+03  0.2560E+03
    -26.775  0.0000E+00  0.0000E+00  0.2560E+03  0.2560E+03
    -26.535  0.0000E+00  0.0000E+00  0.2560E+03  0.2560E+03
    -26.294  0.0000E+00  0.0000E+00  0.2560E+03  0.2560E+03
    -26.054  0.0000E+00  0.0000E+00  0.2560E+03  0.2560E+03
    -25.813  0.0000E+00  0.0000E+00  0.2560E+03  0.2560E+03
    -25.573  0.0000E+00  0.0000E+00  0.2560E+03  0.2560E+03
    -25.333  0.0000E+00  0.0000E+00  0.2560E+03  0.2560E+03
    -25.092  0.0000E+00  0.0000E+00  0.2560E+03  0.2560E+03
    -24.852  0.0000E+00  0.0000E+00  0.2560E+03  0.2560E+03
    -24.611  0.0000E+00  0.0000E+00  0.2560E+03  0.2560E+03
    -24.371  0.0000E+00  0.0000E+00  0.2560E+03  0.2560E+03
    -24.131  0.0000E+00  0.0000E+00  0.2560E+03  0.2560E+03
    -23.890  0.0000E+00  0.0000E+00  0.2560E+03  0.2560E+03
    -23.650  0.0000E+00  0.0000E+00  0.2560E+03  0.2560E+03
    -23.409  0.0000E+00  0.0000E+00  0.2560E+03  0.2560E+03
    -23.169  0.0000E+00  0.0000E+00  0.2560E+03  0.2560E+03
    -22.929  0.0000E+00  0.0000E+00  0.2560E+03  0.2560E+03
    -22.688  0.0000E+00  0.0000E+00  0.2560E+03  0.2560E+03
    -22.448  0.0000E+00  0.0000E+00  0.2560E+03  0.2560E+03
    -22.207  0.0000E+00  0.0000E+00  0.2560E+03  0.2560E+03
    -21.967  0.0000E+00  0.0000E+00  0.2560E+03  0.2560E+03
    -21.727  0.0000E+00  0.0000E+00  0.2560E+03  0.2560E+03
    -21.486  0.0000E+00  0.0000E+00  0.2560E+03  0.2560E+03
    -21.246  0.0000E+00  0.0000E+00  0.2560E+03  0.2560E+03
    -21.005  0.0000E+00  0.0000E+00  0.2560E+03  0.2560E+03
    -20.765  0.0000E+00  0.0000E+00  0.2560E+03  0.2560E+03
    -20.525  0.0000E+00  0.0000E+00  0.2560E+03  0.2560E+03
    -20.284  0.0000E+00  0.0000E+00  0.2560E+03  0.2560E+03
    -20.044  0.0000E+00  0.0000E+00  0.2560E+03  0.2560E+03
    -19.803  0.0000E+00  0.0000E+00  0.2560E+03  0.2560E+03
    -19.563  0.0000E+00  0.0000E+00  0.2560E+03  0.2560E+03
    -19.323  0.0000E+00  0.0000E+00  0.2560E+03  0.2560E+03
    -19.082  0.0000E+00  0.0000E+00  0.2560E+03  0.2560E+03
    -18.842  0.0000E+00  0.0000E+00  0.2560E+03  0.2560E+03
    -18.601  0.0000E+00  0.0000E+00  0.2560E+03  0.2560E+03
    -18.361  0.0000E+00  0.0000E+00  0.2560E+03  0.2560E+03
    -18.121  0.0000E+00  0.0000E+00  0.2560E+03  0.2560E+03
    -17.880  0.0000E+00  0.0000E+00  0.2560E+03  0.2560E+03
    -17.640  0.0000E+00  0.0000E+00  0.2560E+03  0.2560E+03
    -17.399  0.0000E+00  0.0000E+00  0.2560E+03  0.2560E+03
    -17.159  0.0000E+00  0.0000E+00  0.2560E+03  0.2560E+03
    -16.919  0.0000E+00  0.0000E+00  0.2560E+03  0.2560E+03
    -16.678  0.0000E+00  0.0000E+00  0.2560E+03  0.2560E+03
    -16.438  0.0000E+00  0.0000E+00  0.2560E+03  0.2560E+03
    -16.197  0.0000E+00  0.0000E+00  0.2560E+03  0.2560E+03
    -15.957  0.0000E+00  0.0000E+00  0.2560E+03  0.2560E+03
    -15.717  0.0000E+00  0.0000E+00  0.2560E+03  0.2560E+03
    -15.476  0.0000E+00  0.0000E+00  0.2560E+03  0.2560E+03
    -15.236  0.0000E+00  0.0000E+00  0.2560E+03  0.2560E+03
    -14.995  0.0000E+00  0.0000E+00  0.2560E+03  0.2560E+03
    -14.755  0.0000E+00  0.0000E+00  0.2560E+03  0.2560E+03
    -14.515  0.0000E+00  0.0000E+00  0.2560E+03  0.2560E+03
    -14.274  0.0000E+00  0.0000E+00  0.2560E+03  0.2560E+03
    -14.034  0.0000E+00  0.0000E+00  0.2560E+03  0.2560E+03
    -13.793  0.0000E+00  0.0000E+00  0.2560E+03  0.2560E+03
    -13.553  0.0000E+00  0.0000E+00  0.2560E+03  0.2560E+03
    -13.313  0.0000E+00  0.0000E+00  0.2560E+03  0.2560E+03
    -13.072  0.0000E+00  0.0000E+00  0.2560E+03  0.2560E+03
    -12.832  0.8592E-01  0.0000E+00  0.2560E+03  0.2560E+03
    -12.591  0.1321E+03  0.1731E-02  0.2878E+03  0.2560E+03
    -12.351  0.9566E+00  0.1242E+03  0.2880E+03  0.2859E+03
    -12.111  0.0000E+00  0.8939E+01  0.2880E+03  0.2880E+03
    -11.870  0.0000E+00  0.0000E+00  0.2880E+03  0.2880E+03
    -11.630  0.0000E+00  0.0000E+00  0.2880E+03  0.2880E+03
    -11.389  0.0000E+00  0.0000E+00  0.2880E+03  0.2880E+03
    -11.149  0.0000E+00  0.0000E+00  0.2880E+03  0.2880E+03
    -10.909  0.0000E+00  0.0000E+00  0.2880E+03  0.2880E+03
    -10.668  0.0000E+00  0.0000E+00  0.2880E+03  0.2880E+03
    -10.428  0.0000E+00  0.0000E+00  0.2880E+03  0.2880E+03
    -10.187  0.0000E+00  0.0000E+00  0.2880E+03  0.2880E+03
     -9.947  0.0000E+00  0.0000E+00  0.2880E+03  0.2880E+03
     -9.707  0.0000E+00  0.0000E+00  0.2880E+03  0.2880E+03
     -9.466  0.0000E+00  0.0000E+00  0.2880E+03  0.2880E+03
     -9.226  0.0000E+00  0.0000E+00  0.2880E+03  0.2880E+03
     -8.985  0.0000E+00  0.0000E+00  0.2880E+03  0.2880E+03
     -8.745  0.0000E+00  0.0000E+00  0.2880E+03  0.2880E+03
     -8.505  0.0000E+00  0.0000E+00  0.2880E+03  0.2880E+03
     -8.264  0.0000E+00  0.0000E+00  0.2880E+03  0.2880E+03
     -8.024  0.6407E-10  0.0000E+00  0.2880E+03  0.2880E+03
     -7.783  0.9678E+00  0.4940E-07  0.2882E+03  0.2880E+03
     -7.543  0.1883E+02  0.2942E+01  0.2928E+03  0.2887E+03
     -7.303  0.2826E+02  0.2246E+02  0.2996E+03  0.2941E+03
     -7.062  0.5411E+02  0.3112E+02  0.3126E+03  0.3016E+03
     -6.822  0.1469E+03  0.4893E+02  0.3479E+03  0.3134E+03
     -6.581  0.1716E+02  0.1390E+03  0.3520E+03  0.3468E+03
     -6.341  0.0000E+00  0.2178E+02  0.3520E+03  0.3520E+03
     -6.101  0.0000E+00  0.9739E-05  0.3520E+03  0.3520E+03
     -5.860  0.0000E+00  0.0000E+00  0.3520E+03  0.3520E+03
     -5.620  0.0000E+00  0.0000E+00  0.3520E+03  0.3520E+03
     -5.379  0.0000E+00  0.0000E+00  0.3520E+03  0.3520E+03
     -5.139  0.0000E+00  0.0000E+00  0.3520E+03  0.3520E+03
     -4.899  0.0000E+00  0.0000E+00  0.3520E+03  0.3520E+03
     -4.658  0.0000E+00  0.0000E+00  0.3520E+03  0.3520E+03
     -4.418  0.0000E+00  0.0000E+00  0.3520E+03  0.3520E+03
     -4.177  0.0000E+00  0.0000E+00  0.3520E+03  0.3520E+03
     -3.937  0.0000E+00  0.0000E+00  0.3520E+03  0.3520E+03
     -3.697  0.0000E+00  0.0000E+00  0.3520E+03  0.3520E+03
     -3.456  0.0000E+00  0.0000E+00  0.3520E+03  0.3520E+03
     -3.216  0.0000E+00  0.0000E+00  0.3520E+03  0.3520E+03
     -2.975  0.0000E+00  0.0000E+00  0.3520E+03  0.3520E+03
     -2.735  0.0000E+00  0.0000E+00  0.3520E+03  0.3520E+03
     -2.495  0.0000E+00  0.0000E+00  0.3520E+03  0.3520E+03
     -2.254  0.0000E+00  0.0000E+00  0.3520E+03  0.3520E+03
     -2.014  0.0000E+00  0.0000E+00  0.3520E+03  0.3520E+03
     -1.773  0.6547E-12  0.0000E+00  0.3520E+03  0.3520E+03
     -1.533  0.1325E+01  0.0000E+00  0.3523E+03  0.3520E+03
     -1.293  0.1006E+03  0.0000E+00  0.3765E+03  0.3520E+03
     -1.052  0.3121E+02  0.0000E+00  0.3840E+03  0.3520E+03
     -0.812  0.1266E+02  0.0000E+00  0.3870E+03  0.3520E+03
     -0.571  0.8997E+02  0.9383E-05  0.4087E+03  0.3520E+03
     -0.331  0.2247E+03  0.4170E+01  0.4627E+03  0.3530E+03
     -0.091  0.2014E+03  0.2460E+02  0.5111E+03  0.3589E+03
      0.150  0.1765E+03  0.4120E+02  0.5535E+03  0.3688E+03
      0.390  0.1515E+03  0.4252E+02  0.5900E+03  0.3790E+03
      0.631  0.1193E+03  0.7212E+02  0.6186E+03  0.3964E+03
      0.871  0.5416E+02  0.6017E+02  0.6317E+03  0.4108E+03
      1.111  0.7010E+02  0.6558E+02  0.6485E+03  0.4266E+03
      1.352  0.7316E+02  0.6779E+02  0.6661E+03  0.4429E+03
      1.592  0.6804E+02  0.7756E+02  0.6825E+03  0.4616E+03
      1.833  0.1112E+03  0.1113E+03  0.7092E+03  0.4883E+03
      2.073  0.2134E+03  0.6152E+02  0.7605E+03  0.5031E+03
      2.313  0.1396E+03  0.3804E+02  0.7941E+03  0.5122E+03
      2.554  0.8437E+02  0.7768E+02  0.8143E+03  0.5309E+03
      2.794  0.6855E+02  0.1040E+03  0.8308E+03  0.5559E+03
      3.035  0.3518E+02  0.7075E+02  0.8393E+03  0.5729E+03
      3.275  0.4058E+02  0.1315E+03  0.8490E+03  0.6046E+03
      3.515  0.5189E+02  0.1167E+03  0.8615E+03  0.6326E+03
      3.756  0.6737E+02  0.2512E+02  0.8777E+03  0.6386E+03
      3.996  0.8010E+02  0.4425E+02  0.8969E+03  0.6493E+03
      4.237  0.8000E+02  0.1787E+03  0.9162E+03  0.6922E+03
      4.477  0.7558E+02  0.4729E+02  0.9343E+03  0.7036E+03
      4.717  0.2867E+02  0.1623E+01  0.9412E+03  0.7040E+03
      4.958  0.6451E+02  0.0000E+00  0.9567E+03  0.7040E+03
      5.198  0.1352E+02  0.0000E+00  0.9600E+03  0.7040E+03
      5.439  0.0000E+00  0.0000E+00  0.9600E+03  0.7040E+03
      5.679  0.0000E+00  0.0000E+00  0.9600E+03  0.7040E+03
      5.919  0.0000E+00  0.0000E+00  0.9600E+03  0.7040E+03
      6.160  0.0000E+00  0.1069E-06  0.9600E+03  0.7040E+03
      6.400  0.0000E+00  0.1040E+01  0.9600E+03  0.7043E+03
      6.641  0.0000E+00  0.1018E+02  0.9600E+03  0.7067E+03
      6.881  0.0000E+00  0.2673E+02  0.9600E+03  0.7131E+03
      7.121  0.5773E-16  0.6608E+02  0.9600E+03  0.7290E+03
      7.362  0.6299E-01  0.1115E+03  0.9600E+03  0.7558E+03
      7.602  0.1497E+01  0.1393E+03  0.9604E+03  0.7893E+03
      7.843  0.5210E+01  0.1182E+03  0.9616E+03  0.8177E+03
      8.083  0.7088E+01  0.1789E+03  0.9633E+03  0.8607E+03
      8.323  0.9289E+01  0.1452E+03  0.9656E+03  0.8956E+03
      8.564  0.1253E+02  0.6230E+02  0.9686E+03  0.9106E+03
      8.804  0.1461E+02  0.8246E+02  0.9721E+03  0.9304E+03
      9.045  0.2709E+02  0.7278E+02  0.9786E+03  0.9479E+03
      9.285  0.3351E+02  0.5731E+02  0.9867E+03  0.9617E+03
      9.525  0.3560E+02  0.2301E+02  0.9952E+03  0.9672E+03
      9.766  0.5301E+02  0.3405E+02  0.1008E+04  0.9754E+03
     10.006  0.5118E+02  0.2268E+02  0.1020E+04  0.9809E+03
     10.247  0.3370E+02  0.3891E+02  0.1028E+04  0.9902E+03
     10.487  0.2163E+02  0.4325E+02  0.1034E+04  0.1001E+04
     10.727  0.4557E+02  0.6130E+02  0.1045E+04  0.1015E+04
     10.968  0.3307E+02  0.4335E+02  0.1052E+04  0.1026E+04
     11.208  0.4377E+02  0.4016E+02  0.1063E+04  0.1035E+04
     11.449  0.7801E+02  0.3457E+02  0.1082E+04  0.1044E+04
     11.689  0.4270E+02  0.4375E+02  0.1092E+04  0.1054E+04
     11.929  0.6454E+02  0.5211E+02  0.1108E+04  0.1067E+04
     12.170  0.6675E+02  0.5733E+02  0.1124E+04  0.1081E+04
     12.410  0.6923E+02  0.5323E+02  0.1140E+04  0.1093E+04
     12.651  0.6102E+02  0.6706E+02  0.1155E+04  0.1109E+04
     12.891  0.5279E+02  0.7975E+02  0.1168E+04  0.1129E+04
     13.131  0.5847E+02  0.6446E+02  0.1182E+04  0.1144E+04
     13.372  0.4843E+02  0.6644E+02  0.1193E+04  0.1160E+04
     13.612  0.4022E+02  0.6465E+02  0.1203E+04  0.1176E+04
     13.853  0.1869E+02  0.5721E+02  0.1207E+04  0.1189E+04
     14.093  0.2335E+01  0.5299E+02  0.1208E+04  0.1202E+04
     14.333  0.0000E+00  0.2141E+02  0.1208E+04  0.1207E+04
     14.574  0.0000E+00  0.2886E+01  0.1208E+04  0.1208E+04
     14.814  0.0000E+00  0.3930E-05  0.1208E+04  0.1208E+04
     15.055  0.0000E+00  0.0000E+00  0.1208E+04  0.1208E+04
     15.295  0.0000E+00  0.0000E+00  0.1208E+04  0.1208E+04
     15.535  0.0000E+00  0.0000E+00  0.1208E+04  0.1208E+04
     15.776  0.0000E+00  0.0000E+00  0.1208E+04  0.1208E+04
     16.016  0.0000E+00  0.0000E+00  0.1208E+04  0.1208E+04
     16.257  0.0000E+00  0.0000E+00  0.1208E+04  0.1208E+04
     16.497  0.0000E+00  0.0000E+00  0.1208E+04  0.1208E+04
     16.737  0.0000E+00  0.0000E+00  0.1208E+04  0.1208E+04
     16.978  0.0000E+00  0.0000E+00  0.1208E+04  0.1208E+04
     17.218  0.0000E+00  0.0000E+00  0.1208E+04  0.1208E+04
     17.459  0.0000E+00  0.0000E+00  0.1208E+04  0.1208E+04
     17.699  0.0000E+00  0.0000E+00  0.1208E+04  0.1208E+04
