  224  224    1    2
  0.1357572E+02  0.1537960E-08  0.1537962E-08  0.1395899E-08  0.5000000E-15
  1.000000000000000E-004
  CAR 
 unknown system                          
   1664      8   1208
 
  0.0000000E+00  0.0000000E+00  0.0000000E+00  0.1250000E+00
    1      -51.142932    -46.392168   1.000000   1.000000
    2      -51.142824    -46.391918   1.000000   1.000000
    3      -51.142479    -46.391537   1.000000   1.000000
    4      -51.142007    -46.390965   1.000000   1.000000
    5      -51.141906    -46.390946   1.000000   1.000000
    6      -51.141626    -46.390919   1.000000   1.000000
    7      -51.141435    -46.390639   1.000000   1.000000
    8      -51.141362    -46.390623   1.000000   1.000000
    9      -51.141266    -46.390446   1.000000   1.000000
   10      -51.141205    -46.390424   1.000000   1.000000
   11      -51.141158    -46.390333   1.000000   1.000000
   12      -51.141121    -46.390308   1.000000   1.000000
   13      -51.141043    -46.390212   1.000000   1.000000
   14      -51.140970    -46.390090   1.000000   1.000000
   15      -51.140934    -46.390052   1.000000   1.000000
   16      -51.140898    -46.390012   1.000000   1.000000
   17      -51.140892    -46.389964   1.000000   1.000000
   18      -51.140859    -46.389914   1.000000   1.000000
   19      -51.140757    -46.389754   1.000000   1.000000
   20      -51.140732    -46.389745   1.000000   1.000000
   21      -51.140722    -46.389690   1.000000   1.000000
   22      -51.140648    -46.389610   1.000000   1.000000
   23      -51.140576    -46.389598   1.000000   1.000000
   24      -51.140545    -46.389579   1.000000   1.000000
   25      -51.140543    -46.389542   1.000000   1.000000
   26      -51.140518    -46.389511   1.000000   1.000000
   27      -51.140501    -46.389484   1.000000   1.000000
   28      -51.140474    -46.389453   1.000000   1.000000
   29      -51.140445    -46.389424   1.000000   1.000000
   30      -51.140426    -46.389314   1.000000   1.000000
   31      -51.140370    -46.389280   1.000000   1.000000
   32      -51.140347    -46.389260   1.000000   1.000000
   33      -51.140319    -46.389231   1.000000   1.000000
   34      -51.140254    -46.389158   1.000000   1.000000
   35      -51.140208    -46.389102   1.000000   1.000000
   36      -51.140196    -46.389000   1.000000   1.000000
   37      -51.140185    -46.388941   1.000000   1.000000
   38      -51.140167    -46.388902   1.000000   1.000000
   39      -51.140129    -46.388896   1.000000   1.000000
   40      -51.140113    -46.388865   1.000000   1.000000
   41      -51.140097    -46.388848   1.000000   1.000000
   42      -51.140030    -46.388836   1.000000   1.000000
   43      -51.139978    -46.388767   1.000000   1.000000
   44      -51.139958    -46.388726   1.000000   1.000000
   45      -51.139912    -46.388699   1.000000   1.000000
   46      -51.139868    -46.388632   1.000000   1.000000
   47      -51.139835    -46.388573   1.000000   1.000000
   48      -51.139804    -46.388522   1.000000   1.000000
   49      -51.139773    -46.388488   1.000000   1.000000
   50      -51.139738    -46.388427   1.000000   1.000000
   51      -51.139720    -46.388393   1.000000   1.000000
   52      -51.139677    -46.388341   1.000000   1.000000
   53      -51.139616    -46.388288   1.000000   1.000000
   54      -51.139603    -46.388261   1.000000   1.000000
   55      -51.139525    -46.388130   1.000000   1.000000
   56      -51.139507    -46.388074   1.000000   1.000000
   57      -51.139383    -46.388021   1.000000   1.000000
   58      -51.139319    -46.387933   1.000000   1.000000
   59      -51.139134    -46.387706   1.000000   1.000000
   60      -51.138599    -46.387390   1.000000   1.000000
   61      -51.138439    -46.387288   1.000000   1.000000
   62      -51.138137    -46.386902   1.000000   1.000000
   63      -51.137943    -46.386654   1.000000   1.000000
   64      -51.137743    -46.386338   1.000000   1.000000
   65      -49.648892    -45.930727   1.000000   1.000000
   66      -49.648796    -45.930428   1.000000   1.000000
   67      -49.648702    -45.930087   1.000000   1.000000
   68      -49.648434    -45.929725   1.000000   1.000000
   69      -49.648188    -45.929631   1.000000   1.000000
   70      -49.647865    -45.929411   1.000000   1.000000
   71      -49.647721    -45.929270   1.000000   1.000000
   72      -49.647691    -45.929216   1.000000   1.000000
   73      -49.647620    -45.929171   1.000000   1.000000
   74      -49.647543    -45.928989   1.000000   1.000000
   75      -49.647480    -45.928837   1.000000   1.000000
   76      -49.647414    -45.928825   1.000000   1.000000
   77      -49.647355    -45.928784   1.000000   1.000000
   78      -49.647338    -45.928719   1.000000   1.000000
   79      -49.647318    -45.928708   1.000000   1.000000
   80      -49.647292    -45.928704   1.000000   1.000000
   81      -49.647278    -45.928641   1.000000   1.000000
   82      -49.647270    -45.928622   1.000000   1.000000
   83      -49.647203    -45.928610   1.000000   1.000000
   84      -49.647176    -45.928595   1.000000   1.000000
   85      -49.647161    -45.928571   1.000000   1.000000
   86      -49.647089    -45.928554   1.000000   1.000000
   87      -49.647086    -45.928460   1.000000   1.000000
   88      -49.647042    -45.928420   1.000000   1.000000
   89      -49.647015    -45.928384   1.000000   1.000000
   90      -49.647006    -45.928309   1.000000   1.000000
   91      -49.646974    -45.928282   1.000000   1.000000
   92      -49.646936    -45.928277   1.000000   1.000000
   93      -49.646927    -45.928267   1.000000   1.000000
   94      -49.646850    -45.928221   1.000000   1.000000
   95      -49.646846    -45.928196   1.000000   1.000000
   96      -49.646825    -45.928190   1.000000   1.000000
   97      -49.646783    -45.928159   1.000000   1.000000
   98      -49.646749    -45.928108   1.000000   1.000000
   99      -49.646710    -45.928075   1.000000   1.000000
  100      -49.646704    -45.928047   1.000000   1.000000
  101      -49.646634    -45.928033   1.000000   1.000000
  102      -49.646613    -45.927965   1.000000   1.000000
  103      -49.646577    -45.927955   1.000000   1.000000
  104      -49.646518    -45.927940   1.000000   1.000000
  105      -49.646470    -45.927924   1.000000   1.000000
  106      -49.646430    -45.927901   1.000000   1.000000
  107      -49.646414    -45.927857   1.000000   1.000000
  108      -49.646383    -45.927813   1.000000   1.000000
  109      -49.646367    -45.927764   1.000000   1.000000
  110      -49.646277    -45.927715   1.000000   1.000000
  111      -49.646179    -45.927641   1.000000   1.000000
  112      -49.646146    -45.927619   1.000000   1.000000
  113      -49.646062    -45.927536   1.000000   1.000000
  114      -49.646048    -45.927520   1.000000   1.000000
  115      -49.646038    -45.927470   1.000000   1.000000
  116      -49.645967    -45.927463   1.000000   1.000000
  117      -49.645950    -45.927440   1.000000   1.000000
  118      -49.645947    -45.927400   1.000000   1.000000
  119      -49.645917    -45.927374   1.000000   1.000000
  120      -49.645815    -45.927357   1.000000   1.000000
  121      -49.645811    -45.927270   1.000000   1.000000
  122      -49.645794    -45.927267   1.000000   1.000000
  123      -49.645763    -45.927227   1.000000   1.000000
  124      -49.645734    -45.927211   1.000000   1.000000
  125      -49.645714    -45.927200   1.000000   1.000000
  126      -49.645647    -45.927175   1.000000   1.000000
  127      -49.645645    -45.927153   1.000000   1.000000
  128      -49.645605    -45.927147   1.000000   1.000000
  129      -49.645542    -45.927115   1.000000   1.000000
  130      -49.645518    -45.927101   1.000000   1.000000
  131      -49.645442    -45.927065   1.000000   1.000000
  132      -49.645433    -45.927044   1.000000   1.000000
  133      -49.645407    -45.927029   1.000000   1.000000
  134      -49.645334    -45.926985   1.000000   1.000000
  135      -49.645317    -45.926980   1.000000   1.000000
  136      -49.645311    -45.926962   1.000000   1.000000
  137      -49.645299    -45.926921   1.000000   1.000000
  138      -49.645285    -45.926917   1.000000   1.000000
  139      -49.645235    -45.926885   1.000000   1.000000
  140      -49.645228    -45.926854   1.000000   1.000000
  141      -49.645225    -45.926847   1.000000   1.000000
  142      -49.645215    -45.926828   1.000000   1.000000
  143      -49.645199    -45.926815   1.000000   1.000000
  144      -49.645136    -45.926753   1.000000   1.000000
  145      -49.645114    -45.926746   1.000000   1.000000
  146      -49.645088    -45.926656   1.000000   1.000000
  147      -49.645082    -45.926641   1.000000   1.000000
  148      -49.645018    -45.926626   1.000000   1.000000
  149      -49.644953    -45.926594   1.000000   1.000000
  150      -49.644949    -45.926581   1.000000   1.000000
  151      -49.644898    -45.926571   1.000000   1.000000
  152      -49.644892    -45.926527   1.000000   1.000000
  153      -49.644861    -45.926503   1.000000   1.000000
  154      -49.644778    -45.926490   1.000000   1.000000
  155      -49.644769    -45.926478   1.000000   1.000000
  156      -49.644714    -45.926458   1.000000   1.000000
  157      -49.644690    -45.926442   1.000000   1.000000
  158      -49.644654    -45.926419   1.000000   1.000000
  159      -49.644556    -45.926416   1.000000   1.000000
  160      -49.644553    -45.926397   1.000000   1.000000
  161      -49.644507    -45.926397   1.000000   1.000000
  162      -49.644484    -45.926379   1.000000   1.000000
  163      -49.644446    -45.926351   1.000000   1.000000
  164      -49.644423    -45.926296   1.000000   1.000000
  165      -49.644399    -45.926227   1.000000   1.000000
  166      -49.644378    -45.926218   1.000000   1.000000
  167      -49.644368    -45.926165   1.000000   1.000000
  168      -49.644306    -45.926137   1.000000   1.000000
  169      -49.644277    -45.926121   1.000000   1.000000
  170      -49.644246    -45.926102   1.000000   1.000000
  171      -49.644190    -45.926086   1.000000   1.000000
  172      -49.644159    -45.926061   1.000000   1.000000
  173      -49.644079    -45.925996   1.000000   1.000000
  174      -49.644067    -45.925914   1.000000   1.000000
  175      -49.644036    -45.925900   1.000000   1.000000
  176      -49.644030    -45.925809   1.000000   1.000000
  177      -49.643994    -45.925795   1.000000   1.000000
  178      -49.643933    -45.925741   1.000000   1.000000
  179      -49.643877    -45.925710   1.000000   1.000000
  180      -49.643842    -45.925585   1.000000   1.000000
  181      -49.643777    -45.925558   1.000000   1.000000
  182      -49.643704    -45.925542   1.000000   1.000000
  183      -49.643665    -45.925436   1.000000   1.000000
  184      -49.643648    -45.925405   1.000000   1.000000
  185      -49.643554    -45.925370   1.000000   1.000000
  186      -49.643501    -45.925088   1.000000   1.000000
  187      -49.643363    -45.924996   1.000000   1.000000
  188      -49.643214    -45.924913   1.000000   1.000000
  189      -49.642700    -45.924506   1.000000   1.000000
  190      -49.642567    -45.924226   1.000000   1.000000
  191      -49.642418    -45.924209   1.000000   1.000000
  192      -49.641546    -45.923944   1.000000   1.000000
  193      -39.641190    -39.640274   1.000000   1.000000
  194      -39.641059    -39.640141   1.000000   1.000000
  195      -39.634084    -39.633217   1.000000   1.000000
  196      -39.633538    -39.632666   1.000000   1.000000
  197      -39.633474    -39.632601   1.000000   1.000000
  198      -39.633423    -39.632551   1.000000   1.000000
  199      -39.633420    -39.632547   1.000000   1.000000
  200      -39.633394    -39.632521   1.000000   1.000000
  201      -39.633336    -39.632463   1.000000   1.000000
  202      -39.632868    -39.631993   1.000000   1.000000
  203      -39.628116    -39.627282   1.000000   1.000000
  204      -39.627963    -39.627125   1.000000   1.000000
  205      -39.627814    -39.626977   1.000000   1.000000
  206      -39.627791    -39.626953   1.000000   1.000000
  207      -39.627737    -39.626899   1.000000   1.000000
  208      -39.627696    -39.626857   1.000000   1.000000
  209      -39.627507    -39.626669   1.000000   1.000000
  210      -39.627341    -39.626499   1.000000   1.000000
  211      -39.616968    -39.616207   1.000000   1.000000
  212      -39.616548    -39.615775   1.000000   1.000000
  213      -39.616058    -39.615281   1.000000   1.000000
  214      -39.616047    -39.615270   1.000000   1.000000
  215      -39.616034    -39.615258   1.000000   1.000000
  216      -39.615754    -39.614976   1.000000   1.000000
  217      -39.615673    -39.614897   1.000000   1.000000
  218      -39.615608    -39.614837   1.000000   1.000000
  219      -39.615532    -39.614752   1.000000   1.000000
  220      -39.615262    -39.614493   1.000000   1.000000
  221      -39.615246    -39.614478   1.000000   1.000000
  222      -39.615240    -39.614473   1.000000   1.000000
  223      -39.615236    -39.614469   1.000000   1.000000
  224      -39.615227    -39.614460   1.000000   1.000000
  225      -39.615149    -39.614380   1.000000   1.000000
  226      -39.615080    -39.614313   1.000000   1.000000
  227      -39.615041    -39.614273   1.000000   1.000000
  228      -39.615029    -39.614261   1.000000   1.000000
  229      -39.614969    -39.614200   1.000000   1.000000
  230      -39.614924    -39.614156   1.000000   1.000000
  231      -39.614908    -39.614139   1.000000   1.000000
  232      -39.614844    -39.614076   1.000000   1.000000
  233      -39.614753    -39.613985   1.000000   1.000000
  234      -39.614491    -39.613723   1.000000   1.000000
  235      -39.614246    -39.613488   1.000000   1.000000
  236      -39.614242    -39.613483   1.000000   1.000000
  237      -39.613689    -39.612928   1.000000   1.000000
  238      -39.613097    -39.612322   1.000000   1.000000
  239      -39.604270    -39.603554   1.000000   1.000000
  240      -39.604015    -39.603297   1.000000   1.000000
  241      -39.603887    -39.603168   1.000000   1.000000
  242      -39.603842    -39.603122   1.000000   1.000000
  243      -39.603790    -39.603071   1.000000   1.000000
  244      -39.603774    -39.603054   1.000000   1.000000
  245      -39.603648    -39.602928   1.000000   1.000000
  246      -39.603461    -39.602738   1.000000   1.000000
  247      -39.600041    -39.599337   1.000000   1.000000
  248      -39.599629    -39.598924   1.000000   1.000000
  249      -39.599565    -39.598859   1.000000   1.000000
  250      -39.599544    -39.598838   1.000000   1.000000
  251      -39.599521    -39.598815   1.000000   1.000000
  252      -39.599495    -39.598789   1.000000   1.000000
  253      -39.599369    -39.598663   1.000000   1.000000
  254      -39.598842    -39.598129   1.000000   1.000000
  255      -39.593291    -39.592608   1.000000   1.000000
  256      -39.593101    -39.592417   1.000000   1.000000
  257      -12.747217    -12.467747   1.000000   1.000000
  258      -12.747196    -12.467726   1.000000   1.000000
  259      -12.719665    -12.439917   1.000000   1.000000
  260      -12.719417    -12.439654   1.000000   1.000000
  261      -12.719356    -12.439605   1.000000   1.000000
  262      -12.719339    -12.439589   1.000000   1.000000
  263      -12.719333    -12.439582   1.000000   1.000000
  264      -12.719322    -12.439572   1.000000   1.000000
  265      -12.719227    -12.439482   1.000000   1.000000
  266      -12.718994    -12.439240   1.000000   1.000000
  267      -12.697191    -12.417019   1.000000   1.000000
  268      -12.697171    -12.416998   1.000000   1.000000
  269      -12.694790    -12.415181   1.000000   1.000000
  270      -12.694763    -12.415155   1.000000   1.000000
  271      -12.694747    -12.415139   1.000000   1.000000
  272      -12.694742    -12.415134   1.000000   1.000000
  273      -12.692399    -12.413332   1.000000   1.000000
  274      -12.692345    -12.413296   1.000000   1.000000
  275      -12.691255    -12.411225   1.000000   1.000000
  276      -12.691253    -12.411220   1.000000   1.000000
  277      -12.691244    -12.411212   1.000000   1.000000
  278      -12.691164    -12.411150   1.000000   1.000000
  279      -12.672860    -12.392839   1.000000   1.000000
  280      -12.672695    -12.392685   1.000000   1.000000
  281      -12.672644    -12.392632   1.000000   1.000000
  282      -12.672465    -12.392449   1.000000   1.000000
  283      -12.667785    -12.388886   1.000000   1.000000
  284      -12.667628    -12.388743   1.000000   1.000000
  285      -12.667577    -12.388690   1.000000   1.000000
  286      -12.667392    -12.388499   1.000000   1.000000
  287      -12.654517    -12.374564   1.000000   1.000000
  288      -12.643743    -12.366018   1.000000   1.000000
  289       -7.800034     -7.599035   1.000000   1.000000
  290       -7.748243     -7.551521   1.000000   1.000000
  291       -7.506280     -7.319944   1.000000   1.000000
  292       -7.505381     -7.319128   1.000000   1.000000
  293       -7.505341     -7.319086   1.000000   1.000000
  294       -7.504709     -7.318395   1.000000   1.000000
  295       -7.501610     -7.309531   1.000000   1.000000
  296       -7.500961     -7.308819   1.000000   1.000000
  297       -7.500913     -7.308771   1.000000   1.000000
  298       -7.500052     -7.307981   1.000000   1.000000
  299       -7.315216     -7.117762   1.000000   1.000000
  300       -7.315150     -7.117683   1.000000   1.000000
  301       -7.296884     -7.093619   1.000000   1.000000
  302       -7.296830     -7.093547   1.000000   1.000000
  303       -7.296794     -7.093510   1.000000   1.000000
  304       -7.296745     -7.093449   1.000000   1.000000
  305       -7.269259     -7.061971   1.000000   1.000000
  306       -7.269186     -7.061882   1.000000   1.000000
  307       -7.088764     -6.893898   1.000000   1.000000
  308       -7.084684     -6.893865   1.000000   1.000000
  309       -7.084668     -6.893842   1.000000   1.000000
  310       -7.084641     -6.893804   1.000000   1.000000
  311       -7.084551     -6.796771   1.000000   1.000000
  312       -7.046589     -6.783863   1.000000   1.000000
  313       -7.001308     -6.768852   1.000000   1.000000
  314       -6.999977     -6.767984   1.000000   1.000000
  315       -6.999896     -6.767917   1.000000   1.000000
  316       -6.999787     -6.767885   1.000000   1.000000
  317       -6.999765     -6.766871   1.000000   1.000000
  318       -6.999739     -6.766218   1.000000   1.000000
  319       -6.999627     -6.766138   1.000000   1.000000
  320       -6.998494     -6.766091   1.000000   1.000000
  321       -6.994867     -6.766053   1.000000   1.000000
  322       -6.994168     -6.766033   1.000000   1.000000
  323       -6.994012     -6.765915   1.000000   1.000000
  324       -6.993359     -6.764487   1.000000   1.000000
  325       -6.955840     -6.745582   1.000000   1.000000
  326       -6.955781     -6.744886   1.000000   1.000000
  327       -6.955763     -6.744834   1.000000   1.000000
  328       -6.955730     -6.744104   1.000000   1.000000
  329       -6.948329     -6.697492   1.000000   1.000000
  330       -6.948275     -6.697481   1.000000   1.000000
  331       -6.929347     -6.689786   1.000000   1.000000
  332       -6.928651     -6.689087   1.000000   1.000000
  333       -6.928598     -6.689044   1.000000   1.000000
  334       -6.927806     -6.688277   1.000000   1.000000
  335       -6.911319     -6.640760   1.000000   1.000000
  336       -6.911282     -6.639698   1.000000   1.000000
  337       -6.885739     -6.639204   1.000000   1.000000
  338       -6.885727     -6.639071   1.000000   1.000000
  339       -6.885642     -6.639059   1.000000   1.000000
  340       -6.885638     -6.638993   1.000000   1.000000
  341       -6.878088     -6.638919   1.000000   1.000000
  342       -6.876955     -6.638607   1.000000   1.000000
  343       -6.876841     -6.638368   1.000000   1.000000
  344       -6.876807     -6.638360   1.000000   1.000000
  345       -6.876784     -6.637620   1.000000   1.000000
  346       -6.876686     -6.637041   1.000000   1.000000
  347       -6.876647     -6.628067   1.000000   1.000000
  348       -6.875237     -6.627884   1.000000   1.000000
  349       -6.832570     -6.586612   1.000000   1.000000
  350       -6.832554     -6.586593   1.000000   1.000000
  351       -6.794268     -6.499089   1.000000   1.000000
  352       -6.794205     -6.499047   1.000000   1.000000
  353       -1.525517     -0.414587   1.000000   1.000000
  354       -1.467956     -0.414575   1.000000   1.000000
  355       -1.467684     -0.414460   1.000000   1.000000
  356       -1.467580     -0.414442   1.000000   1.000000
  357       -1.467488      0.026165   1.000000   1.000000
  358       -1.460311      0.026276   1.000000   1.000000
  359       -1.460285      0.026433   1.000000   1.000000
  360       -1.460194      0.026549   1.000000   1.000000
  361       -1.460183      0.037436   1.000000   1.000000
  362       -1.421391      0.037828   1.000000   1.000000
  363       -1.421328      0.038014   1.000000   1.000000
  364       -1.382801      0.038058   1.000000   1.000000
  365       -1.382791      0.038120   1.000000   1.000000
  366       -1.382752      0.038151   1.000000   1.000000
  367       -1.382748      0.038273   1.000000   1.000000
  368       -1.332809      0.038565   1.000000   1.000000
  369       -1.332765      0.102884   1.000000   1.000000
  370       -1.332561      0.102923   1.000000   1.000000
  371       -1.332518      0.207534   1.000000   1.000000
  372       -1.332472      0.207538   1.000000   1.000000
  373       -1.332429      0.207557   1.000000   1.000000
  374       -1.332229      0.207558   1.000000   1.000000
  375       -1.332173      0.304164   1.000000   1.000000
  376       -1.292737      0.392425   1.000000   1.000000
  377       -1.292520      0.392504   1.000000   1.000000
  378       -1.292366      0.392678   1.000000   1.000000
  379       -1.292265      0.392779   1.000000   1.000000
  380       -1.256792      0.490883   1.000000   1.000000
  381       -1.256781      0.490897   1.000000   1.000000
  382       -1.232194      0.497322   1.000000   1.000000
  383       -1.232133      0.497704   1.000000   1.000000
  384       -1.220379      0.497738   1.000000   1.000000
  385       -0.822769      0.498016   1.000000   1.000000
  386       -0.822732      0.510645   1.000000   1.000000
  387       -0.822684      0.510693   1.000000   1.000000
  388       -0.822606      0.531191   1.000000   1.000000
  389       -0.722701      0.531218   1.000000   1.000000
  390       -0.722608      0.531273   1.000000   1.000000
  391       -0.699177      0.531297   1.000000   1.000000
  392       -0.699122      0.573465   1.000000   1.000000
  393       -0.698995      0.574165   1.000000   1.000000
  394       -0.698831      0.574317   1.000000   1.000000
  395       -0.688475      0.574360   1.000000   1.000000
  396       -0.688439      0.574409   1.000000   1.000000
  397       -0.688237      0.574497   1.000000   1.000000
  398       -0.688099      0.574549   1.000000   1.000000
  399       -0.666782      0.575339   1.000000   1.000000
  400       -0.666679      0.638614   1.000000   1.000000
  401       -0.666517      0.666294   1.000000   1.000000
  402       -0.666247      0.666347   1.000000   1.000000
  403       -0.651972      0.733084   1.000000   1.000000
  404       -0.651903      0.733104   1.000000   1.000000
  405       -0.651831      0.931369   1.000000   1.000000
  406       -0.651664      0.932543   1.000000   1.000000
  407       -0.589432      0.935603   1.000000   1.000000
  408       -0.589393      0.935642   1.000000   1.000000
  409       -0.576574      0.948793   1.000000   1.000000
  410       -0.576563      0.948890   1.000000   1.000000
  411       -0.576520      0.949001   1.000000   1.000000
  412       -0.576504      0.949109   1.000000   1.000000
  413       -0.553574      0.986130   1.000000   1.000000
  414       -0.553286      0.986217   1.000000   1.000000
  415       -0.553037      0.986227   1.000000   1.000000
  416       -0.552969      0.986259   1.000000   1.000000
  417       -0.497627      0.992780   1.000000   1.000000
  418       -0.496874      0.992972   1.000000   1.000000
  419       -0.472905      1.008869   1.000000   1.000000
  420       -0.472681      1.008938   1.000000   1.000000
  421       -0.461664      1.008947   1.000000   1.000000
  422       -0.461434      1.009014   1.000000   1.000000
  423       -0.461295      1.018476   1.000000   1.000000
  424       -0.461185      1.049051   1.000000   1.000000
  425       -0.459879      1.049125   1.000000   1.000000
  426       -0.459631      1.051615   1.000000   1.000000
  427       -0.459396      1.051639   1.000000   1.000000
  428       -0.459281      1.051868   1.000000   1.000000
  429       -0.410039      1.051892   1.000000   1.000000
  430       -0.409974      1.078542   1.000000   1.000000
  431       -0.407599      1.078730   1.000000   1.000000
  432       -0.407545      1.078891   1.000000   1.000000
  433       -0.407537      1.078937   1.000000   1.000000
  434       -0.407401      1.079822   1.000000   1.000000
  435       -0.407344      1.079857   1.000000   1.000000
  436       -0.407328      1.079931   1.000000   1.000000
  437       -0.383336      1.080065   1.000000   1.000000
  438       -0.383229      1.192852   1.000000   1.000000
  439       -0.378176      1.192876   1.000000   1.000000
  440       -0.369203      1.376458   1.000000   1.000000
  441       -0.368884      1.390350   1.000000   1.000000
  442       -0.368788      1.391025   1.000000   1.000000
  443       -0.368757      1.391275   1.000000   1.000000
  444       -0.368705      1.391282   1.000000   1.000000
  445       -0.368639      1.391540   1.000000   1.000000
  446       -0.368476      1.437312   1.000000   1.000000
  447       -0.368183      1.450202   1.000000   1.000000
  448       -0.353541      1.526364   1.000000   1.000000
  449       -0.353522      1.526381   1.000000   1.000000
  450       -0.349052      1.526454   1.000000   1.000000
  451       -0.341784      1.526476   1.000000   1.000000
  452       -0.335807      1.528886   1.000000   1.000000
  453       -0.335767      1.528950   1.000000   1.000000
  454       -0.335456      1.528980   1.000000   1.000000
  455       -0.335359      1.529107   1.000000   1.000000
  456       -0.334272      1.558244   1.000000   1.000000
  457       -0.334167      1.558307   1.000000   1.000000
  458       -0.334044      1.558321   1.000000   1.000000
  459       -0.333966      1.558371   1.000000   1.000000
  460       -0.324256      1.566539   1.000000   1.000000
  461       -0.324229      1.566624   1.000000   1.000000
  462       -0.323954      1.566773   1.000000   1.000000
  463       -0.323806      1.567213   1.000000   1.000000
  464       -0.321658      1.568037   1.000000   1.000000
  465       -0.321650      1.568221   1.000000   1.000000
  466       -0.321245      1.568374   1.000000   1.000000
  467       -0.321017      1.568831   1.000000   1.000000
  468       -0.303830      1.586591   1.000000   1.000000
  469       -0.295900      1.586686   1.000000   1.000000
  470       -0.288060      1.695671   1.000000   1.000000
  471       -0.287915      1.695761   1.000000   1.000000
  472       -0.287743      1.740835   1.000000   1.000000
  473       -0.287695      1.741026   1.000000   1.000000
  474       -0.280405      1.741212   1.000000   1.000000
  475       -0.280360      1.741382   1.000000   1.000000
  476       -0.275071      1.746857   1.000000   1.000000
  477       -0.275033      1.746860   1.000000   1.000000
  478       -0.274824      1.746897   1.000000   1.000000
  479       -0.274815      1.746903   1.000000   1.000000
  480       -0.241783      1.779033   1.000000   1.000000
  481       -0.241755      1.780594   1.000000   1.000000
  482       -0.241549      1.780666   1.000000   1.000000
  483       -0.241503      1.836562   1.000000   1.000000
  484       -0.241395      1.836857   1.000000   1.000000
  485       -0.241364      1.837313   1.000000   1.000000
  486       -0.241272      1.837531   1.000000   1.000000
  487       -0.241059      1.837736   1.000000   1.000000
  488       -0.207393      1.838113   1.000000   1.000000
  489       -0.207386      1.838423   1.000000   1.000000
  490       -0.199631      1.838470   1.000000   1.000000
  491       -0.199597      1.866212   1.000000   1.000000
  492       -0.199523      1.866415   1.000000   1.000000
  493       -0.199484      1.913260   1.000000   1.000000
  494       -0.194069      1.913423   1.000000   1.000000
  495       -0.193946      1.913513   1.000000   1.000000
  496       -0.164138      1.913573   1.000000   1.000000
  497       -0.163842      1.913614   1.000000   1.000000
  498       -0.163760      1.913644   1.000000   1.000000
  499       -0.163734      1.913714   1.000000   1.000000
  500       -0.156813      1.913777   1.000000   1.000000
  501       -0.156416      1.926940   1.000000   1.000000
  502       -0.156174      1.927010   1.000000   1.000000
  503       -0.156149      1.927038   1.000000   1.000000
  504       -0.139048      1.927139   1.000000   1.000000
  505       -0.139023      2.133221   1.000000   1.000000
  506       -0.138846      2.133275   1.000000   1.000000
  507       -0.138796      2.191256   1.000000   1.000000
  508       -0.091022      2.193184   1.000000   1.000000
  509       -0.090897      2.300459   1.000000   1.000000
  510       -0.082617      2.300777   1.000000   1.000000
  511       -0.082524      2.301018   1.000000   1.000000
  512       -0.082474      2.301319   1.000000   1.000000