<?xml version="1.0" encoding="ISO-8859-1"?>
<modeling>
 <generator>
  <i name="program" type="string">vasp </i>
  <i name="version" type="string">5.4.4.18Apr17-6-g9f103f2a35  </i>
  <i name="subversion" type="string">(build Oct 25 2017 14:42:18) complex            parallel </i>
  <i name="platform" type="string">LinuxIFC </i>
  <i name="date" type="string">2021 04 28 </i>
  <i name="time" type="string">23:18:39 </i>
 </generator>
 <incar>
  <i type="string" name="PREC">accurate</i>
  <i type="string" name="ALGO"> all</i>
  <i type="logical" name="ADDGRID"> T  </i>
  <i type="int" name="ISPIN">     2</i>
  <i type="int" name="ICHARG">     1</i>
  <i type="int" name="NELM">   200</i>
  <i type="int" name="NELMIN">     8</i>
  <i name="EDIFF">      0.00000100</i>
  <i type="int" name="ISYM">     0</i>
  <i name="ENCUT">    650.00000000</i>
  <v name="MAGMOM">      0.60000000      0.60000000      0.60000000      0.60000000      0.60000000      0.60000000      0.60000000      0.60000000      0.60000000      0.60000000      0.60000000      0.60000000      0.60000000      0.60000000      0.60000000      0.60000000      0.60000000      0.60000000      0.60000000      0.60000000
      0.60000000      0.60000000      0.60000000      0.60000000      0.60000000      0.60000000      0.60000000      0.60000000      0.60000000      0.60000000      0.60000000      0.60000000      0.60000000      0.60000000      0.60000000      0.60000000      0.60000000      0.60000000      0.60000000      0.60000000
      0.60000000      0.60000000      0.60000000      0.60000000      0.60000000      0.60000000      0.60000000      0.60000000      0.60000000      0.60000000      0.60000000      0.60000000      0.60000000      0.60000000      0.60000000      0.60000000      0.60000000      0.60000000      0.60000000      0.60000000
      0.60000000      0.60000000      0.60000000      0.60000000      0.60000000      0.60000000      0.60000000      0.60000000      0.60000000      0.60000000      0.60000000      0.60000000      0.60000000      0.60000000      0.60000000      0.60000000      0.60000000      0.60000000      0.60000000      0.60000000
      0.60000000      0.60000000      0.60000000      0.60000000      0.60000000      0.60000000      0.60000000      0.60000000      0.60000000      0.60000000      0.60000000      0.60000000      0.60000000      0.60000000      0.60000000      0.60000000      0.60000000      0.60000000      0.60000000      0.60000000
      0.60000000      0.60000000      0.60000000      0.60000000      0.60000000      0.60000000      0.60000000      0.60000000      0.60000000      0.60000000      0.60000000      0.60000000      0.60000000      0.60000000      0.60000000      0.60000000      0.60000000      0.60000000      0.60000000      0.60000000
      0.60000000      0.60000000      0.60000000      0.60000000      0.60000000      0.60000000      0.60000000      0.60000000      0.60000000      0.60000000      0.60000000      0.60000000      0.60000000      0.60000000      0.60000000      0.60000000      0.60000000      0.60000000      0.60000000      0.60000000
      0.60000000      0.60000000      0.60000000      0.60000000      0.60000000      0.60000000      0.60000000      0.60000000      0.60000000      0.60000000      0.60000000      0.60000000      0.60000000      0.60000000      0.60000000      0.60000000      0.60000000      0.60000000      0.60000000      0.60000000
      5.00000000      5.00000000      5.00000000      5.00000000      5.00000000      5.00000000      5.00000000      5.00000000      5.00000000      5.00000000      5.00000000      5.00000000      5.00000000      5.00000000      5.00000000      5.00000000      5.00000000      5.00000000      5.00000000      5.00000000
      5.00000000      5.00000000      5.00000000      5.00000000      5.00000000      5.00000000      5.00000000      5.00000000      5.00000000      5.00000000      5.00000000      5.00000000      5.00000000      5.00000000      5.00000000      5.00000000      5.00000000      5.00000000      5.00000000      5.00000000
      5.00000000      5.00000000      5.00000000      5.00000000      5.00000000      5.00000000      5.00000000      5.00000000      5.00000000      5.00000000      5.00000000      5.00000000      5.00000000      5.00000000      5.00000000      5.00000000      5.00000000      5.00000000      5.00000000      5.00000000
      5.00000000      5.00000000      5.00000000      5.00000000</v>
  <i type="logical" name="LREAL"> F  </i>
  <i type="int" name="ISMEAR">     0</i>
  <i name="SIGMA">      0.05000000</i>
  <i type="int" name="NWRITE">     1</i>
  <i type="int" name="LMAXMIX">     4</i>
  <i type="logical" name="LWAVE"> F  </i>
  <i type="logical" name="LASPH"> T  </i>
  <v type="int" name="KPOINT_BSE">    -1     0     0     0</v>
  <i type="int" name="NELM">   200</i>
  <i type="string" name="GGA"> pe</i>
  <i type="logical" name="LDAU"> T  </i>
  <v type="int" name="LDAUTYPE">     2</v>
  <v type="int" name="LDAUL">    -1    -1    -1     2</v>
  <v name="LDAUU">      0.00000000      0.00000000      0.00000000      4.00000000</v>
  <v name="LDAUJ">      0.00000000      0.00000000      0.00000000      0.00000000</v>
  <i type="logical" name="LASPH"> T  </i>
 </incar>
 <structure name="primitive_cell" >
  <crystal>
   <varray name="basis" >
    <v>      15.37959744       0.00260798      -0.01267804 </v>
    <v>      -0.00277488      15.37961926      -0.01267806 </v>
    <v>      -3.83358824      -3.83493454      12.86275064 </v>
   </varray>
   <i name="volume">   3040.96152487 </i>
   <varray name="rec_basis" >
    <v>       0.06503719       0.00002772       0.01939182 </v>
    <v>       0.00000496       0.06503710       0.01939181 </v>
    <v>       0.00006411       0.00006413       0.07778210 </v>
   </varray>
  </crystal>
  <varray name="positions" >
   <v>       0.11205242       0.03120913       0.00000252 </v>
   <v>       0.23705088       0.01294823      -0.00000103 </v>
   <v>      -0.01294798       0.01294937       0.00000103 </v>
   <v>       0.14990798       0.17581133       0.15144025 </v>
   <v>       0.07418916       0.10009214      -0.15143682 </v>
   <v>       0.00531414      -0.11205521      -0.00001176 </v>
   <v>      -0.03120913       0.13794758      -0.00000252 </v>
   <v>       0.21879087      -0.11205242      -0.00000252 </v>
   <v>       0.25531414       0.13794479      -0.00001176 </v>
   <v>       0.27677185       0.05335825       0.15897368 </v>
   <v>       0.19728994      -0.02677905      -0.15897707 </v>
   <v>       0.02677905       0.05271006       0.15897707 </v>
   <v>      -0.05270804      -0.02677185      -0.15897368 </v>
   <v>       0.14990786      -0.07418916       0.15143682 </v>
   <v>       0.07418867      -0.14990798      -0.15144025 </v>
   <v>       0.11205521       0.24468586       0.00001176 </v>
   <v>      -0.13794479      -0.00531414       0.00001176 </v>
   <v>       0.36205521      -0.00531414       0.00001176 </v>
   <v>       0.23705202       0.26294937       0.00000103 </v>
   <v>      -0.01294912       0.26294823      -0.00000103 </v>
   <v>       0.11205521      -0.25531414       0.00001176 </v>
   <v>       0.27677905       0.30271006       0.15897707 </v>
   <v>       0.19729196       0.22322815      -0.15897368 </v>
   <v>       0.02677185       0.30270804       0.15897368 </v>
   <v>      -0.05271006       0.22322095      -0.15897707 </v>
   <v>      -0.01294912      -0.23705177      -0.00000103 </v>
   <v>       0.23705202      -0.23705063       0.00000103 </v>
   <v>       0.39990786       0.17581084       0.15143682 </v>
   <v>       0.32418867       0.10009202      -0.15144025 </v>
   <v>      -0.10009214       0.17581084       0.15143682 </v>
   <v>      -0.17581133       0.10009202      -0.15144025 </v>
   <v>       0.02677905       0.05271006      -0.34102293 </v>
   <v>       0.19729196       0.22322815       0.34102632 </v>
   <v>       0.39990798      -0.07418867       0.15144025 </v>
   <v>       0.32418916      -0.14990786      -0.15143682 </v>
   <v>      -0.10009202      -0.07418867       0.15144025 </v>
   <v>      -0.17581084      -0.14990786      -0.15143682 </v>
   <v>       0.32418867       0.10009202       0.34855975 </v>
   <v>       0.07418916       0.10009214       0.34856318 </v>
   <v>       0.14990786      -0.07418916      -0.34856318 </v>
   <v>      -0.10009202      -0.07418867      -0.34855975 </v>
   <v>       0.19728994      -0.02677905       0.34102293 </v>
   <v>       0.02677185      -0.19729196      -0.34102632 </v>
   <v>       0.19729196      -0.27677185      -0.15897368 </v>
   <v>       0.27677905      -0.19728994       0.15897707 </v>
   <v>       0.02677185      -0.19729196       0.15897368 </v>
   <v>      -0.05271006      -0.27677905      -0.15897707 </v>
   <v>       0.36205242       0.28120913       0.00000252 </v>
   <v>      -0.13794758      -0.21879087       0.00000252 </v>
   <v>      -0.13794758       0.28120913       0.00000252 </v>
   <v>       0.36205242      -0.21879087       0.00000252 </v>
   <v>      -0.24468586       0.13794479      -0.00001176 </v>
   <v>       0.46879087       0.13794758      -0.00000252 </v>
   <v>       0.21879087       0.38794758      -0.00000252 </v>
   <v>       0.00531414       0.38794479      -0.00001176 </v>
   <v>       0.48705202       0.01294937       0.00000103 </v>
   <v>      -0.26294912       0.01294823      -0.00000103 </v>
   <v>       0.14990786       0.42581084       0.15143682 </v>
   <v>       0.07418867       0.35009202      -0.15144025 </v>
   <v>       0.14990798       0.17581133      -0.34855975 </v>
   <v>       0.32418916       0.35009214       0.34856318 </v>
   <v>       0.07418867       0.35009202       0.34855975 </v>
   <v>      -0.10009214       0.17581084      -0.34856318 </v>
   <v>       0.44728994       0.22322095       0.34102293 </v>
   <v>       0.27677185       0.05270804      -0.34102632 </v>
   <v>      -0.05271006       0.22322095       0.34102293 </v>
   <v>      -0.22322815       0.05270804      -0.34102632 </v>
   <v>      -0.47322095       0.05271006       0.15897707 </v>
   <v>       0.44729196      -0.02677185      -0.15897368 </v>
   <v>      -0.30271006      -0.02677905      -0.15897707 </v>
   <v>      -0.22322815       0.05270804       0.15897368 </v>
   <v>       0.44729196      -0.02677185       0.34102632 </v>
   <v>       0.27677905      -0.19728994      -0.34102293 </v>
   <v>      -0.05270804      -0.02677185       0.34102632 </v>
   <v>      -0.22322095      -0.19728994      -0.34102293 </v>
   <v>       0.14990798      -0.32418867       0.15144025 </v>
   <v>       0.07418916      -0.39990786      -0.15143682 </v>
   <v>       0.07418867      -0.14990798       0.34855975 </v>
   <v>       0.32418916      -0.14990786       0.34856318 </v>
   <v>       0.14990798      -0.32418867      -0.34855975 </v>
   <v>      -0.10009214      -0.32418916      -0.34856318 </v>
   <v>      -0.28120913      -0.11205242      -0.00000252 </v>
   <v>      -0.03120913      -0.36205242      -0.00000252 </v>
   <v>       0.25531414      -0.36205521      -0.00001176 </v>
   <v>      -0.49468586      -0.11205521      -0.00001176 </v>
   <v>       0.25531414       0.13794479       0.49998824 </v>
   <v>       0.00531414      -0.11205521       0.49998824 </v>
   <v>       0.23705202       0.26294937      -0.49999897 </v>
   <v>      -0.01294798       0.01294937      -0.49999897 </v>
   <v>       0.48705088       0.26294823      -0.00000103 </v>
   <v>      -0.26294798       0.26294937       0.00000103 </v>
   <v>       0.23705088       0.01294823       0.49999897 </v>
   <v>      -0.01294912      -0.23705177       0.49999897 </v>
   <v>      -0.13794479      -0.00531414      -0.49998824 </v>
   <v>       0.11205521       0.24468586      -0.49998824 </v>
   <v>       0.39990798       0.42581133       0.15144025 </v>
   <v>       0.32418916       0.35009214      -0.15143682 </v>
   <v>      -0.10009202       0.42581133       0.15144025 </v>
   <v>      -0.17581084       0.35009214      -0.15143682 </v>
   <v>       0.11205242       0.03120913      -0.49999748 </v>
   <v>       0.36205242       0.28120913      -0.49999748 </v>
   <v>      -0.13794758      -0.21879087      -0.49999748 </v>
   <v>       0.19728994       0.47322095       0.34102293 </v>
   <v>       0.02677185       0.30270804      -0.34102632 </v>
   <v>      -0.47322815       0.30270804       0.15897368 </v>
   <v>       0.44728994       0.22322095      -0.15897707 </v>
   <v>      -0.22322095       0.30271006       0.15897707 </v>
   <v>      -0.30270804       0.22322815      -0.15897368 </v>
   <v>      -0.26294798      -0.23705063       0.00000103 </v>
   <v>       0.48705088      -0.23705177      -0.00000103 </v>
   <v>       0.11205521      -0.25531414      -0.49998824 </v>
   <v>       0.36205521      -0.00531414      -0.49998824 </v>
   <v>       0.39990798      -0.07418867      -0.34855975 </v>
   <v>      -0.42581084       0.10009214       0.34856318 </v>
   <v>      -0.17581133       0.10009202       0.34855975 </v>
   <v>      -0.35009214      -0.07418916      -0.34856318 </v>
   <v>       0.46879087       0.13794758       0.49999748 </v>
   <v>       0.21879087       0.38794758       0.49999748 </v>
   <v>       0.21879087      -0.11205242       0.49999748 </v>
   <v>      -0.03120913       0.13794758       0.49999748 </v>
   <v>      -0.47322815      -0.19729196       0.15897368 </v>
   <v>       0.44728994      -0.27677905      -0.15897707 </v>
   <v>      -0.30270804      -0.27677185      -0.15897368 </v>
   <v>      -0.22322095      -0.19728994       0.15897707 </v>
   <v>      -0.10009214      -0.32418916       0.15143682 </v>
   <v>       0.39990786      -0.32418916       0.15143682 </v>
   <v>      -0.17581133      -0.39990798      -0.15144025 </v>
   <v>       0.32418867      -0.39990798      -0.15144025 </v>
   <v>       0.19729196      -0.27677185       0.34102632 </v>
   <v>       0.02677905      -0.44728994      -0.34102293 </v>
   <v>      -0.28120913      -0.11205242       0.49999748 </v>
   <v>      -0.03120913      -0.36205242       0.49999748 </v>
   <v>       0.23705088      -0.48705177      -0.00000103 </v>
   <v>      -0.01294798      -0.48705063       0.00000103 </v>
   <v>       0.48705088       0.26294823       0.49999897 </v>
   <v>      -0.01294912       0.26294823       0.49999897 </v>
   <v>      -0.26294912       0.01294823       0.49999897 </v>
   <v>      -0.38794758       0.03120913       0.00000252 </v>
   <v>       0.11205242      -0.46879087       0.00000252 </v>
   <v>       0.48705202       0.01294937      -0.49999897 </v>
   <v>      -0.26294798      -0.23705063      -0.49999897 </v>
   <v>       0.23705202      -0.23705063      -0.49999897 </v>
   <v>       0.27677185      -0.44729196       0.15897368 </v>
   <v>       0.19728994       0.47322095      -0.15897707 </v>
   <v>       0.02677905      -0.44728994       0.15897707 </v>
   <v>      -0.05270804       0.47322815      -0.15897368 </v>
   <v>       0.27677905       0.30271006      -0.34102293 </v>
   <v>       0.44729196       0.47322815       0.34102632 </v>
   <v>      -0.22322095       0.30271006      -0.34102293 </v>
   <v>      -0.05270804       0.47322815       0.34102632 </v>
   <v>       0.36205521       0.49468586       0.00001176 </v>
   <v>      -0.13794479       0.49468586       0.00001176 </v>
   <v>      -0.35009202       0.17581133       0.15144025 </v>
   <v>      -0.42581084       0.10009214      -0.15143682 </v>
   <v>      -0.42581133       0.35009202       0.34855975 </v>
   <v>       0.39990786       0.17581084      -0.34856318 </v>
   <v>      -0.17581084       0.35009214       0.34856318 </v>
   <v>      -0.35009202       0.17581133      -0.34855975 </v>
   <v>      -0.24468586      -0.36205521      -0.00001176 </v>
   <v>      -0.49468586       0.38794479      -0.00001176 </v>
   <v>      -0.28120913       0.38794758      -0.00000252 </v>
   <v>       0.46879087      -0.36205242      -0.00000252 </v>
   <v>       0.00531414       0.38794479       0.49998824 </v>
   <v>      -0.24468586       0.13794479       0.49998824 </v>
   <v>      -0.35009214      -0.07418916       0.15143682 </v>
   <v>      -0.42581133      -0.14990798      -0.15144025 </v>
   <v>      -0.38794479       0.24468586       0.00001176 </v>
   <v>      -0.42581133      -0.14990798       0.34855975 </v>
   <v>      -0.17581084      -0.14990786       0.34856318 </v>
   <v>       0.39990786      -0.32418916      -0.34856318 </v>
   <v>      -0.35009202      -0.32418867      -0.34855975 </v>
   <v>       0.44728994      -0.27677905       0.34102293 </v>
   <v>       0.27677185      -0.44729196      -0.34102632 </v>
   <v>      -0.05271006      -0.27677905       0.34102293 </v>
   <v>      -0.22322815      -0.44729196      -0.34102632 </v>
   <v>      -0.49468586       0.38794479       0.49998824 </v>
   <v>      -0.24468586      -0.36205521       0.49998824 </v>
   <v>       0.23705088      -0.48705177       0.49999897 </v>
   <v>       0.36205521       0.49468586      -0.49998824 </v>
   <v>      -0.49468586      -0.11205521       0.49998824 </v>
   <v>       0.25531414      -0.36205521       0.49998824 </v>
   <v>      -0.38794479       0.24468586      -0.49998824 </v>
   <v>      -0.01294798      -0.48705063      -0.49999897 </v>
   <v>      -0.13794758       0.28120913      -0.49999748 </v>
   <v>       0.36205242      -0.21879087      -0.49999748 </v>
   <v>      -0.38794758       0.03120913      -0.49999748 </v>
   <v>       0.11205242      -0.46879087      -0.49999748 </v>
   <v>      -0.38794479      -0.25531414       0.00001176 </v>
   <v>       0.32418867      -0.39990798       0.34855975 </v>
   <v>       0.14990786       0.42581084      -0.34856318 </v>
   <v>       0.07418916      -0.39990786       0.34856318 </v>
   <v>      -0.10009202       0.42581133      -0.34855975 </v>
   <v>      -0.38794479      -0.25531414      -0.49998824 </v>
   <v>      -0.47322095       0.05271006      -0.34102293 </v>
   <v>      -0.30270804       0.22322815       0.34102632 </v>
   <v>      -0.47322815      -0.19729196      -0.34102632 </v>
   <v>      -0.30271006      -0.02677905       0.34102293 </v>
   <v>      -0.13794479       0.49468586      -0.49998824 </v>
   <v>       0.48705202      -0.48705063      -0.49999897 </v>
   <v>      -0.26294798       0.26294937      -0.49999897 </v>
   <v>       0.39990798       0.42581133      -0.34855975 </v>
   <v>       0.48705202      -0.48705063       0.00000103 </v>
   <v>      -0.26294912      -0.48705177      -0.00000103 </v>
   <v>      -0.47322815       0.30270804      -0.34102632 </v>
   <v>      -0.17581133      -0.39990798       0.34855975 </v>
   <v>      -0.30270804      -0.27677185       0.34102632 </v>
   <v>      -0.47322095      -0.44728994       0.15897707 </v>
   <v>       0.44729196       0.47322815      -0.15897368 </v>
   <v>      -0.30271006       0.47322095      -0.15897707 </v>
   <v>      -0.22322815      -0.44729196       0.15897368 </v>
   <v>       0.48705088      -0.23705177       0.49999897 </v>
   <v>      -0.26294912      -0.48705177       0.49999897 </v>
   <v>      -0.35009214       0.42581084       0.15143682 </v>
   <v>      -0.42581133       0.35009202      -0.15144025 </v>
   <v>      -0.35009202      -0.32418867       0.15144025 </v>
   <v>      -0.42581084      -0.39990786      -0.15143682 </v>
   <v>      -0.38794758      -0.46879087      -0.49999748 </v>
   <v>      -0.42581084      -0.39990786       0.34856318 </v>
   <v>      -0.35009214       0.42581084      -0.34856318 </v>
   <v>      -0.30271006       0.47322095       0.34102293 </v>
   <v>      -0.28120913       0.38794758       0.49999748 </v>
   <v>       0.46879087      -0.36205242       0.49999748 </v>
   <v>      -0.47322095      -0.44728994      -0.34102293 </v>
   <v>      -0.38794758      -0.46879087       0.00000252 </v>
  </varray>
 </structure>
 <varray name="primitive_index" >
  <v type="int" >        1 </v>
  <v type="int" >       69 </v>
  <v type="int" >       74 </v>
  <v type="int" >       97 </v>
  <v type="int" >      133 </v>
  <v type="int" >       63 </v>
  <v type="int" >       46 </v>
  <v type="int" >       55 </v>
  <v type="int" >       37 </v>
  <v type="int" >      169 </v>
  <v type="int" >      215 </v>
  <v type="int" >      161 </v>
  <v type="int" >      224 </v>
  <v type="int" >      115 </v>
  <v type="int" >      151 </v>
  <v type="int" >       17 </v>
  <v type="int" >       12 </v>
  <v type="int" >       11 </v>
  <v type="int" >       81 </v>
  <v type="int" >       94 </v>
  <v type="int" >       19 </v>
  <v type="int" >      185 </v>
  <v type="int" >      197 </v>
  <v type="int" >      177 </v>
  <v type="int" >      206 </v>
  <v type="int" >       96 </v>
  <v type="int" >       83 </v>
  <v type="int" >      105 </v>
  <v type="int" >      141 </v>
  <v type="int" >      106 </v>
  <v type="int" >      142 </v>
  <v type="int" >      165 </v>
  <v type="int" >      193 </v>
  <v type="int" >      123 </v>
  <v type="int" >      159 </v>
  <v type="int" >      124 </v>
  <v type="int" >      160 </v>
  <v type="int" >      137 </v>
  <v type="int" >      129 </v>
  <v type="int" >      119 </v>
  <v type="int" >      128 </v>
  <v type="int" >      211 </v>
  <v type="int" >      183 </v>
  <v type="int" >      199 </v>
  <v type="int" >      187 </v>
  <v type="int" >      179 </v>
  <v type="int" >      208 </v>
  <v type="int" >       25 </v>
  <v type="int" >       28 </v>
  <v type="int" >       26 </v>
  <v type="int" >       27 </v>
  <v type="int" >       38 </v>
  <v type="int" >       45 </v>
  <v type="int" >       53 </v>
  <v type="int" >       61 </v>
  <v type="int" >       73 </v>
  <v type="int" >       70 </v>
  <v type="int" >      113 </v>
  <v type="int" >      149 </v>
  <v type="int" >      101 </v>
  <v type="int" >      153 </v>
  <v type="int" >      145 </v>
  <v type="int" >      110 </v>
  <v type="int" >      201 </v>
  <v type="int" >      173 </v>
  <v type="int" >      202 </v>
  <v type="int" >      174 </v>
  <v type="int" >      162 </v>
  <v type="int" >      223 </v>
  <v type="int" >      216 </v>
  <v type="int" >      170 </v>
  <v type="int" >      219 </v>
  <v type="int" >      191 </v>
  <v type="int" >      220 </v>
  <v type="int" >      192 </v>
  <v type="int" >       99 </v>
  <v type="int" >      135 </v>
  <v type="int" >      147 </v>
  <v type="int" >      155 </v>
  <v type="int" >      103 </v>
  <v type="int" >      112 </v>
  <v type="int" >       56 </v>
  <v type="int" >       48 </v>
  <v type="int" >       39 </v>
  <v type="int" >       64 </v>
  <v type="int" >       33 </v>
  <v type="int" >       59 </v>
  <v type="int" >       85 </v>
  <v type="int" >       78 </v>
  <v type="int" >       93 </v>
  <v type="int" >       82 </v>
  <v type="int" >       65 </v>
  <v type="int" >       92 </v>
  <v type="int" >       16 </v>
  <v type="int" >       21 </v>
  <v type="int" >      121 </v>
  <v type="int" >      157 </v>
  <v type="int" >      122 </v>
  <v type="int" >      158 </v>
  <v type="int" >        5 </v>
  <v type="int" >       29 </v>
  <v type="int" >       32 </v>
  <v type="int" >      209 </v>
  <v type="int" >      181 </v>
  <v type="int" >      178 </v>
  <v type="int" >      205 </v>
  <v type="int" >      186 </v>
  <v type="int" >      198 </v>
  <v type="int" >       84 </v>
  <v type="int" >       95 </v>
  <v type="int" >       23 </v>
  <v type="int" >       15 </v>
  <v type="int" >      127 </v>
  <v type="int" >      130 </v>
  <v type="int" >      138 </v>
  <v type="int" >      120 </v>
  <v type="int" >       41 </v>
  <v type="int" >       49 </v>
  <v type="int" >       51 </v>
  <v type="int" >       42 </v>
  <v type="int" >      180 </v>
  <v type="int" >      207 </v>
  <v type="int" >      200 </v>
  <v type="int" >      188 </v>
  <v type="int" >      108 </v>
  <v type="int" >      107 </v>
  <v type="int" >      144 </v>
  <v type="int" >      143 </v>
  <v type="int" >      195 </v>
  <v type="int" >      167 </v>
  <v type="int" >       52 </v>
  <v type="int" >       44 </v>
  <v type="int" >       71 </v>
  <v type="int" >       76 </v>
  <v type="int" >       89 </v>
  <v type="int" >       90 </v>
  <v type="int" >       66 </v>
  <v type="int" >        2 </v>
  <v type="int" >        3 </v>
  <v type="int" >       77 </v>
  <v type="int" >       88 </v>
  <v type="int" >       87 </v>
  <v type="int" >      171 </v>
  <v type="int" >      213 </v>
  <v type="int" >      163 </v>
  <v type="int" >      222 </v>
  <v type="int" >      189 </v>
  <v type="int" >      217 </v>
  <v type="int" >      190 </v>
  <v type="int" >      218 </v>
  <v type="int" >        9 </v>
  <v type="int" >       10 </v>
  <v type="int" >       98 </v>
  <v type="int" >      134 </v>
  <v type="int" >      146 </v>
  <v type="int" >      109 </v>
  <v type="int" >      154 </v>
  <v type="int" >      102 </v>
  <v type="int" >       40 </v>
  <v type="int" >       62 </v>
  <v type="int" >       54 </v>
  <v type="int" >       47 </v>
  <v type="int" >       57 </v>
  <v type="int" >       34 </v>
  <v type="int" >      116 </v>
  <v type="int" >      152 </v>
  <v type="int" >       18 </v>
  <v type="int" >      148 </v>
  <v type="int" >      156 </v>
  <v type="int" >      111 </v>
  <v type="int" >      104 </v>
  <v type="int" >      203 </v>
  <v type="int" >      175 </v>
  <v type="int" >      204 </v>
  <v type="int" >      176 </v>
  <v type="int" >       58 </v>
  <v type="int" >       36 </v>
  <v type="int" >       67 </v>
  <v type="int" >       13 </v>
  <v type="int" >       60 </v>
  <v type="int" >       35 </v>
  <v type="int" >       22 </v>
  <v type="int" >       80 </v>
  <v type="int" >       30 </v>
  <v type="int" >       31 </v>
  <v type="int" >        6 </v>
  <v type="int" >        7 </v>
  <v type="int" >       20 </v>
  <v type="int" >      139 </v>
  <v type="int" >      117 </v>
  <v type="int" >      131 </v>
  <v type="int" >      126 </v>
  <v type="int" >       24 </v>
  <v type="int" >      166 </v>
  <v type="int" >      194 </v>
  <v type="int" >      184 </v>
  <v type="int" >      212 </v>
  <v type="int" >       14 </v>
  <v type="int" >       79 </v>
  <v type="int" >       86 </v>
  <v type="int" >      125 </v>
  <v type="int" >       75 </v>
  <v type="int" >       72 </v>
  <v type="int" >      182 </v>
  <v type="int" >      140 </v>
  <v type="int" >      196 </v>
  <v type="int" >      164 </v>
  <v type="int" >      221 </v>
  <v type="int" >      214 </v>
  <v type="int" >      172 </v>
  <v type="int" >       91 </v>
  <v type="int" >       68 </v>
  <v type="int" >      114 </v>
  <v type="int" >      150 </v>
  <v type="int" >      100 </v>
  <v type="int" >      136 </v>
  <v type="int" >        8 </v>
  <v type="int" >      132 </v>
  <v type="int" >      118 </v>
  <v type="int" >      210 </v>
  <v type="int" >       50 </v>
  <v type="int" >       43 </v>
  <v type="int" >      168 </v>
  <v type="int" >        4 </v>
 </varray>
 <kpoints>
  <generation param="Gamma">
   <v type="int" name="divisions">       2        2        2 </v>
   <v name="usershift">      0.00000000       0.00000000       0.00000000 </v>
   <v name="genvec1">      0.50000000      -0.00000000       0.00000000 </v>
   <v name="genvec2">     -0.00000000       0.50000000       0.00000000 </v>
   <v name="genvec3">     -0.00000000      -0.00000000       0.50000000 </v>
   <v name="shift">      0.00000000       0.00000000       0.00000000 </v>
  </generation>
  <varray name="kpointlist" >
   <v>       0.00000000       0.00000000       0.00000000 </v>
   <v>       0.50000000       0.00000000       0.00000000 </v>
   <v>       0.00000000       0.50000000       0.00000000 </v>
   <v>       0.50000000       0.50000000       0.00000000 </v>
   <v>       0.00000000      -0.00000000       0.50000000 </v>
   <v>       0.50000000       0.00000000       0.50000000 </v>
   <v>      -0.00000000       0.50000000       0.50000000 </v>
   <v>       0.50000000       0.50000000       0.50000000 </v>
  </varray>
  <varray name="weights" >
   <v>       0.12500000 </v>
   <v>       0.12500000 </v>
   <v>       0.12500000 </v>
   <v>       0.12500000 </v>
   <v>       0.12500000 </v>
   <v>       0.12500000 </v>
   <v>       0.12500000 </v>
   <v>       0.12500000 </v>
  </varray>
 </kpoints>
 <parameters>
  <separator name="general" >
   <i type="string" name="SYSTEM">unknown system</i>
   <i type="logical" name="LCOMPAT"> F  </i>
  </separator>
  <separator name="electronic" >
   <i type="string" name="PREC">accura</i>
   <i name="ENMAX">    650.00000000</i>
   <i name="ENAUG">    628.94500000</i>
   <i name="EDIFF">      0.00000100</i>
   <i type="int" name="IALGO">    58</i>
   <i type="int" name="IWAVPR">    10</i>
   <i type="int" name="NBANDS">  1208</i>
   <i name="NELECT">   1664.00000000</i>
   <i type="int" name="TURBO">     0</i>
   <i type="int" name="IRESTART">     0</i>
   <i type="int" name="NREBOOT">     0</i>
   <i type="int" name="NMIN">     0</i>
   <i name="EREF">      0.00000000</i>
   <separator name="electronic smearing" >
    <i type="int" name="ISMEAR">     0</i>
    <i name="SIGMA">      0.05000000</i>
    <i name="KSPACING">      0.50000000</i>
    <i type="logical" name="KGAMMA"> T  </i>
   </separator>
   <separator name="electronic projectors" >
    <i type="logical" name="LREAL"> F  </i>
    <v name="ROPT">      0.00000000      0.00000000      0.00000000      0.00000000</v>
    <i type="int" name="LMAXPAW">  -100</i>
    <i type="int" name="LMAXMIX">     4</i>
    <i type="logical" name="NLSPLINE"> F  </i>
   </separator>
   <separator name="electronic startup" >
    <i type="int" name="ISTART">     0</i>
    <i type="int" name="ICHARG">     1</i>
    <i type="int" name="INIWAV">     1</i>
   </separator>
   <separator name="electronic spin" >
    <i type="int" name="ISPIN">     2</i>
    <i type="logical" name="LNONCOLLINEAR"> F  </i>
    <v name="MAGMOM">      0.60000000      0.60000000      0.60000000      0.60000000      0.60000000      0.60000000      0.60000000      0.60000000      0.60000000      0.60000000      0.60000000      0.60000000      0.60000000      0.60000000      0.60000000      0.60000000      0.60000000      0.60000000      0.60000000      0.60000000
      0.60000000      0.60000000      0.60000000      0.60000000      0.60000000      0.60000000      0.60000000      0.60000000      0.60000000      0.60000000      0.60000000      0.60000000      0.60000000      0.60000000      0.60000000      0.60000000      0.60000000      0.60000000      0.60000000      0.60000000
      0.60000000      0.60000000      0.60000000      0.60000000      0.60000000      0.60000000      0.60000000      0.60000000      0.60000000      0.60000000      0.60000000      0.60000000      0.60000000      0.60000000      0.60000000      0.60000000      0.60000000      0.60000000      0.60000000      0.60000000
      0.60000000      0.60000000      0.60000000      0.60000000      0.60000000      0.60000000      0.60000000      0.60000000      0.60000000      0.60000000      0.60000000      0.60000000      0.60000000      0.60000000      0.60000000      0.60000000      0.60000000      0.60000000      0.60000000      0.60000000
      0.60000000      0.60000000      0.60000000      0.60000000      0.60000000      0.60000000      0.60000000      0.60000000      0.60000000      0.60000000      0.60000000      0.60000000      0.60000000      0.60000000      0.60000000      0.60000000      0.60000000      0.60000000      0.60000000      0.60000000
      0.60000000      0.60000000      0.60000000      0.60000000      0.60000000      0.60000000      0.60000000      0.60000000      0.60000000      0.60000000      0.60000000      0.60000000      0.60000000      0.60000000      0.60000000      0.60000000      0.60000000      0.60000000      0.60000000      0.60000000
      0.60000000      0.60000000      0.60000000      0.60000000      0.60000000      0.60000000      0.60000000      0.60000000      0.60000000      0.60000000      0.60000000      0.60000000      0.60000000      0.60000000      0.60000000      0.60000000      0.60000000      0.60000000      0.60000000      0.60000000
      0.60000000      0.60000000      0.60000000      0.60000000      0.60000000      0.60000000      0.60000000      0.60000000      0.60000000      0.60000000      0.60000000      0.60000000      0.60000000      0.60000000      0.60000000      0.60000000      0.60000000      0.60000000      0.60000000      0.60000000
      5.00000000      5.00000000      5.00000000      5.00000000      5.00000000      5.00000000      5.00000000      5.00000000      5.00000000      5.00000000      5.00000000      5.00000000      5.00000000      5.00000000      5.00000000      5.00000000      5.00000000      5.00000000      5.00000000      5.00000000
      5.00000000      5.00000000      5.00000000      5.00000000      5.00000000      5.00000000      5.00000000      5.00000000      5.00000000      5.00000000      5.00000000      5.00000000      5.00000000      5.00000000      5.00000000      5.00000000      5.00000000      5.00000000      5.00000000      5.00000000
      5.00000000      5.00000000      5.00000000      5.00000000      5.00000000      5.00000000      5.00000000      5.00000000      5.00000000      5.00000000      5.00000000      5.00000000      5.00000000      5.00000000      5.00000000      5.00000000      5.00000000      5.00000000      5.00000000      5.00000000
      5.00000000      5.00000000      5.00000000      5.00000000</v>
    <i name="NUPDOWN">     -1.00000000</i>
    <i type="logical" name="LSORBIT"> F  </i>
    <v name="SAXIS">      0.00000000      0.00000000      1.00000000</v>
    <i type="logical" name="LSPIRAL"> F  </i>
    <v name="QSPIRAL">      0.00000000      0.00000000      0.00000000</v>
    <i type="logical" name="LZEROZ"> F  </i>
   </separator>
   <separator name="electronic exchange-correlation" >
    <i type="logical" name="LASPH"> T  </i>
    <i type="logical" name="LMETAGGA"> F  </i>
   </separator>
   <separator name="electronic convergence" >
    <i type="int" name="NELM">   200</i>
    <i type="int" name="NELMDL">     0</i>
    <i type="int" name="NELMIN">     8</i>
    <i name="ENINI">    650.00000000</i>
    <separator name="electronic convergence detail" >
     <i type="logical" name="LDIAG"> T  </i>
     <i type="logical" name="LSUBROT"> F  </i>
     <i name="WEIMIN">      0.00000000</i>
     <i name="EBREAK">      0.00000000</i>
     <i name="DEPER">      0.30000000</i>
     <i type="int" name="NRMM">     4</i>
     <i name="TIME">      0.40000000</i>
    </separator>
   </separator>
   <separator name="electronic mixer" >
    <i name="AMIX">      0.40000000</i>
    <i name="BMIX">      1.00000000</i>
    <i name="AMIN">      0.10000000</i>
    <i name="AMIX_MAG">      1.60000000</i>
    <i name="BMIX_MAG">      1.00000000</i>
    <separator name="electronic mixer details" >
     <i type="int" name="IMIX">     4</i>
     <i type="logical" name="MIXFIRST"> F  </i>
     <i type="int" name="MAXMIX">   -45</i>
     <i name="WC">    100.00000000</i>
     <i type="int" name="INIMIX">     1</i>
     <i type="int" name="MIXPRE">     1</i>
     <i type="int" name="MREMOVE">     5</i>
    </separator>
   </separator>
   <separator name="electronic dipolcorrection" >
    <i type="logical" name="LDIPOL"> F  </i>
    <i type="logical" name="LMONO"> F  </i>
    <i type="int" name="IDIPOL">     0</i>
    <i name="EPSILON">      1.00000000</i>
    <v name="DIPOL">   -100.00000000   -100.00000000   -100.00000000</v>
    <i name="EFIELD">      0.00000000</i>
   </separator>
  </separator>
  <separator name="grids" >
   <i type="int" name="NGX">   128</i>
   <i type="int" name="NGY">   128</i>
   <i type="int" name="NGZ">   120</i>
   <i type="int" name="NGXF">   256</i>
   <i type="int" name="NGYF">   256</i>
   <i type="int" name="NGZF">   240</i>
   <i type="logical" name="ADDGRID"> T  </i>
  </separator>
  <separator name="ionic" >
   <i type="int" name="NSW">     0</i>
   <i type="int" name="IBRION">    -1</i>
   <i type="int" name="MDALGO">     0</i>
   <i type="int" name="ISIF">     2</i>
   <i name="PSTRESS">      0.00000000</i>
   <i name="EDIFFG">      0.00001000</i>
   <i type="int" name="NFREE">     0</i>
   <i name="POTIM">      0.50000000</i>
   <i name="SMASS">     -3.00000000</i>
   <i name="SCALEE">      1.00000000</i>
  </separator>
  <separator name="ionic md" >
   <i name="TEBEG">      0.00010000</i>
   <i name="TEEND">      0.00010000</i>
   <i type="int" name="NBLOCK">     1</i>
   <i type="int" name="KBLOCK">     1</i>
   <i type="int" name="NPACO">   256</i>
   <i name="APACO">     16.00000000</i>
  </separator>
  <separator name="symmetry" >
   <i type="int" name="ISYM">     0</i>
   <i name="SYMPREC">      0.00001000</i>
  </separator>
  <separator name="dos" >
   <i type="int" name="LORBIT">     0</i>
   <v name="RWIGS">     -1.00000000     -1.00000000     -1.00000000     -1.00000000</v>
   <i type="int" name="NEDOS">   301</i>
   <i name="EMIN">     10.00000000</i>
   <i name="EMAX">    -10.00000000</i>
   <i name="EFERMI">      0.00000000</i>
  </separator>
  <separator name="writing" >
   <i type="int" name="NWRITE">     1</i>
   <i type="logical" name="LWAVE"> F  </i>
   <i type="logical" name="LDOWNSAMPLE"> F  </i>
   <i type="logical" name="LCHARG"> T  </i>
   <i type="logical" name="LPARD"> F  </i>
   <i type="logical" name="LVTOT"> F  </i>
   <i type="logical" name="LVHAR"> F  </i>
   <i type="logical" name="LELF"> F  </i>
   <i type="logical" name="LOPTICS"> F  </i>
   <v name="STM">      0.00000000      0.00000000      0.00000000      0.00000000      0.00000000      0.00000000      0.00000000</v>
  </separator>
  <separator name="performance" >
   <i type="int" name="NPAR">     4</i>
   <i type="int" name="NSIM">     4</i>
   <i type="int" name="NBLK">    -1</i>
   <i type="logical" name="LPLANE"> T  </i>
   <i type="logical" name="LSCALAPACK"> T  </i>
   <i type="logical" name="LSCAAWARE"> F  </i>
   <i type="logical" name="LSCALU"> F  </i>
   <i type="logical" name="LASYNC"> F  </i>
   <i type="logical" name="LORBITALREAL"> F  </i>
  </separator>
  <separator name="miscellaneous" >
   <i type="int" name="IDIOT">     3</i>
   <i type="int" name="ISPECIAL">     0</i>
   <i type="logical" name="LMUSIC"> F  </i>
   <v name="POMASS">      7.01000000     16.00000000     32.06600000     55.84700000</v>
   <v name="DARWINR">      0.00000000      0.00000000      0.00000000      0.00000000</v>
   <v name="DARWINV">      1.00000000      1.00000000      1.00000000      1.00000000</v>
   <i type="logical" name="LCORR"> T  </i>
  </separator>
  <i type="logical" name="GGA_COMPAT"> T  </i>
  <i type="logical" name="LBERRY"> F  </i>
  <i type="int" name="ICORELEVEL">     0</i>
  <i type="logical" name="LDAU"> T  </i>
  <v type="int" name="LDAUTYPE">     2</v>
  <v type="int" name="LDAUL">    -1</v>
  <v name="LDAUU">      0.00000000</v>
  <v name="LDAUJ">      0.00000000</v>
  <i type="int" name="LDAUPRINT">     0</i>
  <i type="int" name="I_CONSTRAINED_M">     0</i>
  <separator name="electronic exchange-correlation" >
   <i type="string" name="GGA">PE</i>
   <i type="int" name="VOSKOWN">     0</i>
   <i type="logical" name="LHFCALC"> F  </i>
   <i type="string" name="PRECFOCK"></i>
   <i type="logical" name="LSYMGRAD"> F  </i>
   <i type="logical" name="LHFONE"> F  </i>
   <i type="logical" name="LRHFCALC"> F  </i>
   <i type="logical" name="LTHOMAS"> F  </i>
   <i type="logical" name="LMODELHF"> F  </i>
   <i name="ENCUT4O">     -1.00000000</i>
   <i type="int" name="EXXOEP">     0</i>
   <i type="int" name="FOURORBIT">     0</i>
   <i name="AEXX">      0.00000000</i>
   <i name="HFALPHA">      0.00000000</i>
   <i name="MCALPHA">      0.00000000</i>
   <i name="ALDAX">      1.00000000</i>
   <i name="AGGAX">      1.00000000</i>
   <i name="ALDAC">      1.00000000</i>
   <i name="AGGAC">      1.00000000</i>
   <i type="int" name="NKREDX">     1</i>
   <i type="int" name="NKREDY">     1</i>
   <i type="int" name="NKREDZ">     1</i>
   <i type="logical" name="SHIFTRED"> F  </i>
   <i type="logical" name="ODDONLY"> F  </i>
   <i type="logical" name="EVENONLY"> F  </i>
   <i type="int" name="LMAXFOCK">     0</i>
   <i type="int" name="NMAXFOCKAE">     0</i>
   <i type="logical" name="LFOCKAEDFT"> F  </i>
   <i name="HFSCREEN">      0.00000000</i>
   <i name="HFSCREENC">      0.00000000</i>
   <i type="int" name="NBANDSGWLOW">     0</i>
  </separator>
  <separator name="vdW DFT" >
   <i type="logical" name="LUSE_VDW"> F  </i>
   <i name="Zab_VDW">     -0.84910000</i>
   <i name="PARAM1">      0.12340000</i>
   <i name="PARAM2">      1.00000000</i>
   <i name="PARAM3">      0.00000000</i>
  </separator>
  <separator name="model GW" >
   <i type="int" name="MODEL_GW">     0</i>
   <i name="MODEL_EPS0">      8.14543266</i>
   <i name="MODEL_ALPHA">      1.00000000</i>
  </separator>
  <separator name="linear response parameters" >
   <i type="logical" name="LEPSILON"> F  </i>
   <i type="logical" name="LRPA"> F  </i>
   <i type="logical" name="LNABLA"> F  </i>
   <i type="logical" name="LVEL"> F  </i>
   <i type="int" name="KINTER">     0</i>
   <i name="CSHIFT">      0.10000000</i>
   <i name="OMEGAMAX">     -1.00000000</i>
   <i name="DEG_THRESHOLD">      0.00200000</i>
   <i name="RTIME">     -0.10000000</i>
   <i name="WPLASMAI">      0.00000000</i>
   <v name="DFIELD">      0.00000000      0.00000000      0.00000000</v>
   <v name="WPLASMA">      0.00000000      0.00000000      0.00000000      0.00000000      0.00000000      0.00000000      0.00000000      0.00000000      0.00000000</v>
  </separator>
  <separator name="orbital magnetization" >
   <i type="logical" name="NUCIND"> F  </i>
   <v name="MAGPOS">      0.00000000      0.00000000      0.00000000</v>
   <i type="logical" name="LNICSALL"> T  </i>
   <i type="logical" name="ORBITALMAG"> F  </i>
   <i type="logical" name="LMAGBLOCH"> F  </i>
   <i type="logical" name="LCHIMAG"> F  </i>
   <i type="logical" name="LGAUGE"> T  </i>
   <i type="int" name="MAGATOM">     0</i>
   <v name="MAGDIPOL">      0.00000000      0.00000000      0.00000000</v>
   <v name="AVECCONST">      0.00000000      0.00000000      0.00000000</v>
  </separator>
  <separator name="response functions" >
   <i type="logical" name="LADDER"> F  </i>
   <i type="logical" name="LRPAFORCE"> F  </i>
   <i type="logical" name="LFXC"> F  </i>
   <i type="logical" name="LHARTREE"> T  </i>
   <i type="int" name="IBSE">     0</i>
   <v type="int" name="KPOINT">    -1     0     0     0</v>
   <i type="logical" name="LTCTE"> F  </i>
   <i type="logical" name="LTETE"> F  </i>
   <i type="logical" name="LTRIPLET"> F  </i>
   <i type="logical" name="LFXCEPS"> F  </i>
   <i type="logical" name="LFXHEG"> F  </i>
   <i type="int" name="NATURALO">     2</i>
   <i type="logical" name="L2ORDER"> F  </i>
   <i type="logical" name="LMP2LT"> F  </i>
   <i type="logical" name="LUSEW"> F  </i>
   <i name="ENCUTGW">     -2.00000000</i>
   <i name="ENCUTGWSOFT">     -2.00000000</i>
   <i name="ENCUTLF">     -1.00000000</i>
   <i type="int" name="LMAXMP2">    -1</i>
   <i name="SCISSOR">      0.00000000</i>
   <i type="int" name="NOMEGA">     0</i>
   <i type="int" name="NOMEGAR">     0</i>
   <i type="int" name="NBANDSGW">    -1</i>
   <i type="int" name="NBANDSO">    -1</i>
   <i type="int" name="NBANDSV">    -1</i>
   <i type="int" name="NELM">   200</i>
   <i type="int" name="NELMHF">     1</i>
   <i type="int" name="DIM">     3</i>
   <i type="int" name="ANTIRES">     0</i>
   <i name="OMEGAMAX">    -30.00000000</i>
   <i name="OMEGAMIN">    -30.00000000</i>
   <i name="OMEGATL">   -200.00000000</i>
   <i type="int" name="OMEGAGRID">   140</i>
   <i name="CSHIFT">     -0.10000000</i>
   <i type="logical" name="SELFENERGY"> F  </i>
   <i type="logical" name="LSPECTRAL"> F  </i>
   <i type="logical" name="LSPECTRALGW"> F  </i>
   <i type="logical" name="LSINGLES"> F  </i>
   <i type="logical" name="LFERMIGW"> F  </i>
   <i type="logical" name="ODDONLYGW"> F  </i>
   <i type="logical" name="EVENONLYGW"> F  </i>
   <i type="int" name="NKREDLFX">     1</i>
   <i type="int" name="NKREDLFY">     1</i>
   <i type="int" name="NKREDLFZ">     1</i>
   <i type="int" name="MAXMEM">  2800</i>
   <i type="int" name="TELESCOPE">     0</i>
   <i type="int" name="TAUPAR">     1</i>
   <i type="int" name="OMEGAPAR">    -1</i>
   <i name="LAMBDA">      1.00000000</i>
  </separator>
  <separator name="External order field" >
   <i name="OFIELD_KAPPA">      0.00000000</i>
   <v name="OFIELD_K">      0.00000000      0.00000000      0.00000000</v>
   <i name="OFIELD_Q6_NEAR">      0.00000000</i>
   <i name="OFIELD_Q6_FAR">      0.00000000</i>
   <i name="OFIELD_A">      0.00000000</i>
  </separator>
 </parameters>
 <atominfo>
  <atoms>     224 </atoms>
  <types>       4 </types>
  <array name="atoms" >
   <dimension dim="1">ion</dimension>
   <field type="string">element</field>
   <field type="int">atomtype</field>
   <set>
    <rc><c>Li</c><c>   1</c></rc>
    <rc><c>Li</c><c>   1</c></rc>
    <rc><c>Li</c><c>   1</c></rc>
    <rc><c>Li</c><c>   1</c></rc>
    <rc><c>Li</c><c>   1</c></rc>
    <rc><c>Li</c><c>   1</c></rc>
    <rc><c>Li</c><c>   1</c></rc>
    <rc><c>Li</c><c>   1</c></rc>
    <rc><c>Li</c><c>   1</c></rc>
    <rc><c>Li</c><c>   1</c></rc>
    <rc><c>Li</c><c>   1</c></rc>
    <rc><c>Li</c><c>   1</c></rc>
    <rc><c>Li</c><c>   1</c></rc>
    <rc><c>Li</c><c>   1</c></rc>
    <rc><c>Li</c><c>   1</c></rc>
    <rc><c>Li</c><c>   1</c></rc>
    <rc><c>Li</c><c>   1</c></rc>
    <rc><c>Li</c><c>   1</c></rc>
    <rc><c>Li</c><c>   1</c></rc>
    <rc><c>Li</c><c>   1</c></rc>
    <rc><c>Li</c><c>   1</c></rc>
    <rc><c>Li</c><c>   1</c></rc>
    <rc><c>Li</c><c>   1</c></rc>
    <rc><c>Li</c><c>   1</c></rc>
    <rc><c>Li</c><c>   1</c></rc>
    <rc><c>Li</c><c>   1</c></rc>
    <rc><c>Li</c><c>   1</c></rc>
    <rc><c>Li</c><c>   1</c></rc>
    <rc><c>Li</c><c>   1</c></rc>
    <rc><c>Li</c><c>   1</c></rc>
    <rc><c>Li</c><c>   1</c></rc>
    <rc><c>Li</c><c>   1</c></rc>
    <rc><c>Li</c><c>   1</c></rc>
    <rc><c>Li</c><c>   1</c></rc>
    <rc><c>Li</c><c>   1</c></rc>
    <rc><c>Li</c><c>   1</c></rc>
    <rc><c>Li</c><c>   1</c></rc>
    <rc><c>Li</c><c>   1</c></rc>
    <rc><c>Li</c><c>   1</c></rc>
    <rc><c>Li</c><c>   1</c></rc>
    <rc><c>Li</c><c>   1</c></rc>
    <rc><c>Li</c><c>   1</c></rc>
    <rc><c>Li</c><c>   1</c></rc>
    <rc><c>Li</c><c>   1</c></rc>
    <rc><c>Li</c><c>   1</c></rc>
    <rc><c>Li</c><c>   1</c></rc>
    <rc><c>Li</c><c>   1</c></rc>
    <rc><c>Li</c><c>   1</c></rc>
    <rc><c>Li</c><c>   1</c></rc>
    <rc><c>Li</c><c>   1</c></rc>
    <rc><c>Li</c><c>   1</c></rc>
    <rc><c>Li</c><c>   1</c></rc>
    <rc><c>Li</c><c>   1</c></rc>
    <rc><c>Li</c><c>   1</c></rc>
    <rc><c>Li</c><c>   1</c></rc>
    <rc><c>Li</c><c>   1</c></rc>
    <rc><c>Li</c><c>   1</c></rc>
    <rc><c>Li</c><c>   1</c></rc>
    <rc><c>Li</c><c>   1</c></rc>
    <rc><c>Li</c><c>   1</c></rc>
    <rc><c>Li</c><c>   1</c></rc>
    <rc><c>Li</c><c>   1</c></rc>
    <rc><c>Li</c><c>   1</c></rc>
    <rc><c>Li</c><c>   1</c></rc>
    <rc><c>O </c><c>   2</c></rc>
    <rc><c>O </c><c>   2</c></rc>
    <rc><c>O </c><c>   2</c></rc>
    <rc><c>O </c><c>   2</c></rc>
    <rc><c>O </c><c>   2</c></rc>
    <rc><c>O </c><c>   2</c></rc>
    <rc><c>O </c><c>   2</c></rc>
    <rc><c>O </c><c>   2</c></rc>
    <rc><c>O </c><c>   2</c></rc>
    <rc><c>O </c><c>   2</c></rc>
    <rc><c>O </c><c>   2</c></rc>
    <rc><c>O </c><c>   2</c></rc>
    <rc><c>O </c><c>   2</c></rc>
    <rc><c>O </c><c>   2</c></rc>
    <rc><c>O </c><c>   2</c></rc>
    <rc><c>O </c><c>   2</c></rc>
    <rc><c>O </c><c>   2</c></rc>
    <rc><c>O </c><c>   2</c></rc>
    <rc><c>O </c><c>   2</c></rc>
    <rc><c>O </c><c>   2</c></rc>
    <rc><c>O </c><c>   2</c></rc>
    <rc><c>O </c><c>   2</c></rc>
    <rc><c>O </c><c>   2</c></rc>
    <rc><c>O </c><c>   2</c></rc>
    <rc><c>O </c><c>   2</c></rc>
    <rc><c>O </c><c>   2</c></rc>
    <rc><c>O </c><c>   2</c></rc>
    <rc><c>O </c><c>   2</c></rc>
    <rc><c>O </c><c>   2</c></rc>
    <rc><c>O </c><c>   2</c></rc>
    <rc><c>O </c><c>   2</c></rc>
    <rc><c>O </c><c>   2</c></rc>
    <rc><c>S </c><c>   3</c></rc>
    <rc><c>S </c><c>   3</c></rc>
    <rc><c>S </c><c>   3</c></rc>
    <rc><c>S </c><c>   3</c></rc>
    <rc><c>S </c><c>   3</c></rc>
    <rc><c>S </c><c>   3</c></rc>
    <rc><c>S </c><c>   3</c></rc>
    <rc><c>S </c><c>   3</c></rc>
    <rc><c>S </c><c>   3</c></rc>
    <rc><c>S </c><c>   3</c></rc>
    <rc><c>S </c><c>   3</c></rc>
    <rc><c>S </c><c>   3</c></rc>
    <rc><c>S </c><c>   3</c></rc>
    <rc><c>S </c><c>   3</c></rc>
    <rc><c>S </c><c>   3</c></rc>
    <rc><c>S </c><c>   3</c></rc>
    <rc><c>S </c><c>   3</c></rc>
    <rc><c>S </c><c>   3</c></rc>
    <rc><c>S </c><c>   3</c></rc>
    <rc><c>S </c><c>   3</c></rc>
    <rc><c>S </c><c>   3</c></rc>
    <rc><c>S </c><c>   3</c></rc>
    <rc><c>S </c><c>   3</c></rc>
    <rc><c>S </c><c>   3</c></rc>
    <rc><c>S </c><c>   3</c></rc>
    <rc><c>S </c><c>   3</c></rc>
    <rc><c>S </c><c>   3</c></rc>
    <rc><c>S </c><c>   3</c></rc>
    <rc><c>S </c><c>   3</c></rc>
    <rc><c>S </c><c>   3</c></rc>
    <rc><c>S </c><c>   3</c></rc>
    <rc><c>S </c><c>   3</c></rc>
    <rc><c>S </c><c>   3</c></rc>
    <rc><c>S </c><c>   3</c></rc>
    <rc><c>S </c><c>   3</c></rc>
    <rc><c>S </c><c>   3</c></rc>
    <rc><c>S </c><c>   3</c></rc>
    <rc><c>S </c><c>   3</c></rc>
    <rc><c>S </c><c>   3</c></rc>
    <rc><c>S </c><c>   3</c></rc>
    <rc><c>S </c><c>   3</c></rc>
    <rc><c>S </c><c>   3</c></rc>
    <rc><c>S </c><c>   3</c></rc>
    <rc><c>S </c><c>   3</c></rc>
    <rc><c>S </c><c>   3</c></rc>
    <rc><c>S </c><c>   3</c></rc>
    <rc><c>S </c><c>   3</c></rc>
    <rc><c>S </c><c>   3</c></rc>
    <rc><c>S </c><c>   3</c></rc>
    <rc><c>S </c><c>   3</c></rc>
    <rc><c>S </c><c>   3</c></rc>
    <rc><c>S </c><c>   3</c></rc>
    <rc><c>S </c><c>   3</c></rc>
    <rc><c>S </c><c>   3</c></rc>
    <rc><c>S </c><c>   3</c></rc>
    <rc><c>S </c><c>   3</c></rc>
    <rc><c>S </c><c>   3</c></rc>
    <rc><c>S </c><c>   3</c></rc>
    <rc><c>S </c><c>   3</c></rc>
    <rc><c>S </c><c>   3</c></rc>
    <rc><c>S </c><c>   3</c></rc>
    <rc><c>S </c><c>   3</c></rc>
    <rc><c>S </c><c>   3</c></rc>
    <rc><c>S </c><c>   3</c></rc>
    <rc><c>Fe</c><c>   4</c></rc>
    <rc><c>Fe</c><c>   4</c></rc>
    <rc><c>Fe</c><c>   4</c></rc>
    <rc><c>Fe</c><c>   4</c></rc>
    <rc><c>Fe</c><c>   4</c></rc>
    <rc><c>Fe</c><c>   4</c></rc>
    <rc><c>Fe</c><c>   4</c></rc>
    <rc><c>Fe</c><c>   4</c></rc>
    <rc><c>Fe</c><c>   4</c></rc>
    <rc><c>Fe</c><c>   4</c></rc>
    <rc><c>Fe</c><c>   4</c></rc>
    <rc><c>Fe</c><c>   4</c></rc>
    <rc><c>Fe</c><c>   4</c></rc>
    <rc><c>Fe</c><c>   4</c></rc>
    <rc><c>Fe</c><c>   4</c></rc>
    <rc><c>Fe</c><c>   4</c></rc>
    <rc><c>Fe</c><c>   4</c></rc>
    <rc><c>Fe</c><c>   4</c></rc>
    <rc><c>Fe</c><c>   4</c></rc>
    <rc><c>Fe</c><c>   4</c></rc>
    <rc><c>Fe</c><c>   4</c></rc>
    <rc><c>Fe</c><c>   4</c></rc>
    <rc><c>Fe</c><c>   4</c></rc>
    <rc><c>Fe</c><c>   4</c></rc>
    <rc><c>Fe</c><c>   4</c></rc>
    <rc><c>Fe</c><c>   4</c></rc>
    <rc><c>Fe</c><c>   4</c></rc>
    <rc><c>Fe</c><c>   4</c></rc>
    <rc><c>Fe</c><c>   4</c></rc>
    <rc><c>Fe</c><c>   4</c></rc>
    <rc><c>Fe</c><c>   4</c></rc>
    <rc><c>Fe</c><c>   4</c></rc>
    <rc><c>Fe</c><c>   4</c></rc>
    <rc><c>Fe</c><c>   4</c></rc>
    <rc><c>Fe</c><c>   4</c></rc>
    <rc><c>Fe</c><c>   4</c></rc>
    <rc><c>Fe</c><c>   4</c></rc>
    <rc><c>Fe</c><c>   4</c></rc>
    <rc><c>Fe</c><c>   4</c></rc>
    <rc><c>Fe</c><c>   4</c></rc>
    <rc><c>Fe</c><c>   4</c></rc>
    <rc><c>Fe</c><c>   4</c></rc>
    <rc><c>Fe</c><c>   4</c></rc>
    <rc><c>Fe</c><c>   4</c></rc>
    <rc><c>Fe</c><c>   4</c></rc>
    <rc><c>Fe</c><c>   4</c></rc>
    <rc><c>Fe</c><c>   4</c></rc>
    <rc><c>Fe</c><c>   4</c></rc>
    <rc><c>Fe</c><c>   4</c></rc>
    <rc><c>Fe</c><c>   4</c></rc>
    <rc><c>Fe</c><c>   4</c></rc>
    <rc><c>Fe</c><c>   4</c></rc>
    <rc><c>Fe</c><c>   4</c></rc>
    <rc><c>Fe</c><c>   4</c></rc>
    <rc><c>Fe</c><c>   4</c></rc>
    <rc><c>Fe</c><c>   4</c></rc>
    <rc><c>Fe</c><c>   4</c></rc>
    <rc><c>Fe</c><c>   4</c></rc>
    <rc><c>Fe</c><c>   4</c></rc>
    <rc><c>Fe</c><c>   4</c></rc>
    <rc><c>Fe</c><c>   4</c></rc>
    <rc><c>Fe</c><c>   4</c></rc>
    <rc><c>Fe</c><c>   4</c></rc>
    <rc><c>Fe</c><c>   4</c></rc>
   </set>
  </array>
  <array name="atomtypes" >
   <dimension dim="1">type</dimension>
   <field type="int">atomspertype</field>
   <field type="string">element</field>
   <field>mass</field>
   <field>valence</field>
   <field type="string">pseudopotential</field>
   <set>
    <rc><c>  64</c><c>Li</c><c>      7.01000000</c><c>      3.00000000</c><c>  PAW_PBE Li_sv 10Sep2004               </c></rc>
    <rc><c>  32</c><c>O </c><c>     16.00000000</c><c>      6.00000000</c><c>  PAW_PBE O 08Apr2002                   </c></rc>
    <rc><c>  64</c><c>S </c><c>     32.06600000</c><c>      6.00000000</c><c>  PAW_PBE S 06Sep2000                   </c></rc>
    <rc><c>  64</c><c>Fe</c><c>     55.84700000</c><c>     14.00000000</c><c>  PAW_PBE Fe_pv 02Aug2007               </c></rc>
   </set>
  </array>
 </atominfo>
 <structure name="initialpos" >
  <crystal>
   <varray name="basis" >
    <v>      15.37959744       0.00260798      -0.01267804 </v>
    <v>      -0.00277488      15.37961926      -0.01267806 </v>
    <v>      -3.83358824      -3.83493454      12.86275064 </v>
   </varray>
   <i name="volume">   3040.96152487 </i>
   <varray name="rec_basis" >
    <v>       0.06503719       0.00002772       0.01939182 </v>
    <v>       0.00000496       0.06503710       0.01939181 </v>
    <v>       0.00006411       0.00006413       0.07778210 </v>
   </varray>
  </crystal>
  <varray name="positions" >
   <v>       0.11205242       0.03120912       0.00000252 </v>
   <v>       0.61205242       0.03120912       0.00000252 </v>
   <v>       0.11205242       0.53120912       0.00000252 </v>
   <v>       0.61205242       0.53120912       0.00000252 </v>
   <v>       0.11205242       0.03120912       0.50000252 </v>
   <v>       0.61205242       0.03120912       0.50000252 </v>
   <v>       0.11205242       0.53120912       0.50000252 </v>
   <v>       0.61205242       0.53120912       0.50000252 </v>
   <v>       0.36205520       0.49468587       0.00001176 </v>
   <v>       0.86205520       0.49468587       0.00001176 </v>
   <v>       0.36205520       0.99468587       0.00001176 </v>
   <v>       0.86205520       0.99468587       0.00001176 </v>
   <v>       0.36205520       0.49468587       0.50001176 </v>
   <v>       0.86205520       0.49468587       0.50001176 </v>
   <v>       0.36205520       0.99468587       0.50001176 </v>
   <v>       0.86205520       0.99468587       0.50001176 </v>
   <v>       0.11205520       0.24468587       0.00001176 </v>
   <v>       0.61205520       0.24468587       0.00001176 </v>
   <v>       0.11205520       0.74468587       0.00001176 </v>
   <v>       0.61205520       0.74468587       0.00001176 </v>
   <v>       0.11205520       0.24468587       0.50001176 </v>
   <v>       0.61205520       0.24468587       0.50001176 </v>
   <v>       0.11205520       0.74468587       0.50001176 </v>
   <v>       0.61205520       0.74468587       0.50001176 </v>
   <v>       0.36205242       0.28120912       0.00000252 </v>
   <v>       0.86205242       0.28120912       0.00000252 </v>
   <v>       0.36205242       0.78120912       0.00000252 </v>
   <v>       0.86205242       0.78120912       0.00000252 </v>
   <v>       0.36205242       0.28120912       0.50000252 </v>
   <v>       0.86205242       0.28120912       0.50000252 </v>
   <v>       0.36205242       0.78120912       0.50000252 </v>
   <v>       0.86205242       0.78120912       0.50000252 </v>
   <v>       0.25531414       0.13794480       0.49998824 </v>
   <v>       0.75531414       0.13794480       0.49998824 </v>
   <v>       0.25531414       0.63794480       0.49998824 </v>
   <v>       0.75531414       0.63794480       0.49998824 </v>
   <v>       0.25531414       0.13794480       0.99998824 </v>
   <v>       0.75531414       0.13794480       0.99998824 </v>
   <v>       0.25531414       0.63794480       0.99998824 </v>
   <v>       0.75531414       0.63794480       0.99998824 </v>
   <v>       0.46879087       0.13794758       0.49999748 </v>
   <v>       0.96879087       0.13794758       0.49999748 </v>
   <v>       0.46879087       0.63794758       0.49999748 </v>
   <v>       0.96879087       0.63794758       0.49999748 </v>
   <v>       0.46879087       0.13794758       0.99999748 </v>
   <v>       0.96879087       0.13794758       0.99999748 </v>
   <v>       0.46879087       0.63794758       0.99999748 </v>
   <v>       0.96879087       0.63794758       0.99999748 </v>
   <v>       0.21879087       0.38794758       0.49999748 </v>
   <v>       0.71879087       0.38794758       0.49999748 </v>
   <v>       0.21879087       0.88794758       0.49999748 </v>
   <v>       0.71879087       0.88794758       0.49999748 </v>
   <v>       0.21879087       0.38794758       0.99999748 </v>
   <v>       0.71879087       0.38794758       0.99999748 </v>
   <v>       0.21879087       0.88794758       0.99999748 </v>
   <v>       0.71879087       0.88794758       0.99999748 </v>
   <v>       0.00531414       0.38794480       0.49998824 </v>
   <v>       0.50531414       0.38794480       0.49998824 </v>
   <v>       0.00531414       0.88794480       0.49998824 </v>
   <v>       0.50531414       0.88794480       0.49998824 </v>
   <v>       0.00531414       0.38794480       0.99998824 </v>
   <v>       0.50531414       0.38794480       0.99998824 </v>
   <v>       0.00531414       0.88794480       0.99998824 </v>
   <v>       0.50531414       0.88794480       0.99998824 </v>
   <v>       0.23705088       0.01294824       0.49999897 </v>
   <v>       0.73705088       0.01294824       0.49999897 </v>
   <v>       0.23705088       0.51294824       0.49999897 </v>
   <v>       0.73705088       0.51294824       0.49999897 </v>
   <v>       0.23705088       0.01294824       0.99999897 </v>
   <v>       0.73705088       0.01294824       0.99999897 </v>
   <v>       0.23705088       0.51294824       0.99999897 </v>
   <v>       0.73705088       0.51294824       0.99999897 </v>
   <v>       0.48705202       0.01294937       0.00000103 </v>
   <v>       0.98705202       0.01294937       0.00000103 </v>
   <v>       0.48705202       0.51294937       0.00000103 </v>
   <v>       0.98705202       0.51294937       0.00000103 </v>
   <v>       0.48705202       0.01294937       0.50000103 </v>
   <v>       0.98705202       0.01294937       0.50000103 </v>
   <v>       0.48705202       0.51294937       0.50000103 </v>
   <v>       0.98705202       0.51294937       0.50000103 </v>
   <v>       0.23705202       0.26294937       0.00000103 </v>
   <v>       0.73705202       0.26294937       0.00000103 </v>
   <v>       0.23705202       0.76294937       0.00000103 </v>
   <v>       0.73705202       0.76294937       0.00000103 </v>
   <v>       0.23705202       0.26294937       0.50000103 </v>
   <v>       0.73705202       0.26294937       0.50000103 </v>
   <v>       0.23705202       0.76294937       0.50000103 </v>
   <v>       0.73705202       0.76294937       0.50000103 </v>
   <v>       0.48705088       0.26294824       0.49999897 </v>
   <v>       0.98705088       0.26294824       0.49999897 </v>
   <v>       0.48705088       0.76294824       0.49999897 </v>
   <v>       0.98705088       0.76294824       0.49999897 </v>
   <v>       0.48705088       0.26294824       0.99999897 </v>
   <v>       0.98705088       0.26294824       0.99999897 </v>
   <v>       0.48705088       0.76294824       0.99999897 </v>
   <v>       0.98705088       0.76294824       0.99999897 </v>
   <v>       0.14990797       0.17581133       0.15144025 </v>
   <v>       0.64990797       0.17581133       0.15144025 </v>
   <v>       0.14990797       0.67581133       0.15144025 </v>
   <v>       0.64990797       0.67581133       0.15144025 </v>
   <v>       0.14990797       0.17581133       0.65144025 </v>
   <v>       0.64990797       0.17581133       0.65144025 </v>
   <v>       0.14990797       0.67581133       0.65144025 </v>
   <v>       0.64990797       0.67581133       0.65144025 </v>
   <v>       0.39990786       0.17581084       0.15143681 </v>
   <v>       0.89990786       0.17581084       0.15143681 </v>
   <v>       0.39990786       0.67581084       0.15143681 </v>
   <v>       0.89990786       0.67581084       0.15143681 </v>
   <v>       0.39990786       0.17581084       0.65143681 </v>
   <v>       0.89990786       0.17581084       0.65143681 </v>
   <v>       0.39990786       0.67581084       0.65143681 </v>
   <v>       0.89990786       0.67581084       0.65143681 </v>
   <v>       0.14990786       0.42581084       0.15143681 </v>
   <v>       0.64990786       0.42581084       0.15143681 </v>
   <v>       0.14990786       0.92581084       0.15143681 </v>
   <v>       0.64990786       0.92581084       0.15143681 </v>
   <v>       0.14990786       0.42581084       0.65143681 </v>
   <v>       0.64990786       0.42581084       0.65143681 </v>
   <v>       0.14990786       0.92581084       0.65143681 </v>
   <v>       0.64990786       0.92581084       0.65143681 </v>
   <v>       0.39990797       0.42581133       0.15144025 </v>
   <v>       0.89990797       0.42581133       0.15144025 </v>
   <v>       0.39990797       0.92581133       0.15144025 </v>
   <v>       0.89990797       0.92581133       0.15144025 </v>
   <v>       0.39990797       0.42581133       0.65144025 </v>
   <v>       0.89990797       0.42581133       0.65144025 </v>
   <v>       0.39990797       0.92581133       0.65144025 </v>
   <v>       0.89990797       0.92581133       0.65144025 </v>
   <v>       0.07418916       0.10009214       0.34856319 </v>
   <v>       0.57418916       0.10009214       0.34856319 </v>
   <v>       0.07418916       0.60009214       0.34856319 </v>
   <v>       0.57418916       0.60009214       0.34856319 </v>
   <v>       0.07418916       0.10009214       0.84856319 </v>
   <v>       0.57418916       0.10009214       0.84856319 </v>
   <v>       0.07418916       0.60009214       0.84856319 </v>
   <v>       0.57418916       0.60009214       0.84856319 </v>
   <v>       0.32418867       0.10009203       0.34855975 </v>
   <v>       0.82418867       0.10009203       0.34855975 </v>
   <v>       0.32418867       0.60009203       0.34855975 </v>
   <v>       0.82418867       0.60009203       0.34855975 </v>
   <v>       0.32418867       0.10009203       0.84855975 </v>
   <v>       0.82418867       0.10009203       0.84855975 </v>
   <v>       0.32418867       0.60009203       0.84855975 </v>
   <v>       0.82418867       0.60009203       0.84855975 </v>
   <v>       0.07418867       0.35009203       0.34855975 </v>
   <v>       0.57418867       0.35009203       0.34855975 </v>
   <v>       0.07418867       0.85009203       0.34855975 </v>
   <v>       0.57418867       0.85009203       0.34855975 </v>
   <v>       0.07418867       0.35009203       0.84855975 </v>
   <v>       0.57418867       0.35009203       0.84855975 </v>
   <v>       0.07418867       0.85009203       0.84855975 </v>
   <v>       0.57418867       0.85009203       0.84855975 </v>
   <v>       0.32418916       0.35009214       0.34856319 </v>
   <v>       0.82418916       0.35009214       0.34856319 </v>
   <v>       0.32418916       0.85009214       0.34856319 </v>
   <v>       0.82418916       0.85009214       0.34856319 </v>
   <v>       0.32418916       0.35009214       0.84856319 </v>
   <v>       0.82418916       0.35009214       0.84856319 </v>
   <v>       0.32418916       0.85009214       0.84856319 </v>
   <v>       0.82418916       0.85009214       0.84856319 </v>
   <v>       0.02677905       0.05271006       0.15897707 </v>
   <v>       0.52677905       0.05271006       0.15897707 </v>
   <v>       0.02677905       0.55271006       0.15897707 </v>
   <v>       0.52677905       0.55271006       0.15897707 </v>
   <v>       0.02677905       0.05271006       0.65897707 </v>
   <v>       0.52677905       0.05271006       0.65897707 </v>
   <v>       0.02677905       0.55271006       0.65897707 </v>
   <v>       0.52677905       0.55271006       0.65897707 </v>
   <v>       0.27677185       0.05335825       0.15897368 </v>
   <v>       0.77677185       0.05270804       0.15897368 </v>
   <v>       0.27677185       0.55270804       0.15897368 </v>
   <v>       0.77677185       0.55270804       0.15897368 </v>
   <v>       0.27677185       0.05270804       0.65897368 </v>
   <v>       0.77677185       0.05270804       0.65897368 </v>
   <v>       0.27677185       0.55270804       0.65897368 </v>
   <v>       0.77677185       0.55270804       0.65897368 </v>
   <v>       0.02677185       0.30270804       0.15897368 </v>
   <v>       0.52677185       0.30270804       0.15897368 </v>
   <v>       0.02677185       0.80270804       0.15897368 </v>
   <v>       0.52677185       0.80270804       0.15897368 </v>
   <v>       0.02677185       0.30270804       0.65897368 </v>
   <v>       0.52677185       0.30270804       0.65897368 </v>
   <v>       0.02677185       0.80270804       0.65897368 </v>
   <v>       0.52677185       0.80270804       0.65897368 </v>
   <v>       0.27677905       0.30271006       0.15897707 </v>
   <v>       0.77677905       0.30271006       0.15897707 </v>
   <v>       0.27677905       0.80271006       0.15897707 </v>
   <v>       0.77677905       0.80271006       0.15897707 </v>
   <v>       0.27677905       0.30271006       0.65897707 </v>
   <v>       0.77677905       0.30271006       0.65897707 </v>
   <v>       0.27677905       0.80271006       0.65897707 </v>
   <v>       0.77677905       0.80271006       0.65897707 </v>
   <v>       0.19729196       0.22322815       0.34102632 </v>
   <v>       0.69729196       0.22322815       0.34102632 </v>
   <v>       0.19729196       0.72322815       0.34102632 </v>
   <v>       0.69729196       0.72322815       0.34102632 </v>
   <v>       0.19729196       0.22322815       0.84102632 </v>
   <v>       0.69729196       0.22322815       0.84102632 </v>
   <v>       0.19729196       0.72322815       0.84102632 </v>
   <v>       0.69729196       0.72322815       0.84102632 </v>
   <v>       0.44728994       0.22322095       0.34102293 </v>
   <v>       0.94728994       0.22322095       0.34102293 </v>
   <v>       0.44728994       0.72322095       0.34102293 </v>
   <v>       0.94728994       0.72322095       0.34102293 </v>
   <v>       0.44728994       0.22322095       0.84102293 </v>
   <v>       0.94728994       0.22322095       0.84102293 </v>
   <v>       0.44728994       0.72322095       0.84102293 </v>
   <v>       0.94728994       0.72322095       0.84102293 </v>
   <v>       0.19728994       0.47322095       0.34102293 </v>
   <v>       0.69728994       0.47322095       0.34102293 </v>
   <v>       0.19728994       0.97322095       0.34102293 </v>
   <v>       0.69728994       0.97322095       0.34102293 </v>
   <v>       0.19728994       0.47322095       0.84102293 </v>
   <v>       0.69728994       0.47322095       0.84102293 </v>
   <v>       0.19728994       0.97322095       0.84102293 </v>
   <v>       0.69728994       0.97322095       0.84102293 </v>
   <v>       0.44729196       0.47322815       0.34102632 </v>
   <v>       0.94729196       0.47322815       0.34102632 </v>
   <v>       0.44729196       0.97322815       0.34102632 </v>
   <v>       0.94729196       0.97322815       0.34102632 </v>
   <v>       0.44729196       0.47322815       0.84102632 </v>
   <v>       0.94729196       0.47322815       0.84102632 </v>
   <v>       0.44729196       0.97322815       0.84102632 </v>
   <v>       0.94729196       0.97322815       0.84102632 </v>
  </varray>
 </structure>
 <calculation>
  <scstep>
   <time name="total"> 1447.99 1475.63</time>
   <energy>
    <i name="alphaZ">   4690.73086636 </i>
    <i name="ewald">-123171.29270555 </i>
    <i name="hartreedc"> -61831.89287708 </i>
    <i name="XCdc">   7068.09060039 </i>
    <i name="pawpsdc"> 195670.66238119 </i>
    <i name="pawaedc">-201814.61936820 </i>
    <i name="eentropy">     -0.03771706 </i>
    <i name="bandstr">    135.60537302 </i>
    <i name="atom"> 201805.03006389 </i>
    <i name="e_fr_energy">  22552.27661696 </i>
    <i name="e_wo_entrp">  22552.31433402 </i>
    <i name="e_0_energy">  22552.29547549 </i>
   </energy>
  </scstep>
  <scstep>
   <time name="total"> 1394.51 1421.68</time>
   <energy>
    <i name="e_fr_energy">   2472.67902151 </i>
    <i name="e_wo_entrp">   2472.81885846 </i>
    <i name="e_0_energy">   2472.74893999 </i>
   </energy>
  </scstep>
  <scstep>
   <time name="total"> 1496.44 1527.02</time>
   <energy>
    <i name="e_fr_energy">   -727.38408206 </i>
    <i name="e_wo_entrp">   -727.38408206 </i>
    <i name="e_0_energy">   -727.38408206 </i>
   </energy>
  </scstep>
  <scstep>
   <time name="total"> 1618.10 1650.13</time>
   <energy>
    <i name="e_fr_energy">  -1122.34939116 </i>
    <i name="e_wo_entrp">  -1122.34939116 </i>
    <i name="e_0_energy">  -1122.34939116 </i>
   </energy>
  </scstep>
  <scstep>
   <time name="total"> 2192.85 2238.69</time>
   <energy>
    <i name="e_fr_energy">  -1167.87134798 </i>
    <i name="e_wo_entrp">  -1167.87134798 </i>
    <i name="e_0_energy">  -1167.87134798 </i>
   </energy>
  </scstep>
  <scstep>
   <time name="total">  815.89  897.88</time>
   <energy>
    <i name="e_fr_energy">  -1167.77151891 </i>
    <i name="e_wo_entrp">  -1167.77151891 </i>
    <i name="e_0_energy">  -1167.77151891 </i>
   </energy>
  </scstep>
  <scstep>
   <time name="total">  780.94  796.20</time>
   <energy>
    <i name="e_fr_energy">  -1168.79296997 </i>
    <i name="e_wo_entrp">  -1168.79296997 </i>
    <i name="e_0_energy">  -1168.79296997 </i>
   </energy>
  </scstep>
  <scstep>
   <time name="total">  777.05  792.25</time>
   <energy>
    <i name="e_fr_energy">  -1169.42115078 </i>
    <i name="e_wo_entrp">  -1169.42115078 </i>
    <i name="e_0_energy">  -1169.42115078 </i>
   </energy>
  </scstep>
  <scstep>
   <time name="total">  779.02  793.90</time>
   <energy>
    <i name="e_fr_energy">  -1169.66731652 </i>
    <i name="e_wo_entrp">  -1169.66731652 </i>
    <i name="e_0_energy">  -1169.66731652 </i>
   </energy>
  </scstep>
  <scstep>
   <time name="total">  780.85  795.21</time>
   <energy>
    <i name="e_fr_energy">  -1169.76192087 </i>
    <i name="e_wo_entrp">  -1169.76192087 </i>
    <i name="e_0_energy">  -1169.76192087 </i>
   </energy>
  </scstep>
  <scstep>
   <time name="total">  780.91  795.53</time>
   <energy>
    <i name="e_fr_energy">  -1169.79836080 </i>
    <i name="e_wo_entrp">  -1169.79836080 </i>
    <i name="e_0_energy">  -1169.79836080 </i>
   </energy>
  </scstep>
  <scstep>
   <time name="total">  779.49  795.05</time>
   <energy>
    <i name="e_fr_energy">  -1169.80955910 </i>
    <i name="e_wo_entrp">  -1169.80955910 </i>
    <i name="e_0_energy">  -1169.80955910 </i>
   </energy>
  </scstep>
  <scstep>
   <time name="total">  780.22  794.67</time>
   <energy>
    <i name="e_fr_energy">  -1169.81496978 </i>
    <i name="e_wo_entrp">  -1169.81496978 </i>
    <i name="e_0_energy">  -1169.81496978 </i>
   </energy>
  </scstep>
  <scstep>
   <time name="total">  780.38  795.37</time>
   <energy>
    <i name="e_fr_energy">  -1169.81819356 </i>
    <i name="e_wo_entrp">  -1169.81819356 </i>
    <i name="e_0_energy">  -1169.81819356 </i>
   </energy>
  </scstep>
  <scstep>
   <time name="total">  787.22  794.10</time>
   <energy>
    <i name="e_fr_energy">  -1169.82017228 </i>
    <i name="e_wo_entrp">  -1169.82017228 </i>
    <i name="e_0_energy">  -1169.82017228 </i>
   </energy>
  </scstep>
  <scstep>
   <time name="total">  787.49  795.03</time>
   <energy>
    <i name="e_fr_energy">  -1169.82126100 </i>
    <i name="e_wo_entrp">  -1169.82126100 </i>
    <i name="e_0_energy">  -1169.82126100 </i>
   </energy>
  </scstep>
  <scstep>
   <time name="total">  786.75  794.44</time>
   <energy>
    <i name="e_fr_energy">  -1169.82188271 </i>
    <i name="e_wo_entrp">  -1169.82188271 </i>
    <i name="e_0_energy">  -1169.82188271 </i>
   </energy>
  </scstep>
  <scstep>
   <time name="total">  784.80  793.16</time>
   <energy>
    <i name="e_fr_energy">  -1169.82226558 </i>
    <i name="e_wo_entrp">  -1169.82226558 </i>
    <i name="e_0_energy">  -1169.82226558 </i>
   </energy>
  </scstep>
  <scstep>
   <time name="total">  786.10  794.11</time>
   <energy>
    <i name="e_fr_energy">  -1169.82256281 </i>
    <i name="e_wo_entrp">  -1169.82256281 </i>
    <i name="e_0_energy">  -1169.82256281 </i>
   </energy>
  </scstep>
  <scstep>
   <time name="total">  786.67  793.87</time>
   <energy>
    <i name="e_fr_energy">  -1169.82275793 </i>
    <i name="e_wo_entrp">  -1169.82275793 </i>
    <i name="e_0_energy">  -1169.82275793 </i>
   </energy>
  </scstep>
  <scstep>
   <time name="total">  786.30  794.02</time>
   <energy>
    <i name="e_fr_energy">  -1169.82285616 </i>
    <i name="e_wo_entrp">  -1169.82285616 </i>
    <i name="e_0_energy">  -1169.82285616 </i>
   </energy>
  </scstep>
  <scstep>
   <time name="total">  784.60  791.87</time>
   <energy>
    <i name="e_fr_energy">  -1169.82290271 </i>
    <i name="e_wo_entrp">  -1169.82290271 </i>
    <i name="e_0_energy">  -1169.82290271 </i>
   </energy>
  </scstep>
  <scstep>
   <time name="total">  784.73  793.27</time>
   <energy>
    <i name="e_fr_energy">  -1169.82293250 </i>
    <i name="e_wo_entrp">  -1169.82293250 </i>
    <i name="e_0_energy">  -1169.82293250 </i>
   </energy>
  </scstep>
  <scstep>
   <time name="total">  784.14  792.53</time>
   <energy>
    <i name="e_fr_energy">  -1169.82294998 </i>
    <i name="e_wo_entrp">  -1169.82294998 </i>
    <i name="e_0_energy">  -1169.82294998 </i>
   </energy>
  </scstep>
  <scstep>
   <time name="total">  782.69  791.50</time>
   <energy>
    <i name="e_fr_energy">  -1169.82295965 </i>
    <i name="e_wo_entrp">  -1169.82295965 </i>
    <i name="e_0_energy">  -1169.82295965 </i>
   </energy>
  </scstep>
  <scstep>
   <time name="total">  783.27  791.52</time>
   <energy>
    <i name="e_fr_energy">  -1169.82296683 </i>
    <i name="e_wo_entrp">  -1169.82296683 </i>
    <i name="e_0_energy">  -1169.82296683 </i>
   </energy>
  </scstep>
  <scstep>
   <time name="total">  786.47  794.54</time>
   <energy>
    <i name="e_fr_energy">  -1169.82297320 </i>
    <i name="e_wo_entrp">  -1169.82297320 </i>
    <i name="e_0_energy">  -1169.82297320 </i>
   </energy>
  </scstep>
  <scstep>
   <time name="total">  784.91  793.20</time>
   <energy>
    <i name="e_fr_energy">  -1169.82297789 </i>
    <i name="e_wo_entrp">  -1169.82297789 </i>
    <i name="e_0_energy">  -1169.82297789 </i>
   </energy>
  </scstep>
  <scstep>
   <time name="total">  784.15  792.06</time>
   <energy>
    <i name="e_fr_energy">  -1169.82298097 </i>
    <i name="e_wo_entrp">  -1169.82298097 </i>
    <i name="e_0_energy">  -1169.82298097 </i>
   </energy>
  </scstep>
  <scstep>
   <time name="total">  783.57  791.63</time>
   <energy>
    <i name="e_fr_energy">  -1169.82298393 </i>
    <i name="e_wo_entrp">  -1169.82298393 </i>
    <i name="e_0_energy">  -1169.82298393 </i>
   </energy>
  </scstep>
  <scstep>
   <time name="total">  784.03  791.69</time>
   <energy>
    <i name="e_fr_energy">  -1169.82298625 </i>
    <i name="e_wo_entrp">  -1169.82298625 </i>
    <i name="e_0_energy">  -1169.82298625 </i>
   </energy>
  </scstep>
  <scstep>
   <time name="total">  783.48  792.58</time>
   <energy>
    <i name="e_fr_energy">  -1169.82298792 </i>
    <i name="e_wo_entrp">  -1169.82298792 </i>
    <i name="e_0_energy">  -1169.82298792 </i>
   </energy>
  </scstep>
  <scstep>
   <time name="total">  786.25  793.55</time>
   <energy>
    <i name="e_fr_energy">  -1169.82298930 </i>
    <i name="e_wo_entrp">  -1169.82298930 </i>
    <i name="e_0_energy">  -1169.82298930 </i>
   </energy>
  </scstep>
  <scstep>
   <time name="total">  860.35  871.25</time>
   <energy>
    <i name="alphaZ">   4690.73086636 </i>
    <i name="ewald">-123171.29270555 </i>
    <i name="hartreedc"> -61831.85262758 </i>
    <i name="XCdc">   7068.08832143 </i>
    <i name="pawpsdc"> 195671.00686366 </i>
    <i name="pawaedc">-201814.95894438 </i>
    <i name="eentropy">     -0.00000000 </i>
    <i name="bandstr"> -23586.57482803 </i>
    <i name="atom"> 201805.03006389 </i>
    <i name="e_fr_energy">  -1169.82299021 </i>
    <i name="e_wo_entrp">  -1169.82299021 </i>
    <i name="e_0_energy">  -1169.82299021 </i>
   </energy>
  </scstep>
  <structure>
   <crystal>
    <varray name="basis" >
     <v>      15.37959744       0.00260798      -0.01267804 </v>
     <v>      -0.00277488      15.37961926      -0.01267806 </v>
     <v>      -3.83358824      -3.83493454      12.86275064 </v>
    </varray>
    <i name="volume">   3040.96152487 </i>
    <varray name="rec_basis" >
     <v>       0.06503719       0.00002772       0.01939182 </v>
     <v>       0.00000496       0.06503710       0.01939181 </v>
     <v>       0.00006411       0.00006413       0.07778210 </v>
    </varray>
   </crystal>
   <varray name="positions" >
    <v>       0.11205242       0.03120912       0.00000252 </v>
    <v>       0.61205242       0.03120912       0.00000252 </v>
    <v>       0.11205242       0.53120912       0.00000252 </v>
    <v>       0.61205242       0.53120912       0.00000252 </v>
    <v>       0.11205242       0.03120912       0.50000252 </v>
    <v>       0.61205242       0.03120912       0.50000252 </v>
    <v>       0.11205242       0.53120912       0.50000252 </v>
    <v>       0.61205242       0.53120912       0.50000252 </v>
    <v>       0.36205520       0.49468587       0.00001176 </v>
    <v>       0.86205520       0.49468587       0.00001176 </v>
    <v>       0.36205520       0.99468587       0.00001176 </v>
    <v>       0.86205520       0.99468587       0.00001176 </v>
    <v>       0.36205520       0.49468587       0.50001176 </v>
    <v>       0.86205520       0.49468587       0.50001176 </v>
    <v>       0.36205520       0.99468587       0.50001176 </v>
    <v>       0.86205520       0.99468587       0.50001176 </v>
    <v>       0.11205520       0.24468587       0.00001176 </v>
    <v>       0.61205520       0.24468587       0.00001176 </v>
    <v>       0.11205520       0.74468587       0.00001176 </v>
    <v>       0.61205520       0.74468587       0.00001176 </v>
    <v>       0.11205520       0.24468587       0.50001176 </v>
    <v>       0.61205520       0.24468587       0.50001176 </v>
    <v>       0.11205520       0.74468587       0.50001176 </v>
    <v>       0.61205520       0.74468587       0.50001176 </v>
    <v>       0.36205242       0.28120912       0.00000252 </v>
    <v>       0.86205242       0.28120912       0.00000252 </v>
    <v>       0.36205242       0.78120912       0.00000252 </v>
    <v>       0.86205242       0.78120912       0.00000252 </v>
    <v>       0.36205242       0.28120912       0.50000252 </v>
    <v>       0.86205242       0.28120912       0.50000252 </v>
    <v>       0.36205242       0.78120912       0.50000252 </v>
    <v>       0.86205242       0.78120912       0.50000252 </v>
[...]
       <r>    -7.3027    22.4606   294.1069 </r>
       <r>    -7.0623    31.1176   301.5876 </r>
       <r>    -6.8219    48.9314   313.3507 </r>
       <r>    -6.5815   138.9864   346.7631 </r>
       <r>    -6.3411    21.7841   352.0000 </r>
       <r>    -6.1007     0.0000   352.0000 </r>
       <r>    -5.8603     0.0000   352.0000 </r>
       <r>    -5.6199     0.0000   352.0000 </r>
       <r>    -5.3795     0.0000   352.0000 </r>
       <r>    -5.1391     0.0000   352.0000 </r>
       <r>    -4.8987     0.0000   352.0000 </r>
       <r>    -4.6583     0.0000   352.0000 </r>
       <r>    -4.4179     0.0000   352.0000 </r>
       <r>    -4.1775     0.0000   352.0000 </r>
       <r>    -3.9371     0.0000   352.0000 </r>
       <r>    -3.6967     0.0000   352.0000 </r>
       <r>    -3.4563     0.0000   352.0000 </r>
       <r>    -3.2159     0.0000   352.0000 </r>
       <r>    -2.9755     0.0000   352.0000 </r>
       <r>    -2.7351     0.0000   352.0000 </r>
       <r>    -2.4947     0.0000   352.0000 </r>
       <r>    -2.2543     0.0000   352.0000 </r>
       <r>    -2.0139     0.0000   352.0000 </r>
       <r>    -1.7735     0.0000   352.0000 </r>
       <r>    -1.5331     0.0000   352.0000 </r>
       <r>    -1.2927     0.0000   352.0000 </r>
       <r>    -1.0523     0.0000   352.0000 </r>
       <r>    -0.8119     0.0000   352.0000 </r>
       <r>    -0.5715     0.0000   352.0000 </r>
       <r>    -0.3311     4.1701   353.0025 </r>
       <r>    -0.0907    24.6043   358.9174 </r>
       <r>     0.1497    41.2045   368.8229 </r>
       <r>     0.3901    42.5181   379.0443 </r>
       <r>     0.6305    72.1214   396.3823 </r>
       <r>     0.8709    60.1733   410.8480 </r>
       <r>     1.1113    65.5815   426.6138 </r>
       <r>     1.3517    67.7892   442.9103 </r>
       <r>     1.5921    77.5596   461.5556 </r>
       <r>     1.8325   111.2528   488.3008 </r>
       <r>     2.0729    61.5194   503.0901 </r>
       <r>     2.3133    38.0440   512.2359 </r>
       <r>     2.5537    77.6843   530.9112 </r>
       <r>     2.7941   104.0402   555.9225 </r>
       <r>     3.0345    70.7503   572.9309 </r>
       <r>     3.2749   131.5436   604.5540 </r>
       <r>     3.5153   116.6715   632.6019 </r>
       <r>     3.7557    25.1172   638.6400 </r>
       <r>     3.9961    44.2471   649.2770 </r>
       <r>     4.2365   178.7207   692.2415 </r>
       <r>     4.4769    47.2890   703.6098 </r>
       <r>     4.7173     1.6230   704.0000 </r>
       <r>     4.9577     0.0000   704.0000 </r>
       <r>     5.1981     0.0000   704.0000 </r>
       <r>     5.4385     0.0000   704.0000 </r>
       <r>     5.6789     0.0000   704.0000 </r>
       <r>     5.9193     0.0000   704.0000 </r>
       <r>     6.1597     0.0000   704.0000 </r>
       <r>     6.4001     1.0401   704.2500 </r>
       <r>     6.6405    10.1763   706.6964 </r>
       <r>     6.8809    26.7267   713.1215 </r>
       <r>     7.1213    66.0822   729.0077 </r>
       <r>     7.3617   111.5061   755.8138 </r>
       <r>     7.6021   139.3056   789.3029 </r>
       <r>     7.8425   118.1560   817.7076 </r>
       <r>     8.0829   178.9047   860.7163 </r>
       <r>     8.3233   145.2075   895.6243 </r>
       <r>     8.5637    62.2964   910.6003 </r>
       <r>     8.8041    82.4615   930.4241 </r>
       <r>     9.0445    72.7846   947.9215 </r>
       <r>     9.2849    57.3130   961.6996 </r>
       <r>     9.5253    23.0070   967.2305 </r>
       <r>     9.7657    34.0530   975.4168 </r>
       <r>    10.0061    22.6828   980.8698 </r>
       <r>    10.2465    38.9147   990.2249 </r>
       <r>    10.4869    43.2460  1000.6212 </r>
       <r>    10.7273    61.2988  1015.3575 </r>
       <r>    10.9677    43.3455  1025.7777 </r>
       <r>    11.2081    40.1592  1035.4320 </r>
       <r>    11.4485    34.5736  1043.7435 </r>
       <r>    11.6889    43.7468  1054.2603 </r>
       <r>    11.9293    52.1136  1066.7884 </r>
       <r>    12.1697    57.3272  1080.5699 </r>
       <r>    12.4101    53.2262  1093.3654 </r>
       <r>    12.6505    67.0578  1109.4861 </r>
       <r>    12.8909    79.7479  1128.6576 </r>
       <r>    13.1313    64.4635  1144.1546 </r>
       <r>    13.3717    66.4433  1160.1276 </r>
       <r>    13.6121    64.6495  1175.6693 </r>
       <r>    13.8525    57.2057  1189.4216 </r>
       <r>    14.0929    52.9863  1202.1595 </r>
       <r>    14.3333    21.4085  1207.3061 </r>
       <r>    14.5737     2.8863  1208.0000 </r>
       <r>    14.8141     0.0000  1208.0000 </r>
       <r>    15.0545     0.0000  1208.0000 </r>
       <r>    15.2949     0.0000  1208.0000 </r>
       <r>    15.5353     0.0000  1208.0000 </r>
       <r>    15.7757     0.0000  1208.0000 </r>
       <r>    16.0161     0.0000  1208.0000 </r>
       <r>    16.2565     0.0000  1208.0000 </r>
       <r>    16.4969     0.0000  1208.0000 </r>
       <r>    16.7373     0.0000  1208.0000 </r>
       <r>    16.9777     0.0000  1208.0000 </r>
       <r>    17.2181     0.0000  1208.0000 </r>
       <r>    17.4585     0.0000  1208.0000 </r>
       <r>    17.6989     0.0000  1208.0000 </r>
      </set>
     </set>
    </array>
   </total>
  </dos>
 </calculation>
 <structure name="finalpos" >
  <crystal>
   <varray name="basis" >
    <v>      15.37959744       0.00260798      -0.01267804 </v>
    <v>      -0.00277488      15.37961926      -0.01267806 </v>
    <v>      -3.83358824      -3.83493454      12.86275064 </v>
   </varray>
   <i name="volume">   3040.96152487 </i>
   <varray name="rec_basis" >
    <v>       0.06503719       0.00002772       0.01939182 </v>
    <v>       0.00000496       0.06503710       0.01939181 </v>
    <v>       0.00006411       0.00006413       0.07778210 </v>
   </varray>
  </crystal>
  <varray name="positions" >
   <v>       0.11205242       0.03120912       0.00000252 </v>
   <v>       0.61205242       0.03120912       0.00000252 </v>
   <v>       0.11205242       0.53120912       0.00000252 </v>
   <v>       0.61205242       0.53120912       0.00000252 </v>
   <v>       0.11205242       0.03120912       0.50000252 </v>
   <v>       0.61205242       0.03120912       0.50000252 </v>
   <v>       0.11205242       0.53120912       0.50000252 </v>
   <v>       0.61205242       0.53120912       0.50000252 </v>
   <v>       0.36205520       0.49468587       0.00001176 </v>
   <v>       0.86205520       0.49468587       0.00001176 </v>
   <v>       0.36205520       0.99468587       0.00001176 </v>
   <v>       0.86205520       0.99468587       0.00001176 </v>
   <v>       0.36205520       0.49468587       0.50001176 </v>
   <v>       0.86205520       0.49468587       0.50001176 </v>
   <v>       0.36205520       0.99468587       0.50001176 </v>
   <v>       0.86205520       0.99468587       0.50001176 </v>
   <v>       0.11205520       0.24468587       0.00001176 </v>
   <v>       0.61205520       0.24468587       0.00001176 </v>
   <v>       0.11205520       0.74468587       0.00001176 </v>
   <v>       0.61205520       0.74468587       0.00001176 </v>
   <v>       0.11205520       0.24468587       0.50001176 </v>
   <v>       0.61205520       0.24468587       0.50001176 </v>
   <v>       0.11205520       0.74468587       0.50001176 </v>
   <v>       0.61205520       0.74468587       0.50001176 </v>
   <v>       0.36205242       0.28120912       0.00000252 </v>
   <v>       0.86205242       0.28120912       0.00000252 </v>
   <v>       0.36205242       0.78120912       0.00000252 </v>
   <v>       0.86205242       0.78120912       0.00000252 </v>
   <v>       0.36205242       0.28120912       0.50000252 </v>
   <v>       0.86205242       0.28120912       0.50000252 </v>
   <v>       0.36205242       0.78120912       0.50000252 </v>
   <v>       0.86205242       0.78120912       0.50000252 </v>
   <v>       0.25531414       0.13794480       0.49998824 </v>
   <v>       0.75531414       0.13794480       0.49998824 </v>
   <v>       0.25531414       0.63794480       0.49998824 </v>
   <v>       0.75531414       0.63794480       0.49998824 </v>
   <v>       0.25531414       0.13794480       0.99998824 </v>
   <v>       0.75531414       0.13794480       0.99998824 </v>
   <v>       0.25531414       0.63794480       0.99998824 </v>
   <v>       0.75531414       0.63794480       0.99998824 </v>
   <v>       0.46879087       0.13794758       0.49999748 </v>
   <v>       0.96879087       0.13794758       0.49999748 </v>
   <v>       0.46879087       0.63794758       0.49999748 </v>
   <v>       0.96879087       0.63794758       0.49999748 </v>
   <v>       0.46879087       0.13794758       0.99999748 </v>
   <v>       0.96879087       0.13794758       0.99999748 </v>
   <v>       0.46879087       0.63794758       0.99999748 </v>
   <v>       0.96879087       0.63794758       0.99999748 </v>
   <v>       0.21879087       0.38794758       0.49999748 </v>
   <v>       0.71879087       0.38794758       0.49999748 </v>
   <v>       0.21879087       0.88794758       0.49999748 </v>
   <v>       0.71879087       0.88794758       0.49999748 </v>
   <v>       0.21879087       0.38794758       0.99999748 </v>
   <v>       0.71879087       0.38794758       0.99999748 </v>
   <v>       0.21879087       0.88794758       0.99999748 </v>
   <v>       0.71879087       0.88794758       0.99999748 </v>
   <v>       0.00531414       0.38794480       0.49998824 </v>
   <v>       0.50531414       0.38794480       0.49998824 </v>
   <v>       0.00531414       0.88794480       0.49998824 </v>
   <v>       0.50531414       0.88794480       0.49998824 </v>
   <v>       0.00531414       0.38794480       0.99998824 </v>
   <v>       0.50531414       0.38794480       0.99998824 </v>
   <v>       0.00531414       0.88794480       0.99998824 </v>
   <v>       0.50531414       0.88794480       0.99998824 </v>
   <v>       0.23705088       0.01294824       0.49999897 </v>
   <v>       0.73705088       0.01294824       0.49999897 </v>
   <v>       0.23705088       0.51294824       0.49999897 </v>
   <v>       0.73705088       0.51294824       0.49999897 </v>
   <v>       0.23705088       0.01294824       0.99999897 </v>
   <v>       0.73705088       0.01294824       0.99999897 </v>
   <v>       0.23705088       0.51294824       0.99999897 </v>
   <v>       0.73705088       0.51294824       0.99999897 </v>
   <v>       0.48705202       0.01294937       0.00000103 </v>
   <v>       0.98705202       0.01294937       0.00000103 </v>
   <v>       0.48705202       0.51294937       0.00000103 </v>
   <v>       0.98705202       0.51294937       0.00000103 </v>
   <v>       0.48705202       0.01294937       0.50000103 </v>
   <v>       0.98705202       0.01294937       0.50000103 </v>
   <v>       0.48705202       0.51294937       0.50000103 </v>
   <v>       0.98705202       0.51294937       0.50000103 </v>
   <v>       0.23705202       0.26294937       0.00000103 </v>
   <v>       0.73705202       0.26294937       0.00000103 </v>
   <v>       0.23705202       0.76294937       0.00000103 </v>
   <v>       0.73705202       0.76294937       0.00000103 </v>
   <v>       0.23705202       0.26294937       0.50000103 </v>
   <v>       0.73705202       0.26294937       0.50000103 </v>
   <v>       0.23705202       0.76294937       0.50000103 </v>
   <v>       0.73705202       0.76294937       0.50000103 </v>
   <v>       0.48705088       0.26294824       0.49999897 </v>
   <v>       0.98705088       0.26294824       0.49999897 </v>
   <v>       0.48705088       0.76294824       0.49999897 </v>
   <v>       0.98705088       0.76294824       0.49999897 </v>
   <v>       0.48705088       0.26294824       0.99999897 </v>
   <v>       0.98705088       0.26294824       0.99999897 </v>
   <v>       0.48705088       0.76294824       0.99999897 </v>
   <v>       0.98705088       0.76294824       0.99999897 </v>
   <v>       0.14990797       0.17581133       0.15144025 </v>
   <v>       0.64990797       0.17581133       0.15144025 </v>
   <v>       0.14990797       0.67581133       0.15144025 </v>
   <v>       0.64990797       0.67581133       0.15144025 </v>
   <v>       0.14990797       0.17581133       0.65144025 </v>
   <v>       0.64990797       0.17581133       0.65144025 </v>
   <v>       0.14990797       0.67581133       0.65144025 </v>
   <v>       0.64990797       0.67581133       0.65144025 </v>
   <v>       0.39990786       0.17581084       0.15143681 </v>
   <v>       0.89990786       0.17581084       0.15143681 </v>
   <v>       0.39990786       0.67581084       0.15143681 </v>
   <v>       0.89990786       0.67581084       0.15143681 </v>
   <v>       0.39990786       0.17581084       0.65143681 </v>
   <v>       0.89990786       0.17581084       0.65143681 </v>
   <v>       0.39990786       0.67581084       0.65143681 </v>
   <v>       0.89990786       0.67581084       0.65143681 </v>
   <v>       0.14990786       0.42581084       0.15143681 </v>
   <v>       0.64990786       0.42581084       0.15143681 </v>
   <v>       0.14990786       0.92581084       0.15143681 </v>
   <v>       0.64990786       0.92581084       0.15143681 </v>
   <v>       0.14990786       0.42581084       0.65143681 </v>
   <v>       0.64990786       0.42581084       0.65143681 </v>
   <v>       0.14990786       0.92581084       0.65143681 </v>
   <v>       0.64990786       0.92581084       0.65143681 </v>
   <v>       0.39990797       0.42581133       0.15144025 </v>
   <v>       0.89990797       0.42581133       0.15144025 </v>
   <v>       0.39990797       0.92581133       0.15144025 </v>
   <v>       0.89990797       0.92581133       0.15144025 </v>
   <v>       0.39990797       0.42581133       0.65144025 </v>
   <v>       0.89990797       0.42581133       0.65144025 </v>
   <v>       0.39990797       0.92581133       0.65144025 </v>
   <v>       0.89990797       0.92581133       0.65144025 </v>
   <v>       0.07418916       0.10009214       0.34856319 </v>
   <v>       0.57418916       0.10009214       0.34856319 </v>
   <v>       0.07418916       0.60009214       0.34856319 </v>
   <v>       0.57418916       0.60009214       0.34856319 </v>
   <v>       0.07418916       0.10009214       0.84856319 </v>
   <v>       0.57418916       0.10009214       0.84856319 </v>
   <v>       0.07418916       0.60009214       0.84856319 </v>
   <v>       0.57418916       0.60009214       0.84856319 </v>
   <v>       0.32418867       0.10009203       0.34855975 </v>
   <v>       0.82418867       0.10009203       0.34855975 </v>
   <v>       0.32418867       0.60009203       0.34855975 </v>
   <v>       0.82418867       0.60009203       0.34855975 </v>
   <v>       0.32418867       0.10009203       0.84855975 </v>
   <v>       0.82418867       0.10009203       0.84855975 </v>
   <v>       0.32418867       0.60009203       0.84855975 </v>
   <v>       0.82418867       0.60009203       0.84855975 </v>
   <v>       0.07418867       0.35009203       0.34855975 </v>
   <v>       0.57418867       0.35009203       0.34855975 </v>
   <v>       0.07418867       0.85009203       0.34855975 </v>
   <v>       0.57418867       0.85009203       0.34855975 </v>
   <v>       0.07418867       0.35009203       0.84855975 </v>
   <v>       0.57418867       0.35009203       0.84855975 </v>
   <v>       0.07418867       0.85009203       0.84855975 </v>
   <v>       0.57418867       0.85009203       0.84855975 </v>
   <v>       0.32418916       0.35009214       0.34856319 </v>
   <v>       0.82418916       0.35009214       0.34856319 </v>
   <v>       0.32418916       0.85009214       0.34856319 </v>
   <v>       0.82418916       0.85009214       0.34856319 </v>
   <v>       0.32418916       0.35009214       0.84856319 </v>
   <v>       0.82418916       0.35009214       0.84856319 </v>
   <v>       0.32418916       0.85009214       0.84856319 </v>
   <v>       0.82418916       0.85009214       0.84856319 </v>
   <v>       0.02677905       0.05271006       0.15897707 </v>
   <v>       0.52677905       0.05271006       0.15897707 </v>
   <v>       0.02677905       0.55271006       0.15897707 </v>
   <v>       0.52677905       0.55271006       0.15897707 </v>
   <v>       0.02677905       0.05271006       0.65897707 </v>
   <v>       0.52677905       0.05271006       0.65897707 </v>
   <v>       0.02677905       0.55271006       0.65897707 </v>
   <v>       0.52677905       0.55271006       0.65897707 </v>
   <v>       0.27677185       0.05335825       0.15897368 </v>
   <v>       0.77677185       0.05270804       0.15897368 </v>
   <v>       0.27677185       0.55270804       0.15897368 </v>
   <v>       0.77677185       0.55270804       0.15897368 </v>
   <v>       0.27677185       0.05270804       0.65897368 </v>
   <v>       0.77677185       0.05270804       0.65897368 </v>
   <v>       0.27677185       0.55270804       0.65897368 </v>
   <v>       0.77677185       0.55270804       0.65897368 </v>
   <v>       0.02677185       0.30270804       0.15897368 </v>
   <v>       0.52677185       0.30270804       0.15897368 </v>
   <v>       0.02677185       0.80270804       0.15897368 </v>
   <v>       0.52677185       0.80270804       0.15897368 </v>
   <v>       0.02677185       0.30270804       0.65897368 </v>
   <v>       0.52677185       0.30270804       0.65897368 </v>
   <v>       0.02677185       0.80270804       0.65897368 </v>
   <v>       0.52677185       0.80270804       0.65897368 </v>
   <v>       0.27677905       0.30271006       0.15897707 </v>
   <v>       0.77677905       0.30271006       0.15897707 </v>
   <v>       0.27677905       0.80271006       0.15897707 </v>
   <v>       0.77677905       0.80271006       0.15897707 </v>
   <v>       0.27677905       0.30271006       0.65897707 </v>
   <v>       0.77677905       0.30271006       0.65897707 </v>
   <v>       0.27677905       0.80271006       0.65897707 </v>
   <v>       0.77677905       0.80271006       0.65897707 </v>
   <v>       0.19729196       0.22322815       0.34102632 </v>
   <v>       0.69729196       0.22322815       0.34102632 </v>
   <v>       0.19729196       0.72322815       0.34102632 </v>
   <v>       0.69729196       0.72322815       0.34102632 </v>
   <v>       0.19729196       0.22322815       0.84102632 </v>
   <v>       0.69729196       0.22322815       0.84102632 </v>
   <v>       0.19729196       0.72322815       0.84102632 </v>
   <v>       0.69729196       0.72322815       0.84102632 </v>
   <v>       0.44728994       0.22322095       0.34102293 </v>
   <v>       0.94728994       0.22322095       0.34102293 </v>
   <v>       0.44728994       0.72322095       0.34102293 </v>
   <v>       0.94728994       0.72322095       0.34102293 </v>
   <v>       0.44728994       0.22322095       0.84102293 </v>
   <v>       0.94728994       0.22322095       0.84102293 </v>
   <v>       0.44728994       0.72322095       0.84102293 </v>
   <v>       0.94728994       0.72322095       0.84102293 </v>
   <v>       0.19728994       0.47322095       0.34102293 </v>
   <v>       0.69728994       0.47322095       0.34102293 </v>
   <v>       0.19728994       0.97322095       0.34102293 </v>
   <v>       0.69728994       0.97322095       0.34102293 </v>
   <v>       0.19728994       0.47322095       0.84102293 </v>
   <v>       0.69728994       0.47322095       0.84102293 </v>
   <v>       0.19728994       0.97322095       0.84102293 </v>
   <v>       0.69728994       0.97322095       0.84102293 </v>
   <v>       0.44729196       0.47322815       0.34102632 </v>
   <v>       0.94729196       0.47322815       0.34102632 </v>
   <v>       0.44729196       0.97322815       0.34102632 </v>
   <v>       0.94729196       0.97322815       0.34102632 </v>
   <v>       0.44729196       0.47322815       0.84102632 </v>
   <v>       0.94729196       0.47322815       0.84102632 </v>
   <v>       0.44729196       0.97322815       0.84102632 </v>
   <v>       0.94729196       0.97322815       0.84102632 </v>
  </varray>
 </structure>
</modeling>
