 160 160   0   0
  0.1218736E+02  0.1542482E-08  0.1121024E-08  0.1127703E-08  0.5000000E-15
  1.000000000000000E-004
  CAR 
 unknown system                          
     16.82969620    -54.74132581  301      4.93101379      1.00000000
    -54.741  0.0000E+00  0.0000E+00  0.0000E+00  0.0000E+00
    -54.503  0.0000E+00  0.0000E+00  0.0000E+00  0.0000E+00
    -54.264  0.0000E+00  0.0000E+00  0.0000E+00  0.0000E+00
    -54.026  0.0000E+00  0.0000E+00  0.0000E+00  0.0000E+00
    -53.787  0.0000E+00  0.0000E+00  0.0000E+00  0.0000E+00
    -53.548  0.0000E+00  0.0000E+00  0.0000E+00  0.0000E+00
    -53.310  0.0000E+00  0.0000E+00  0.0000E+00  0.0000E+00
    -53.071  0.0000E+00  0.0000E+00  0.0000E+00  0.0000E+00
    -52.833  0.0000E+00  0.0000E+00  0.0000E+00  0.0000E+00
    -52.594  0.0000E+00  0.0000E+00  0.0000E+00  0.0000E+00
    -52.356  0.0000E+00  0.0000E+00  0.0000E+00  0.0000E+00
    -52.117  0.0000E+00  0.0000E+00  0.0000E+00  0.0000E+00
    -51.878  0.0000E+00  0.0000E+00  0.0000E+00  0.0000E+00
    -51.640  0.9059E-03  0.0000E+00  0.2161E-03  0.0000E+00
    -51.401  0.1330E+03  0.0000E+00  0.3173E+02  0.0000E+00
    -51.163  0.1118E+01  0.0000E+00  0.3200E+02  0.0000E+00
    -50.924  0.0000E+00  0.0000E+00  0.3200E+02  0.0000E+00
    -50.686  0.0000E+00  0.0000E+00  0.3200E+02  0.0000E+00
    -50.447  0.0000E+00  0.0000E+00  0.3200E+02  0.0000E+00
    -50.208  0.8769E-01  0.0000E+00  0.3202E+02  0.0000E+00
    -49.970  0.2662E+03  0.0000E+00  0.9553E+02  0.0000E+00
    -49.731  0.1989E+01  0.0000E+00  0.9600E+02  0.0000E+00
    -49.493  0.0000E+00  0.0000E+00  0.9600E+02  0.0000E+00
    -49.254  0.0000E+00  0.0000E+00  0.9600E+02  0.0000E+00
    -49.016  0.0000E+00  0.0000E+00  0.9600E+02  0.0000E+00
    -48.777  0.0000E+00  0.0000E+00  0.9600E+02  0.0000E+00
    -48.539  0.0000E+00  0.0000E+00  0.9600E+02  0.0000E+00
    -48.300  0.0000E+00  0.0000E+00  0.9600E+02  0.0000E+00
    -48.061  0.0000E+00  0.0000E+00  0.9600E+02  0.0000E+00
    -47.823  0.0000E+00  0.0000E+00  0.9600E+02  0.0000E+00
    -47.584  0.0000E+00  0.0000E+00  0.9600E+02  0.0000E+00
    -47.346  0.0000E+00  0.0000E+00  0.9600E+02  0.0000E+00
    -47.107  0.0000E+00  0.0000E+00  0.9600E+02  0.0000E+00
    -46.869  0.0000E+00  0.2323E-01  0.9600E+02  0.5542E-02
    -46.630  0.0000E+00  0.1340E+03  0.9600E+02  0.3198E+02
    -46.391  0.0000E+00  0.5502E+02  0.9600E+02  0.4510E+02
    -46.153  0.0000E+00  0.2134E+03  0.9600E+02  0.9600E+02
    -45.914  0.0000E+00  0.0000E+00  0.9600E+02  0.9600E+02
    -45.676  0.0000E+00  0.0000E+00  0.9600E+02  0.9600E+02
    -45.437  0.0000E+00  0.0000E+00  0.9600E+02  0.9600E+02
    -45.199  0.0000E+00  0.0000E+00  0.9600E+02  0.9600E+02
    -44.960  0.0000E+00  0.0000E+00  0.9600E+02  0.9600E+02
    -44.721  0.0000E+00  0.0000E+00  0.9600E+02  0.9600E+02
    -44.483  0.0000E+00  0.0000E+00  0.9600E+02  0.9600E+02
    -44.244  0.0000E+00  0.0000E+00  0.9600E+02  0.9600E+02
    -44.006  0.0000E+00  0.0000E+00  0.9600E+02  0.9600E+02
    -43.767  0.0000E+00  0.0000E+00  0.9600E+02  0.9600E+02
    -43.529  0.0000E+00  0.0000E+00  0.9600E+02  0.9600E+02
    -43.290  0.0000E+00  0.0000E+00  0.9600E+02  0.9600E+02
    -43.051  0.0000E+00  0.0000E+00  0.9600E+02  0.9600E+02
    -42.813  0.0000E+00  0.0000E+00  0.9600E+02  0.9600E+02
    -42.574  0.0000E+00  0.0000E+00  0.9600E+02  0.9600E+02
    -42.336  0.0000E+00  0.0000E+00  0.9600E+02  0.9600E+02
    -42.097  0.0000E+00  0.0000E+00  0.9600E+02  0.9600E+02
    -41.859  0.0000E+00  0.0000E+00  0.9600E+02  0.9600E+02
    -41.620  0.0000E+00  0.0000E+00  0.9600E+02  0.9600E+02
    -41.381  0.0000E+00  0.0000E+00  0.9600E+02  0.9600E+02
    -41.143  0.0000E+00  0.0000E+00  0.9600E+02  0.9600E+02
    -40.904  0.0000E+00  0.0000E+00  0.9600E+02  0.9600E+02
    -40.666  0.0000E+00  0.0000E+00  0.9600E+02  0.9600E+02
    -40.427  0.5309E+00  0.4704E+00  0.9613E+02  0.9611E+02
    -40.189  0.2410E+03  0.2428E+03  0.1536E+03  0.1540E+03
    -39.950  0.2677E+02  0.2499E+02  0.1600E+03  0.1600E+03
    -39.711  0.0000E+00  0.0000E+00  0.1600E+03  0.1600E+03
    -39.473  0.0000E+00  0.0000E+00  0.1600E+03  0.1600E+03
    -39.234  0.0000E+00  0.0000E+00  0.1600E+03  0.1600E+03
    -38.996  0.0000E+00  0.0000E+00  0.1600E+03  0.1600E+03
    -38.757  0.0000E+00  0.0000E+00  0.1600E+03  0.1600E+03
    -38.519  0.0000E+00  0.0000E+00  0.1600E+03  0.1600E+03
    -38.280  0.0000E+00  0.0000E+00  0.1600E+03  0.1600E+03
    -38.041  0.0000E+00  0.0000E+00  0.1600E+03  0.1600E+03
    -37.803  0.0000E+00  0.0000E+00  0.1600E+03  0.1600E+03
    -37.564  0.0000E+00  0.0000E+00  0.1600E+03  0.1600E+03
    -37.326  0.0000E+00  0.0000E+00  0.1600E+03  0.1600E+03
    -37.087  0.0000E+00  0.0000E+00  0.1600E+03  0.1600E+03
    -36.849  0.0000E+00  0.0000E+00  0.1600E+03  0.1600E+03
    -36.610  0.0000E+00  0.0000E+00  0.1600E+03  0.1600E+03
    -36.371  0.0000E+00  0.0000E+00  0.1600E+03  0.1600E+03
    -36.133  0.0000E+00  0.0000E+00  0.1600E+03  0.1600E+03
    -35.894  0.0000E+00  0.0000E+00  0.1600E+03  0.1600E+03
    -35.656  0.0000E+00  0.0000E+00  0.1600E+03  0.1600E+03
    -35.417  0.0000E+00  0.0000E+00  0.1600E+03  0.1600E+03
    -35.179  0.0000E+00  0.0000E+00  0.1600E+03  0.1600E+03
    -34.940  0.0000E+00  0.0000E+00  0.1600E+03  0.1600E+03
    -34.701  0.0000E+00  0.0000E+00  0.1600E+03  0.1600E+03
    -34.463  0.0000E+00  0.0000E+00  0.1600E+03  0.1600E+03
    -34.224  0.0000E+00  0.0000E+00  0.1600E+03  0.1600E+03
    -33.986  0.0000E+00  0.0000E+00  0.1600E+03  0.1600E+03
    -33.747  0.0000E+00  0.0000E+00  0.1600E+03  0.1600E+03
    -33.509  0.0000E+00  0.0000E+00  0.1600E+03  0.1600E+03
    -33.270  0.0000E+00  0.0000E+00  0.1600E+03  0.1600E+03
    -33.031  0.0000E+00  0.0000E+00  0.1600E+03  0.1600E+03
    -32.793  0.0000E+00  0.0000E+00  0.1600E+03  0.1600E+03
    -32.554  0.0000E+00  0.0000E+00  0.1600E+03  0.1600E+03
    -32.316  0.0000E+00  0.0000E+00  0.1600E+03  0.1600E+03
    -32.077  0.0000E+00  0.0000E+00  0.1600E+03  0.1600E+03
    -31.839  0.0000E+00  0.0000E+00  0.1600E+03  0.1600E+03
    -31.600  0.0000E+00  0.0000E+00  0.1600E+03  0.1600E+03
    -31.361  0.0000E+00  0.0000E+00  0.1600E+03  0.1600E+03
    -31.123  0.0000E+00  0.0000E+00  0.1600E+03  0.1600E+03
    -30.884  0.0000E+00  0.0000E+00  0.1600E+03  0.1600E+03
    -30.646  0.0000E+00  0.0000E+00  0.1600E+03  0.1600E+03
    -30.407  0.0000E+00  0.0000E+00  0.1600E+03  0.1600E+03
    -30.169  0.0000E+00  0.0000E+00  0.1600E+03  0.1600E+03
    -29.930  0.0000E+00  0.0000E+00  0.1600E+03  0.1600E+03
    -29.691  0.0000E+00  0.0000E+00  0.1600E+03  0.1600E+03
    -29.453  0.0000E+00  0.0000E+00  0.1600E+03  0.1600E+03
    -29.214  0.0000E+00  0.0000E+00  0.1600E+03  0.1600E+03
    -28.976  0.0000E+00  0.0000E+00  0.1600E+03  0.1600E+03
    -28.737  0.0000E+00  0.0000E+00  0.1600E+03  0.1600E+03
    -28.499  0.0000E+00  0.0000E+00  0.1600E+03  0.1600E+03
    -28.260  0.0000E+00  0.0000E+00  0.1600E+03  0.1600E+03
    -28.021  0.0000E+00  0.0000E+00  0.1600E+03  0.1600E+03
    -27.783  0.0000E+00  0.0000E+00  0.1600E+03  0.1600E+03
    -27.544  0.0000E+00  0.0000E+00  0.1600E+03  0.1600E+03
    -27.306  0.0000E+00  0.0000E+00  0.1600E+03  0.1600E+03
    -27.067  0.0000E+00  0.0000E+00  0.1600E+03  0.1600E+03
    -26.829  0.0000E+00  0.0000E+00  0.1600E+03  0.1600E+03
    -26.590  0.0000E+00  0.0000E+00  0.1600E+03  0.1600E+03
    -26.351  0.0000E+00  0.0000E+00  0.1600E+03  0.1600E+03
    -26.113  0.0000E+00  0.0000E+00  0.1600E+03  0.1600E+03
    -25.874  0.0000E+00  0.0000E+00  0.1600E+03  0.1600E+03
    -25.636  0.0000E+00  0.0000E+00  0.1600E+03  0.1600E+03
    -25.397  0.0000E+00  0.0000E+00  0.1600E+03  0.1600E+03
    -25.159  0.0000E+00  0.0000E+00  0.1600E+03  0.1600E+03
    -24.920  0.0000E+00  0.0000E+00  0.1600E+03  0.1600E+03
    -24.681  0.0000E+00  0.0000E+00  0.1600E+03  0.1600E+03
    -24.443  0.0000E+00  0.0000E+00  0.1600E+03  0.1600E+03
    -24.204  0.0000E+00  0.0000E+00  0.1600E+03  0.1600E+03
    -23.966  0.0000E+00  0.0000E+00  0.1600E+03  0.1600E+03
    -23.727  0.0000E+00  0.0000E+00  0.1600E+03  0.1600E+03
    -23.489  0.0000E+00  0.0000E+00  0.1600E+03  0.1600E+03
    -23.250  0.0000E+00  0.0000E+00  0.1600E+03  0.1600E+03
    -23.012  0.0000E+00  0.0000E+00  0.1600E+03  0.1600E+03
    -22.773  0.0000E+00  0.0000E+00  0.1600E+03  0.1600E+03
    -22.534  0.0000E+00  0.0000E+00  0.1600E+03  0.1600E+03
    -22.296  0.0000E+00  0.0000E+00  0.1600E+03  0.1600E+03
    -22.057  0.0000E+00  0.0000E+00  0.1600E+03  0.1600E+03
    -21.819  0.0000E+00  0.0000E+00  0.1600E+03  0.1600E+03
    -21.580  0.0000E+00  0.0000E+00  0.1600E+03  0.1600E+03
    -21.342  0.0000E+00  0.0000E+00  0.1600E+03  0.1600E+03
    -21.103  0.0000E+00  0.0000E+00  0.1600E+03  0.1600E+03
    -20.864  0.0000E+00  0.0000E+00  0.1600E+03  0.1600E+03
    -20.626  0.0000E+00  0.0000E+00  0.1600E+03  0.1600E+03
    -20.387  0.0000E+00  0.0000E+00  0.1600E+03  0.1600E+03
    -20.149  0.0000E+00  0.0000E+00  0.1600E+03  0.1600E+03
    -19.910  0.0000E+00  0.0000E+00  0.1600E+03  0.1600E+03
    -19.672  0.0000E+00  0.0000E+00  0.1600E+03  0.1600E+03
    -19.433  0.0000E+00  0.0000E+00  0.1600E+03  0.1600E+03
    -19.194  0.0000E+00  0.0000E+00  0.1600E+03  0.1600E+03
    -18.956  0.0000E+00  0.0000E+00  0.1600E+03  0.1600E+03
    -18.717  0.0000E+00  0.0000E+00  0.1600E+03  0.1600E+03
    -18.479  0.0000E+00  0.0000E+00  0.1600E+03  0.1600E+03
    -18.240  0.0000E+00  0.0000E+00  0.1600E+03  0.1600E+03
    -18.002  0.0000E+00  0.0000E+00  0.1600E+03  0.1600E+03
    -17.763  0.0000E+00  0.0000E+00  0.1600E+03  0.1600E+03
    -17.524  0.0000E+00  0.0000E+00  0.1600E+03  0.1600E+03
    -17.286  0.0000E+00  0.0000E+00  0.1600E+03  0.1600E+03
    -17.047  0.0000E+00  0.0000E+00  0.1600E+03  0.1600E+03
    -16.809  0.0000E+00  0.0000E+00  0.1600E+03  0.1600E+03
    -16.570  0.0000E+00  0.0000E+00  0.1600E+03  0.1600E+03
    -16.332  0.0000E+00  0.0000E+00  0.1600E+03  0.1600E+03
    -16.093  0.0000E+00  0.0000E+00  0.1600E+03  0.1600E+03
    -15.854  0.0000E+00  0.0000E+00  0.1600E+03  0.1600E+03
    -15.616  0.0000E+00  0.0000E+00  0.1600E+03  0.1600E+03
    -15.377  0.0000E+00  0.0000E+00  0.1600E+03  0.1600E+03
    -15.139  0.0000E+00  0.0000E+00  0.1600E+03  0.1600E+03
    -14.900  0.0000E+00  0.0000E+00  0.1600E+03  0.1600E+03
    -14.662  0.0000E+00  0.0000E+00  0.1600E+03  0.1600E+03
    -14.423  0.0000E+00  0.0000E+00  0.1600E+03  0.1600E+03
    -14.184  0.0000E+00  0.0000E+00  0.1600E+03  0.1600E+03
    -13.946  0.0000E+00  0.0000E+00  0.1600E+03  0.1600E+03
    -13.707  0.2109E-06  0.0000E+00  0.1600E+03  0.1600E+03
    -13.469  0.2768E+02  0.3370E-13  0.1666E+03  0.1600E+03
    -13.230  0.7634E+02  0.2541E+01  0.1848E+03  0.1606E+03
    -12.992  0.3011E+02  0.1038E+03  0.1920E+03  0.1854E+03
    -12.753  0.0000E+00  0.2784E+02  0.1920E+03  0.1920E+03
    -12.514  0.0000E+00  0.0000E+00  0.1920E+03  0.1920E+03
    -12.276  0.0000E+00  0.0000E+00  0.1920E+03  0.1920E+03
    -12.037  0.0000E+00  0.0000E+00  0.1920E+03  0.1920E+03
    -11.799  0.0000E+00  0.0000E+00  0.1920E+03  0.1920E+03
    -11.560  0.0000E+00  0.0000E+00  0.1920E+03  0.1920E+03
    -11.322  0.0000E+00  0.0000E+00  0.1920E+03  0.1920E+03
    -11.083  0.0000E+00  0.0000E+00  0.1920E+03  0.1920E+03
    -10.844  0.0000E+00  0.0000E+00  0.1920E+03  0.1920E+03
    -10.606  0.0000E+00  0.0000E+00  0.1920E+03  0.1920E+03
    -10.367  0.0000E+00  0.0000E+00  0.1920E+03  0.1920E+03
    -10.129  0.0000E+00  0.0000E+00  0.1920E+03  0.1920E+03
     -9.890  0.0000E+00  0.0000E+00  0.1920E+03  0.1920E+03
     -9.652  0.0000E+00  0.0000E+00  0.1920E+03  0.1920E+03
     -9.413  0.0000E+00  0.0000E+00  0.1920E+03  0.1920E+03
     -9.174  0.0000E+00  0.0000E+00  0.1920E+03  0.1920E+03
     -8.936  0.0000E+00  0.0000E+00  0.1920E+03  0.1920E+03
     -8.697  0.0000E+00  0.0000E+00  0.1920E+03  0.1920E+03
     -8.459  0.0000E+00  0.0000E+00  0.1920E+03  0.1920E+03
     -8.220  0.0000E+00  0.0000E+00  0.1920E+03  0.1920E+03
     -7.982  0.0000E+00  0.0000E+00  0.1920E+03  0.1920E+03
     -7.743  0.8366E-03  0.0000E+00  0.1920E+03  0.1920E+03
     -7.504  0.1817E+02  0.3258E-01  0.1963E+03  0.1920E+03
     -7.266  0.6161E+02  0.3639E+02  0.2110E+03  0.2007E+03
     -7.027  0.5139E+02  0.6392E+02  0.2233E+03  0.2159E+03
     -6.789  0.2967E+01  0.3223E+02  0.2240E+03  0.2236E+03
     -6.550  0.0000E+00  0.1563E+01  0.2240E+03  0.2240E+03
     -6.312  0.0000E+00  0.0000E+00  0.2240E+03  0.2240E+03
     -6.073  0.0000E+00  0.0000E+00  0.2240E+03  0.2240E+03
     -5.834  0.0000E+00  0.0000E+00  0.2240E+03  0.2240E+03
     -5.596  0.0000E+00  0.0000E+00  0.2240E+03  0.2240E+03
     -5.357  0.0000E+00  0.0000E+00  0.2240E+03  0.2240E+03
     -5.119  0.0000E+00  0.0000E+00  0.2240E+03  0.2240E+03
     -4.880  0.0000E+00  0.0000E+00  0.2240E+03  0.2240E+03
     -4.642  0.0000E+00  0.0000E+00  0.2240E+03  0.2240E+03
     -4.403  0.0000E+00  0.0000E+00  0.2240E+03  0.2240E+03
     -4.164  0.0000E+00  0.0000E+00  0.2240E+03  0.2240E+03
     -3.926  0.0000E+00  0.0000E+00  0.2240E+03  0.2240E+03
     -3.687  0.0000E+00  0.0000E+00  0.2240E+03  0.2240E+03
     -3.449  0.0000E+00  0.0000E+00  0.2240E+03  0.2240E+03
     -3.210  0.0000E+00  0.0000E+00  0.2240E+03  0.2240E+03
     -2.972  0.0000E+00  0.0000E+00  0.2240E+03  0.2240E+03
     -2.733  0.1617E-05  0.0000E+00  0.2240E+03  0.2240E+03
     -2.494  0.1217E+02  0.0000E+00  0.2269E+03  0.2240E+03
     -2.256  0.2137E+02  0.0000E+00  0.2320E+03  0.2240E+03
     -2.017  0.2232E+02  0.0000E+00  0.2373E+03  0.2240E+03
     -1.779  0.5318E-01  0.0000E+00  0.2373E+03  0.2240E+03
     -1.540  0.2230E+02  0.0000E+00  0.2427E+03  0.2240E+03
     -1.302  0.2320E+02  0.1293E-16  0.2482E+03  0.2240E+03
     -1.063  0.7970E+02  0.2458E-01  0.2672E+03  0.2240E+03
     -0.824  0.7082E+02  0.1741E+02  0.2841E+03  0.2282E+03
     -0.586  0.6920E+02  0.3018E+02  0.3006E+03  0.2354E+03
     -0.347  0.9215E+02  0.1580E+02  0.3226E+03  0.2391E+03
     -0.109  0.1048E+03  0.1506E+02  0.3476E+03  0.2427E+03
      0.130  0.5787E+02  0.2373E+02  0.3614E+03  0.2484E+03
      0.368  0.4753E+02  0.4678E+02  0.3727E+03  0.2595E+03
      0.607  0.5201E+02  0.8085E+02  0.3852E+03  0.2788E+03
      0.846  0.4349E+02  0.7086E+02  0.3955E+03  0.2957E+03
      1.084  0.5967E+02  0.7664E+02  0.4098E+03  0.3140E+03
      1.323  0.8157E+02  0.3433E+02  0.4292E+03  0.3222E+03
      1.561  0.8493E+02  0.3449E+02  0.4495E+03  0.3304E+03
      1.800  0.4552E+02  0.4918E+02  0.4603E+03  0.3422E+03
      2.038  0.3843E+02  0.4623E+02  0.4695E+03  0.3532E+03
      2.277  0.4876E+02  0.2729E+02  0.4811E+03  0.3597E+03
      2.515  0.4078E+02  0.4999E+02  0.4909E+03  0.3716E+03
      2.754  0.5529E+02  0.6665E+02  0.5041E+03  0.3875E+03
      2.993  0.5594E+02  0.8268E+02  0.5174E+03  0.4073E+03
      3.231  0.5420E+02  0.3348E+02  0.5303E+03  0.4153E+03
      3.470  0.4887E+02  0.2020E+02  0.5420E+03  0.4201E+03
      3.708  0.5419E+02  0.4577E+02  0.5549E+03  0.4310E+03
      3.947  0.4004E+02  0.5655E+02  0.5645E+03  0.4445E+03
      4.185  0.2868E+02  0.1474E+02  0.5713E+03  0.4480E+03
      4.424  0.1673E+02  0.3423E-02  0.5753E+03  0.4480E+03
      4.663  0.2858E+01  0.0000E+00  0.5760E+03  0.4480E+03
      4.901  0.1297E-02  0.0000E+00  0.5760E+03  0.4480E+03
      5.140  0.0000E+00  0.0000E+00  0.5760E+03  0.4480E+03
      5.378  0.0000E+00  0.0000E+00  0.5760E+03  0.4480E+03
      5.617  0.0000E+00  0.0000E+00  0.5760E+03  0.4480E+03
      5.855  0.0000E+00  0.0000E+00  0.5760E+03  0.4480E+03
      6.094  0.0000E+00  0.0000E+00  0.5760E+03  0.4480E+03
      6.333  0.0000E+00  0.5662E-13  0.5760E+03  0.4480E+03
      6.571  0.0000E+00  0.5035E+00  0.5760E+03  0.4481E+03
      6.810  0.0000E+00  0.4683E+02  0.5760E+03  0.4593E+03
      7.048  0.9067E-02  0.7777E+02  0.5760E+03  0.4778E+03
      7.287  0.2238E+00  0.6008E+02  0.5761E+03  0.4922E+03
      7.525  0.9090E+00  0.6645E+02  0.5763E+03  0.5080E+03
      7.764  0.1238E+01  0.6108E+02  0.5766E+03  0.5226E+03
      8.003  0.2868E+01  0.9868E+02  0.5773E+03  0.5461E+03
      8.241  0.7488E+01  0.7306E+02  0.5790E+03  0.5636E+03
      8.480  0.1081E+02  0.3761E+02  0.5816E+03  0.5726E+03
      8.718  0.2167E+02  0.1596E+02  0.5868E+03  0.5764E+03
      8.957  0.2754E+02  0.8082E+01  0.5934E+03  0.5783E+03
      9.195  0.2841E+02  0.1132E+02  0.6001E+03  0.5810E+03
      9.434  0.3132E+02  0.1883E+02  0.6076E+03  0.5855E+03
      9.673  0.3027E+02  0.2558E+02  0.6148E+03  0.5916E+03
      9.911  0.2111E+02  0.4072E+02  0.6199E+03  0.6013E+03
     10.150  0.2152E+02  0.3338E+02  0.6250E+03  0.6093E+03
     10.388  0.2517E+02  0.3357E+02  0.6310E+03  0.6173E+03
     10.627  0.3788E+02  0.3373E+02  0.6400E+03  0.6253E+03
     10.865  0.4107E+02  0.2261E+02  0.6498E+03  0.6307E+03
     11.104  0.4289E+02  0.3374E+02  0.6601E+03  0.6388E+03
     11.343  0.4172E+02  0.2542E+02  0.6700E+03  0.6448E+03
     11.581  0.3843E+02  0.3255E+02  0.6792E+03  0.6526E+03
     11.820  0.4846E+02  0.5215E+02  0.6908E+03  0.6650E+03
     12.058  0.3070E+02  0.5570E+02  0.6981E+03  0.6783E+03
     12.297  0.2953E+02  0.4981E+02  0.7051E+03  0.6902E+03
     12.535  0.3387E+02  0.3149E+02  0.7132E+03  0.6977E+03
     12.774  0.3983E+02  0.3184E+02  0.7227E+03  0.7053E+03
     13.013  0.2207E+02  0.3493E+02  0.7280E+03  0.7136E+03
     13.251  0.1682E+02  0.3830E+02  0.7320E+03  0.7228E+03
     13.490  0.5878E-01  0.2949E+02  0.7320E+03  0.7298E+03
     13.728  0.0000E+00  0.9148E+01  0.7320E+03  0.7320E+03
     13.967  0.0000E+00  0.7269E-05  0.7320E+03  0.7320E+03
     14.205  0.0000E+00  0.0000E+00  0.7320E+03  0.7320E+03
     14.444  0.0000E+00  0.0000E+00  0.7320E+03  0.7320E+03
     14.683  0.0000E+00  0.0000E+00  0.7320E+03  0.7320E+03
     14.921  0.0000E+00  0.0000E+00  0.7320E+03  0.7320E+03
     15.160  0.0000E+00  0.0000E+00  0.7320E+03  0.7320E+03
     15.398  0.0000E+00  0.0000E+00  0.7320E+03  0.7320E+03
     15.637  0.0000E+00  0.0000E+00  0.7320E+03  0.7320E+03
     15.875  0.0000E+00  0.0000E+00  0.7320E+03  0.7320E+03
     16.114  0.0000E+00  0.0000E+00  0.7320E+03  0.7320E+03
     16.353  0.0000E+00  0.0000E+00  0.7320E+03  0.7320E+03
     16.591  0.0000E+00  0.0000E+00  0.7320E+03  0.7320E+03
     16.830  0.0000E+00  0.0000E+00  0.7320E+03  0.7320E+03
