  224  224    1    2
  0.1357572E+02  0.1537960E-08  0.1537962E-08  0.1395899E-08  0.5000000E-15
  1.000000000000000E-004
  CAR 
 unknown system                          
   1664      8   1208
 
  0.0000000E+00  0.0000000E+00  0.0000000E+00  0.1250000E+00
    1      -51.142178    -46.391503   1.000000   1.000000
    2      -51.141942    -46.391049   1.000000   1.000000
    3      -51.141554    -46.390900   1.000000   1.000000
    4      -51.141499    -46.390743   1.000000   1.000000
    5      -51.141430    -46.390714   1.000000   1.000000
    6      -51.141277    -46.390528   1.000000   1.000000
    7      -51.141233    -46.390456   1.000000   1.000000
    8      -51.141215    -46.390379   1.000000   1.000000
    9      -51.141159    -46.390326   1.000000   1.000000
   10      -51.141112    -46.390271   1.000000   1.000000
   11      -51.141056    -46.390180   1.000000   1.000000
   12      -51.141046    -46.390140   1.000000   1.000000
   13      -51.141001    -46.390136   1.000000   1.000000
   14      -51.140928    -46.390027   1.000000   1.000000
   15      -51.140918    -46.390003   1.000000   1.000000
   16      -51.140886    -46.389931   1.000000   1.000000
   17      -51.140815    -46.389887   1.000000   1.000000
   18      -51.140801    -46.389856   1.000000   1.000000
   19      -51.140764    -46.389834   1.000000   1.000000
   20      -51.140736    -46.389796   1.000000   1.000000
   21      -51.140679    -46.389644   1.000000   1.000000
   22      -51.140629    -46.389598   1.000000   1.000000
   23      -51.140557    -46.389587   1.000000   1.000000
   24      -51.140555    -46.389569   1.000000   1.000000
   25      -51.140549    -46.389552   1.000000   1.000000
   26      -51.140525    -46.389534   1.000000   1.000000
   27      -51.140502    -46.389487   1.000000   1.000000
   28      -51.140487    -46.389480   1.000000   1.000000
   29      -51.140461    -46.389464   1.000000   1.000000
   30      -51.140451    -46.389443   1.000000   1.000000
   31      -51.140436    -46.389307   1.000000   1.000000
   32      -51.140384    -46.389214   1.000000   1.000000
   33      -51.140328    -46.389171   1.000000   1.000000
   34      -51.140290    -46.389103   1.000000   1.000000
   35      -51.140186    -46.389076   1.000000   1.000000
   36      -51.140134    -46.388989   1.000000   1.000000
   37      -51.140121    -46.388916   1.000000   1.000000
   38      -51.140101    -46.388894   1.000000   1.000000
   39      -51.140087    -46.388835   1.000000   1.000000
   40      -51.140064    -46.388829   1.000000   1.000000
   41      -51.140055    -46.388822   1.000000   1.000000
   42      -51.140047    -46.388788   1.000000   1.000000
   43      -51.140023    -46.388776   1.000000   1.000000
   44      -51.140001    -46.388736   1.000000   1.000000
   45      -51.139980    -46.388707   1.000000   1.000000
   46      -51.139904    -46.388681   1.000000   1.000000
   47      -51.139893    -46.388638   1.000000   1.000000
   48      -51.139861    -46.388610   1.000000   1.000000
   49      -51.139809    -46.388520   1.000000   1.000000
   50      -51.139794    -46.388482   1.000000   1.000000
   51      -51.139759    -46.388464   1.000000   1.000000
   52      -51.139690    -46.388415   1.000000   1.000000
   53      -51.139665    -46.388363   1.000000   1.000000
   54      -51.139617    -46.388316   1.000000   1.000000
   55      -51.139581    -46.388225   1.000000   1.000000
   56      -51.139539    -46.388179   1.000000   1.000000
   57      -51.139512    -46.388092   1.000000   1.000000
   58      -51.139466    -46.388038   1.000000   1.000000
   59      -51.139338    -46.388010   1.000000   1.000000
   60      -51.139280    -46.387897   1.000000   1.000000
   61      -51.139180    -46.387766   1.000000   1.000000
   62      -51.139100    -46.387657   1.000000   1.000000
   63      -51.138628    -46.387401   1.000000   1.000000
   64      -51.138488    -46.387084   1.000000   1.000000
   65      -49.647894    -45.929546   1.000000   1.000000
   66      -49.647843    -45.929451   1.000000   1.000000
   67      -49.647753    -45.929392   1.000000   1.000000
   68      -49.647733    -45.929332   1.000000   1.000000
   69      -49.647707    -45.928971   1.000000   1.000000
   70      -49.647668    -45.928940   1.000000   1.000000
   71      -49.647456    -45.928911   1.000000   1.000000
   72      -49.647423    -45.928859   1.000000   1.000000
   73      -49.647396    -45.928798   1.000000   1.000000
   74      -49.647350    -45.928761   1.000000   1.000000
   75      -49.647322    -45.928720   1.000000   1.000000
   76      -49.647295    -45.928693   1.000000   1.000000
   77      -49.647263    -45.928675   1.000000   1.000000
   78      -49.647252    -45.928638   1.000000   1.000000
   79      -49.647247    -45.928615   1.000000   1.000000
   80      -49.647233    -45.928585   1.000000   1.000000
   81      -49.647222    -45.928572   1.000000   1.000000
   82      -49.647208    -45.928552   1.000000   1.000000
   83      -49.647153    -45.928533   1.000000   1.000000
   84      -49.647138    -45.928479   1.000000   1.000000
   85      -49.647108    -45.928427   1.000000   1.000000
   86      -49.647105    -45.928390   1.000000   1.000000
   87      -49.647049    -45.928349   1.000000   1.000000
   88      -49.647041    -45.928342   1.000000   1.000000
   89      -49.646942    -45.928333   1.000000   1.000000
   90      -49.646917    -45.928310   1.000000   1.000000
   91      -49.646886    -45.928271   1.000000   1.000000
   92      -49.646841    -45.928248   1.000000   1.000000
   93      -49.646794    -45.928241   1.000000   1.000000
   94      -49.646747    -45.928208   1.000000   1.000000
   95      -49.646738    -45.928167   1.000000   1.000000
   96      -49.646706    -45.928120   1.000000   1.000000
   97      -49.646706    -45.928112   1.000000   1.000000
   98      -49.646675    -45.928086   1.000000   1.000000
   99      -49.646600    -45.928054   1.000000   1.000000
  100      -49.646564    -45.928023   1.000000   1.000000
  101      -49.646509    -45.927998   1.000000   1.000000
  102      -49.646491    -45.927959   1.000000   1.000000
  103      -49.646425    -45.927902   1.000000   1.000000
  104      -49.646398    -45.927873   1.000000   1.000000
  105      -49.646356    -45.927845   1.000000   1.000000
  106      -49.646339    -45.927826   1.000000   1.000000
  107      -49.646276    -45.927787   1.000000   1.000000
  108      -49.646267    -45.927697   1.000000   1.000000
  109      -49.646237    -45.927682   1.000000   1.000000
  110      -49.646170    -45.927637   1.000000   1.000000
  111      -49.646150    -45.927633   1.000000   1.000000
  112      -49.646112    -45.927585   1.000000   1.000000
  113      -49.646110    -45.927551   1.000000   1.000000
  114      -49.646087    -45.927514   1.000000   1.000000
  115      -49.646048    -45.927460   1.000000   1.000000
  116      -49.646027    -45.927423   1.000000   1.000000
  117      -49.645971    -45.927395   1.000000   1.000000
  118      -49.645927    -45.927361   1.000000   1.000000
  119      -49.645895    -45.927319   1.000000   1.000000
  120      -49.645884    -45.927300   1.000000   1.000000
  121      -49.645848    -45.927262   1.000000   1.000000
  122      -49.645786    -45.927241   1.000000   1.000000
  123      -49.645744    -45.927200   1.000000   1.000000
  124      -49.645722    -45.927177   1.000000   1.000000
  125      -49.645701    -45.927174   1.000000   1.000000
  126      -49.645673    -45.927156   1.000000   1.000000
  127      -49.645573    -45.927141   1.000000   1.000000
  128      -49.645562    -45.927116   1.000000   1.000000
  129      -49.645539    -45.927101   1.000000   1.000000
  130      -49.645491    -45.927086   1.000000   1.000000
  131      -49.645445    -45.927046   1.000000   1.000000
  132      -49.645425    -45.927022   1.000000   1.000000
  133      -49.645405    -45.927008   1.000000   1.000000
  134      -49.645383    -45.926995   1.000000   1.000000
  135      -49.645368    -45.926983   1.000000   1.000000
  136      -49.645358    -45.926965   1.000000   1.000000
  137      -49.645354    -45.926948   1.000000   1.000000
  138      -49.645317    -45.926919   1.000000   1.000000
  139      -49.645303    -45.926890   1.000000   1.000000
  140      -49.645280    -45.926866   1.000000   1.000000
  141      -49.645246    -45.926844   1.000000   1.000000
  142      -49.645219    -45.926821   1.000000   1.000000
  143      -49.645204    -45.926766   1.000000   1.000000
  144      -49.645189    -45.926755   1.000000   1.000000
  145      -49.645175    -45.926740   1.000000   1.000000
  146      -49.645124    -45.926718   1.000000   1.000000
  147      -49.645110    -45.926686   1.000000   1.000000
  148      -49.645097    -45.926682   1.000000   1.000000
  149      -49.645055    -45.926631   1.000000   1.000000
  150      -49.645013    -45.926609   1.000000   1.000000
  151      -49.644951    -45.926568   1.000000   1.000000
  152      -49.644935    -45.926563   1.000000   1.000000
  153      -49.644912    -45.926546   1.000000   1.000000
  154      -49.644898    -45.926530   1.000000   1.000000
  155      -49.644855    -45.926515   1.000000   1.000000
  156      -49.644832    -45.926487   1.000000   1.000000
  157      -49.644826    -45.926447   1.000000   1.000000
  158      -49.644797    -45.926427   1.000000   1.000000
  159      -49.644739    -45.926413   1.000000   1.000000
  160      -49.644730    -45.926389   1.000000   1.000000
  161      -49.644649    -45.926382   1.000000   1.000000
  162      -49.644629    -45.926375   1.000000   1.000000
  163      -49.644561    -45.926352   1.000000   1.000000
  164      -49.644555    -45.926310   1.000000   1.000000
  165      -49.644506    -45.926304   1.000000   1.000000
  166      -49.644485    -45.926300   1.000000   1.000000
  167      -49.644444    -45.926249   1.000000   1.000000
  168      -49.644416    -45.926212   1.000000   1.000000
  169      -49.644392    -45.926147   1.000000   1.000000
  170      -49.644344    -45.926113   1.000000   1.000000
  171      -49.644279    -45.926105   1.000000   1.000000
  172      -49.644267    -45.926080   1.000000   1.000000
  173      -49.644202    -45.926074   1.000000   1.000000
  174      -49.644170    -45.926055   1.000000   1.000000
  175      -49.644137    -45.926028   1.000000   1.000000
  176      -49.644122    -45.926022   1.000000   1.000000
  177      -49.644057    -45.925922   1.000000   1.000000
  178      -49.644017    -45.925909   1.000000   1.000000
  179      -49.643984    -45.925882   1.000000   1.000000
  180      -49.643972    -45.925874   1.000000   1.000000
  181      -49.643886    -45.925818   1.000000   1.000000
  182      -49.643797    -45.925782   1.000000   1.000000
  183      -49.643743    -45.925639   1.000000   1.000000
  184      -49.643726    -45.925623   1.000000   1.000000
  185      -49.643694    -45.925572   1.000000   1.000000
  186      -49.643658    -45.925565   1.000000   1.000000
  187      -49.643573    -45.925485   1.000000   1.000000
  188      -49.643529    -45.925459   1.000000   1.000000
  189      -49.643298    -45.925263   1.000000   1.000000
  190      -49.643268    -45.925198   1.000000   1.000000
  191      -49.642884    -45.925157   1.000000   1.000000
  192      -49.642823    -45.925111   1.000000   1.000000
  193      -39.641192    -39.640276   1.000000   1.000000
  194      -39.641026    -39.640108   1.000000   1.000000
  195      -39.634137    -39.633266   1.000000   1.000000
  196      -39.633519    -39.632646   1.000000   1.000000
  197      -39.633433    -39.632560   1.000000   1.000000
  198      -39.633431    -39.632558   1.000000   1.000000
  199      -39.633420    -39.632548   1.000000   1.000000
  200      -39.633323    -39.632450   1.000000   1.000000
  201      -39.633319    -39.632447   1.000000   1.000000
  202      -39.632963    -39.632092   1.000000   1.000000
  203      -39.628113    -39.627276   1.000000   1.000000
  204      -39.628065    -39.627227   1.000000   1.000000
  205      -39.627780    -39.626943   1.000000   1.000000
  206      -39.627748    -39.626911   1.000000   1.000000
  207      -39.627742    -39.626904   1.000000   1.000000
  208      -39.627678    -39.626839   1.000000   1.000000
  209      -39.627596    -39.626758   1.000000   1.000000
  210      -39.627515    -39.626679   1.000000   1.000000
  211      -39.616839    -39.616065   1.000000   1.000000
  212      -39.616195    -39.615418   1.000000   1.000000
  213      -39.616095    -39.615321   1.000000   1.000000
  214      -39.616031    -39.615254   1.000000   1.000000
  215      -39.615969    -39.615193   1.000000   1.000000
  216      -39.615613    -39.614833   1.000000   1.000000
  217      -39.615600    -39.614827   1.000000   1.000000
  218      -39.615501    -39.614721   1.000000   1.000000
  219      -39.615412    -39.614640   1.000000   1.000000
  220      -39.615399    -39.614630   1.000000   1.000000
  221      -39.615307    -39.614540   1.000000   1.000000
  222      -39.615222    -39.614455   1.000000   1.000000
  223      -39.615216    -39.614449   1.000000   1.000000
  224      -39.615188    -39.614420   1.000000   1.000000
  225      -39.615139    -39.614372   1.000000   1.000000
  226      -39.615136    -39.614369   1.000000   1.000000
  227      -39.615017    -39.614249   1.000000   1.000000
  228      -39.614996    -39.614228   1.000000   1.000000
  229      -39.614957    -39.614188   1.000000   1.000000
  230      -39.614936    -39.614166   1.000000   1.000000
  231      -39.614886    -39.614117   1.000000   1.000000
  232      -39.614885    -39.614117   1.000000   1.000000
  233      -39.614699    -39.613933   1.000000   1.000000
  234      -39.614671    -39.613905   1.000000   1.000000
  235      -39.614334    -39.613576   1.000000   1.000000
  236      -39.614268    -39.613511   1.000000   1.000000
  237      -39.614064    -39.613305   1.000000   1.000000
  238      -39.613877    -39.613114   1.000000   1.000000
  239      -39.604134    -39.603415   1.000000   1.000000
  240      -39.604068    -39.603350   1.000000   1.000000
  241      -39.603856    -39.603137   1.000000   1.000000
  242      -39.603785    -39.603066   1.000000   1.000000
  243      -39.603778    -39.603059   1.000000   1.000000
  244      -39.603755    -39.603035   1.000000   1.000000
  245      -39.603678    -39.602959   1.000000   1.000000
  246      -39.603630    -39.602911   1.000000   1.000000
  247      -39.600045    -39.599341   1.000000   1.000000
  248      -39.599598    -39.598892   1.000000   1.000000
  249      -39.599593    -39.598888   1.000000   1.000000
  250      -39.599578    -39.598872   1.000000   1.000000
  251      -39.599570    -39.598865   1.000000   1.000000
  252      -39.599483    -39.598778   1.000000   1.000000
  253      -39.599483    -39.598777   1.000000   1.000000
  254      -39.599075    -39.598370   1.000000   1.000000
  255      -39.593304    -39.592622   1.000000   1.000000
  256      -39.593240    -39.592558   1.000000   1.000000
  257      -12.747367    -12.467906   1.000000   1.000000
  258      -12.747169    -12.467699   1.000000   1.000000
  259      -12.719912    -12.440185   1.000000   1.000000
  260      -12.719510    -12.439761   1.000000   1.000000
  261      -12.719443    -12.439698   1.000000   1.000000
  262      -12.719386    -12.439627   1.000000   1.000000
  263      -12.719366    -12.439607   1.000000   1.000000
  264      -12.719227    -12.439483   1.000000   1.000000
  265      -12.719221    -12.439478   1.000000   1.000000
  266      -12.719051    -12.439298   1.000000   1.000000
  267      -12.697269    -12.417101   1.000000   1.000000
  268      -12.697221    -12.417059   1.000000   1.000000
  269      -12.694928    -12.415325   1.000000   1.000000
  270      -12.694881    -12.415280   1.000000   1.000000
  271      -12.694788    -12.415172   1.000000   1.000000
  272      -12.694675    -12.415075   1.000000   1.000000
  273      -12.692436    -12.413379   1.000000   1.000000
  274      -12.692412    -12.413352   1.000000   1.000000
  275      -12.691343    -12.411331   1.000000   1.000000
  276      -12.691318    -12.411306   1.000000   1.000000
  277      -12.691281    -12.411239   1.000000   1.000000
  278      -12.691166    -12.411141   1.000000   1.000000
  279      -12.672913    -12.392908   1.000000   1.000000
  280      -12.672781    -12.392765   1.000000   1.000000
  281      -12.672711    -12.392703   1.000000   1.000000
  282      -12.672482    -12.392471   1.000000   1.000000
  283      -12.667828    -12.388940   1.000000   1.000000
  284      -12.667712    -12.388820   1.000000   1.000000
  285      -12.667637    -12.388753   1.000000   1.000000
  286      -12.667410    -12.388523   1.000000   1.000000
  287      -12.654576    -12.374627   1.000000   1.000000
  288      -12.643796    -12.366075   1.000000   1.000000
  289       -7.800001     -7.599001   1.000000   1.000000
  290       -7.748212     -7.551490   1.000000   1.000000
  291       -7.505734     -7.319481   1.000000   1.000000
  292       -7.505408     -7.319154   1.000000   1.000000
  293       -7.505290     -7.319031   1.000000   1.000000
  294       -7.504939     -7.318671   1.000000   1.000000
  295       -7.501274     -7.309145   1.000000   1.000000
  296       -7.500993     -7.308852   1.000000   1.000000
  297       -7.500844     -7.308707   1.000000   1.000000
  298       -7.500514     -7.308361   1.000000   1.000000
  299       -7.315337     -7.117884   1.000000   1.000000
  300       -7.314931     -7.117475   1.000000   1.000000
  301       -7.297034     -7.093748   1.000000   1.000000
  302       -7.296938     -7.093662   1.000000   1.000000
  303       -7.296641     -7.093346   1.000000   1.000000
  304       -7.296541     -7.093259   1.000000   1.000000
  305       -7.269410     -7.062112   1.000000   1.000000
  306       -7.269000     -7.061698   1.000000   1.000000
  307       -7.088630     -6.894236   1.000000   1.000000
  308       -7.085026     -6.893829   1.000000   1.000000
  309       -7.084641     -6.893813   1.000000   1.000000
  310       -7.084613     -6.893395   1.000000   1.000000
  311       -7.084198     -6.796709   1.000000   1.000000
  312       -7.046541     -6.783770   1.000000   1.000000
  313       -7.000601     -6.768284   1.000000   1.000000
  314       -6.999834     -6.767891   1.000000   1.000000
  315       -6.999831     -6.767880   1.000000   1.000000
  316       -6.999782     -6.767435   1.000000   1.000000
  317       -6.999757     -6.766897   1.000000   1.000000
  318       -6.999666     -6.766148   1.000000   1.000000
  319       -6.999660     -6.766146   1.000000   1.000000
  320       -6.998959     -6.766097   1.000000   1.000000
  321       -6.994480     -6.766075   1.000000   1.000000
  322       -6.994228     -6.765978   1.000000   1.000000
  323       -6.994076     -6.765974   1.000000   1.000000
  324       -6.993656     -6.765176   1.000000   1.000000
  325       -6.956141     -6.745232   1.000000   1.000000
  326       -6.955751     -6.744934   1.000000   1.000000
  327       -6.955723     -6.744783   1.000000   1.000000
  328       -6.955308     -6.744404   1.000000   1.000000
  329       -6.948510     -6.697646   1.000000   1.000000
  330       -6.948077     -6.697206   1.000000   1.000000
  331       -6.928987     -6.689455   1.000000   1.000000
  332       -6.928658     -6.689117   1.000000   1.000000
  333       -6.928534     -6.688987   1.000000   1.000000
  334       -6.928148     -6.688595   1.000000   1.000000
  335       -6.911298     -6.639960   1.000000   1.000000
  336       -6.911267     -6.639101   1.000000   1.000000
  337       -6.885886     -6.639095   1.000000   1.000000
  338       -6.885776     -6.639053   1.000000   1.000000
  339       -6.885448     -6.639014   1.000000   1.000000
  340       -6.885382     -6.638929   1.000000   1.000000
  341       -6.877521     -6.638924   1.000000   1.000000
  342       -6.876879     -6.638643   1.000000   1.000000
  343       -6.876876     -6.638520   1.000000   1.000000
  344       -6.876826     -6.638423   1.000000   1.000000
  345       -6.876800     -6.638176   1.000000   1.000000
  346       -6.876710     -6.637458   1.000000   1.000000
  347       -6.876704     -6.628056   1.000000   1.000000
  348       -6.875825     -6.628020   1.000000   1.000000
  349       -6.832780     -6.586820   1.000000   1.000000
  350       -6.832341     -6.586373   1.000000   1.000000
  351       -6.794251     -6.499069   1.000000   1.000000
  352       -6.794204     -6.499024   1.000000   1.000000
  353       -1.525535     -0.414633   1.000000   1.000000
  354       -1.467875     -0.414612   1.000000   1.000000
  355       -1.467787     -0.414525   1.000000   1.000000
  356       -1.467616     -0.414358   1.000000   1.000000
  357       -1.467458      0.026169   1.000000   1.000000
  358       -1.460438      0.026243   1.000000   1.000000
  359       -1.460375      0.026358   1.000000   1.000000
  360       -1.460236      0.026567   1.000000   1.000000
  361       -1.460031      0.037736   1.000000   1.000000
  362       -1.421484      0.037874   1.000000   1.000000
  363       -1.421277      0.037936   1.000000   1.000000
  364       -1.382944      0.037979   1.000000   1.000000
  365       -1.382861      0.038023   1.000000   1.000000
  366       -1.382810      0.038149   1.000000   1.000000
  367       -1.382544      0.038265   1.000000   1.000000
  368       -1.332799      0.038306   1.000000   1.000000
  369       -1.332640      0.102848   1.000000   1.000000
  370       -1.332612      0.102886   1.000000   1.000000
  371       -1.332595      0.207389   1.000000   1.000000
  372       -1.332584      0.207436   1.000000   1.000000
  373       -1.332329      0.207542   1.000000   1.000000
  374       -1.332299      0.207695   1.000000   1.000000
  375       -1.332258      0.304121   1.000000   1.000000
  376       -1.292662      0.392407   1.000000   1.000000
  377       -1.292598      0.392466   1.000000   1.000000
  378       -1.292429      0.392571   1.000000   1.000000
  379       -1.292275      0.392791   1.000000   1.000000
  380       -1.256860      0.490841   1.000000   1.000000
  381       -1.256755      0.490878   1.000000   1.000000
  382       -1.232289      0.497354   1.000000   1.000000
  383       -1.232079      0.497680   1.000000   1.000000
  384       -1.220402      0.497754   1.000000   1.000000
  385       -0.822812      0.497989   1.000000   1.000000
  386       -0.822745      0.510661   1.000000   1.000000
  387       -0.822648      0.510778   1.000000   1.000000
  388       -0.822572      0.531161   1.000000   1.000000
  389       -0.722657      0.531176   1.000000   1.000000
  390       -0.722651      0.531319   1.000000   1.000000
  391       -0.699257      0.531405   1.000000   1.000000
  392       -0.699130      0.574143   1.000000   1.000000
  393       -0.698907      0.574284   1.000000   1.000000
  394       -0.698870      0.574306   1.000000   1.000000
  395       -0.688469      0.574345   1.000000   1.000000
  396       -0.688427      0.574381   1.000000   1.000000
  397       -0.688197      0.574452   1.000000   1.000000
  398       -0.688120      0.574492   1.000000   1.000000
  399       -0.666685      0.574748   1.000000   1.000000
  400       -0.666653      0.638574   1.000000   1.000000
  401       -0.666432      0.666134   1.000000   1.000000
  402       -0.666381      0.666502   1.000000   1.000000
  403       -0.652013      0.732977   1.000000   1.000000
  404       -0.651981      0.733123   1.000000   1.000000
  405       -0.651762      0.931420   1.000000   1.000000
  406       -0.651700      0.932613   1.000000   1.000000
  407       -0.589442      0.935455   1.000000   1.000000
  408       -0.589391      0.935787   1.000000   1.000000
  409       -0.576676      0.948761   1.000000   1.000000
  410       -0.576650      0.948909   1.000000   1.000000
  411       -0.576462      0.949036   1.000000   1.000000
  412       -0.576390      0.949158   1.000000   1.000000
  413       -0.553419      0.986122   1.000000   1.000000
  414       -0.553324      0.986218   1.000000   1.000000
  415       -0.553085      0.986238   1.000000   1.000000
  416       -0.553043      0.986291   1.000000   1.000000
  417       -0.497605      0.992790   1.000000   1.000000
  418       -0.496848      0.992985   1.000000   1.000000
  419       -0.472892      1.008664   1.000000   1.000000
  420       -0.472654      1.008920   1.000000   1.000000
  421       -0.461566      1.008950   1.000000   1.000000
  422       -0.461463      1.009143   1.000000   1.000000
  423       -0.461219      1.018515   1.000000   1.000000
  424       -0.461216      1.048983   1.000000   1.000000
  425       -0.459792      1.049214   1.000000   1.000000
  426       -0.459686      1.051559   1.000000   1.000000
  427       -0.459410      1.051648   1.000000   1.000000
  428       -0.459401      1.051812   1.000000   1.000000
  429       -0.410155      1.051887   1.000000   1.000000
  430       -0.409865      1.078574   1.000000   1.000000
  431       -0.407653      1.078658   1.000000   1.000000
  432       -0.407566      1.078902   1.000000   1.000000
  433       -0.407494      1.078977   1.000000   1.000000
  434       -0.407463      1.079751   1.000000   1.000000
  435       -0.407360      1.079846   1.000000   1.000000
  436       -0.407227      1.079904   1.000000   1.000000
  437       -0.383321      1.079910   1.000000   1.000000
  438       -0.383248      1.192659   1.000000   1.000000
  439       -0.378155      1.193004   1.000000   1.000000
  440       -0.368814      1.376350   1.000000   1.000000
  441       -0.368807      1.390263   1.000000   1.000000
  442       -0.368794      1.391156   1.000000   1.000000
  443       -0.368673      1.391198   1.000000   1.000000
  444       -0.368647      1.391337   1.000000   1.000000
  445       -0.368632      1.391365   1.000000   1.000000
  446       -0.368608      1.437162   1.000000   1.000000
  447       -0.368536      1.450054   1.000000   1.000000
  448       -0.353570      1.525921   1.000000   1.000000
  449       -0.353492      1.526296   1.000000   1.000000
  450       -0.349073      1.526457   1.000000   1.000000
  451       -0.341811      1.526529   1.000000   1.000000
  452       -0.335841      1.528639   1.000000   1.000000
  453       -0.335760      1.528863   1.000000   1.000000
  454       -0.335428      1.529010   1.000000   1.000000
  455       -0.335337      1.529096   1.000000   1.000000
  456       -0.334322      1.558231   1.000000   1.000000
  457       -0.334241      1.558292   1.000000   1.000000
  458       -0.333964      1.558432   1.000000   1.000000
  459       -0.333946      1.558456   1.000000   1.000000
  460       -0.324253      1.566625   1.000000   1.000000
  461       -0.324249      1.566679   1.000000   1.000000
  462       -0.323993      1.566874   1.000000   1.000000
  463       -0.323836      1.567016   1.000000   1.000000
  464       -0.321652      1.568142   1.000000   1.000000
  465       -0.321640      1.568199   1.000000   1.000000
  466       -0.321298      1.568456   1.000000   1.000000
  467       -0.321160      1.568572   1.000000   1.000000
  468       -0.303871      1.586499   1.000000   1.000000
  469       -0.295950      1.586752   1.000000   1.000000
  470       -0.288018      1.695602   1.000000   1.000000
  471       -0.287928      1.695920   1.000000   1.000000
  472       -0.287773      1.740877   1.000000   1.000000
  473       -0.287651      1.741055   1.000000   1.000000
  474       -0.280426      1.741175   1.000000   1.000000
  475       -0.280332      1.741482   1.000000   1.000000
  476       -0.275164      1.746220   1.000000   1.000000
  477       -0.275054      1.746882   1.000000   1.000000
  478       -0.274809      1.746922   1.000000   1.000000
  479       -0.274680      1.747112   1.000000   1.000000
  480       -0.241665      1.779086   1.000000   1.000000
  481       -0.241634      1.780607   1.000000   1.000000
  482       -0.241595      1.780647   1.000000   1.000000
  483       -0.241563      1.836805   1.000000   1.000000
  484       -0.241379      1.836906   1.000000   1.000000
  485       -0.241334      1.837418   1.000000   1.000000
  486       -0.241289      1.837449   1.000000   1.000000
  487       -0.241269      1.837762   1.000000   1.000000
  488       -0.207392      1.837766   1.000000   1.000000
  489       -0.207386      1.838386   1.000000   1.000000
  490       -0.199732      1.838465   1.000000   1.000000
  491       -0.199625      1.866239   1.000000   1.000000
  492       -0.199480      1.866443   1.000000   1.000000
  493       -0.199364      1.912989   1.000000   1.000000
  494       -0.194103      1.913467   1.000000   1.000000
  495       -0.193910      1.913521   1.000000   1.000000
  496       -0.163962      1.913543   1.000000   1.000000
  497       -0.163928      1.913639   1.000000   1.000000
  498       -0.163754      1.913664   1.000000   1.000000
  499       -0.163744      1.913745   1.000000   1.000000
  500       -0.156695      1.913808   1.000000   1.000000
  501       -0.156590      1.926807   1.000000   1.000000
  502       -0.156182      1.926932   1.000000   1.000000
  503       -0.156151      1.927079   1.000000   1.000000
  504       -0.139076      1.927243   1.000000   1.000000
  505       -0.139036      2.133190   1.000000   1.000000
  506       -0.138824      2.133260   1.000000   1.000000
  507       -0.138763      2.191270   1.000000   1.000000
  508       -0.091094      2.193200   1.000000   1.000000
  509       -0.090810      2.300583   1.000000   1.000000
  510       -0.082561      2.300747   1.000000   1.000000
  511       -0.082524      2.301209   1.000000   1.000000
  512       -0.082459      2.301267   1.000000   1.000000