 vasp.5.4.4.18Apr17-6-g9f103f2a35 (build Oct 25 2017 14:42:18) complex          
  
 executed on             LinuxIFC date 2021.04.17  03:49:25
 running on   48 total cores
 distrk:  each k-point on   24 cores,    2 groups
 distr:  one band on NCORES_PER_BAND=   6 cores,    4 groups


--------------------------------------------------------------------------------------------------------


 INCAR:
 POTCAR:    PAW_PBE Li_sv 10Sep2004               
 POTCAR:    PAW_PBE O 08Apr2002                   
 POTCAR:    PAW_PBE S 06Sep2000                   
 POTCAR:    PAW_PBE Fe_pv 02Aug2007               

 ----------------------------------------------------------------------------- 
|                                                                             |
|           W    W    AA    RRRRR   N    N  II  N    N   GGGG   !!!           |
|           W    W   A  A   R    R  NN   N  II  NN   N  G    G  !!!           |
|           W    W  A    A  R    R  N N  N  II  N N  N  G       !!!           |
|           W WW W  AAAAAA  RRRRR   N  N N  II  N  N N  G  GGG   !            |
|           WW  WW  A    A  R   R   N   NN  II  N   NN  G    G                |
|           W    W  A    A  R    R  N    N  II  N    N   GGGG   !!!           |
|                                                                             |
|      You have enabled k-point parallelism (KPAR>1).                         |
|      This developmental code was originally  written by Paul Kent at ORNL,  |
|      and carefully double checked in Vienna.                                |
|      GW as well as linear response parallelism added by Martijn Marsman     |
|      and Georg Kresse.                                                      |
|      Carefully verify results versus KPAR=1.                                |
|      Report problems to Paul Kent and Vienna.                               |
|                                                                             |
 ----------------------------------------------------------------------------- 

 POTCAR:    PAW_PBE Li_sv 10Sep2004               
  local pseudopotential read in
  atomic valenz-charges read in
  non local Contribution for L=           0  read in
    real space projection operators read in
  non local Contribution for L=           0  read in
    real space projection operators read in
  non local Contribution for L=           1  read in
    real space projection operators read in
    PAW grid and wavefunctions read in
 
   number of l-projection  operators is LMAX  =           3
   number of lm-projection operators is LMMAX =           5
 
 POTCAR:    PAW_PBE O 08Apr2002                   
  local pseudopotential read in
  partial core-charges read in
  partial kinetic energy density read in
  kinetic energy density of atom read in
  atomic valenz-charges read in
  non local Contribution for L=           0  read in
    real space projection operators read in
  non local Contribution for L=           0  read in
    real space projection operators read in
  non local Contribution for L=           1  read in
    real space projection operators read in
  non local Contribution for L=           1  read in
    real space projection operators read in
    PAW grid and wavefunctions read in
 
   number of l-projection  operators is LMAX  =           4
   number of lm-projection operators is LMMAX =           8
 
 POTCAR:    PAW_PBE S 06Sep2000                   
  local pseudopotential read in
  partial core-charges read in
  partial kinetic energy density read in
  atomic valenz-charges read in
  non local Contribution for L=           0  read in
    real space projection operators read in
  non local Contribution for L=           0  read in
    real space projection operators read in
  non local Contribution for L=           1  read in
    real space projection operators read in
  non local Contribution for L=           1  read in
    real space projection operators read in
    PAW grid and wavefunctions read in
 
   number of l-projection  operators is LMAX  =           4
   number of lm-projection operators is LMMAX =           8
 
 POTCAR:    PAW_PBE Fe_pv 02Aug2007               
  local pseudopotential read in
  partial core-charges read in
  partial kinetic energy density read in
  atomic valenz-charges read in
  non local Contribution for L=           1  read in
    real space projection operators read in
  non local Contribution for L=           1  read in
    real space projection operators read in
  non local Contribution for L=           2  read in
    real space projection operators read in
  non local Contribution for L=           2  read in
    real space projection operators read in
  non local Contribution for L=           0  read in
    real space projection operators read in
  non local Contribution for L=           0  read in
    real space projection operators read in
    PAW grid and wavefunctions read in
 
   number of l-projection  operators is LMAX  =           6
   number of lm-projection operators is LMMAX =          18
 

 ----------------------------------------------------------------------------- 
|                                                                             |
|  ADVICE TO THIS USER RUNNING 'VASP/VAMP'   (HEAR YOUR MASTER'S VOICE ...):  |
|                                                                             |
|      You have a (more or less) 'large supercell' and for larger cells       |
|      it might be more efficient to use real space projection opertators     |
|      So try LREAL= Auto  in the INCAR   file.                               |
|      Mind:          For very  accurate calculation you might also keep the  |
|      reciprocal projection scheme          (i.e. LREAL=.FALSE.)             |
|                                                                             |
 ----------------------------------------------------------------------------- 

  PAW_PBE Li_sv 10Sep2004               :
 energy of atom  1       EATOM= -202.7858
 kinetic energy error for atom=    0.0072 (will be added to EATOM!!)
  PAW_PBE O 08Apr2002                   :
 energy of atom  2       EATOM= -432.3788
 kinetic energy error for atom=    0.0129 (will be added to EATOM!!)
  PAW_PBE S 06Sep2000                   :
 energy of atom  3       EATOM= -276.8230
 kinetic energy error for atom=    0.0008 (will be added to EATOM!!)
  PAW_PBE Fe_pv 02Aug2007               :
 energy of atom  4       EATOM=-2457.4239
 kinetic energy error for atom=    0.0041 (will be added to EATOM!!)
 
 
 POSCAR: # Compound: Li36O18S36Fe36. Old comment:
  positions in direct lattice
  No initial velocities read in
 exchange correlation table for  LEXCH =        8
   RHO(1)=    0.500       N(1)  =     2000
   RHO(2)=  100.500       N(2)  =     4000
 


--------------------------------------------------------------------------------------------------------


 ion  position               nearest neighbor table
   1  0.149  0.017  0.000-  37 1.92  39 1.93
   2  0.483  0.017  0.000-  38 1.93  37 1.94
   3  0.816  0.017  0.000-  39 1.93  38 1.93
   4  0.149  0.351  0.000-  40 1.93  42 1.93
   5  0.483  0.351  0.000-  41 1.93  40 1.93
   6  0.816  0.351  0.000-  42 1.93  41 1.93
   7  0.149  0.684  0.000-  43 1.93  45 1.93
   8  0.483  0.684  0.000-  44 1.93  43 1.93
   9  0.816  0.684  0.000-  45 1.93  44 1.93
  10  0.149  0.017  0.500-  46 1.93  48 1.93
  11  0.483  0.017  0.500-  47 1.93  46 1.93
  12  0.816  0.017  0.500-  48 1.93  47 1.93
  13  0.149  0.351  0.500-  49 1.93  51 1.93
  14  0.483  0.351  0.500-  50 1.93  49 1.93
  15  0.816  0.351  0.500-  51 1.93  50 1.93
  16  0.149  0.684  0.500-  52 1.93  54 1.93
  17  0.483  0.684  0.500-  53 1.93  52 1.93
  18  0.816  0.684  0.500-  54 1.93  53 1.93
  19  0.316  0.184  0.500-  46 1.93  49 1.93
  20  0.649  0.184  0.500-  47 1.93  50 1.93
  21  0.983  0.184  0.500-  48 1.93  51 1.93
  22  0.316  0.517  0.500-  49 1.93  52 1.93
  23  0.649  0.517  0.500-  50 1.93  53 1.93
  24  0.983  0.517  0.500-  51 1.93  54 1.93
  25  0.316  0.851  0.500-  52 1.93  46 1.93
  26  0.649  0.851  0.500-  53 1.93  47 1.93
  27  0.983  0.851  0.500-  54 1.93  48 1.93
  28  0.316  0.184  1.000-  37 1.93  40 1.93
  29  0.649  0.184  1.000-  38 1.93  41 1.93
  30  0.983  0.184  1.000-  39 1.93  42 1.93
  31  0.316  0.517  1.000-  40 1.93  43 1.93
  32  0.649  0.517  1.000-  41 1.93  44 1.93
  33  0.983  0.517  1.000-  42 1.93  45 1.93
  34  0.316  0.851  1.000-  43 1.93  37 1.93
  35  0.649  0.851  1.000-  44 1.93  38 1.93
  36  0.983  0.851  1.000-  45 1.93  39 1.93
  37  0.315  0.017  0.000-   1 1.92  28 1.93  34 1.93   2 1.94 124 2.04  92 2.04
  38  0.649  0.017  0.000-  29 1.93   2 1.93   3 1.93  35 1.93  93 2.04 125 2.04
  39  0.983  0.017  0.000-  30 1.93   3 1.93   1 1.93  36 1.93  91 2.04 126 2.04
  40  0.316  0.351  0.000-  31 1.93   4 1.93   5 1.93  28 1.93  95 2.04 118 2.04
  41  0.649  0.351  0.000-  32 1.93   5 1.93   6 1.93  29 1.93  96 2.04 119 2.04
  42  0.983  0.351  0.000-  33 1.93   6 1.93   4 1.93  30 1.93  94 2.04 120 2.04
  43  0.316  0.684  0.000-  34 1.93   7 1.93   8 1.93  31 1.93  98 2.04 121 2.04
  44  0.649  0.684  0.000-  35 1.93   8 1.93   9 1.93  32 1.93  99 2.04 122 2.04
  45  0.983  0.684  0.000-  36 1.93   9 1.93   7 1.93  33 1.93  97 2.04 123 2.04
  46  0.316  0.017  0.500-  19 1.93  10 1.93  11 1.93  25 1.93 101 2.04 115 2.04
  47  0.649  0.017  0.500-  20 1.93  11 1.93  12 1.93  26 1.93 102 2.04 116 2.04
  48  0.983  0.017  0.500-  21 1.93  12 1.93  10 1.93  27 1.93 100 2.04 117 2.04
  49  0.316  0.351  0.500-  22 1.93  13 1.93  14 1.93  19 1.93 104 2.04 109 2.04
  50  0.649  0.351  0.500-  23 1.93  14 1.93  15 1.93  20 1.93 105 2.04 110 2.04
  51  0.983  0.351  0.500-  24 1.93  15 1.93  13 1.93  21 1.93 103 2.04 111 2.04
  52  0.316  0.684  0.500-  25 1.93  16 1.93  17 1.93  22 1.93 107 2.04 112 2.04
  53  0.649  0.684  0.500-  26 1.93  17 1.93  18 1.93  23 1.93 108 2.04 113 2.04
  54  0.983  0.684  0.500-  27 1.93  18 1.93  16 1.93  24 1.93 106 2.04 114 2.04
  55  0.199  0.234  0.150- 109 2.43  91 2.73  94 2.73  92 2.73  95 2.73
  56  0.533  0.234  0.150- 110 2.43  92 2.73  95 2.73  93 2.73  96 2.73
  57  0.866  0.234  0.150- 111 2.43  93 2.73  96 2.73  91 2.73  94 2.73
  58  0.199  0.567  0.150- 112 2.43  94 2.73  97 2.73  95 2.73  98 2.73
  59  0.533  0.567  0.150- 113 2.43  95 2.73  98 2.73  96 2.73  99 2.73
  60  0.866  0.567  0.150- 114 2.43  96 2.73  99 2.73  94 2.73  97 2.73
  61  0.199  0.901  0.150- 115 2.43  97 2.73  91 2.73  98 2.73  92 2.73
  62  0.533  0.901  0.150- 116 2.43  98 2.73  92 2.73  99 2.73  93 2.73
  63  0.866  0.901  0.150- 117 2.43  99 2.73  93 2.73  97 2.73  91 2.73
  64  0.199  0.234  0.650- 118 2.43 100 2.73 103 2.73 101 2.73 104 2.73
  65  0.533  0.234  0.650- 119 2.43 101 2.73 104 2.73 102 2.73 105 2.73
  66  0.866  0.234  0.650- 120 2.43 102 2.73 105 2.73 100 2.73 103 2.73
  67  0.199  0.567  0.650- 121 2.43 103 2.73 106 2.73 104 2.73 107 2.73
  68  0.533  0.567  0.650- 122 2.43 104 2.73 107 2.73 105 2.73 108 2.73
  69  0.866  0.567  0.650- 123 2.43 105 2.73 108 2.73 103 2.73 106 2.73
  70  0.199  0.901  0.650- 124 2.43 106 2.73 100 2.73 107 2.73 101 2.73
  71  0.533  0.901  0.650- 125 2.43 107 2.73 101 2.73 108 2.73 102 2.73
  72  0.866  0.901  0.650- 126 2.43 108 2.73 102 2.73 106 2.73 100 2.73
  73  0.099  0.134  0.350-  91 2.43 109 2.73 111 2.73 115 2.73 117 2.73
  74  0.433  0.134  0.350-  92 2.43 110 2.73 109 2.73 116 2.73 115 2.73
  75  0.766  0.134  0.350-  93 2.43 111 2.73 110 2.73 117 2.73 116 2.73
  76  0.099  0.467  0.350-  94 2.43 112 2.73 114 2.73 109 2.73 111 2.73
  77  0.433  0.467  0.350-  95 2.43 113 2.73 112 2.73 110 2.73 109 2.73
  78  0.766  0.467  0.350-  96 2.43 114 2.73 113 2.73 111 2.73 110 2.73
  79  0.099  0.801  0.350-  97 2.43 115 2.73 117 2.73 112 2.73 114 2.73
  80  0.433  0.801  0.350-  98 2.43 116 2.73 115 2.73 113 2.73 112 2.73
  81  0.766  0.801  0.350-  99 2.43 117 2.73 116 2.73 114 2.73 113 2.73
  82  0.099  0.134  0.850- 100 2.43 118 2.73 120 2.73 124 2.73 126 2.73
  83  0.433  0.134  0.850- 101 2.43 119 2.73 118 2.73 125 2.73 124 2.73
  84  0.766  0.134  0.850- 102 2.43 120 2.73 119 2.73 126 2.73 125 2.73
  85  0.099  0.467  0.850- 103 2.43 121 2.73 123 2.73 118 2.73 120 2.73
  86  0.433  0.467  0.850- 104 2.43 122 2.73 121 2.73 119 2.73 118 2.73
  87  0.766  0.467  0.850- 105 2.43 123 2.73 122 2.73 120 2.73 119 2.73
  88  0.099  0.801  0.850- 106 2.43 124 2.73 126 2.73 121 2.73 123 2.73
  89  0.433  0.801  0.850- 107 2.43 125 2.73 124 2.73 122 2.73 121 2.73
  90  0.766  0.801  0.850- 108 2.43 126 2.73 125 2.73 123 2.73 122 2.73
  91  0.036  0.071  0.160-  39 2.04  73 2.43  55 2.73  61 2.73  57 2.73  63 2.73
  92  0.369  0.071  0.160-  37 2.04  74 2.43  56 2.73  62 2.73  55 2.73  61 2.73
  93  0.703  0.071  0.160-  38 2.04  75 2.43  57 2.73  63 2.73  56 2.73  62 2.73
  94  0.036  0.404  0.160-  42 2.04  76 2.43  58 2.73  55 2.73  60 2.73  57 2.73
  95  0.369  0.404  0.160-  40 2.04  77 2.43  59 2.73  56 2.73  58 2.73  55 2.73
  96  0.703  0.404  0.160-  41 2.04  78 2.43  60 2.73  57 2.73  59 2.73  56 2.73
  97  0.036  0.737  0.160-  45 2.04  79 2.43  61 2.73  58 2.73  63 2.73  60 2.73
  98  0.369  0.737  0.160-  43 2.04  80 2.43  62 2.73  59 2.73  61 2.73  58 2.73
  99  0.703  0.737  0.160-  44 2.04  81 2.43  63 2.73  60 2.73  62 2.73  59 2.73
 100  0.036  0.071  0.660-  48 2.04  82 2.43  64 2.73  70 2.73  66 2.73  72 2.73
 101  0.369  0.071  0.660-  46 2.04  83 2.43  65 2.73  71 2.73  64 2.73  70 2.73
 102  0.703  0.071  0.660-  47 2.04  84 2.43  66 2.73  72 2.73  65 2.73  71 2.73
 103  0.036  0.404  0.660-  51 2.04  85 2.43  67 2.73  64 2.73  69 2.73  66 2.73
 104  0.369  0.404  0.660-  49 2.04  86 2.43  68 2.73  65 2.73  67 2.73  64 2.73
 105  0.703  0.404  0.660-  50 2.04  87 2.43  69 2.73  66 2.73  68 2.73  65 2.73
 106  0.036  0.737  0.660-  54 2.04  88 2.43  70 2.73  67 2.73  72 2.73  69 2.73
 107  0.369  0.737  0.660-  52 2.04  89 2.43  71 2.73  68 2.73  70 2.73  67 2.73
 108  0.703  0.737  0.660-  53 2.04  90 2.43  72 2.73  69 2.73  71 2.73  68 2.73
 109  0.263  0.297  0.340-  49 2.04  55 2.43  73 2.73  74 2.73  76 2.73  77 2.73
 110  0.596  0.297  0.340-  50 2.04  56 2.43  74 2.73  75 2.73  77 2.73  78 2.73
 111  0.929  0.297  0.340-  51 2.04  57 2.43  75 2.73  73 2.73  78 2.73  76 2.73
 112  0.263  0.631  0.340-  52 2.04  58 2.43  76 2.73  77 2.73  79 2.73  80 2.73
 113  0.596  0.631  0.340-  53 2.04  59 2.43  77 2.73  78 2.73  80 2.73  81 2.73
 114  0.929  0.631  0.340-  54 2.04  60 2.43  78 2.73  76 2.73  81 2.73  79 2.73
 115  0.263  0.964  0.340-  46 2.04  61 2.43  79 2.73  80 2.73  73 2.73  74 2.73
 116  0.596  0.964  0.340-  47 2.04  62 2.43  80 2.73  81 2.73  74 2.73  75 2.73
 117  0.929  0.964  0.340-  48 2.04  63 2.43  81 2.73  79 2.73  75 2.73  73 2.73
 118  0.263  0.297  0.840-  40 2.04  64 2.43  82 2.73  83 2.73  85 2.73  86 2.73
 119  0.596  0.297  0.840-  41 2.04  65 2.43  83 2.73  84 2.73  86 2.73  87 2.73
 120  0.929  0.297  0.840-  42 2.04  66 2.43  84 2.73  82 2.73  87 2.73  85 2.73
 121  0.263  0.631  0.840-  43 2.04  67 2.43  85 2.73  86 2.73  88 2.73  89 2.73
 122  0.596  0.631  0.840-  44 2.04  68 2.43  86 2.73  87 2.73  89 2.73  90 2.73
 123  0.929  0.631  0.840-  45 2.04  69 2.43  87 2.73  85 2.73  90 2.73  88 2.73
 124  0.263  0.964  0.840-  37 2.04  70 2.43  88 2.73  89 2.73  82 2.73  83 2.73
 125  0.596  0.964  0.840-  38 2.04  71 2.43  89 2.73  90 2.73  83 2.73  84 2.73
 126  0.929  0.964  0.840-  39 2.04  72 2.43  90 2.73  88 2.73  84 2.73  82 2.73
 

IMPORTANT INFORMATION: All symmetrisations will be switched off!
NOSYMM: (Re-)initialisation of all symmetry stuff for point group C_1.

 
 
 KPOINTS: # No comment                            

Automatic generation of k-mesh.
Space group operators:
 irot       det(A)        alpha          n_x          n_y          n_z        tau_x        tau_y        tau_z
    1     1.000000     0.000000     1.000000     0.000000     0.000000     0.000000     0.000000     0.000000
 
 Subroutine IBZKPT returns following result:
 ===========================================
 
 Found     10 irreducible k-points:
 
 Following reciprocal coordinates:
            Coordinates               Weight
  0.000000  0.000000  0.000000      1.000000
  0.333333  0.000000 -0.000000      2.000000
 -0.000000  0.333333  0.000000      2.000000
  0.333333  0.333333 -0.000000      2.000000
 -0.333333  0.333333  0.000000      2.000000
  0.000000 -0.000000  0.500000      1.000000
  0.333333 -0.000000  0.500000      2.000000
  0.000000  0.333333  0.500000      2.000000
  0.333333  0.333333  0.500000      2.000000
 -0.333333  0.333333  0.500000      2.000000
 
 Following cartesian coordinates:
            Coordinates               Weight
  0.000000  0.000000  0.000000      1.000000
  0.028801  0.000012  0.008684      2.000000
  0.000002  0.028801  0.008684      2.000000
  0.028803  0.028813  0.017368      2.000000
 -0.028799  0.028789 -0.000000      2.000000
  0.000032  0.000032  0.039185      1.000000
  0.028833  0.000044  0.047869      2.000000
  0.000034  0.028833  0.047869      2.000000
  0.028835  0.028845  0.056553      2.000000
 -0.028767  0.028821  0.039185      2.000000
 


--------------------------------------------------------------------------------------------------------




 Dimension of arrays:
   k-points           NKPTS =     10   k-points in BZ     NKDIM =     10   number of bands    NBANDS=    680
   number of dos      NEDOS =    301   number of ions     NIONS =    126
   non local maximal  LDIM  =      6   non local SUM 2l+1 LMDIM =     18
   total plane-waves  NPLWV = ******
   max r-space proj   IRMAX =      1   max aug-charges    IRDMAX= 163177
   dimension x,y,z NGX =    96 NGY =   96 NGZ =  120
   dimension x,y,z NGXF=   192 NGYF=  192 NGZF=  240
   support grid    NGXF=   384 NGYF=  384 NGZF=  480
   ions per type =              36  18  36  36
   NGX,Y,Z   is equivalent  to a cutoff of  13.79, 13.79, 14.37 a.u.
   NGXF,Y,Z  is equivalent  to a cutoff of  27.57, 27.57, 28.75 a.u.

 SYSTEM =  unknown system                          
 POSCAR =  # Compound: Li36O18S36Fe36. Old comment:

 Startparameter for this run:
   NWRITE =      1    write-flag & timer
   PREC   = accura    normal or accurate (medium, high low for compatibility)
   ISTART =      0    job   : 0-new  1-cont  2-samecut
   ICHARG =      1    charge: 1-file 2-atom 10-const
   ISPIN  =      2    spin polarized calculation?
   LNONCOLLINEAR =      F non collinear calculations
   LSORBIT =      F    spin-orbit coupling
   INIWAV =      1    electr: 0-lowe 1-rand  2-diag
   LASPH  =      T    aspherical Exc in radial PAW
   METAGGA=      F    non-selfconsistent MetaGGA calc.

 Electronic Relaxation 1
   ENCUT  =  650.0 eV  47.77 Ry    6.91 a.u.  24.07 24.07 28.85*2*pi/ulx,y,z
   ENINI  =  650.0     initial cutoff
   ENAUG  =  628.9 eV  augmentation charge cutoff
   NELM   =    200;   NELMIN=  8; NELMDL=  0     # of ELM steps 
   EDIFF  = 0.1E-05   stopping-criterion for ELM
   LREAL  =      F    real-space projection
   NLSPLINE    = F    spline interpolate recip. space projectors
   LCOMPAT=      F    compatible to vasp.4.4
   GGA_COMPAT  = T    GGA compatible to vasp.4.4-vasp.4.6
   LMAXPAW     = -100 max onsite density
   LMAXMIX     =    4 max onsite mixed and CHGCAR
   VOSKOWN=      0    Vosko Wilk Nusair interpolation
   ROPT   =    0.00000   0.00000   0.00000   0.00000
 Ionic relaxation
   EDIFFG = 0.1E-04   stopping-criterion for IOM
   NSW    =      0    number of steps for IOM
   NBLOCK =      1;   KBLOCK =      1    inner block; outer block 
   IBRION =     -1    ionic relax: 0-MD 1-quasi-New 2-CG
   NFREE  =      0    steps in history (QN), initial steepest desc. (CG)
   ISIF   =      3    stress and relaxation
   IWAVPR =     10    prediction:  0-non 1-charg 2-wave 3-comb
   ISYM   =      0    0-nonsym 1-usesym 2-fastsym
   LCORR  =      T    Harris-Foulkes like correction to forces

   POTIM  = 0.5000    time-step for ionic-motion
   TEIN   =    0.0    initial temperature
   TEBEG  =    0.0;   TEEND  =   0.0 temperature during run
   SMASS  =  -3.00    Nose mass-parameter (am)
   estimated Nose-frequenzy (Omega)   =  0.10E-29 period in steps =****** mass=  -0.306E-26a.u.
   SCALEE = 1.0000    scale energy and forces
   NPACO  =    256;   APACO  = 16.0  distance and # of slots for P.C.
   PSTRESS=    0.0 pullay stress

  Mass of Ions in am
   POMASS =   7.01 16.00 32.07 55.85
  Ionic Valenz
   ZVAL   =   3.00  6.00  6.00 14.00
  Atomic Wigner-Seitz radii
   RWIGS  =  -1.00 -1.00 -1.00 -1.00
  virtual crystal weights 
   VCA    =   1.00  1.00  1.00  1.00
   NELECT =     936.0000    total number of electrons
   NUPDOWN=      -1.0000    fix difference up-down

 DOS related values:
   EMIN   =  10.00;   EMAX   =-10.00  energy-range for DOS
   EFERMI =   0.00
   ISMEAR =     0;   SIGMA  =   0.05  broadening in eV -4-tet -1-fermi 0-gaus

 Electronic relaxation 2 (details)
   IALGO  =     58    algorithm
   LDIAG  =      T    sub-space diagonalisation (order eigenvalues)
   LSUBROT=      F    optimize rotation matrix (better conditioning)
   TURBO    =      0    0=normal 1=particle mesh
   IRESTART =      0    0=no restart 2=restart with 2 vectors
   NREBOOT  =      0    no. of reboots
   NMIN     =      0    reboot dimension
   EREF     =   0.00    reference energy to select bands
   IMIX   =      4    mixing-type and parameters
     AMIX     =   0.40;   BMIX     =  1.00
     AMIX_MAG =   1.60;   BMIX_MAG =  1.00
     AMIN     =   0.10
     WC   =   100.;   INIMIX=   1;  MIXPRE=   1;  MAXMIX= -45

 Intra band minimization:
   WEIMIN = 0.0000     energy-eigenvalue tresh-hold
   EBREAK =  0.37E-09  absolut break condition
   DEPER  =   0.30     relativ break condition  

   TIME   =   0.40     timestep for ELM

  volume/ion in A,a.u.               =      13.57        91.59
  Fermi-wavevector in a.u.,A,eV,Ry     =   1.339150  2.530627 24.399639  1.793323
  Thomas-Fermi vector in A             =   2.467565
 
 Write flags
   LWAVE        =      F    write WAVECAR
   LDOWNSAMPLE  =      F    k-point downsampling of WAVECAR
   LCHARG       =      T    write CHGCAR
   LVTOT        =      F    write LOCPOT, total local potential
   LVHAR        =      F    write LOCPOT, Hartree potential only
   LELF         =      F    write electronic localiz. function (ELF)
   LORBIT       =      0    0 simple, 1 ext, 2 COOP (PROOUT), +10 PAW based schemes


 Dipole corrections
   LMONO  =      F    monopole corrections only (constant potential shift)
   LDIPOL =      F    correct potential (dipole corrections)
   IDIPOL =      0    1-x, 2-y, 3-z, 4-all directions 
   EPSILON=  1.0000000 bulk dielectric constant

 LDA+U is selected, type is set to LDAUTYPE =  2
   angular momentum for each species LDAUL =    -1   -1   -1    2
   U (eV)           for each species LDAUU =   0.0  0.0  0.0  4.0
   J (eV)           for each species LDAUJ =   0.0  0.0  0.0  0.0
 Exchange correlation treatment:
   GGA     =    PE    GGA type
   LEXCH   =     8    internal setting for exchange type
   VOSKOWN=      0    Vosko Wilk Nusair interpolation
   LHFCALC =     F    Hartree Fock is set to
   LHFONE  =     F    Hartree Fock one center treatment
   AEXX    =    0.0000 exact exchange contribution

 Linear response parameters
   LEPSILON=     F    determine dielectric tensor
   LRPA    =     F    only Hartree local field effects (RPA)
   LNABLA  =     F    use nabla operator in PAW spheres
   LVEL    =     F    velocity operator in full k-point grid
   LINTERFAST=   F  fast interpolation
   KINTER  =     0    interpolate to denser k-point grid
   CSHIFT  =0.1000    complex shift for real part using Kramers Kronig
   OMEGAMAX=  -1.0    maximum frequency
   DEG_THRESHOLD= 0.2000000E-02 threshold for treating states as degnerate
   RTIME   =   -0.100 relaxation time in fs
  (WPLASMAI=    0.000 imaginary part of plasma frequency in eV, 0.658/RTIME)
   DFIELD  = 0.0000000 0.0000000 0.0000000 field for delta impulse in time
 
 Orbital magnetization related:
   ORBITALMAG=     F  switch on orbital magnetization
   LCHIMAG   =     F  perturbation theory with respect to B field
   DQ        =  0.001000  dq finite difference perturbation B field
   LLRAUG    =     F  two centre corrections for induced B field



--------------------------------------------------------------------------------------------------------


 Static calculation
 charge density and potential will be updated during run
 spin polarized calculation
 Conjugate gradient for all bands (Freysoldt, et al. PRB 79, 241103 (2009))
 preconditioned conjugated gradient                                        
 perform sub-space diagonalisation
    before iterative eigenvector-optimisation
 modified Broyden-mixing scheme, WC =      100.0
 initial mixing is a Kerker type mixing with AMIX =  0.4000 and BMIX =      1.0000
 Hartree-type preconditioning will be used
 using additional bands          212
 reciprocal scheme for non local part
 use partial core corrections
 no Harris-corrections to forces 
 use gradient corrections 
 use of overlap-Matrix (Vanderbilt PP)
 Gauss-broadening in eV      SIGMA  =   0.05


--------------------------------------------------------------------------------------------------------


  energy-cutoff  :      650.00
  volume of cell :     1710.06
      direct lattice vectors                 reciprocal lattice vectors
    11.576583240  0.002066280 -0.009542910     0.086402742  0.000036295  0.026052044
    -0.001985520 11.576599830 -0.009542940     0.000006054  0.086402626  0.026052036
    -3.847679420 -3.849030720 12.766359180     0.000064591  0.000064614  0.078369816

  length of vectors
    11.576587358 11.576603934 13.878025836     0.090244912  0.090244792  0.078369870


 
 k-points in units of 2pi/SCALE and weight: # No comment                            
   0.00000000  0.00000000  0.00000000       0.056
   0.02880091  0.00001210  0.00868401       0.111
   0.00000202  0.02880088  0.00868401       0.111
   0.02880293  0.02881297  0.01736803       0.111
  -0.02879890  0.02878878 -0.00000000       0.111
   0.00003230  0.00003231  0.03918491       0.056
   0.02883321  0.00004441  0.04786892       0.111
   0.00003431  0.02883318  0.04786892       0.111
   0.02883523  0.02884528  0.05655294       0.111
  -0.02876660  0.02882108  0.03918491       0.111
 
 k-points in reciprocal lattice and weights: # No comment                            
   0.00000000  0.00000000  0.00000000       0.056
   0.33333333  0.00000000 -0.00000000       0.111
  -0.00000000  0.33333333  0.00000000       0.111
   0.33333333  0.33333333 -0.00000000       0.111
  -0.33333333  0.33333333  0.00000000       0.111
   0.00000000 -0.00000000  0.50000000       0.056
   0.33333333 -0.00000000  0.50000000       0.111
   0.00000000  0.33333333  0.50000000       0.111
   0.33333333  0.33333333  0.50000000       0.111
  -0.33333333  0.33333333  0.50000000       0.111
 
 position of ions in fractional coordinates (direct lattice) 
   0.14940024  0.01727802  0.00000711
   0.48273357  0.01727802  0.00000711
   0.81606690  0.01727802  0.00000711
   0.14940024  0.35061135  0.00000711
   0.48273357  0.35061135  0.00000711
   0.81606690  0.35061135  0.00000711
   0.14940024  0.68394468  0.00000711
   0.48273357  0.68394468  0.00000711
   0.81606690  0.68394468  0.00000711
   0.14940024  0.01727802  0.50000711
   0.48273357  0.01727802  0.50000711
   0.81606690  0.01727802  0.50000711
   0.14940024  0.35061135  0.50000711
   0.48273357  0.35061135  0.50000711
   0.81606690  0.35061135  0.50000711
   0.14940024  0.68394468  0.50000711
   0.48273357  0.68394468  0.50000711
   0.81606690  0.68394468  0.50000711
   0.31605532  0.18393310  0.49999289
   0.64938865  0.18393310  0.49999289
   0.98272198  0.18393310  0.49999289
   0.31605532  0.51726643  0.49999289
   0.64938865  0.51726643  0.49999289
   0.98272198  0.51726643  0.49999289
   0.31605532  0.85059976  0.49999289
   0.64938865  0.85059976  0.49999289
   0.98272198  0.85059976  0.49999289
   0.31605532  0.18393310  0.99999289
   0.64938865  0.18393310  0.99999289
   0.98272198  0.18393310  0.99999289
   0.31605532  0.51726643  0.99999289
   0.64938865  0.51726643  0.99999289
   0.98272198  0.51726643  0.99999289
   0.31605532  0.85059976  0.99999289
   0.64938865  0.85059976  0.99999289
   0.98272198  0.85059976  0.99999289
   0.31519906  0.01727079  0.00000000
   0.64939621  0.01727079  0.00000000
   0.98272954  0.01727079  0.00000000
   0.31606288  0.35060413  0.00000000
   0.64939621  0.35060413  0.00000000
   0.98272954  0.35060413  0.00000000
   0.31606288  0.68393746  0.00000000
   0.64939621  0.68393746  0.00000000
   0.98272954  0.68393746  0.00000000
   0.31606288  0.01727079  0.50000000
   0.64939621  0.01727079  0.50000000
   0.98272954  0.01727079  0.50000000
   0.31606288  0.35060413  0.50000000
   0.64939621  0.35060413  0.50000000
   0.98272954  0.35060413  0.50000000
   0.31606288  0.68393746  0.50000000
   0.64939621  0.68393746  0.50000000
   0.98272954  0.68393746  0.50000000
   0.19934057  0.23388678  0.14983771
   0.53267391  0.23388678  0.14983771
   0.86600724  0.23388678  0.14983771
   0.19934057  0.56722011  0.14983771
   0.53267391  0.56722011  0.14983771
   0.86600724  0.56722011  0.14983771
   0.19934057  0.90055344  0.14983771
   0.53267391  0.90055344  0.14983771
   0.86600724  0.90055344  0.14983771
   0.19934057  0.23388678  0.64983771
   0.53267391  0.23388678  0.64983771
   0.86600724  0.23388678  0.64983771
   0.19934057  0.56722011  0.64983771
   0.53267391  0.56722011  0.64983771
   0.86600724  0.56722011  0.64983771
   0.19934057  0.90055344  0.64983771
   0.53267391  0.90055344  0.64983771
   0.86600724  0.90055344  0.64983771
   0.09944656  0.13399276  0.35016229
   0.43277989  0.13399276  0.35016229
   0.76611322  0.13399276  0.35016229
   0.09944656  0.46732609  0.35016229
   0.43277989  0.46732609  0.35016229
   0.76611322  0.46732609  0.35016229
   0.09944656  0.80065943  0.35016229
   0.43277989  0.80065943  0.35016229
   0.76611322  0.80065943  0.35016229
   0.09944656  0.13399276  0.85016229
   0.43277989  0.13399276  0.85016229
   0.76611322  0.13399276  0.85016229
   0.09944656  0.46732609  0.85016229
   0.43277989  0.46732609  0.85016229
   0.76611322  0.46732609  0.85016229
   0.09944656  0.80065943  0.85016229
   0.43277989  0.80065943  0.85016229
   0.76611322  0.80065943  0.85016229
   0.03603208  0.07057630  0.15990037
   0.36936541  0.07057630  0.15990037
   0.70269875  0.07057630  0.15990037
   0.03603208  0.40390964  0.15990037
   0.36936541  0.40390964  0.15990037
   0.70269875  0.40390964  0.15990037
   0.03603208  0.73724297  0.15990037
   0.36936541  0.73724297  0.15990037
   0.70269875  0.73724297  0.15990037
   0.03603208  0.07057630  0.65990037
   0.36936541  0.07057630  0.65990037
   0.70269875  0.07057630  0.65990037
   0.03603208  0.40390964  0.65990037
   0.36936541  0.40390964  0.65990037
   0.70269875  0.40390964  0.65990037
   0.03603208  0.73724297  0.65990037
   0.36936541  0.73724297  0.65990037
   0.70269875  0.73724297  0.65990037
   0.26275703  0.29730125  0.34009963
   0.59609036  0.29730125  0.34009963
   0.92942370  0.29730125  0.34009963
   0.26275703  0.63063459  0.34009963
   0.59609036  0.63063459  0.34009963
   0.92942370  0.63063459  0.34009963
   0.26275703  0.96396792  0.34009963
   0.59609036  0.96396792  0.34009963
   0.92942370  0.96396792  0.34009963
   0.26275703  0.29730125  0.84009963
   0.59609036  0.29730125  0.84009963
   0.92942370  0.29730125  0.84009963
   0.26275703  0.63063459  0.84009963
   0.59609036  0.63063459  0.84009963
   0.92942370  0.63063459  0.84009963
   0.26275703  0.96396792  0.84009963
   0.59609036  0.96396792  0.84009963
   0.92942370  0.96396792  0.84009963
 
 position of ions in cartesian coordinates  (Angst):
   1.72948263  0.20030204 -0.00149989
   5.58834371  0.20099080 -0.00468086
   9.44720479  0.20167956 -0.00786183
   1.72882079  4.05916865 -0.00468087
   5.58768187  4.05985741 -0.00786184
   9.44654295  4.06054617 -0.01104281
   1.72815895  7.91803526 -0.00786185
   5.58702003  7.91872402 -0.01104282
   9.44588111  7.91941278 -0.01422379
  -0.19435708 -1.72421332  6.38167970
   3.66450400 -1.72352456  6.37849873
   7.52336508 -1.72283580  6.37531776
  -0.19501892  2.13465329  6.37849872
   3.66384216  2.13534205  6.37531775
   7.52270324  2.13603081  6.37213678
  -0.19568076  5.99351990  6.37531774
   3.66318032  5.99420866  6.37213677
   7.52204140  5.99489742  6.36895580
   1.73466311  0.20548490  6.37831754
   5.59352419  0.20617366  6.37513657
   9.45238527  0.20686242  6.37195560
   1.73400127  4.06435151  6.37513656
   5.59286235  4.06504027  6.37195559
   9.45172343  4.06572903  6.36877462
   1.73333943  7.92321812  6.37195558
   5.59220051  7.92390688  6.36877461
   9.45106159  7.92459564  6.36559364
  -0.18917660 -1.71903046 12.76149713
   3.66968448 -1.71834170 12.75831616
   7.52854556 -1.71765294 12.75513519
  -0.18983844  2.13983615 12.75831615
   3.66902264  2.14052491 12.75513518
   7.52788372  2.14121367 12.75195421
  -0.19050028  5.99870276 12.75513517
   3.66836080  5.99939152 12.75195420
   7.52722188  6.00008028 12.74877323
   3.64889391  0.20058835 -0.00317273
   7.51775499  0.20127890 -0.00636194
  11.37661607  0.20196766 -0.00954291
   3.65823207  4.05945675 -0.00636195
   7.51709315  4.06014551 -0.00954292
  11.37595423  4.06083427 -0.01272389
   3.65757023  7.91832336 -0.00954293
   7.51643131  7.91901212 -0.01272390
  11.37529239  7.91970088 -0.01590487
   1.73505420 -1.72392522  6.37999862
   5.59391528 -1.72323646  6.37681765
   9.45277636 -1.72254770  6.37363668
   1.73439236  2.13494139  6.37681764
   5.59325344  2.13563015  6.37363667
   9.45211452  2.13631891  6.37045570
   1.73373052  5.99380800  6.37363666
   5.59259160  5.99449676  6.37045569
   9.45145268  5.99518552  6.36727472
   1.73069086  2.13129554  1.90874783
   5.58955194  2.13198430  1.90556686
   9.44841302  2.13267306  1.90238589
   1.73002902  5.99016215  1.90556685
   5.58889010  5.99085091  1.90238588
   9.44775118  5.99153967  1.89920491
   1.72936718  9.84902876  1.90238587
   5.58822826  9.84971752  1.89920490
   9.44708934  9.85040628  1.89602393
  -0.19314885  0.20678018  8.29192742
   3.66571223  0.20746894  8.28874645
   7.52457331  0.20815770  8.28556548
  -0.19381069  4.06564679  8.28874644
   3.66505039  4.06633555  8.28556547
   7.52391147  4.06702431  8.28238450
  -0.19447253  7.92451340  8.28556546
   3.66438855  7.92520216  8.28238449
   7.52324963  7.92589092  8.27920352
  -0.19632692  0.20360066  4.46806981
   3.66253416  0.20428942  4.46488884
   7.52139524  0.20497818  4.46170787
  -0.19698876  4.06246726  4.46488883
   3.66187232  4.06315602  4.46170786
   7.52073340  4.06384478  4.45852689
  -0.19765060  7.92133388  4.46170785
   3.66121048  7.92202264  4.45852688
   7.52007156  7.92271140  4.45534591
  -2.12016663 -1.72091470 10.85124940
   1.73869445 -1.72022594 10.84806843
   5.59755553 -1.71953718 10.84488746
  -2.12082847  2.13795190 10.84806842
   1.73803261  2.13864066 10.84488745
   5.59689369  2.13932942 10.84170648
  -2.12149031  5.99681852 10.84488744
   1.73737077  5.99750728 10.84170647
   5.59623185  5.99819604 10.83852550
  -0.19825714  0.20164662  2.04032826
   3.66060394  0.20233538  2.03714729
   7.51946502  0.20302414  2.03396632
  -0.19891898  4.06051323  2.03714728
   3.65994210  4.06120199  2.03396631
   7.51880318  4.06189075  2.03078534
  -0.19958082  7.91937984  2.03396630
   3.65928026  7.92006860  2.03078533
   7.51814134  7.92075736  2.02760436
  -2.12209685 -1.72286874  8.42350785
   1.73676423 -1.72217998  8.42032688
   5.59562531 -1.72149122  8.41714591
  -2.12275869  2.13599787  8.42032687
   1.73610239  2.13668663  8.41714590
   5.59496347  2.13737539  8.41396493
  -2.12342053  5.99486448  8.41714589
   1.73544055  5.99555324  8.41396492
   5.59430163  5.99624200  8.41078395
   1.73264400  2.13322666  4.33648938
   5.59150508  2.13391542  4.33330841
   9.45036616  2.13460418  4.33012744
   1.73198216  5.99209327  4.33330840
   5.59084324  5.99278203  4.33012743
   9.44970432  5.99347079  4.32694646
   1.73132032  9.85095988  4.33012742
   5.59018140  9.85164864  4.32694645
   9.44904248  9.85233740  4.32376548
  -0.19119571  0.20871130 10.71966897
   3.66766537  0.20940006 10.71648800
   7.52652645  0.21008882 10.71330703
  -0.19185755  4.06757791 10.71648799
   3.66700353  4.06826667 10.71330702
   7.52586461  4.06895543 10.71012605
  -0.19251939  7.92644452 10.71330701
   3.66634169  7.92713328 10.71012604
   7.52520277  7.92782204 10.70694507
 


--------------------------------------------------------------------------------------------------------


 k-point  1 :   0.0000 0.0000 0.0000  plane waves:   64263
 k-point  2 :   0.3333 0.0000-0.0000  plane waves:   64335
 k-point  3 :  -0.0000 0.3333 0.0000  plane waves:   64335
 k-point  4 :   0.3333 0.3333-0.0000  plane waves:   64357
 k-point  5 :  -0.3333 0.3333 0.0000  plane waves:   64358
 k-point  6 :   0.0000-0.0000 0.5000  plane waves:   64288
 k-point  7 :   0.3333-0.0000 0.5000  plane waves:   64351
 k-point  8 :   0.0000 0.3333 0.5000  plane waves:   64351
 k-point  9 :   0.3333 0.3333 0.5000  plane waves:   64367
 k-point 10 :  -0.3333 0.3333 0.5000  plane waves:   64380

 maximum and minimum number of plane-waves per node :     10768    10677

 maximum number of plane-waves:     64380
 maximum index in each direction: 
   IXMAX=   24   IYMAX=   24   IZMAX=   28
   IXMIN=  -24   IYMIN=  -24   IZMIN=  -29


 parallel 3D FFT for wavefunctions:
    minimum data exchange during FFTs selected (reduces bandwidth)
 parallel 3D FFT for charge:
    minimum data exchange during FFTs selected (reduces bandwidth)


 total amount of memory used by VASP MPI-rank0  2010615. kBytes
=======================================================================

   base      :      30000. kBytes
   nonl-proj :      83483. kBytes
   fftplans  :      59337. kBytes
   grid      :      50429. kBytes
   one-center:        653. kBytes
   wavefun   :    1786713. kBytes
 
     INWAV:  cpu time    0.0001: real time    0.0002
 Broyden mixing: mesh for mixing (old mesh)
   NGX = 49   NGY = 49   NGZ = 57
  (NGX  =192   NGY  =192   NGZ  =240)
  gives a total of 136857 points

 initial charge density was supplied:
 number of electron     936.0000012 magnetization     144.0000005
 charge density for first step will be calculated from the start-wavefunctions


--------------------------------------------------------------------------------------------------------


 Maximum index for augmentation-charges         6958 (set IRDMAX)


--------------------------------------------------------------------------------------------------------


 First call to EWALD:  gamma=   0.148
 Maximum number of real-space cells 3x 3x 3
 Maximum number of reciprocal cells 3x 3x 3

    FEWALD:  cpu time    0.1899: real time    0.2003


--------------------------------------- Iteration      1(   1)  ---------------------------------------


    POTLOK:  cpu time    0.6431: real time    0.6533
    SETDIJ:  cpu time    1.5487: real time    1.5862
    TRIAL :  cpu time  255.4760: real time  261.3425
    CORREC:  cpu time    0.0041: real time    0.0043
    --------------------------------------------
      LOOP:  cpu time  258.2096: real time  264.1568

 eigenvalue-minimisations  : 28328
 total energy-change (2. order) : 0.1264847E+05  (-0.5394369E+05)
 number of electron     936.0000012 magnetization     144.0000005
 augmentation part      936.0000012 magnetization     144.0000005

 Free energy of the ion-electron system (eV)
  ---------------------------------------------------
  alpha Z        PSCENC =      2639.27042227
  Ewald energy   TEWEN  =    -69235.16285743
  -Hartree energ DENC   =    -34827.58088366
  -exchange      EXHF   =         0.00000000
  -V(xc)+E(xc)   XCENC  =      3975.73281388
  PAW double counting   =    109952.41695739  -113408.94482908
  entropy T*S    EENTRO =        -0.02337900
  eigenvalues    EBANDS =        37.43256971
  atomic energy  EATOM  =    113515.32941094
  ---------------------------------------------------
  free energy    TOTEN  =     12648.47022503 eV

  energy without entropy =    12648.49360403  energy(sigma->0) =    12648.48191453


--------------------------------------------------------------------------------------------------------




--------------------------------------- Iteration      1(   2)  ---------------------------------------


    TRIAL :  cpu time  246.2603: real time  251.2836
    CORREC:  cpu time    0.0042: real time    0.0044
    --------------------------------------------
      LOOP:  cpu time  246.2690: real time  251.2950

 eigenvalue-minimisations  : 27200
 total energy-change (2. order) :-0.1127352E+05  (-0.1054569E+05)
 number of electron     936.0000012 magnetization     144.0000005
 augmentation part      936.0000012 magnetization     144.0000005

 Free energy of the ion-electron system (eV)
  ---------------------------------------------------
  alpha Z        PSCENC =      2639.27042227
  Ewald energy   TEWEN  =    -69235.16285743
  -Hartree energ DENC   =    -34827.58088366
  -exchange      EXHF   =         0.00000000
  -V(xc)+E(xc)   XCENC  =      3975.73281388
  PAW double counting   =    109952.41695739  -113408.94482908
  entropy T*S    EENTRO =        -0.08234844
  eigenvalues    EBANDS =    -11236.02976397
  atomic energy  EATOM  =    113515.32941094
  ---------------------------------------------------
  free energy    TOTEN  =      1374.94892190 eV

  energy without entropy =     1375.03127035  energy(sigma->0) =     1374.99009613


--------------------------------------------------------------------------------------------------------




--------------------------------------- Iteration      1(   3)  ---------------------------------------


    TRIAL :  cpu time  264.2736: real time  269.4884
    CORREC:  cpu time    0.0013: real time    0.0013
    --------------------------------------------
      LOOP:  cpu time  264.2757: real time  269.4923

 eigenvalue-minimisations  : 29888
 total energy-change (2. order) :-0.1785647E+04  (-0.1558391E+04)
 number of electron     936.0000012 magnetization     144.0000005
 augmentation part      936.0000012 magnetization     144.0000005

 Free energy of the ion-electron system (eV)
  ---------------------------------------------------
  alpha Z        PSCENC =      2639.27042227
  Ewald energy   TEWEN  =    -69235.16285743
  -Hartree energ DENC   =    -34827.58088366
  -exchange      EXHF   =         0.00000000
  -V(xc)+E(xc)   XCENC  =      3975.73281388
  PAW double counting   =    109952.41695739  -113408.94482908
  entropy T*S    EENTRO =        -0.00000000
  eigenvalues    EBANDS =    -13021.75883467
  atomic energy  EATOM  =    113515.32941094
  ---------------------------------------------------
  free energy    TOTEN  =      -410.69780036 eV

  energy without entropy =     -410.69780036  energy(sigma->0) =     -410.69780036


--------------------------------------------------------------------------------------------------------




--------------------------------------- Iteration      1(   4)  ---------------------------------------


    TRIAL :  cpu time  290.2835: real time  296.5406
    CORREC:  cpu time    0.0013: real time    0.0013
    --------------------------------------------
      LOOP:  cpu time  290.2851: real time  296.5447

 eigenvalue-minimisations  : 33256
 total energy-change (2. order) :-0.2221238E+03  (-0.2191923E+03)
 number of electron     936.0000012 magnetization     144.0000005
 augmentation part      936.0000012 magnetization     144.0000005

 Free energy of the ion-electron system (eV)
  ---------------------------------------------------
  alpha Z        PSCENC =      2639.27042227
  Ewald energy   TEWEN  =    -69235.16285743
  -Hartree energ DENC   =    -34827.58088366
  -exchange      EXHF   =         0.00000000
  -V(xc)+E(xc)   XCENC  =      3975.73281388
  PAW double counting   =    109952.41695739  -113408.94482908
  entropy T*S    EENTRO =        -0.00000000
  eigenvalues    EBANDS =    -13243.88261285
  atomic energy  EATOM  =    113515.32941094
  ---------------------------------------------------
  free energy    TOTEN  =      -632.82157854 eV

  energy without entropy =     -632.82157854  energy(sigma->0) =     -632.82157854


--------------------------------------------------------------------------------------------------------




--------------------------------------- Iteration      1(   5)  ---------------------------------------


    TRIAL :  cpu time  378.8174: real time  387.1383
    CORREC:  cpu time    0.0014: real time    0.0016
    CHARGE:  cpu time    7.2085: real time    7.3461
    --------------------------------------------
      LOOP:  cpu time  386.0306: real time  394.4913

 eigenvalue-minimisations  : 46040
 total energy-change (2. order) :-0.2411264E+02  (-0.2391876E+02)
 number of electron     936.0000012 magnetization     144.0000005
 augmentation part      323.4156728 magnetization      94.2658478

 Free energy of the ion-electron system (eV)
  ---------------------------------------------------
  alpha Z        PSCENC =      2639.27042227
  Ewald energy   TEWEN  =    -69235.16285743
  -Hartree energ DENC   =    -34827.58088366
  -exchange      EXHF   =         0.00000000
  -V(xc)+E(xc)   XCENC  =      3975.73281388
  PAW double counting   =    109952.41695739  -113408.94482908
  entropy T*S    EENTRO =        -0.00000000
  eigenvalues    EBANDS =    -13267.99525624
  atomic energy  EATOM  =    113515.32941094
  ---------------------------------------------------
  free energy    TOTEN  =      -656.93422193 eV

  energy without entropy =     -656.93422193  energy(sigma->0) =     -656.93422193


--------------------------------------------------------------------------------------------------------




--------------------------------------- Iteration      1(   6)  ---------------------------------------


    POTLOK:  cpu time    0.6041: real time    0.6135
    SETDIJ:  cpu time    1.5665: real time    1.5755
    TRIAL :  cpu time  126.3019: real time  128.9289
    CORREC:  cpu time   30.9042: real time   31.7300
    CHARGE:  cpu time    7.4181: real time    7.4457
    --------------------------------------------
      LOOP:  cpu time  166.7970: real time  170.2980

 eigenvalue-minimisations  :     0
 total energy-change (2. order) : 0.4901681E-01  (-0.5205532E+00)
 number of electron     936.0000012 magnetization     144.0000005
 augmentation part      323.0683604 magnetization      94.2315753

 Free energy of the ion-electron system (eV)
  ---------------------------------------------------
  alpha Z        PSCENC =      2639.27042227
  Ewald energy   TEWEN  =    -69235.16285743
  -Hartree energ DENC   =    -34814.01493581
  -exchange      EXHF   =         0.00000000
  -V(xc)+E(xc)   XCENC  =      3973.74877292
  PAW double counting   =    109400.91913386  -112848.53853999
  entropy T*S    EENTRO =        -0.00000000
  eigenvalues    EBANDS =    -13288.43661188
  atomic energy  EATOM  =    113515.32941094
  ---------------------------------------------------
  free energy    TOTEN  =      -656.88520512 eV

  energy without entropy =     -656.88520512  energy(sigma->0) =     -656.88520512


--------------------------------------------------------------------------------------------------------




--------------------------------------- Iteration      1(   7)  ---------------------------------------


    POTLOK:  cpu time    0.6205: real time    0.6328
    SETDIJ:  cpu time    1.5743: real time    1.6006
    TRIAL :  cpu time  126.4160: real time  129.2749
    CORREC:  cpu time   31.3210: real time   32.1302
    CHARGE:  cpu time    7.2091: real time    7.3477
    --------------------------------------------
      LOOP:  cpu time  167.1562: real time  171.0192

 eigenvalue-minimisations  :     0
 total energy-change (2. order) :-0.5207363E+00  (-0.3022083E+00)
 number of electron     936.0000012 magnetization     144.0000005
 augmentation part      322.6887505 magnetization      94.2108681

 Free energy of the ion-electron system (eV)
  ---------------------------------------------------
  alpha Z        PSCENC =      2639.27042227
  Ewald energy   TEWEN  =    -69235.16285743
  -Hartree energ DENC   =    -34822.77563734
  -exchange      EXHF   =         0.00000000
  -V(xc)+E(xc)   XCENC  =      3974.73141951
  PAW double counting   =    109634.70490419  -113085.22563388
  entropy T*S    EENTRO =        -0.00000000
  eigenvalues    EBANDS =    -13278.27796967
  atomic energy  EATOM  =    113515.32941094
  ---------------------------------------------------
  free energy    TOTEN  =      -657.40594141 eV

  energy without entropy =     -657.40594141  energy(sigma->0) =     -657.40594141


--------------------------------------------------------------------------------------------------------




--------------------------------------- Iteration      1(   8)  ---------------------------------------


    POTLOK:  cpu time    0.6009: real time    0.6108
    SETDIJ:  cpu time    1.5892: real time    1.6197
    TRIAL :  cpu time  126.1143: real time  128.7112
    CORREC:  cpu time   30.8399: real time   31.6905
    CHARGE:  cpu time    7.1990: real time    7.3735
    --------------------------------------------
      LOOP:  cpu time  166.3483: real time  170.0126

 eigenvalue-minimisations  :     0
 total energy-change (2. order) :-0.3022525E+00  (-0.1200330E+00)
 number of electron     936.0000012 magnetization     144.0000005
 augmentation part      322.4000066 magnetization      94.1912117

 Free energy of the ion-electron system (eV)
  ---------------------------------------------------
  alpha Z        PSCENC =      2639.27042227
  Ewald energy   TEWEN  =    -69235.16285743
  -Hartree energ DENC   =    -34827.13412612
  -exchange      EXHF   =         0.00000000
  -V(xc)+E(xc)   XCENC  =      3975.30149870
  PAW double counting   =    109906.36192812  -113360.38905659
  entropy T*S    EENTRO =        -0.00000000
  eigenvalues    EBANDS =    -13271.28541382
  atomic energy  EATOM  =    113515.32941094
  ---------------------------------------------------
  free energy    TOTEN  =      -657.70819392 eV

  energy without entropy =     -657.70819392  energy(sigma->0) =     -657.70819392


--------------------------------------------------------------------------------------------------------




--------------------------------------- Iteration      1(   9)  ---------------------------------------


    POTLOK:  cpu time    0.6014: real time    0.6113
    SETDIJ:  cpu time    1.6704: real time    1.6922
    TRIAL :  cpu time  126.9882: real time  129.8429
    CORREC:  cpu time   31.0140: real time   31.8544
    CHARGE:  cpu time    7.2206: real time    7.3564
    --------------------------------------------
      LOOP:  cpu time  167.5049: real time  171.3697

 eigenvalue-minimisations  :     0
 total energy-change (2. order) :-0.1200524E+00  (-0.4444956E-01)
 number of electron     936.0000012 magnetization     144.0000005
 augmentation part      322.2891573 magnetization      94.1805535

 Free energy of the ion-electron system (eV)
  ---------------------------------------------------
  alpha Z        PSCENC =      2639.27042227
  Ewald energy   TEWEN  =    -69235.16285743
  -Hartree energ DENC   =    -34823.46637139
  -exchange      EXHF   =         0.00000000
  -V(xc)+E(xc)   XCENC  =      3975.35831726
  PAW double counting   =    110027.31386859  -113482.46254594
  entropy T*S    EENTRO =        -0.00000000
  eigenvalues    EBANDS =    -13274.00849066
  atomic energy  EATOM  =    113515.32941094
  ---------------------------------------------------
  free energy    TOTEN  =      -657.82824636 eV

  energy without entropy =     -657.82824636  energy(sigma->0) =     -657.82824636


--------------------------------------------------------------------------------------------------------




--------------------------------------- Iteration      1(  10)  ---------------------------------------


    POTLOK:  cpu time    0.6480: real time    0.6602
    SETDIJ:  cpu time    1.5549: real time    1.5827
    TRIAL :  cpu time  127.3723: real time  128.6604
    CORREC:  cpu time   31.9198: real time   32.1417
    CHARGE:  cpu time    7.2346: real time    7.3480
    --------------------------------------------
      LOOP:  cpu time  168.7365: real time  170.4100

 eigenvalue-minimisations  :     0
 total energy-change (2. order) :-0.4444808E-01  (-0.1725108E-01)
 number of electron     936.0000012 magnetization     144.0000005
 augmentation part      322.2213261 magnetization      94.1689390

 Free energy of the ion-electron system (eV)
  ---------------------------------------------------
  alpha Z        PSCENC =      2639.27042227
  Ewald energy   TEWEN  =    -69235.16285743
  -Hartree energ DENC   =    -34828.13312804
  -exchange      EXHF   =         0.00000000
  -V(xc)+E(xc)   XCENC  =      3975.72418892
  PAW double counting   =    110048.24164902  -113504.67862348
  entropy T*S    EENTRO =        -0.00000000
  eigenvalues    EBANDS =    -13268.46375665
  atomic energy  EATOM  =    113515.32941094
  ---------------------------------------------------
  free energy    TOTEN  =      -657.87269444 eV

  energy without entropy =     -657.87269444  energy(sigma->0) =     -657.87269444


--------------------------------------------------------------------------------------------------------




--------------------------------------- Iteration      1(  11)  ---------------------------------------


    POTLOK:  cpu time    0.6334: real time    0.6374
    SETDIJ:  cpu time    1.5857: real time    1.5963
    TRIAL :  cpu time  127.3144: real time  128.5492
    CORREC:  cpu time   31.9889: real time   32.3652
    CHARGE:  cpu time    7.2701: real time    7.4415
    --------------------------------------------
      LOOP:  cpu time  168.7942: real time  170.5973

 eigenvalue-minimisations  :     0
 total energy-change (2. order) :-0.1725530E-01  (-0.5381599E-02)
 number of electron     936.0000012 magnetization     144.0000005
 augmentation part      322.2035088 magnetization      94.1635757

 Free energy of the ion-electron system (eV)
  ---------------------------------------------------
  alpha Z        PSCENC =      2639.27042227
  Ewald energy   TEWEN  =    -69235.16285743
  -Hartree energ DENC   =    -34827.73446799
  -exchange      EXHF   =         0.00000000
  -V(xc)+E(xc)   XCENC  =      3975.75568131
  PAW double counting   =    110011.42778686  -113468.02131586
  entropy T*S    EENTRO =        -0.00000000
  eigenvalues    EBANDS =    -13268.75460984
  atomic energy  EATOM  =    113515.32941094
  ---------------------------------------------------
  free energy    TOTEN  =      -657.88994974 eV

  energy without entropy =     -657.88994974  energy(sigma->0) =     -657.88994974


--------------------------------------------------------------------------------------------------------




--------------------------------------- Iteration      1(  12)  ---------------------------------------


    POTLOK:  cpu time    0.6342: real time    0.6377
    SETDIJ:  cpu time    1.5656: real time    1.5732
    TRIAL :  cpu time  127.5670: real time  129.2269
    CORREC:  cpu time   31.7912: real time   31.9441
    CHARGE:  cpu time    7.2222: real time    7.3597
    --------------------------------------------
      LOOP:  cpu time  168.7987: real time  170.7726

 eigenvalue-minimisations  :     0
 total energy-change (2. order) :-0.5381690E-02  (-0.2498364E-02)
 number of electron     936.0000012 magnetization     144.0000005
 augmentation part      322.1998008 magnetization      94.1576936

 Free energy of the ion-electron system (eV)
  ---------------------------------------------------
  alpha Z        PSCENC =      2639.27042227
  Ewald energy   TEWEN  =    -69235.16285743
  -Hartree energ DENC   =    -34827.57057715
  -exchange      EXHF   =         0.00000000
  -V(xc)+E(xc)   XCENC  =      3975.73868456
  PAW double counting   =    109975.06102398  -113431.82476768
  entropy T*S    EENTRO =        -0.00000000
  eigenvalues    EBANDS =    -13268.73667092
  atomic energy  EATOM  =    113515.32941094
  ---------------------------------------------------
  free energy    TOTEN  =      -657.89533143 eV

  energy without entropy =     -657.89533143  energy(sigma->0) =     -657.89533143


--------------------------------------------------------------------------------------------------------




--------------------------------------- Iteration      1(  13)  ---------------------------------------


    POTLOK:  cpu time    0.6261: real time    0.6396
    SETDIJ:  cpu time    1.5758: real time    1.5985
    TRIAL :  cpu time  127.5266: real time  129.1429
    CORREC:  cpu time   31.4411: real time   31.6806
    CHARGE:  cpu time    7.4174: real time    7.4847
    --------------------------------------------
      LOOP:  cpu time  168.5898: real time  170.5530

 eigenvalue-minimisations  :     0
 total energy-change (2. order) :-0.2502155E-02  (-0.1441563E-02)
 number of electron     936.0000012 magnetization     144.0000005
 augmentation part      322.2047798 magnetization      94.1553775

 Free energy of the ion-electron system (eV)
  ---------------------------------------------------
  alpha Z        PSCENC =      2639.27042227
  Ewald energy   TEWEN  =    -69235.16285743
  -Hartree energ DENC   =    -34827.67803665
  -exchange      EXHF   =         0.00000000
  -V(xc)+E(xc)   XCENC  =      3975.75833979
  PAW double counting   =    109945.84166239  -113402.47792234
  entropy T*S    EENTRO =        -0.00000000
  eigenvalues    EBANDS =    -13268.77885257
  atomic energy  EATOM  =    113515.32941094
  ---------------------------------------------------
  free energy    TOTEN  =      -657.89783359 eV

  energy without entropy =     -657.89783359  energy(sigma->0) =     -657.89783359


--------------------------------------------------------------------------------------------------------




--------------------------------------- Iteration      1(  14)  ---------------------------------------


    POTLOK:  cpu time    0.6280: real time    0.6345
    SETDIJ:  cpu time    1.5650: real time    1.5854
    TRIAL :  cpu time  128.1034: real time  130.0266
    CORREC:  cpu time   31.1451: real time   31.5830
    CHARGE:  cpu time    7.1471: real time    7.4160
    --------------------------------------------
      LOOP:  cpu time  168.6035: real time  171.2615

 eigenvalue-minimisations  :     0
 total energy-change (2. order) :-0.1440849E-02  (-0.8328157E-03)
 number of electron     936.0000012 magnetization     144.0000005
 augmentation part      322.2049082 magnetization      94.1508324

 Free energy of the ion-electron system (eV)
  ---------------------------------------------------
  alpha Z        PSCENC =      2639.27042227
  Ewald energy   TEWEN  =    -69235.16285743
  -Hartree energ DENC   =    -34827.97927423
  -exchange      EXHF   =         0.00000000
  -V(xc)+E(xc)   XCENC  =      3975.75129977
  PAW double counting   =    109936.26892223  -113393.01679060
  entropy T*S    EENTRO =        -0.00000000
  eigenvalues    EBANDS =    -13268.36040739
  atomic energy  EATOM  =    113515.32941094
  ---------------------------------------------------
  free energy    TOTEN  =      -657.89927443 eV

  energy without entropy =     -657.89927443  energy(sigma->0) =     -657.89927443


--------------------------------------------------------------------------------------------------------




--------------------------------------- Iteration      1(  15)  ---------------------------------------


    POTLOK:  cpu time    0.6350: real time    0.6420
    SETDIJ:  cpu time    1.5438: real time    1.5943
    TRIAL :  cpu time  127.0402: real time  128.6419
    CORREC:  cpu time   31.0657: real time   31.5756
    CHARGE:  cpu time    7.4534: real time    7.4935
    --------------------------------------------
      LOOP:  cpu time  167.7441: real time  169.9627

 eigenvalue-minimisations  :     0
 total energy-change (2. order) :-0.8366675E-03  (-0.4635791E-03)
 number of electron     936.0000012 magnetization     144.0000005
 augmentation part      322.2189091 magnetization      94.1521811

 Free energy of the ion-electron system (eV)
  ---------------------------------------------------
  alpha Z        PSCENC =      2639.27042227
  Ewald energy   TEWEN  =    -69235.16285743
  -Hartree energ DENC   =    -34827.21038627
  -exchange      EXHF   =         0.00000000
  -V(xc)+E(xc)   XCENC  =      3975.72468287
  PAW double counting   =    109936.79992411  -113393.29202004
  entropy T*S    EENTRO =        -0.00000000
  eigenvalues    EBANDS =    -13269.35928756
  atomic energy  EATOM  =    113515.32941094
  ---------------------------------------------------
  free energy    TOTEN  =      -657.90011110 eV

  energy without entropy =     -657.90011110  energy(sigma->0) =     -657.90011110


--------------------------------------------------------------------------------------------------------




--------------------------------------- Iteration      1(  16)  ---------------------------------------


    POTLOK:  cpu time    0.6123: real time    0.6125
    SETDIJ:  cpu time    1.6080: real time    1.6090
    TRIAL :  cpu time  127.1916: real time  128.5805
    CORREC:  cpu time   31.7546: real time   32.3507
    CHARGE:  cpu time    7.5598: real time    7.5675
    --------------------------------------------
      LOOP:  cpu time  168.7307: real time  170.7267

 eigenvalue-minimisations  :     0
 total energy-change (2. order) :-0.4621091E-03  (-0.2447129E-03)
 number of electron     936.0000012 magnetization     144.0000005
 augmentation part      322.2118620 magnetization      94.1489612

 Free energy of the ion-electron system (eV)
  ---------------------------------------------------
  alpha Z        PSCENC =      2639.27042227
  Ewald energy   TEWEN  =    -69235.16285743
  -Hartree energ DENC   =    -34828.38904057
  -exchange      EXHF   =         0.00000000
  -V(xc)+E(xc)   XCENC  =      3975.76229144
  PAW double counting   =    109950.34255319  -113407.04037518
  entropy T*S    EENTRO =        -0.00000000
  eigenvalues    EBANDS =    -13268.01297787
  atomic energy  EATOM  =    113515.32941094
  ---------------------------------------------------
  free energy    TOTEN  =      -657.90057321 eV

  energy without entropy =     -657.90057321  energy(sigma->0) =     -657.90057321


--------------------------------------------------------------------------------------------------------




--------------------------------------- Iteration      1(  17)  ---------------------------------------


    POTLOK:  cpu time    0.6163: real time    0.6163
    SETDIJ:  cpu time    1.5834: real time    1.5845
    TRIAL :  cpu time  126.7951: real time  128.1757
    CORREC:  cpu time   31.5102: real time   32.0863
    CHARGE:  cpu time    7.4894: real time    7.5121
    --------------------------------------------
      LOOP:  cpu time  167.9968: real time  169.9800

 eigenvalue-minimisations  :     0
 total energy-change (2. order) :-0.2485937E-03  (-0.1729196E-03)
 number of electron     936.0000012 magnetization     144.0000005
 augmentation part      322.2221357 magnetization      94.1522808

 Free energy of the ion-electron system (eV)
  ---------------------------------------------------
  alpha Z        PSCENC =      2639.27042227
  Ewald energy   TEWEN  =    -69235.16285743
  -Hartree energ DENC   =    -34826.78658904
  -exchange      EXHF   =         0.00000000
  -V(xc)+E(xc)   XCENC  =      3975.69997647
  PAW double counting   =    109953.15079723  -113409.50737894
  entropy T*S    EENTRO =        -0.00000000
  eigenvalues    EBANDS =    -13269.89460331
  atomic energy  EATOM  =    113515.32941094
  ---------------------------------------------------
  free energy    TOTEN  =      -657.90082181 eV

  energy without entropy =     -657.90082181  energy(sigma->0) =     -657.90082181


--------------------------------------------------------------------------------------------------------




--------------------------------------- Iteration      1(  18)  ---------------------------------------


    POTLOK:  cpu time    0.6127: real time    0.6130
    SETDIJ:  cpu time    1.5794: real time    1.5801
    TRIAL :  cpu time  127.7767: real time  129.3360
    CORREC:  cpu time   31.4613: real time   31.9458
    CHARGE:  cpu time    7.3404: real time    7.3649
    --------------------------------------------
      LOOP:  cpu time  168.7860: real time  170.8574

 eigenvalue-minimisations  :     0
 total energy-change (2. order) :-0.1716286E-03  (-0.1305270E-03)
 number of electron     936.0000012 magnetization     144.0000005
 augmentation part      322.2156006 magnetization      94.1510409

 Free energy of the ion-electron system (eV)
  ---------------------------------------------------
  alpha Z        PSCENC =      2639.27042227
  Ewald energy   TEWEN  =    -69235.16285743
  -Hartree energ DENC   =    -34828.22511372
  -exchange      EXHF   =         0.00000000
  -V(xc)+E(xc)   XCENC  =      3975.75377858
  PAW double counting   =    109960.03385670  -113416.66411476
  entropy T*S    EENTRO =        -0.00000000
  eigenvalues    EBANDS =    -13268.23637601
  atomic energy  EATOM  =    113515.32941094
  ---------------------------------------------------
  free energy    TOTEN  =      -657.90099343 eV

  energy without entropy =     -657.90099343  energy(sigma->0) =     -657.90099343


--------------------------------------------------------------------------------------------------------




--------------------------------------- Iteration      1(  19)  ---------------------------------------


    POTLOK:  cpu time    0.6266: real time    0.6416
    SETDIJ:  cpu time    1.5660: real time    1.5991
    TRIAL :  cpu time  128.1260: real time  130.0617
    CORREC:  cpu time   31.9472: real time   32.1468
    CHARGE:  cpu time    7.3433: real time    7.4176
    --------------------------------------------
      LOOP:  cpu time  169.6160: real time  171.8754

 eigenvalue-minimisations  :     0
 total energy-change (2. order) :-0.1320178E-03  (-0.8840708E-04)
 number of electron     936.0000012 magnetization     144.0000005
 augmentation part      322.2182087 magnetization      94.1532554

 Free energy of the ion-electron system (eV)
  ---------------------------------------------------
  alpha Z        PSCENC =      2639.27042227
  Ewald energy   TEWEN  =    -69235.16285743
  -Hartree energ DENC   =    -34827.21098106
  -exchange      EXHF   =         0.00000000
  -V(xc)+E(xc)   XCENC  =      3975.71778670
  PAW double counting   =    109955.04725993  -113411.47749519
  entropy T*S    EENTRO =        -0.00000000
  eigenvalues    EBANDS =    -13269.41467162
  atomic energy  EATOM  =    113515.32941094
  ---------------------------------------------------
  free energy    TOTEN  =      -657.90112545 eV

  energy without entropy =     -657.90112545  energy(sigma->0) =     -657.90112545


--------------------------------------------------------------------------------------------------------




--------------------------------------- Iteration      1(  20)  ---------------------------------------


    POTLOK:  cpu time    0.6348: real time    0.6420
    SETDIJ:  cpu time    1.5522: real time    1.6004
    TRIAL :  cpu time  127.4271: real time  128.6028
    CORREC:  cpu time   30.9422: real time   31.2381
    CHARGE:  cpu time    7.2766: real time    7.3514
    --------------------------------------------
      LOOP:  cpu time  167.8445: real time  169.4480

 eigenvalue-minimisations  :     0
 total energy-change (2. order) :-0.8777744E-04  (-0.4407520E-04)
 number of electron     936.0000012 magnetization     144.0000005
 augmentation part      322.2150556 magnetization      94.1527829

 Free energy of the ion-electron system (eV)
  ---------------------------------------------------
  alpha Z        PSCENC =      2639.27042227
  Ewald energy   TEWEN  =    -69235.16285743
  -Hartree energ DENC   =    -34827.77167941
  -exchange      EXHF   =         0.00000000
  -V(xc)+E(xc)   XCENC  =      3975.73579783
  PAW double counting   =    109953.54299727  -113410.09429169
  entropy T*S    EENTRO =        -0.00000000
  eigenvalues    EBANDS =    -13268.75101302
  atomic energy  EATOM  =    113515.32941094
  ---------------------------------------------------
  free energy    TOTEN  =      -657.90121323 eV

  energy without entropy =     -657.90121323  energy(sigma->0) =     -657.90121323


--------------------------------------------------------------------------------------------------------




--------------------------------------- Iteration      1(  21)  ---------------------------------------


    POTLOK:  cpu time    0.6377: real time    0.6424
    SETDIJ:  cpu time    1.5624: real time    1.5892
    TRIAL :  cpu time  127.9235: real time  129.2329
    CORREC:  cpu time   31.8590: real time   32.1127
    CHARGE:  cpu time    7.1245: real time    7.4133
    --------------------------------------------
      LOOP:  cpu time  169.1135: real time  170.9979

 eigenvalue-minimisations  :     0
 total energy-change (2. order) :-0.4418231E-04  (-0.2531886E-04)
 number of electron     936.0000012 magnetization     144.0000005
 augmentation part      322.2162141 magnetization      94.1538604

 Free energy of the ion-electron system (eV)
  ---------------------------------------------------
  alpha Z        PSCENC =      2639.27042227
  Ewald energy   TEWEN  =    -69235.16285743
  -Hartree energ DENC   =    -34827.43282885
  -exchange      EXHF   =         0.00000000
  -V(xc)+E(xc)   XCENC  =      3975.72750783
  PAW double counting   =    109950.30103132  -113406.77094372
  entropy T*S    EENTRO =        -0.00000000
  eigenvalues    EBANDS =    -13269.16299977
  atomic energy  EATOM  =    113515.32941094
  ---------------------------------------------------
  free energy    TOTEN  =      -657.90125741 eV

  energy without entropy =     -657.90125741  energy(sigma->0) =     -657.90125741


--------------------------------------------------------------------------------------------------------




--------------------------------------- Iteration      1(  22)  ---------------------------------------


    POTLOK:  cpu time    0.6414: real time    0.6519
    SETDIJ:  cpu time    1.5793: real time    1.5827
    TRIAL :  cpu time  127.8829: real time  129.4962
    CORREC:  cpu time   31.6582: real time   32.1384
    CHARGE:  cpu time    7.3709: real time    7.3755
    --------------------------------------------
      LOOP:  cpu time  169.1357: real time  171.2497

 eigenvalue-minimisations  :     0
 total energy-change (2. order) :-0.2490006E-04  (-0.1507762E-04)
 number of electron     936.0000012 magnetization     144.0000005
 augmentation part      322.2150635 magnetization      94.1534647

 Free energy of the ion-electron system (eV)
  ---------------------------------------------------
  alpha Z        PSCENC =      2639.27042227
  Ewald energy   TEWEN  =    -69235.16285743
  -Hartree energ DENC   =    -34827.68232102
  -exchange      EXHF   =         0.00000000
  -V(xc)+E(xc)   XCENC  =      3975.73373258
  PAW double counting   =    109951.31759377  -113407.86285152
  entropy T*S    EENTRO =        -0.00000000
  eigenvalues    EBANDS =    -13268.84441190
  atomic energy  EATOM  =    113515.32941094
  ---------------------------------------------------
  free energy    TOTEN  =      -657.90128231 eV

  energy without entropy =     -657.90128231  energy(sigma->0) =     -657.90128231


--------------------------------------------------------------------------------------------------------




--------------------------------------- Iteration      1(  23)  ---------------------------------------


    POTLOK:  cpu time    0.6116: real time    0.6120
    SETDIJ:  cpu time    1.5753: real time    1.5758
    TRIAL :  cpu time  127.7499: real time  129.2101
    CORREC:  cpu time   31.3572: real time   31.6731
    CHARGE:  cpu time    7.2729: real time    7.4379
    --------------------------------------------
      LOOP:  cpu time  168.5697: real time  170.5121

 eigenvalue-minimisations  :     0
 total energy-change (2. order) :-0.1513973E-04  (-0.9457848E-05)
 number of electron     936.0000012 magnetization     144.0000005
 augmentation part      322.2152519 magnetization      94.1535837

 Free energy of the ion-electron system (eV)
  ---------------------------------------------------
  alpha Z        PSCENC =      2639.27042227
  Ewald energy   TEWEN  =    -69235.16285743
  -Hartree energ DENC   =    -34827.55635077
  -exchange      EXHF   =         0.00000000
  -V(xc)+E(xc)   XCENC  =      3975.73173102
  PAW double counting   =    109951.46171393  -113407.97129278
  entropy T*S    EENTRO =        -0.00000000
  eigenvalues    EBANDS =    -13269.00407463
  atomic energy  EATOM  =    113515.32941094
  ---------------------------------------------------
  free energy    TOTEN  =      -657.90129745 eV

  energy without entropy =     -657.90129745  energy(sigma->0) =     -657.90129745


--------------------------------------------------------------------------------------------------------




--------------------------------------- Iteration      1(  24)  ---------------------------------------


    POTLOK:  cpu time    0.6276: real time    0.6388
    SETDIJ:  cpu time    1.5759: real time    1.5908
    TRIAL :  cpu time  127.6324: real time  128.9341
    CORREC:  cpu time   31.2664: real time   31.5623
    CHARGE:  cpu time    7.4225: real time    7.4269
    --------------------------------------------
      LOOP:  cpu time  168.5257: real time  170.1548

 eigenvalue-minimisations  :     0
 total energy-change (2. order) :-0.9381925E-05  (-0.5192367E-05)
 number of electron     936.0000012 magnetization     144.0000005
 augmentation part      322.2148291 magnetization      94.1533458

 Free energy of the ion-electron system (eV)
  ---------------------------------------------------
  alpha Z        PSCENC =      2639.27042227
  Ewald energy   TEWEN  =    -69235.16285743
  -Hartree energ DENC   =    -34827.61625090
  -exchange      EXHF   =         0.00000000
  -V(xc)+E(xc)   XCENC  =      3975.73297635
  PAW double counting   =    109952.49798221  -113409.02590351
  entropy T*S    EENTRO =        -0.00000000
  eigenvalues    EBANDS =    -13268.92708677
  atomic energy  EATOM  =    113515.32941094
  ---------------------------------------------------
  free energy    TOTEN  =      -657.90130683 eV

  energy without entropy =     -657.90130683  energy(sigma->0) =     -657.90130683


--------------------------------------------------------------------------------------------------------




--------------------------------------- Iteration      1(  25)  ---------------------------------------


    POTLOK:  cpu time    0.6108: real time    0.6115
    SETDIJ:  cpu time    1.5810: real time    1.5819
    TRIAL :  cpu time  127.5622: real time  128.7867
    CORREC:  cpu time   31.5307: real time   31.9503
    CHARGE:  cpu time    7.2820: real time    7.3706
    --------------------------------------------
      LOOP:  cpu time  168.5772: real time  170.3119

 eigenvalue-minimisations  :     0
 total energy-change (2. order) :-0.5217022E-05  (-0.3556558E-05)
 number of electron     936.0000012 magnetization     144.0000005
 augmentation part      322.2149502 magnetization      94.1533633

 Free energy of the ion-electron system (eV)
  ---------------------------------------------------
  alpha Z        PSCENC =      2639.27042227
  Ewald energy   TEWEN  =    -69235.16285743
  -Hartree energ DENC   =    -34827.57170434
  -exchange      EXHF   =         0.00000000
  -V(xc)+E(xc)   XCENC  =      3975.73204174
  PAW double counting   =    109952.69375775  -113409.21227106
  entropy T*S    EENTRO =        -0.00000000
  eigenvalues    EBANDS =    -13268.98011192
  atomic energy  EATOM  =    113515.32941094
  ---------------------------------------------------
  free energy    TOTEN  =      -657.90131205 eV

  energy without entropy =     -657.90131205  energy(sigma->0) =     -657.90131205


--------------------------------------------------------------------------------------------------------




--------------------------------------- Iteration      1(  26)  ---------------------------------------


    POTLOK:  cpu time    0.6123: real time    0.6126
    SETDIJ:  cpu time    1.5688: real time    1.6088
    TRIAL :  cpu time  127.2193: real time  128.5025
    CORREC:  cpu time   31.4004: real time   31.6721
    CHARGE:  cpu time    7.3315: real time    7.3441
    --------------------------------------------
      LOOP:  cpu time  168.1412: real time  169.7494

 eigenvalue-minimisations  :     0
 total energy-change (2. order) :-0.3532550E-05  (-0.3043997E-05)
 number of electron     936.0000012 magnetization     144.0000005
 augmentation part      322.2146440 magnetization      94.1532280

 Free energy of the ion-electron system (eV)
  ---------------------------------------------------
  alpha Z        PSCENC =      2639.27042227
  Ewald energy   TEWEN  =    -69235.16285743
  -Hartree energ DENC   =    -34827.61244251
  -exchange      EXHF   =         0.00000000
  -V(xc)+E(xc)   XCENC  =      3975.73354872
  PAW double counting   =    109952.88345028  -113409.41226197
  entropy T*S    EENTRO =        -0.00000000
  eigenvalues    EBANDS =    -13268.93058588
  atomic energy  EATOM  =    113515.32941094
  ---------------------------------------------------
  free energy    TOTEN  =      -657.90131558 eV

  energy without entropy =     -657.90131558  energy(sigma->0) =     -657.90131558


--------------------------------------------------------------------------------------------------------




--------------------------------------- Iteration      1(  27)  ---------------------------------------


    POTLOK:  cpu time    0.6088: real time    0.6111
    SETDIJ:  cpu time    1.5916: real time    1.6008
    TRIAL :  cpu time  127.6655: real time  129.1561
    CORREC:  cpu time   31.4898: real time   31.7718
    CHARGE:  cpu time    7.3859: real time    7.3953
    --------------------------------------------
      LOOP:  cpu time  168.7449: real time  170.5389

 eigenvalue-minimisations  :     0
 total energy-change (2. order) :-0.3041889E-05  (-0.2365004E-05)
 number of electron     936.0000012 magnetization     144.0000005
 augmentation part      322.2145720 magnetization      94.1531387

 Free energy of the ion-electron system (eV)
  ---------------------------------------------------
  alpha Z        PSCENC =      2639.27042227
  Ewald energy   TEWEN  =    -69235.16285743
  -Hartree energ DENC   =    -34827.58668011
  -exchange      EXHF   =         0.00000000
  -V(xc)+E(xc)   XCENC  =      3975.73257828
  PAW double counting   =    109952.59830871  -113409.12427299
  entropy T*S    EENTRO =        -0.00000000
  eigenvalues    EBANDS =    -13268.95822830
  atomic energy  EATOM  =    113515.32941094
  ---------------------------------------------------
  free energy    TOTEN  =      -657.90131862 eV

  energy without entropy =     -657.90131862  energy(sigma->0) =     -657.90131862


--------------------------------------------------------------------------------------------------------




--------------------------------------- Iteration      1(  28)  ---------------------------------------


    POTLOK:  cpu time    0.6116: real time    0.6120
    SETDIJ:  cpu time    1.6119: real time    1.6125
    TRIAL :  cpu time  126.9888: real time  128.6959
    CORREC:  cpu time   31.5489: real time   31.8727
    CHARGE:  cpu time    7.3713: real time    7.4047
[...]
   0.836E-01 -.766E-01 0.893E+02   -.802E-01 0.708E-01 -.898E+02   -.629E-02 0.103E-01 0.524E+00
   0.856E-01 0.210E+00 0.896E+02   -.822E-01 -.205E+00 -.901E+02   -.640E-02 -.101E-01 0.504E+00
   0.130E+00 0.671E-01 0.894E+02   -.129E+00 -.672E-01 -.899E+02   -.192E-02 0.694E-04 0.514E+00
   0.531E-01 0.670E-01 0.894E+02   -.536E-01 -.672E-01 -.899E+02   0.941E-03 0.667E-04 0.514E+00
   0.543E-01 0.671E-01 0.894E+02   -.548E-01 -.673E-01 -.899E+02   0.865E-03 0.621E-04 0.514E+00
   0.882E-01 0.671E-01 0.894E+02   -.881E-01 -.674E-01 -.899E+02   -.912E-03 0.684E-04 0.514E+00
   0.835E-01 0.211E+00 0.893E+02   -.801E-01 -.205E+00 -.898E+02   -.628E-02 -.101E-01 0.524E+00
   0.858E-01 -.758E-01 0.896E+02   -.824E-01 0.701E-01 -.901E+02   -.641E-02 0.102E-01 0.504E+00
   0.130E+00 0.672E-01 0.894E+02   -.129E+00 -.673E-01 -.899E+02   -.191E-02 0.644E-04 0.514E+00
   0.477E-01 0.671E-01 0.894E+02   -.484E-01 -.673E-01 -.899E+02   0.158E-02 0.666E-04 0.514E+00
   0.710E-01 0.740E-01 0.894E+02   -.708E-01 -.738E-01 -.899E+02   -.653E-03 -.783E-03 0.515E+00
   0.764E-01 0.602E-01 0.894E+02   -.763E-01 -.607E-01 -.899E+02   -.910E-03 0.908E-03 0.513E+00
   0.472E-01 0.666E-01 0.894E+02   -.479E-01 -.668E-01 -.899E+02   0.159E-02 0.849E-04 0.514E+00
   0.721E-01 0.602E-01 0.894E+02   -.719E-01 -.608E-01 -.899E+02   -.689E-03 0.907E-03 0.515E+00
   0.758E-01 0.745E-01 0.894E+02   -.758E-01 -.743E-01 -.899E+02   -.885E-03 -.804E-03 0.513E+00
   0.182E-01 0.676E-01 0.894E+02   -.192E-01 -.677E-01 -.899E+02   0.232E-02 0.387E-04 0.514E+00
   0.842E-01 0.671E-01 0.894E+02   -.842E-01 -.673E-01 -.899E+02   -.484E-03 0.709E-04 0.515E+00
   0.881E-01 0.667E-01 0.894E+02   -.881E-01 -.669E-01 -.899E+02   -.686E-03 0.859E-04 0.513E+00
   -.481E-01 -.651E-01 -.894E+02   0.485E-01 0.654E-01 0.899E+02   -.851E-03 -.304E-03 -.513E+00
   -.114E+00 -.646E-01 -.894E+02   0.113E+00 0.650E-01 0.899E+02   0.195E-02 -.326E-03 -.514E+00
   -.440E-01 -.656E-01 -.894E+02   0.445E-01 0.658E-01 0.899E+02   -.105E-02 -.281E-03 -.515E+00
   -.603E-01 -.721E-01 -.894E+02   0.608E-01 0.720E-01 0.899E+02   -.105E-02 0.545E-03 -.513E+00
   -.850E-01 -.656E-01 -.894E+02   0.847E-01 0.658E-01 0.899E+02   0.122E-02 -.279E-03 -.514E+00
   -.562E-01 -.578E-01 -.894E+02   0.568E-01 0.584E-01 0.899E+02   -.125E-02 -.117E-02 -.515E+00
   -.614E-01 -.582E-01 -.894E+02   0.619E-01 0.589E-01 0.899E+02   -.101E-02 -.114E-02 -.513E+00
   -.844E-01 -.651E-01 -.894E+02   0.842E-01 0.655E-01 0.899E+02   0.120E-02 -.302E-03 -.514E+00
   -.557E-01 -.720E-01 -.894E+02   0.563E-01 0.719E-01 0.899E+02   -.128E-02 0.543E-03 -.515E+00
   -.474E-01 -.209E+00 -.893E+02   0.512E-01 0.203E+00 0.898E+02   -.675E-02 0.988E-02 -.524E+00
   -.476E-01 0.780E-01 -.896E+02   0.516E-01 -.720E-01 0.901E+02   -.669E-02 -.105E-01 -.504E+00
   -.211E-02 -.653E-01 -.894E+02   0.319E-02 0.656E-01 0.899E+02   -.228E-02 -.294E-03 -.514E+00
   -.780E-01 -.652E-01 -.894E+02   0.780E-01 0.654E-01 0.899E+02   0.501E-03 -.307E-03 -.514E+00
   -.789E-01 -.653E-01 -.894E+02   0.789E-01 0.655E-01 0.899E+02   0.569E-03 -.294E-03 -.514E+00
   -.440E-01 -.651E-01 -.894E+02   0.445E-01 0.653E-01 0.899E+02   -.128E-02 -.307E-03 -.514E+00
   -.476E-01 0.786E-01 -.893E+02   0.514E-01 -.727E-01 0.898E+02   -.674E-02 -.105E-01 -.524E+00
   -.475E-01 -.208E+00 -.896E+02   0.514E-01 0.203E+00 0.901E+02   -.669E-02 0.986E-02 -.504E+00
   -.202E-02 -.650E-01 -.894E+02   0.313E-02 0.653E-01 0.899E+02   -.229E-02 -.307E-03 -.514E+00
   0.211E+00 -.495E-01 -.658E+02   -.205E+00 0.485E-01 0.647E+02   -.456E-02 0.918E-03 0.112E+01
   -.148E+01 -.495E-01 -.657E+02   0.144E+01 0.485E-01 0.646E+02   0.372E-01 0.951E-03 0.111E+01
   0.213E+00 -.494E-01 -.655E+02   -.206E+00 0.484E-01 0.644E+02   -.467E-02 0.947E-03 0.111E+01
   0.151E-01 -.108E+00 -.657E+02   -.961E-02 0.102E+00 0.646E+02   -.440E-02 0.456E-02 0.111E+01
   -.182E+00 -.493E-01 -.657E+02   0.175E+00 0.482E-01 0.646E+02   0.645E-02 0.966E-03 0.111E+01
   0.178E-01 0.864E-02 -.656E+02   -.122E-01 -.525E-02 0.645E+02   -.450E-02 -.260E-02 0.111E+01
   0.147E-01 0.871E-02 -.657E+02   -.922E-02 -.533E-02 0.646E+02   -.440E-02 -.258E-02 0.111E+01
   -.182E+00 -.499E-01 -.657E+02   0.174E+00 0.489E-01 0.646E+02   0.642E-02 0.977E-03 0.111E+01
   0.180E-01 -.107E+00 -.656E+02   -.124E-01 0.102E+00 0.645E+02   -.449E-02 0.453E-02 0.111E+01
   -.690E-01 -.813E-01 -.656E+02   0.662E-01 0.817E-01 0.645E+02   0.226E-02 -.273E-03 0.110E+01
   -.790E-01 -.165E-01 -.658E+02   0.761E-01 0.141E-01 0.646E+02   0.243E-02 0.214E-02 0.112E+01
   0.107E-01 -.506E-01 -.657E+02   -.873E-02 0.496E-01 0.646E+02   -.162E-02 0.945E-03 0.111E+01
   -.558E-01 -.495E-01 -.657E+02   0.540E-01 0.484E-01 0.645E+02   0.152E-02 0.968E-03 0.111E+01
   -.660E-01 -.506E-01 -.657E+02   0.641E-01 0.495E-01 0.646E+02   0.168E-02 0.995E-03 0.112E+01
   -.189E-01 -.484E-01 -.657E+02   0.219E-01 0.474E-01 0.646E+02   -.236E-02 0.979E-03 0.111E+01
   -.709E-01 -.175E-01 -.656E+02   0.681E-01 0.151E-01 0.645E+02   0.230E-02 0.216E-02 0.110E+01
   -.780E-01 -.815E-01 -.658E+02   0.752E-01 0.819E-01 0.646E+02   0.242E-02 -.215E-03 0.112E+01
   0.117E-01 -.494E-01 -.657E+02   -.966E-02 0.484E-01 0.646E+02   -.161E-02 0.958E-03 0.111E+01
   0.185E-01 0.156E-01 0.656E+02   -.198E-01 -.137E-01 -.645E+02   0.107E-02 -.164E-02 -.110E+01
   0.266E-01 0.796E-01 0.658E+02   -.278E-01 -.805E-01 -.646E+02   0.845E-03 0.731E-03 -.112E+01
   0.109E+00 0.475E-01 0.657E+02   -.105E+00 -.470E-01 -.646E+02   -.301E-02 -.450E-03 -.111E+01
   0.308E-01 0.464E-01 0.657E+02   -.313E-01 -.460E-01 -.645E+02   0.307E-03 -.404E-03 -.111E+01
   0.414E-01 0.475E-01 0.657E+02   -.417E-01 -.471E-01 -.646E+02   0.630E-04 -.435E-03 -.111E+01
   0.779E-01 0.486E-01 0.657E+02   -.736E-01 -.482E-01 -.646E+02   -.374E-02 -.411E-03 -.111E+01
   0.175E-01 0.805E-01 0.656E+02   -.189E-01 -.814E-01 -.645E+02   0.103E-02 0.730E-03 -.110E+01
   0.286E-01 0.157E-01 0.658E+02   -.297E-01 -.138E-01 -.646E+02   0.809E-03 -.165E-02 -.112E+01
   0.108E+00 0.466E-01 0.657E+02   -.104E+00 -.461E-01 -.646E+02   -.298E-02 -.460E-03 -.111E+01
   -.854E-01 0.479E-01 0.657E+02   0.789E-01 -.475E-01 -.646E+02   0.504E-02 -.436E-03 -.111E+01
   0.112E+00 0.105E+00 0.656E+02   -.105E+00 -.101E+00 -.645E+02   -.585E-02 -.401E-02 -.111E+01
   0.115E+00 -.106E-01 0.657E+02   -.108E+00 0.665E-02 -.646E+02   -.588E-02 0.312E-02 -.111E+01
   -.856E-01 0.469E-01 0.657E+02   0.791E-01 -.465E-01 -.646E+02   0.505E-02 -.414E-03 -.111E+01
   0.112E+00 -.104E-01 0.656E+02   -.105E+00 0.642E-02 -.645E+02   -.586E-02 0.313E-02 -.111E+01
   0.114E+00 0.106E+00 0.657E+02   -.107E+00 -.101E+00 -.646E+02   -.586E-02 -.400E-02 -.111E+01
   -.138E+01 0.475E-01 0.657E+02   0.134E+01 -.470E-01 -.646E+02   0.358E-01 -.461E-03 -.111E+01
   0.307E+00 0.475E-01 0.655E+02   -.299E+00 -.470E-01 -.644E+02   -.603E-02 -.454E-03 -.111E+01
   0.310E+00 0.476E-01 0.658E+02   -.303E+00 -.471E-01 -.647E+02   -.600E-02 -.474E-03 -.112E+01
 -----------------------------------------------------------------------------------------------
   0.254E-01 -.284E-01 0.248E-04   0.177E-13 -.546E-12 0.121E-11   -.178E-01 0.207E-01 -.827E-04
 
 
 POSITION                                       TOTAL-FORCE (eV/Angst)
 -----------------------------------------------------------------------------------
      1.72948      0.20030     -0.00150        -0.022927     -0.000042     -0.000012
      5.58834      0.20099     -0.00468        -0.021106     -0.000044      0.000027
      9.44720      0.20168     -0.00786         0.000752     -0.000042      0.000000
      1.72882      4.05917     -0.00468        -0.000093     -0.000656     -0.000007
      5.58768      4.05986     -0.00786        -0.000085      0.000559     -0.000018
      9.44654      4.06055     -0.01104         0.000338     -0.000054     -0.000002
      1.72816      7.91804     -0.00786        -0.000098      0.000555     -0.000003
      5.58702      7.91872     -0.01104        -0.000088     -0.000666      0.000002
      9.44588      7.91941     -0.01422         0.000340     -0.000056      0.000002
     -0.19436     -1.72421      6.38168         0.000018     -0.000039     -0.000157
      3.66450     -1.72352      6.37850         0.000031     -0.000033     -0.000127
      7.52337     -1.72284      6.37532         0.000139     -0.000069      0.000272
     -0.19502      2.13465      6.37850         0.000105     -0.000054     -0.000151
      3.66384      2.13534      6.37532        -0.000050     -0.000052     -0.000181
      7.52270      2.13603      6.37214         0.000072     -0.000042      0.000299
     -0.19568      5.99352      6.37532        -0.000060     -0.000053     -0.000174
      3.66318      5.99421      6.37214         0.000102     -0.000069     -0.000130
      7.52204      5.99490      6.36896         0.000071     -0.000046      0.000295
      1.73466      0.20548      6.37832        -0.000128      0.000022     -0.000063
      5.59352      0.20617      6.37514         0.000149     -0.000023      0.000018
      9.45239      0.20686      6.37196         0.000141     -0.000073      0.000040
      1.73400      4.06435      6.37514        -0.000102     -0.000138     -0.000080
      5.59286      4.06504      6.37196         0.000172      0.000027      0.000053
      9.45172      4.06573      6.36877         0.000161      0.000024      0.000029
      1.73334      7.92322      6.37196        -0.000125      0.000029     -0.000033
      5.59220      7.92391      6.36877         0.000158     -0.000069      0.000054
      9.45106      7.92460      6.36559         0.000136     -0.000023      0.000005
     -0.18918     -1.71903     12.76150        -0.004632     -0.000076      0.000010
      3.66968     -1.71834     12.75832         0.000846      0.000309     -0.000005
      7.52855     -1.71765     12.75514         0.000835     -0.000355      0.000014
     -0.18984      2.13984     12.75832        -0.000156     -0.000032      0.000000
      3.66902      2.14052     12.75514         0.000161     -0.000030     -0.000005
      7.52788      2.14121     12.75195         0.000158     -0.000038     -0.000001
     -0.19050      5.99870     12.75514        -0.004638      0.000026      0.000015
      3.66836      5.99939     12.75195         0.000842     -0.000351      0.000006
      7.52722      6.00008     12.74877         0.000829      0.000312      0.000019
      3.64889      0.20059     -0.00317         0.091407     -0.000004     -0.000047
      7.51775      0.20128     -0.00636        -0.003275     -0.000020     -0.000055
     11.37662      0.20197     -0.00954        -0.003376      0.000016      0.000073
      3.65823      4.05946     -0.00636         0.001401     -0.000039     -0.000043
      7.51709      4.06015     -0.00954        -0.000735     -0.000466     -0.000106
     11.37595      4.06083     -0.01272        -0.000770      0.000364      0.000055
      3.65757      7.91832     -0.00954         0.001409     -0.000056      0.000076
      7.51643      7.91901     -0.01272        -0.000748      0.000374      0.000031
     11.37529      7.91970     -0.01590        -0.000765     -0.000501      0.000024
      1.73505     -1.72393      6.38000         0.000467      0.000028      0.001001
      5.59392     -1.72324      6.37682        -0.000155     -0.000047     -0.000464
      9.45278     -1.72255      6.37364        -0.000226     -0.000043     -0.000517
      1.73439      2.13494      6.37682         0.000453     -0.000065      0.000453
      5.59325      2.13563      6.37364        -0.000316     -0.000009     -0.000435
      9.45211      2.13632      6.37046        -0.000212     -0.000032     -0.000153
      1.73373      5.99381      6.37364         0.000444     -0.000097      0.000657
      5.59259      5.99450      6.37046        -0.000153     -0.000051     -0.000057
      9.45145      5.99519      6.36727        -0.000377     -0.000034     -0.000588
      1.73069      2.13130      1.90875        -0.002818      0.004349      0.005100
      5.58955      2.13198      1.90557        -0.002849     -0.004335     -0.004899
      9.44841      2.13267      1.90239        -0.001222     -0.000012      0.000013
      1.73003      5.99016      1.90557         0.000387     -0.000098      0.000063
      5.58889      5.99085      1.90239         0.000325     -0.000063     -0.000033
      9.44775      5.99154      1.89920        -0.000850     -0.000083      0.000042
      1.72937      9.84903      1.90239        -0.002807     -0.004317      0.005045
      5.58823      9.84972      1.89920        -0.002835      0.004315     -0.004884
      9.44709      9.85041      1.89602        -0.001252      0.000024      0.000045
     -0.19315      0.20678      8.29193         0.000752     -0.000045      0.000230
      3.66571      0.20747      8.28875        -0.000540     -0.000498      0.000663
      7.52457      0.20816      8.28557        -0.000836      0.000438     -0.000664
     -0.19381      4.06565      8.28875         0.000752     -0.000019      0.000090
      3.66505      4.06634      8.28557        -0.000533      0.000434      0.000567
      7.52391      4.06702      8.28238        -0.000835     -0.000513     -0.000712
     -0.19447      7.92451      8.28557         0.001256     -0.000005      0.000123
      3.66439      7.92520      8.28238        -0.000465     -0.000007      0.000528
      7.52325      7.92589      8.27920        -0.000736     -0.000005     -0.000515
     -0.19633      0.20360      4.46807        -0.000474      0.000089      0.000354
      3.66253      0.20429      4.46489         0.001372      0.000072      0.000105
      7.52140      0.20498      4.46171        -0.000603      0.000072     -0.000577
     -0.19699      4.06247      4.46489        -0.000592      0.000474      0.000484
      3.66187      4.06316      4.46171         0.000888      0.000010      0.000053
      7.52073      4.06384      4.45853        -0.000675     -0.000413     -0.000702
     -0.19765      7.92133      4.46171        -0.000616     -0.000395      0.000566
      3.66121      7.92202      4.45853         0.000919      0.000076      0.000122
      7.52007      7.92271      4.45535        -0.000691      0.000508     -0.000705
     -2.12017     -1.72091     10.85125        -0.002776      0.004443     -0.005034
      1.73869     -1.72023     10.84807        -0.002673     -0.004205      0.004960
      5.59756     -1.71954     10.84489        -0.001203      0.000075     -0.000087
     -2.12083      2.13795     10.84807         0.000409     -0.000031     -0.000118
      1.73803      2.13864     10.84489         0.000490     -0.000044      0.000112
      5.59689      2.13933     10.84171        -0.000801     -0.000024     -0.000096
     -2.12149      5.99682     10.84489        -0.002798     -0.004264     -0.005020
      1.73737      5.99751     10.84171        -0.002653      0.004431      0.004978
      5.59623      5.99820     10.83853        -0.001188      0.000112     -0.000116
     -0.19826      0.20165      2.04033         0.001337      0.000028     -0.001037
      3.66060      0.20234      2.03715        -0.007106      0.000030     -0.000205
      7.51947      0.20302      2.03397         0.001388      0.000023      0.000924
     -0.19892      4.06051      2.03715         0.001000     -0.000877     -0.000033
      3.65994      4.06120      2.03397        -0.001548     -0.000015     -0.000074
      7.51880      4.06189      2.03079         0.001056      0.000840     -0.000092
     -0.19958      7.91938      2.03397         0.000987      0.000848     -0.000076
      3.65928      7.92007      2.03079        -0.001531     -0.000034     -0.000127
      7.51814      7.92076      2.02760         0.001047     -0.000863     -0.000092
     -2.12210     -1.72287      8.42351        -0.000528      0.000208      0.001684
      1.73676     -1.72218      8.42033        -0.000440     -0.000177     -0.001957
      5.59563     -1.72149      8.41715         0.000335      0.000027      0.000080
     -2.12276      2.13600      8.42033        -0.000389     -0.000023      0.000118
      1.73610      2.13669      8.41715        -0.000282     -0.000013     -0.000411
      5.59496      2.13738      8.41396         0.000526     -0.000023      0.000040
     -2.12342      5.99486      8.41715        -0.000532     -0.000219      0.001660
      1.73544      5.99555      8.41396        -0.000433      0.000207     -0.001921
      5.59430      5.99624      8.41078         0.000349     -0.000002     -0.000043
      1.73264      2.13323      4.33649        -0.000372      0.000275     -0.001721
      5.59151      2.13392      4.33331        -0.000376     -0.000116      0.001849
      9.45037      2.13460      4.33013         0.000404      0.000106      0.000100
      1.73198      5.99209      4.33331        -0.000230      0.000039     -0.000249
      5.59084      5.99278      4.33013        -0.000205      0.000059      0.000289
      9.44970      5.99347      4.32695         0.000561      0.000060      0.000222
      1.73132      9.85096      4.33013        -0.000387     -0.000078     -0.001790
      5.59018      9.85165      4.32695        -0.000373      0.000317      0.001862
      9.44904      9.85234      4.32377         0.000405      0.000106      0.000221
     -0.19120      0.20871     10.71967        -0.001487      0.000090      0.000043
      3.66767      0.20940     10.71649         0.001148      0.000929      0.000136
      7.52653      0.21009     10.71331         0.001081     -0.000750      0.000035
     -0.19186      4.06758     10.71649        -0.001489      0.000045      0.000066
      3.66700      4.06827     10.71331         0.001170     -0.000793      0.000125
      7.52586      4.06896     10.71013         0.001076      0.000906      0.000044
     -0.19252      7.92644     10.71331        -0.007050      0.000120      0.000205
      3.66634      7.92713     10.71013         0.001513      0.000117     -0.000890
      7.52520      7.92782     10.70695         0.001407      0.000100      0.001023
 -----------------------------------------------------------------------------------
    total drift:                                0.007589     -0.007666     -0.000058


--------------------------------------------------------------------------------------------------------



  FREE ENERGIE OF THE ION-ELECTRON SYSTEM (eV)
  ---------------------------------------------------
  free  energy   TOTEN  =      -657.90132692 eV

  energy  without entropy=     -657.90132692  energy(sigma->0) =     -657.90132692
 


--------------------------------------------------------------------------------------------------------


    POTLOK:  cpu time    2.1891: real time    2.1994


--------------------------------------------------------------------------------------------------------


     LOOP+:  cpu time 6619.7401: real time 6716.8921
    4ORBIT:  cpu time    0.0000: real time    0.0000

 total amount of memory used by VASP MPI-rank0  2010615. kBytes
=======================================================================

   base      :      30000. kBytes
   nonl-proj :      83483. kBytes
   fftplans  :      59337. kBytes
   grid      :      50429. kBytes
   one-center:        653. kBytes
   wavefun   :    1786713. kBytes
 
  
  
 General timing and accounting informations for this job:
 ========================================================
  
                  Total CPU time used (sec):     6730.867
                            User time (sec):     6643.977
                          System time (sec):       86.890
                         Elapsed time (sec):     6830.181
  
                   Maximum memory used (kb):     2459756.
                   Average memory used (kb):           0.
  
                          Minor page faults:      1048313
                          Major page faults:           15
                 Voluntary context switches:        44736
