  10  10   0   0
  0.1228332E+02  0.3911956E-09  0.5609234E-09  0.5597810E-09  0.5000000E-15
  1.000000000000000E-004
  CAR 
 unknown system                          
     18.93688852    -54.83535105  301      4.45908651      1.00000000
    -54.835  0.0000E+00  0.0000E+00  0.0000E+00  0.0000E+00
    -54.589  0.0000E+00  0.0000E+00  0.0000E+00  0.0000E+00
    -54.344  0.0000E+00  0.0000E+00  0.0000E+00  0.0000E+00
    -54.098  0.0000E+00  0.0000E+00  0.0000E+00  0.0000E+00
    -53.852  0.0000E+00  0.0000E+00  0.0000E+00  0.0000E+00
    -53.606  0.0000E+00  0.0000E+00  0.0000E+00  0.0000E+00
    -53.360  0.0000E+00  0.0000E+00  0.0000E+00  0.0000E+00
    -53.114  0.0000E+00  0.0000E+00  0.0000E+00  0.0000E+00
    -52.868  0.0000E+00  0.0000E+00  0.0000E+00  0.0000E+00
    -52.622  0.0000E+00  0.0000E+00  0.0000E+00  0.0000E+00
    -52.376  0.0000E+00  0.0000E+00  0.0000E+00  0.0000E+00
    -52.130  0.0000E+00  0.0000E+00  0.0000E+00  0.0000E+00
    -51.884  0.0000E+00  0.0000E+00  0.0000E+00  0.0000E+00
    -51.639  0.1152E-04  0.0000E+00  0.2834E-05  0.0000E+00
    -51.393  0.7945E+01  0.0000E+00  0.1954E+01  0.0000E+00
    -51.147  0.1885E+00  0.0000E+00  0.2000E+01  0.0000E+00
    -50.901  0.0000E+00  0.0000E+00  0.2000E+01  0.0000E+00
    -50.655  0.0000E+00  0.0000E+00  0.2000E+01  0.0000E+00
    -50.409  0.1139E-07  0.0000E+00  0.2000E+01  0.0000E+00
    -50.163  0.6847E+01  0.0000E+00  0.3684E+01  0.0000E+00
    -49.917  0.9221E+01  0.0000E+00  0.5951E+01  0.0000E+00
    -49.671  0.1981E+00  0.0000E+00  0.6000E+01  0.0000E+00
    -49.425  0.0000E+00  0.0000E+00  0.6000E+01  0.0000E+00
    -49.179  0.0000E+00  0.0000E+00  0.6000E+01  0.0000E+00
    -48.934  0.0000E+00  0.0000E+00  0.6000E+01  0.0000E+00
    -48.688  0.0000E+00  0.0000E+00  0.6000E+01  0.0000E+00
    -48.442  0.0000E+00  0.0000E+00  0.6000E+01  0.0000E+00
    -48.196  0.0000E+00  0.0000E+00  0.6000E+01  0.0000E+00
    -47.950  0.0000E+00  0.0000E+00  0.6000E+01  0.0000E+00
    -47.704  0.0000E+00  0.0000E+00  0.6000E+01  0.0000E+00
    -47.458  0.0000E+00  0.0000E+00  0.6000E+01  0.0000E+00
    -47.212  0.0000E+00  0.0000E+00  0.6000E+01  0.0000E+00
    -46.966  0.0000E+00  0.1925E-07  0.6000E+01  0.4735E-08
    -46.720  0.0000E+00  0.6226E+01  0.6000E+01  0.1531E+01
    -46.474  0.0000E+00  0.2575E+01  0.6000E+01  0.2164E+01
    -46.229  0.0000E+00  0.1559E+02  0.6000E+01  0.5999E+01
    -45.983  0.0000E+00  0.4195E-02  0.6000E+01  0.6000E+01
    -45.737  0.0000E+00  0.0000E+00  0.6000E+01  0.6000E+01
    -45.491  0.0000E+00  0.0000E+00  0.6000E+01  0.6000E+01
    -45.245  0.0000E+00  0.0000E+00  0.6000E+01  0.6000E+01
    -44.999  0.0000E+00  0.0000E+00  0.6000E+01  0.6000E+01
    -44.753  0.0000E+00  0.0000E+00  0.6000E+01  0.6000E+01
    -44.507  0.0000E+00  0.0000E+00  0.6000E+01  0.6000E+01
    -44.261  0.0000E+00  0.0000E+00  0.6000E+01  0.6000E+01
    -44.015  0.0000E+00  0.0000E+00  0.6000E+01  0.6000E+01
    -43.770  0.0000E+00  0.0000E+00  0.6000E+01  0.6000E+01
    -43.524  0.0000E+00  0.0000E+00  0.6000E+01  0.6000E+01
    -43.278  0.0000E+00  0.0000E+00  0.6000E+01  0.6000E+01
    -43.032  0.0000E+00  0.0000E+00  0.6000E+01  0.6000E+01
    -42.786  0.0000E+00  0.0000E+00  0.6000E+01  0.6000E+01
    -42.540  0.0000E+00  0.0000E+00  0.6000E+01  0.6000E+01
    -42.294  0.0000E+00  0.0000E+00  0.6000E+01  0.6000E+01
    -42.048  0.0000E+00  0.0000E+00  0.6000E+01  0.6000E+01
    -41.802  0.0000E+00  0.0000E+00  0.6000E+01  0.6000E+01
    -41.556  0.0000E+00  0.0000E+00  0.6000E+01  0.6000E+01
    -41.310  0.0000E+00  0.0000E+00  0.6000E+01  0.6000E+01
    -41.065  0.0000E+00  0.0000E+00  0.6000E+01  0.6000E+01
    -40.819  0.1935E-16  0.0000E+00  0.6000E+01  0.6000E+01
    -40.573  0.3962E+00  0.2340E+00  0.6097E+01  0.6058E+01
    -40.327  0.9922E+01  0.1007E+02  0.8537E+01  0.8533E+01
    -40.081  0.5948E+01  0.5965E+01  0.1000E+02  0.1000E+02
    -39.835  0.0000E+00  0.0000E+00  0.1000E+02  0.1000E+02
    -39.589  0.0000E+00  0.0000E+00  0.1000E+02  0.1000E+02
    -39.343  0.0000E+00  0.0000E+00  0.1000E+02  0.1000E+02
    -39.097  0.0000E+00  0.0000E+00  0.1000E+02  0.1000E+02
    -38.851  0.0000E+00  0.0000E+00  0.1000E+02  0.1000E+02
    -38.605  0.0000E+00  0.0000E+00  0.1000E+02  0.1000E+02
    -38.360  0.0000E+00  0.0000E+00  0.1000E+02  0.1000E+02
    -38.114  0.0000E+00  0.0000E+00  0.1000E+02  0.1000E+02
    -37.868  0.0000E+00  0.0000E+00  0.1000E+02  0.1000E+02
    -37.622  0.0000E+00  0.0000E+00  0.1000E+02  0.1000E+02
    -37.376  0.0000E+00  0.0000E+00  0.1000E+02  0.1000E+02
    -37.130  0.0000E+00  0.0000E+00  0.1000E+02  0.1000E+02
    -36.884  0.0000E+00  0.0000E+00  0.1000E+02  0.1000E+02
    -36.638  0.0000E+00  0.0000E+00  0.1000E+02  0.1000E+02
    -36.392  0.0000E+00  0.0000E+00  0.1000E+02  0.1000E+02
    -36.146  0.0000E+00  0.0000E+00  0.1000E+02  0.1000E+02
    -35.900  0.0000E+00  0.0000E+00  0.1000E+02  0.1000E+02
    -35.655  0.0000E+00  0.0000E+00  0.1000E+02  0.1000E+02
    -35.409  0.0000E+00  0.0000E+00  0.1000E+02  0.1000E+02
    -35.163  0.0000E+00  0.0000E+00  0.1000E+02  0.1000E+02
    -34.917  0.0000E+00  0.0000E+00  0.1000E+02  0.1000E+02
    -34.671  0.0000E+00  0.0000E+00  0.1000E+02  0.1000E+02
    -34.425  0.0000E+00  0.0000E+00  0.1000E+02  0.1000E+02
    -34.179  0.0000E+00  0.0000E+00  0.1000E+02  0.1000E+02
    -33.933  0.0000E+00  0.0000E+00  0.1000E+02  0.1000E+02
    -33.687  0.0000E+00  0.0000E+00  0.1000E+02  0.1000E+02
    -33.441  0.0000E+00  0.0000E+00  0.1000E+02  0.1000E+02
    -33.195  0.0000E+00  0.0000E+00  0.1000E+02  0.1000E+02
    -32.950  0.0000E+00  0.0000E+00  0.1000E+02  0.1000E+02
    -32.704  0.0000E+00  0.0000E+00  0.1000E+02  0.1000E+02
    -32.458  0.0000E+00  0.0000E+00  0.1000E+02  0.1000E+02
    -32.212  0.0000E+00  0.0000E+00  0.1000E+02  0.1000E+02
    -31.966  0.0000E+00  0.0000E+00  0.1000E+02  0.1000E+02
    -31.720  0.0000E+00  0.0000E+00  0.1000E+02  0.1000E+02
    -31.474  0.0000E+00  0.0000E+00  0.1000E+02  0.1000E+02
    -31.228  0.0000E+00  0.0000E+00  0.1000E+02  0.1000E+02
    -30.982  0.0000E+00  0.0000E+00  0.1000E+02  0.1000E+02
    -30.736  0.0000E+00  0.0000E+00  0.1000E+02  0.1000E+02
    -30.491  0.0000E+00  0.0000E+00  0.1000E+02  0.1000E+02
    -30.245  0.0000E+00  0.0000E+00  0.1000E+02  0.1000E+02
    -29.999  0.0000E+00  0.0000E+00  0.1000E+02  0.1000E+02
    -29.753  0.0000E+00  0.0000E+00  0.1000E+02  0.1000E+02
    -29.507  0.0000E+00  0.0000E+00  0.1000E+02  0.1000E+02
    -29.261  0.0000E+00  0.0000E+00  0.1000E+02  0.1000E+02
    -29.015  0.0000E+00  0.0000E+00  0.1000E+02  0.1000E+02
    -28.769  0.0000E+00  0.0000E+00  0.1000E+02  0.1000E+02
    -28.523  0.0000E+00  0.0000E+00  0.1000E+02  0.1000E+02
    -28.277  0.0000E+00  0.0000E+00  0.1000E+02  0.1000E+02
    -28.031  0.0000E+00  0.0000E+00  0.1000E+02  0.1000E+02
    -27.786  0.0000E+00  0.0000E+00  0.1000E+02  0.1000E+02
    -27.540  0.0000E+00  0.0000E+00  0.1000E+02  0.1000E+02
    -27.294  0.0000E+00  0.0000E+00  0.1000E+02  0.1000E+02
    -27.048  0.0000E+00  0.0000E+00  0.1000E+02  0.1000E+02
    -26.802  0.0000E+00  0.0000E+00  0.1000E+02  0.1000E+02
    -26.556  0.0000E+00  0.0000E+00  0.1000E+02  0.1000E+02
    -26.310  0.0000E+00  0.0000E+00  0.1000E+02  0.1000E+02
    -26.064  0.0000E+00  0.0000E+00  0.1000E+02  0.1000E+02
    -25.818  0.0000E+00  0.0000E+00  0.1000E+02  0.1000E+02
    -25.572  0.0000E+00  0.0000E+00  0.1000E+02  0.1000E+02
    -25.326  0.0000E+00  0.0000E+00  0.1000E+02  0.1000E+02
    -25.081  0.0000E+00  0.0000E+00  0.1000E+02  0.1000E+02
    -24.835  0.0000E+00  0.0000E+00  0.1000E+02  0.1000E+02
    -24.589  0.0000E+00  0.0000E+00  0.1000E+02  0.1000E+02
    -24.343  0.0000E+00  0.0000E+00  0.1000E+02  0.1000E+02
    -24.097  0.0000E+00  0.0000E+00  0.1000E+02  0.1000E+02
    -23.851  0.0000E+00  0.0000E+00  0.1000E+02  0.1000E+02
    -23.605  0.0000E+00  0.0000E+00  0.1000E+02  0.1000E+02
    -23.359  0.0000E+00  0.0000E+00  0.1000E+02  0.1000E+02
    -23.113  0.0000E+00  0.0000E+00  0.1000E+02  0.1000E+02
    -22.867  0.0000E+00  0.0000E+00  0.1000E+02  0.1000E+02
    -22.621  0.0000E+00  0.0000E+00  0.1000E+02  0.1000E+02
    -22.376  0.0000E+00  0.0000E+00  0.1000E+02  0.1000E+02
    -22.130  0.0000E+00  0.0000E+00  0.1000E+02  0.1000E+02
    -21.884  0.0000E+00  0.0000E+00  0.1000E+02  0.1000E+02
    -21.638  0.0000E+00  0.0000E+00  0.1000E+02  0.1000E+02
    -21.392  0.0000E+00  0.0000E+00  0.1000E+02  0.1000E+02
    -21.146  0.0000E+00  0.0000E+00  0.1000E+02  0.1000E+02
    -20.900  0.0000E+00  0.0000E+00  0.1000E+02  0.1000E+02
    -20.654  0.0000E+00  0.0000E+00  0.1000E+02  0.1000E+02
    -20.408  0.0000E+00  0.0000E+00  0.1000E+02  0.1000E+02
    -20.162  0.0000E+00  0.0000E+00  0.1000E+02  0.1000E+02
    -19.916  0.0000E+00  0.0000E+00  0.1000E+02  0.1000E+02
    -19.671  0.0000E+00  0.0000E+00  0.1000E+02  0.1000E+02
    -19.425  0.0000E+00  0.0000E+00  0.1000E+02  0.1000E+02
    -19.179  0.0000E+00  0.0000E+00  0.1000E+02  0.1000E+02
    -18.933  0.0000E+00  0.0000E+00  0.1000E+02  0.1000E+02
    -18.687  0.0000E+00  0.0000E+00  0.1000E+02  0.1000E+02
    -18.441  0.0000E+00  0.0000E+00  0.1000E+02  0.1000E+02
    -18.195  0.0000E+00  0.0000E+00  0.1000E+02  0.1000E+02
    -17.949  0.0000E+00  0.0000E+00  0.1000E+02  0.1000E+02
    -17.703  0.0000E+00  0.0000E+00  0.1000E+02  0.1000E+02
    -17.457  0.0000E+00  0.0000E+00  0.1000E+02  0.1000E+02
    -17.212  0.0000E+00  0.0000E+00  0.1000E+02  0.1000E+02
    -16.966  0.0000E+00  0.0000E+00  0.1000E+02  0.1000E+02
    -16.720  0.0000E+00  0.0000E+00  0.1000E+02  0.1000E+02
    -16.474  0.0000E+00  0.0000E+00  0.1000E+02  0.1000E+02
    -16.228  0.0000E+00  0.0000E+00  0.1000E+02  0.1000E+02
    -15.982  0.0000E+00  0.0000E+00  0.1000E+02  0.1000E+02
    -15.736  0.0000E+00  0.0000E+00  0.1000E+02  0.1000E+02
    -15.490  0.0000E+00  0.0000E+00  0.1000E+02  0.1000E+02
    -15.244  0.0000E+00  0.0000E+00  0.1000E+02  0.1000E+02
    -14.998  0.0000E+00  0.0000E+00  0.1000E+02  0.1000E+02
    -14.752  0.0000E+00  0.0000E+00  0.1000E+02  0.1000E+02
    -14.507  0.0000E+00  0.0000E+00  0.1000E+02  0.1000E+02
    -14.261  0.0000E+00  0.0000E+00  0.1000E+02  0.1000E+02
    -14.015  0.0000E+00  0.0000E+00  0.1000E+02  0.1000E+02
    -13.769  0.2214E-10  0.0000E+00  0.1000E+02  0.1000E+02
    -13.523  0.6809E+00  0.1548E-16  0.1017E+02  0.1000E+02
    -13.277  0.5026E+01  0.3813E-01  0.1140E+02  0.1001E+02
    -13.031  0.2426E+01  0.5823E+01  0.1200E+02  0.1144E+02
    -12.785  0.4176E-05  0.2272E+01  0.1200E+02  0.1200E+02
    -12.539  0.0000E+00  0.0000E+00  0.1200E+02  0.1200E+02
    -12.293  0.0000E+00  0.0000E+00  0.1200E+02  0.1200E+02
    -12.047  0.0000E+00  0.0000E+00  0.1200E+02  0.1200E+02
    -11.802  0.0000E+00  0.0000E+00  0.1200E+02  0.1200E+02
    -11.556  0.0000E+00  0.0000E+00  0.1200E+02  0.1200E+02
    -11.310  0.0000E+00  0.0000E+00  0.1200E+02  0.1200E+02
    -11.064  0.0000E+00  0.0000E+00  0.1200E+02  0.1200E+02
    -10.818  0.0000E+00  0.0000E+00  0.1200E+02  0.1200E+02
    -10.572  0.0000E+00  0.0000E+00  0.1200E+02  0.1200E+02
    -10.326  0.0000E+00  0.0000E+00  0.1200E+02  0.1200E+02
    -10.080  0.0000E+00  0.0000E+00  0.1200E+02  0.1200E+02
     -9.834  0.0000E+00  0.0000E+00  0.1200E+02  0.1200E+02
     -9.588  0.0000E+00  0.0000E+00  0.1200E+02  0.1200E+02
     -9.342  0.0000E+00  0.0000E+00  0.1200E+02  0.1200E+02
     -9.097  0.0000E+00  0.0000E+00  0.1200E+02  0.1200E+02
     -8.851  0.0000E+00  0.0000E+00  0.1200E+02  0.1200E+02
     -8.605  0.0000E+00  0.0000E+00  0.1200E+02  0.1200E+02
     -8.359  0.0000E+00  0.0000E+00  0.1200E+02  0.1200E+02
     -8.113  0.0000E+00  0.0000E+00  0.1200E+02  0.1200E+02
     -7.867  0.2639E-05  0.0000E+00  0.1200E+02  0.1200E+02
     -7.621  0.8828E+00  0.1561E-03  0.1222E+02  0.1200E+02
     -7.375  0.3566E+01  0.1687E+01  0.1309E+02  0.1241E+02
     -7.129  0.3464E+01  0.4047E+01  0.1395E+02  0.1341E+02
     -6.883  0.2205E+00  0.2269E+01  0.1400E+02  0.1397E+02
     -6.637  0.0000E+00  0.1308E+00  0.1400E+02  0.1400E+02
     -6.392  0.0000E+00  0.0000E+00  0.1400E+02  0.1400E+02
     -6.146  0.0000E+00  0.0000E+00  0.1400E+02  0.1400E+02
     -5.900  0.0000E+00  0.0000E+00  0.1400E+02  0.1400E+02
     -5.654  0.0000E+00  0.0000E+00  0.1400E+02  0.1400E+02
     -5.408  0.0000E+00  0.0000E+00  0.1400E+02  0.1400E+02
     -5.162  0.0000E+00  0.0000E+00  0.1400E+02  0.1400E+02
     -4.916  0.0000E+00  0.0000E+00  0.1400E+02  0.1400E+02
     -4.670  0.0000E+00  0.0000E+00  0.1400E+02  0.1400E+02
     -4.424  0.0000E+00  0.0000E+00  0.1400E+02  0.1400E+02
     -4.178  0.0000E+00  0.0000E+00  0.1400E+02  0.1400E+02
     -3.933  0.0000E+00  0.0000E+00  0.1400E+02  0.1400E+02
     -3.687  0.0000E+00  0.0000E+00  0.1400E+02  0.1400E+02
     -3.441  0.0000E+00  0.0000E+00  0.1400E+02  0.1400E+02
     -3.195  0.0000E+00  0.0000E+00  0.1400E+02  0.1400E+02
     -2.949  0.0000E+00  0.0000E+00  0.1400E+02  0.1400E+02
     -2.703  0.0000E+00  0.0000E+00  0.1400E+02  0.1400E+02
     -2.457  0.0000E+00  0.0000E+00  0.1400E+02  0.1400E+02
     -2.211  0.3483E-16  0.0000E+00  0.1400E+02  0.1400E+02
     -1.965  0.2068E-01  0.0000E+00  0.1401E+02  0.1400E+02
     -1.719  0.3635E+01  0.0000E+00  0.1490E+02  0.1400E+02
     -1.473  0.4418E+01  0.0000E+00  0.1599E+02  0.1400E+02
     -1.228  0.2036E+01  0.0000E+00  0.1649E+02  0.1400E+02
     -0.982  0.3789E+01  0.6450E-17  0.1742E+02  0.1400E+02
     -0.736  0.4861E+01  0.4161E-02  0.1861E+02  0.1400E+02
     -0.490  0.4656E+01  0.1066E+01  0.1976E+02  0.1426E+02
     -0.244  0.5680E+01  0.2761E+01  0.2116E+02  0.1494E+02
      0.002  0.2661E+01  0.2949E+01  0.2181E+02  0.1567E+02
      0.248  0.4309E+01  0.1998E+01  0.2287E+02  0.1616E+02
      0.494  0.4329E+01  0.4097E+01  0.2393E+02  0.1717E+02
      0.740  0.2777E+01  0.3846E+01  0.2462E+02  0.1811E+02
      0.986  0.4070E+01  0.5581E+01  0.2562E+02  0.1948E+02
      1.232  0.4138E+01  0.2468E+01  0.2663E+02  0.2009E+02
      1.477  0.4444E+01  0.1659E+01  0.2773E+02  0.2050E+02
      1.723  0.4858E+01  0.3493E+01  0.2892E+02  0.2136E+02
      1.969  0.2797E+01  0.3416E+01  0.2961E+02  0.2220E+02
      2.215  0.2166E+01  0.2867E+01  0.3014E+02  0.2290E+02
      2.461  0.1248E+01  0.2711E+01  0.3045E+02  0.2357E+02
      2.707  0.3330E+01  0.1976E+01  0.3127E+02  0.2406E+02
      2.953  0.2937E+01  0.4292E+01  0.3199E+02  0.2511E+02
      3.199  0.3005E+01  0.3081E+01  0.3273E+02  0.2587E+02
      3.445  0.3747E+01  0.9582E+00  0.3365E+02  0.2610E+02
      3.691  0.4369E+01  0.3368E+01  0.3473E+02  0.2693E+02
      3.937  0.3737E+01  0.4143E+01  0.3564E+02  0.2795E+02
      4.182  0.1436E+01  0.1971E+00  0.3600E+02  0.2800E+02
      4.428  0.1049E-01  0.0000E+00  0.3600E+02  0.2800E+02
      4.674  0.0000E+00  0.0000E+00  0.3600E+02  0.2800E+02
      4.920  0.0000E+00  0.0000E+00  0.3600E+02  0.2800E+02
      5.166  0.0000E+00  0.0000E+00  0.3600E+02  0.2800E+02
      5.412  0.0000E+00  0.0000E+00  0.3600E+02  0.2800E+02
      5.658  0.0000E+00  0.0000E+00  0.3600E+02  0.2800E+02
      5.904  0.0000E+00  0.2954E-12  0.3600E+02  0.2800E+02
      6.150  0.0000E+00  0.4963E-01  0.3600E+02  0.2801E+02
      6.396  0.0000E+00  0.4908E+00  0.3600E+02  0.2813E+02
      6.642  0.0000E+00  0.1832E+01  0.3600E+02  0.2858E+02
      6.887  0.0000E+00  0.2626E+01  0.3600E+02  0.2923E+02
      7.133  0.5640E-10  0.3138E+01  0.3600E+02  0.3000E+02
      7.379  0.2010E-01  0.6780E+01  0.3600E+02  0.3167E+02
      7.625  0.3368E-02  0.2974E+01  0.3601E+02  0.3240E+02
      7.871  0.1470E+00  0.3299E+01  0.3604E+02  0.3321E+02
      8.117  0.3458E+00  0.6042E+01  0.3613E+02  0.3470E+02
      8.363  0.6389E+00  0.4751E+01  0.3628E+02  0.3586E+02
      8.609  0.1077E+01  0.5996E+00  0.3655E+02  0.3601E+02
      8.855  0.1579E+01  0.8946E-01  0.3694E+02  0.3603E+02
      9.101  0.1953E+01  0.3680E+00  0.3742E+02  0.3612E+02
      9.346  0.1852E+01  0.7997E+00  0.3787E+02  0.3632E+02
      9.592  0.1911E+01  0.1688E+01  0.3834E+02  0.3674E+02
      9.838  0.1354E+01  0.2597E+01  0.3868E+02  0.3738E+02
     10.084  0.2233E+01  0.2550E+01  0.3922E+02  0.3800E+02
     10.330  0.1650E+01  0.1847E+01  0.3963E+02  0.3846E+02
     10.576  0.1417E+01  0.3022E+01  0.3998E+02  0.3920E+02
     10.822  0.1827E+01  0.1944E+01  0.4043E+02  0.3968E+02
     11.068  0.2638E+01  0.1373E+01  0.4108E+02  0.4002E+02
     11.314  0.3810E+01  0.1513E+01  0.4201E+02  0.4039E+02
     11.560  0.3464E+01  0.1740E+01  0.4287E+02  0.4081E+02
     11.806  0.2629E+01  0.3296E+01  0.4351E+02  0.4163E+02
     12.051  0.1905E+01  0.4779E+01  0.4398E+02  0.4280E+02
     12.297  0.2266E+01  0.3342E+01  0.4454E+02  0.4362E+02
     12.543  0.2387E+01  0.2241E+01  0.4512E+02  0.4417E+02
     12.789  0.2716E+01  0.1827E+01  0.4579E+02  0.4462E+02
     13.035  0.1334E+01  0.2415E+01  0.4612E+02  0.4522E+02
     13.281  0.1496E+01  0.2891E+01  0.4649E+02  0.4593E+02
     13.527  0.2726E+01  0.1131E+01  0.4716E+02  0.4621E+02
     13.773  0.1385E+01  0.1740E+01  0.4750E+02  0.4663E+02
     14.019  0.4897E+00  0.2618E+01  0.4762E+02  0.4728E+02
     14.265  0.8773E+00  0.1251E+01  0.4784E+02  0.4759E+02
     14.511  0.2949E+00  0.2746E+00  0.4791E+02  0.4765E+02
     14.756  0.2539E+00  0.7200E+00  0.4797E+02  0.4783E+02
     15.002  0.8131E-01  0.3977E+00  0.4799E+02  0.4793E+02
     15.248  0.3857E-01  0.2663E+00  0.4800E+02  0.4799E+02
     15.494  0.5058E-05  0.4907E-02  0.4800E+02  0.4799E+02
     15.740  0.0000E+00  0.2310E-01  0.4800E+02  0.4800E+02
     15.986  0.0000E+00  0.0000E+00  0.4800E+02  0.4800E+02
     16.232  0.0000E+00  0.0000E+00  0.4800E+02  0.4800E+02
     16.478  0.0000E+00  0.0000E+00  0.4800E+02  0.4800E+02
     16.724  0.0000E+00  0.0000E+00  0.4800E+02  0.4800E+02
     16.970  0.0000E+00  0.0000E+00  0.4800E+02  0.4800E+02
     17.216  0.0000E+00  0.0000E+00  0.4800E+02  0.4800E+02
     17.461  0.0000E+00  0.0000E+00  0.4800E+02  0.4800E+02
     17.707  0.0000E+00  0.0000E+00  0.4800E+02  0.4800E+02
     17.953  0.0000E+00  0.0000E+00  0.4800E+02  0.4800E+02
     18.199  0.0000E+00  0.0000E+00  0.4800E+02  0.4800E+02
     18.445  0.0000E+00  0.0000E+00  0.4800E+02  0.4800E+02
     18.691  0.0000E+00  0.0000E+00  0.4800E+02  0.4800E+02
     18.937  0.0000E+00  0.0000E+00  0.4800E+02  0.4800E+02
