   10   10    1    2
  0.1228332E+02  0.3911956E-09  0.5609234E-09  0.5597810E-09  0.5000000E-15
  1.000000000000000E-004
  CAR 
 unknown system                          
     64     88     48
 
  0.0000000E+00  0.0000000E+00  0.0000000E+00  0.5714286E-02
    1      -51.482062    -46.768283   1.000000   1.000000
    2      -51.450841    -46.728446   1.000000   1.000000
    3      -50.200801    -46.427610   1.000000   1.000000
    4      -50.195464    -46.421280   1.000000   1.000000
    5      -50.006852    -46.371033   1.000000   1.000000
    6      -49.974085    -46.332574   1.000000   1.000000
    7      -40.523542    -40.514900   1.000000   1.000000
    8      -40.504849    -40.496231   1.000000   1.000000
    9      -40.305867    -40.305638   1.000000   1.000000
   10      -40.303632    -40.303339   1.000000   1.000000
   11      -13.488983    -13.176507   1.000000   1.000000
   12      -13.197567    -12.977260   1.000000   1.000000
   13       -7.734064     -7.523958   1.000000   1.000000
   14       -7.233598     -7.086200   1.000000   1.000000
   15       -1.924929     -0.694834   1.000000   1.000000
   16       -1.886302     -0.627067   1.000000   1.000000
   17       -1.183477      0.479229   1.000000   1.000000
   18       -0.697800      0.501032   1.000000   1.000000
   19       -0.602185      0.681907   1.000000   1.000000
   20       -0.505910      1.031453   1.000000   1.000000
   21       -0.175933      1.938271   1.000000   1.000000
   22       -0.002276      1.940070   1.000000   1.000000
   23        0.163112      2.581423   1.000000   1.000000
   24        0.226582      2.934403   1.000000   1.000000
   25        0.241298      3.235566   1.000000   1.000000
   26        0.486440      3.360665   1.000000   1.000000
   27        0.539758      3.588606   1.000000   1.000000
   28        1.372611      3.965657   1.000000   1.000000
   29        2.014803      6.820078   1.000000   0.000000
   30        2.152170      7.074745   1.000000   0.000000
   31        3.401647      7.270530   1.000000   0.000000
   32        3.425620      7.276101   1.000000   0.000000
   33        3.456430      7.334392   1.000000   0.000000
   34        4.061198      8.103422   1.000000   0.000000
   35        4.100303      8.238244   1.000000   0.000000
   36        4.165301      8.434400   1.000000   0.000000
   37        7.340233      8.615735   0.000000   0.000000
   38        7.813068      8.794057   0.000000   0.000000
   39        9.223123      9.375591   0.000000   0.000000
   40        9.332845     10.129275   0.000000   0.000000
   41       10.130429     10.576392   0.000000   0.000000
   42       10.739055     11.079666   0.000000   0.000000
   43       10.750938     11.120892   0.000000   0.000000
   44       13.425732     13.930985   0.000000   0.000000
   45       13.590603     13.972391   0.000000   0.000000
   46       14.882702     15.107098   0.000000   0.000000
   47       15.016967     15.219185   0.000000   0.000000
   48       15.123908     15.583605   0.000000   0.000000
 
  0.1428571E+00 -0.2168404E-18  0.0000000E+00  0.1142857E-01
    1      -51.482047    -46.768257   1.000000   1.000000
    2      -51.450839    -46.728436   1.000000   1.000000
    3      -50.200999    -46.427872   1.000000   1.000000
    4      -50.195624    -46.421500   1.000000   1.000000
    5      -50.006831    -46.371004   1.000000   1.000000
    6      -49.974076    -46.332559   1.000000   1.000000
    7      -40.522924    -40.514267   1.000000   1.000000
    8      -40.504777    -40.496160   1.000000   1.000000
    9      -40.305693    -40.305472   1.000000   1.000000
   10      -40.304022    -40.303747   1.000000   1.000000
   11      -13.494720    -13.181659   1.000000   1.000000
   12      -13.207915    -12.987746   1.000000   1.000000
   13       -7.685814     -7.485684   1.000000   1.000000
   14       -7.204559     -7.040889   1.000000   1.000000
   15       -1.888737     -0.572557   1.000000   1.000000
   16       -1.859655     -0.518838   1.000000   1.000000
   17       -1.226735      0.517922   1.000000   1.000000
   18       -0.618897      0.552770   1.000000   1.000000
   19       -0.604399      0.669238   1.000000   1.000000
   20       -0.525061      1.052084   1.000000   1.000000
   21       -0.255920      1.885602   1.000000   1.000000
   22        0.073248      1.894712   1.000000   1.000000
   23        0.161933      2.190557   1.000000   1.000000
   24        0.223617      2.371700   1.000000   1.000000
   25        0.332220      3.261713   1.000000   1.000000
   26        0.578503      3.306296   1.000000   1.000000
   27        0.588404      3.596212   1.000000   1.000000
   28        1.350688      3.906381   1.000000   1.000000
   29        2.004376      6.712857   1.000000   0.000000
   30        2.181039      7.063480   1.000000   0.000000
   31        2.925952      7.186439   1.000000   0.000000
   32        3.212316      7.336550   1.000000   0.000000
   33        3.554496      7.647759   1.000000   0.000000
   34        3.616745      7.983909   1.000000   0.000000
   35        3.831572      8.102305   1.000000   0.000000
   36        3.937321      8.362707   1.000000   0.000000
   37        7.852947      8.802268   0.000000   0.000000
   38        8.636378      9.589552   0.000000   0.000000
   39        9.480129      9.701301   0.000000   0.000000
   40        9.521232     10.159456   0.000000   0.000000
   41       10.420489     10.956600   0.000000   0.000000
   42       10.769061     11.278041   0.000000   0.000000
   43       10.863484     11.295165   0.000000   0.000000
   44       13.013313     13.544822   0.000000   0.000000
   45       13.094997     13.586990   0.000000   0.000000
   46       14.160630     14.727792   0.000000   0.000000
   47       14.306237     14.767735   0.000000   0.000000
   48       14.815075     15.072802   0.000000   0.000000
 
  0.2857143E+00  0.0000000E+00  0.0000000E+00  0.1142857E-01
    1      -51.482017    -46.768204   1.000000   1.000000
    2      -51.450825    -46.728412   1.000000   1.000000
    3      -50.201415    -46.428457   1.000000   1.000000
    4      -50.196000    -46.422022   1.000000   1.000000
    5      -50.006788    -46.370943   1.000000   1.000000
    6      -49.974052    -46.332525   1.000000   1.000000
    7      -40.521472    -40.512777   1.000000   1.000000
    8      -40.504644    -40.496029   1.000000   1.000000
    9      -40.305258    -40.305057   1.000000   1.000000
   10      -40.304922    -40.304687   1.000000   1.000000
   11      -13.507717    -13.193371   1.000000   1.000000
   12      -13.231024    -13.011157   1.000000   1.000000
   13       -7.570287     -7.394586   1.000000   1.000000
   14       -7.137947     -6.934467   1.000000   1.000000
   15       -1.817095     -0.239536   1.000000   1.000000
   16       -1.806840     -0.238762   1.000000   1.000000
   17       -1.303335      0.416743   1.000000   1.000000
   18       -0.901941      0.694403   1.000000   1.000000
   19       -0.386855      0.774695   1.000000   1.000000
   20       -0.366052      1.074984   1.000000   1.000000
   21       -0.252129      1.484790   1.000000   1.000000
   22        0.085959      1.685001   1.000000   1.000000
   23        0.238750      1.697726   1.000000   1.000000
   24        0.359959      1.753838   1.000000   1.000000
   25        0.440791      3.038688   1.000000   1.000000
   26        0.732598      3.104258   1.000000   1.000000
   27        0.808697      3.540311   1.000000   1.000000
   28        1.321563      3.817554   1.000000   1.000000
   29        1.846536      6.542385   1.000000   0.000000
   30        2.105336      6.660712   1.000000   0.000000
   31        2.297615      7.332514   1.000000   0.000000
   32        2.318535      7.468376   1.000000   0.000000
   33        3.091661      7.870004   1.000000   0.000000
   34        3.511807      7.914142   1.000000   0.000000
   35        3.633345      8.174100   1.000000   0.000000
   36        3.642273      8.387587   1.000000   0.000000
   37        8.787595      9.312233   0.000000   0.000000
   38        9.144181      9.859792   0.000000   0.000000
   39       10.224957     10.561110   0.000000   0.000000
   40       10.494025     11.324765   0.000000   0.000000
   41       10.527250     11.409953   0.000000   0.000000
   42       11.055281     11.674539   0.000000   0.000000
   43       11.679142     12.054017   0.000000   0.000000
   44       12.281147     12.736991   0.000000   0.000000
   45       12.309376     12.778794   0.000000   0.000000
   46       13.438806     13.918074   0.000000   0.000000
   47       13.780270     14.083474   0.000000   0.000000
   48       14.385216     14.763105   0.000000   0.000000
 
  0.4285714E+00  0.0000000E+00  0.0000000E+00  0.1142857E-01
    1      -51.481994    -46.768157   1.000000   1.000000
    2      -51.450810    -46.728391   1.000000   1.000000
    3      -50.201746    -46.428924   1.000000   1.000000
    4      -50.196267    -46.422414   1.000000   1.000000
    5      -50.006750    -46.370891   1.000000   1.000000
    6      -49.974025    -46.332495   1.000000   1.000000
    7      -40.520296    -40.511570   1.000000   1.000000
    8      -40.504519    -40.495904   1.000000   1.000000
    9      -40.305617    -40.305414   1.000000   1.000000
   10      -40.304924    -40.304738   1.000000   1.000000
   11      -13.518247    -13.202894   1.000000   1.000000
   12      -13.249440    -13.029814   1.000000   1.000000
   13       -7.469424     -7.315796   1.000000   1.000000
   14       -7.083095     -6.843941   1.000000   1.000000
   15       -1.784074     -0.080459   1.000000   1.000000
   16       -1.770505      0.156734   1.000000   1.000000
   17       -1.352037      0.378106   1.000000   1.000000
   18       -1.131147      0.837555   1.000000   1.000000
   19       -0.446435      0.947856   1.000000   1.000000
   20       -0.054982      0.987209   1.000000   1.000000
   21        0.032053      1.097828   1.000000   1.000000
   22        0.110791      1.308407   1.000000   1.000000
   23        0.164039      1.367501   1.000000   1.000000
   24        0.563274      1.573870   1.000000   1.000000
   25        0.827654      2.814567   1.000000   1.000000
   26        0.850263      2.906769   1.000000   1.000000
   27        1.007397      3.485538   1.000000   1.000000
   28        1.152138      3.783096   1.000000   1.000000
   29        1.325420      6.405602   1.000000   0.000000
   30        1.685025      6.432604   1.000000   0.000000
   31        1.702838      7.378146   1.000000   0.000000
   32        2.341287      7.511391   1.000000   0.000000
   33        2.621649      7.911890   1.000000   0.000000
   34        3.223866      8.060155   1.000000   0.000000
   35        3.620546      8.315872   1.000000   0.000000
   36        3.674318      8.327935   1.000000   0.000000
   37        9.376787      9.739854   0.000000   0.000000
   38        9.656324     10.098881   0.000000   0.000000
   39       10.189048     11.353721   0.000000   0.000000
   40       10.291779     11.545662   0.000000   0.000000
   41       11.253220     11.694601   0.000000   0.000000
   42       11.437761     11.846824   0.000000   0.000000
   43       11.664913     12.134240   0.000000   0.000000
   44       12.391998     12.779741   0.000000   0.000000
   45       12.462296     12.883328   0.000000   0.000000
   46       13.354860     13.673707   0.000000   0.000000
   47       13.436772     13.709094   0.000000   0.000000
   48       13.521971     13.895890   0.000000   0.000000
 
  0.0000000E+00  0.2000000E+00  0.0000000E+00  0.1142857E-01
    1      -51.479055    -46.764305   1.000000   1.000000
    2      -51.453800    -46.732075   1.000000   1.000000
    3      -50.200298    -46.427012   1.000000   1.000000
    4      -50.195966    -46.421880   1.000000   1.000000
    5      -50.003770    -46.367573   1.000000   1.000000
    6      -49.977264    -46.336463   1.000000   1.000000
    7      -40.521792    -40.513154   1.000000   1.000000
    8      -40.506654    -40.498035   1.000000   1.000000
    9      -40.305666    -40.305429   1.000000   1.000000
   10      -40.303810    -40.303523   1.000000   1.000000
   11      -13.460260    -13.155810   1.000000   1.000000
   12      -13.224376    -12.994496   1.000000   1.000000
   13       -7.703472     -7.501804   1.000000   1.000000
   14       -7.304125     -7.152775   1.000000   1.000000
   15       -1.827661     -0.542207   1.000000   1.000000
   16       -1.759727     -0.445233   1.000000   1.000000
   17       -1.123572      0.407820   1.000000   1.000000
   18       -0.779246      0.551053   1.000000   1.000000
   19       -0.758233      0.732489   1.000000   1.000000
   20       -0.541065      1.024677   1.000000   1.000000
   21       -0.343279      1.787977   1.000000   1.000000
   22       -0.013613      1.983864   1.000000   1.000000
   23        0.025848      2.589028   1.000000   1.000000
   24        0.136496      2.883088   1.000000   1.000000
   25        0.506210      3.118172   1.000000   1.000000
   26        0.807615      3.262872   1.000000   1.000000
   27        0.838932      3.315897   1.000000   1.000000
   28        1.461381      3.866728   1.000000   1.000000
   29        1.894040      6.911634   1.000000   0.000000
   30        2.056085      7.167519   1.000000   0.000000
   31        3.062306      7.250140   1.000000   0.000000
   32        3.291278      7.305589   1.000000   0.000000
   33        3.433437      7.506392   1.000000   0.000000
   34        3.884475      7.950116   1.000000   0.000000
   35        4.001659      8.041052   1.000000   0.000000
   36        4.026771      8.497541   1.000000   0.000000
   37        7.767190      8.903885   0.000000   0.000000
   38        8.093472      8.953166   0.000000   0.000000
   39        9.477963      9.684883   0.000000   0.000000
   40        9.802258     10.481177   0.000000   0.000000
   41       10.212675     10.583134   0.000000   0.000000
   42       10.950777     11.364470   0.000000   0.000000
   43       11.124084     11.532775   0.000000   0.000000
   44       12.860675     13.296963   0.000000   0.000000
   45       13.118933     13.458819   0.000000   0.000000
   46       13.452327     13.763835   0.000000   0.000000
   47       14.080964     14.866283   0.000000   0.000000
   48       14.443341     15.065072   0.000000   0.000000
 
  0.1428571E+00  0.2000000E+00  0.0000000E+00  0.1142857E-01
    1      -51.479043    -46.764279   1.000000   1.000000
    2      -51.453790    -46.732056   1.000000   1.000000
    3      -50.200479    -46.427260   1.000000   1.000000
    4      -50.196137    -46.422109   1.000000   1.000000
    5      -50.003751    -46.367544   1.000000   1.000000
    6      -49.977247    -46.336439   1.000000   1.000000
    7      -40.521205    -40.512552   1.000000   1.000000
    8      -40.506528    -40.497908   1.000000   1.000000
    9      -40.305514    -40.305287   1.000000   1.000000
   10      -40.304165    -40.303894   1.000000   1.000000
   11      -13.466595    -13.161683   1.000000   1.000000
   12      -13.234450    -13.004691   1.000000   1.000000
   13       -7.654490     -7.460142   1.000000   1.000000
   14       -7.269519     -7.104615   1.000000   1.000000
   15       -1.797846     -0.440397   1.000000   1.000000
   16       -1.745869     -0.361396   1.000000   1.000000
   17       -1.175556      0.453810   1.000000   1.000000
   18       -0.784399      0.476562   1.000000   1.000000
   19       -0.725874      0.845489   1.000000   1.000000
   20       -0.454384      0.980630   1.000000   1.000000
   21       -0.404110      1.804446   1.000000   1.000000
   22       -0.065765      1.951596   1.000000   1.000000
   23        0.109936      2.244045   1.000000   1.000000
   24        0.219495      2.274888   1.000000   1.000000
   25        0.439846      2.986416   1.000000   1.000000
   26        0.846446      3.177453   1.000000   1.000000
   27        0.938419      3.665167   1.000000   1.000000
   28        1.447881      3.839392   1.000000   1.000000
   29        1.859946      6.806621   1.000000   0.000000
   30        2.063167      7.141665   1.000000   0.000000
   31        2.874966      7.163243   1.000000   0.000000
   32        2.934656      7.326672   1.000000   0.000000
   33        3.386347      7.773923   1.000000   0.000000
   34        3.596317      7.915927   1.000000   0.000000
   35        3.857129      8.043797   1.000000   0.000000
   36        3.891616      8.311223   1.000000   0.000000
   37        8.221801      9.111488   0.000000   0.000000
   38        8.884559      9.697354   0.000000   0.000000
   39        9.454444      9.806847   0.000000   0.000000
   40        9.962256     10.490310   0.000000   0.000000
   41       10.496706     10.945586   0.000000   0.000000
   42       10.978750     11.447551   0.000000   0.000000
   43       11.138360     11.674557   0.000000   0.000000
   44       12.468832     12.995862   0.000000   0.000000
   45       12.602421     13.066663   0.000000   0.000000
   46       13.300628     13.629202   0.000000   0.000000
   47       13.503807     14.031586   0.000000   0.000000
   48       13.753989     14.172286   0.000000   0.000000
 
  0.2857143E+00  0.2000000E+00  0.0000000E+00  0.1142857E-01
    1      -51.479014    -46.764227   1.000000   1.000000
    2      -51.453777    -46.732031   1.000000   1.000000
    3      -50.200894    -46.427837   1.000000   1.000000
    4      -50.196513    -46.422632   1.000000   1.000000
    5      -50.003710    -46.367485   1.000000   1.000000
    6      -49.977224    -46.336403   1.000000   1.000000
    7      -40.519870    -40.511183   1.000000   1.000000
    8      -40.506273    -40.497651   1.000000   1.000000
    9      -40.305233    -40.305028   1.000000   1.000000
   10      -40.304941    -40.304708   1.000000   1.000000
   11      -13.480896    -13.174978   1.000000   1.000000
   12      -13.256993    -13.027507   1.000000   1.000000
   13       -7.537418     -7.360999   1.000000   1.000000
   14       -7.189583     -6.991113   1.000000   1.000000
   15       -1.741900     -0.205591   1.000000   1.000000
   16       -1.716688     -0.165373   1.000000   1.000000
   17       -1.258383      0.298741   1.000000   1.000000
   18       -0.860361      0.661220   1.000000   1.000000
   19       -0.607277      0.831556   1.000000   1.000000
   20       -0.532323      1.018020   1.000000   1.000000
   21       -0.276467      1.512227   1.000000   1.000000
   22       -0.205807      1.537240   1.000000   1.000000
   23        0.209571      1.838309   1.000000   1.000000
   24        0.437963      1.971869   1.000000   1.000000
   25        0.562700      2.931798   1.000000   1.000000
   26        0.932181      2.977350   1.000000   1.000000
   27        1.109356      3.681627   1.000000   1.000000
   28        1.436962      3.793998   1.000000   1.000000
   29        1.555400      6.630046   1.000000   0.000000
   30        1.916717      6.817254   1.000000   0.000000
   31        2.404566      7.213468   1.000000   0.000000
   32        2.431564      7.420992   1.000000   0.000000
   33        3.369615      7.876376   1.000000   0.000000
   34        3.423855      7.906791   1.000000   0.000000
   35        3.497286      8.103589   1.000000   0.000000
   36        3.584705      8.248595   1.000000   0.000000
   37        8.945714      9.615015   0.000000   0.000000
   38        9.301109     10.129848   0.000000   0.000000
   39        9.920202     10.316408   0.000000   0.000000
   40       10.537751     11.319349   0.000000   0.000000
   41       10.862763     11.392675   0.000000   0.000000
   42       11.177154     11.889722   0.000000   0.000000
   43       11.441622     11.959408   0.000000   0.000000
   44       12.061308     12.426696   0.000000   0.000000
   45       12.078595     12.472714   0.000000   0.000000
   46       13.042717     13.453811   0.000000   0.000000
   47       13.197447     13.534356   0.000000   0.000000
   48       13.505886     13.885545   0.000000   0.000000
 
  0.4285714E+00  0.2000000E+00  0.0000000E+00  0.1142857E-01
    1      -51.478989    -46.764182   1.000000   1.000000
    2      -51.453761    -46.732005   1.000000   1.000000
    3      -50.201219    -46.428297   1.000000   1.000000
    4      -50.196789    -46.423035   1.000000   1.000000
    5      -50.003674    -46.367434   1.000000   1.000000
    6      -49.977198    -46.336368   1.000000   1.000000
    7      -40.518781    -40.510065   1.000000   1.000000
    8      -40.506031    -40.497406   1.000000   1.000000
    9      -40.305553    -40.305351   1.000000   1.000000
   10      -40.304977    -40.304790   1.000000   1.000000
   11      -13.492443    -13.185742   1.000000   1.000000
   12      -13.274965    -13.045696   1.000000   1.000000
   13       -7.435479     -7.275276   1.000000   1.000000
   14       -7.123153     -6.894099   1.000000   1.000000
   15       -1.720615     -0.197216   1.000000   1.000000
   16       -1.694760     -0.039438   1.000000   1.000000
   17       -1.306997      0.416156   1.000000   1.000000
   18       -1.005769      0.675039   1.000000   1.000000
   19       -0.609297      0.891744   1.000000   1.000000
   20       -0.404672      1.116625   1.000000   1.000000
   21       -0.265313      1.187610   1.000000   1.000000
   22       -0.072923      1.243434   1.000000   1.000000
   23        0.105003      1.566662   1.000000   1.000000
   24        0.439116      1.889814   1.000000   1.000000
   25        1.003195      2.754275   1.000000   1.000000
   26        1.109008      3.040560   1.000000   1.000000
   27        1.209387      3.544357   1.000000   1.000000
   28        1.232202      3.763078   1.000000   1.000000
   29        1.450660      6.496833   1.000000   0.000000
   30        1.662432      6.530920   1.000000   0.000000
   31        1.849159      7.260673   1.000000   0.000000
   32        2.449320      7.433224   1.000000   0.000000
   33        2.886489      7.873665   1.000000   0.000000
   34        3.246943      8.013878   1.000000   0.000000
   35        3.398905      8.179910   1.000000   0.000000
   36        3.664824      8.255557   1.000000   0.000000
   37        9.422302     10.139764   0.000000   0.000000
   38        9.476668     10.166565   0.000000   0.000000
   39        9.898839     10.689357   0.000000   0.000000
   40       10.104737     10.710903   0.000000   0.000000
   41       11.158499     11.846371   0.000000   0.000000
   42       11.274310     11.924390   0.000000   0.000000
   43       11.610778     12.128301   0.000000   0.000000
   44       12.496497     12.926540   0.000000   0.000000
   45       12.771915     13.061966   0.000000   0.000000
   46       12.999582     13.369593   0.000000   0.000000
   47       13.091893     13.420750   0.000000   0.000000
   48       13.517121     13.883560   0.000000   0.000000
 
 -0.4285714E+00  0.2000000E+00  0.0000000E+00  0.1142857E-01
    1      -51.478989    -46.764182   1.000000   1.000000
    2      -51.453760    -46.732004   1.000000   1.000000
    3      -50.201219    -46.428297   1.000000   1.000000
    4      -50.196789    -46.423035   1.000000   1.000000
    5      -50.003673    -46.367434   1.000000   1.000000
    6      -49.977197    -46.336367   1.000000   1.000000
    7      -40.518777    -40.510061   1.000000   1.000000
    8      -40.506031    -40.497406   1.000000   1.000000
    9      -40.305552    -40.305351   1.000000   1.000000
   10      -40.304974    -40.304786   1.000000   1.000000
   11      -13.492443    -13.185741   1.000000   1.000000
   12      -13.274965    -13.045696   1.000000   1.000000
   13       -7.435479     -7.275275   1.000000   1.000000
   14       -7.123151     -6.894098   1.000000   1.000000
   15       -1.720612     -0.197215   1.000000   1.000000
   16       -1.694760     -0.039445   1.000000   1.000000
   17       -1.306996      0.416163   1.000000   1.000000
   18       -1.005770      0.675036   1.000000   1.000000
   19       -0.609289      0.891745   1.000000   1.000000
   20       -0.404677      1.116639   1.000000   1.000000
   21       -0.265308      1.187602   1.000000   1.000000
   22       -0.072920      1.243431   1.000000   1.000000
   23        0.105004      1.566667   1.000000   1.000000
   24        0.439120      1.889835   1.000000   1.000000
   25        1.003186      2.754284   1.000000   1.000000
   26        1.108965      3.040577   1.000000   1.000000
   27        1.209373      3.544361   1.000000   1.000000
   28        1.232238      3.763075   1.000000   1.000000
   29        1.450688      6.496832   1.000000   0.000000
   30        1.662435      6.530915   1.000000   0.000000
   31        1.849158      7.260680   1.000000   0.000000
   32        2.449323      7.433224   1.000000   0.000000
   33        2.886509      7.873662   1.000000   0.000000
   34        3.246951      8.013881   1.000000   0.000000
   35        3.398900      8.179905   1.000000   0.000000
   36        3.664842      8.255576   1.000000   0.000000
   37        9.422293     10.139774   0.000000   0.000000
   38        9.476685     10.166567   0.000000   0.000000
   39        9.898869     10.689386   0.000000   0.000000
   40       10.104682     10.710840   0.000000   0.000000
   41       11.158538     11.846366   0.000000   0.000000
   42       11.274317     11.924442   0.000000   0.000000
   43       11.610717     12.128246   0.000000   0.000000
   44       12.496549     12.926582   0.000000   0.000000
   45       12.771871     13.061949   0.000000   0.000000
   46       12.999500     13.369534   0.000000   0.000000
   47       13.091861     13.420694   0.000000   0.000000
   48       13.517211     13.883634   0.000000   0.000000
 
 -0.2857143E+00  0.2000000E+00  0.0000000E+00  0.1142857E-01
    1      -51.479014    -46.764227   1.000000   1.000000
    2      -51.453777    -46.732031   1.000000   1.000000
    3      -50.200894    -46.427837   1.000000   1.000000
    4      -50.196513    -46.422632   1.000000   1.000000
    5      -50.003710    -46.367485   1.000000   1.000000
    6      -49.977224    -46.336403   1.000000   1.000000
    7      -40.519870    -40.511183   1.000000   1.000000
    8      -40.506273    -40.497651   1.000000   1.000000
    9      -40.305233    -40.305028   1.000000   1.000000
   10      -40.304941    -40.304708   1.000000   1.000000
   11      -13.480896    -13.174979   1.000000   1.000000
   12      -13.256993    -13.027507   1.000000   1.000000
   13       -7.537418     -7.360997   1.000000   1.000000
   14       -7.189580     -6.991111   1.000000   1.000000
   15       -1.741900     -0.205600   1.000000   1.000000
   16       -1.716690     -0.165391   1.000000   1.000000
   17       -1.258388      0.298733   1.000000   1.000000
   18       -0.860370      0.661223   1.000000   1.000000
   19       -0.607292      0.831532   1.000000   1.000000
   20       -0.532301      1.018022   1.000000   1.000000
   21       -0.276458      1.512220   1.000000   1.000000
   22       -0.205809      1.537235   1.000000   1.000000
   23        0.209568      1.838314   1.000000   1.000000
   24        0.437971      1.971918   1.000000   1.000000
   25        0.562689      2.931806   1.000000   1.000000
   26        0.932168      2.977366   1.000000   1.000000
   27        1.109308      3.681646   1.000000   1.000000
   28        1.436992      3.793994   1.000000   1.000000
   29        1.555391      6.630030   1.000000   0.000000
   30        1.916715      6.817250   1.000000   0.000000
   31        2.404561      7.213495   1.000000   0.000000
   32        2.431572      7.420997   1.000000   0.000000
   33        3.369637      7.876357   1.000000   0.000000
   34        3.423862      7.906786   1.000000   0.000000
   35        3.497290      8.103617   1.000000   0.000000
   36        3.584751      8.248602   1.000000   0.000000
   37        8.945703      9.614969   0.000000   0.000000
   38        9.301115     10.129858   0.000000   0.000000
   39        9.920229     10.316447   0.000000   0.000000
   40       10.537717     11.319295   0.000000   0.000000
   41       10.862762     11.392636   0.000000   0.000000
   42       11.177070     11.889770   0.000000   0.000000
   43       11.441650     11.959343   0.000000   0.000000
   44       12.061239     12.426652   0.000000   0.000000
   45       12.078660     12.472779   0.000000   0.000000
   46       13.042588     13.453703   0.000000   0.000000
   47       13.197427     13.534340   0.000000   0.000000
   48       13.505895     13.885523   0.000000   0.000000
 
 -0.1428571E+00  0.2000000E+00  0.0000000E+00  0.1142857E-01
    1      -51.479043    -46.764279   1.000000   1.000000
    2      -51.453790    -46.732056   1.000000   1.000000
    3      -50.200479    -46.427260   1.000000   1.000000
    4      -50.196137    -46.422109   1.000000   1.000000
    5      -50.003751    -46.367544   1.000000   1.000000
    6      -49.977247    -46.336439   1.000000   1.000000
    7      -40.521205    -40.512552   1.000000   1.000000
    8      -40.506528    -40.497908   1.000000   1.000000
    9      -40.305514    -40.305287   1.000000   1.000000
   10      -40.304165    -40.303894   1.000000   1.000000
   11      -13.466595    -13.161683   1.000000   1.000000
   12      -13.234450    -13.004691   1.000000   1.000000
   13       -7.654490     -7.460141   1.000000   1.000000
   14       -7.269517     -7.104614   1.000000   1.000000
   15       -1.797846     -0.440402   1.000000   1.000000
   16       -1.745871     -0.361408   1.000000   1.000000
   17       -1.175562      0.453795   1.000000   1.000000
   18       -0.784406      0.476565   1.000000   1.000000
   19       -0.725889      0.845494   1.000000   1.000000
   20       -0.454374      0.980608   1.000000   1.000000
   21       -0.404095      1.804463   1.000000   1.000000