<?xml version="1.0" encoding="ISO-8859-1"?>
<modeling>
 <generator>
  <i name="program" type="string">vasp </i>
  <i name="version" type="string">5.4.4.18Apr17-6-g9f103f2a35  </i>
  <i name="subversion" type="string">(build Oct 25 2017 14:42:18) complex            parallel </i>
  <i name="platform" type="string">LinuxIFC </i>
  <i name="date" type="string">2021 04 16 </i>
  <i name="time" type="string">15:09:11 </i>
 </generator>
 <incar>
  <i type="string" name="PREC">accurate</i>
  <i type="string" name="ALGO"> normal</i>
  <i type="logical" name="ADDGRID"> T  </i>
  <i type="int" name="ISPIN">     2</i>
  <i type="int" name="NELM">   200</i>
  <i type="int" name="NELMIN">     8</i>
  <i name="EDIFF">      0.00000001</i>
  <i type="int" name="ISIF">     3</i>
  <i type="int" name="ISYM">     0</i>
  <i name="ENCUT">    650.00000000</i>
  <v name="MAGMOM">      0.60000000      0.60000000      0.60000000      0.60000000      0.60000000      0.60000000      0.60000000      0.60000000      5.00000000      5.00000000</v>
  <i type="logical" name="LREAL"> F  </i>
  <i type="int" name="ISMEAR">     0</i>
  <i name="SIGMA">      0.05000000</i>
  <i type="int" name="NWRITE">     1</i>
  <i type="int" name="LMAXMIX">     4</i>
  <i type="logical" name="LWAVE"> F  </i>
  <i type="logical" name="LASPH"> T  </i>
  <v type="int" name="KPOINT_BSE">    -1     0     0     0</v>
  <i type="int" name="NELM">   200</i>
  <i type="string" name="GGA"> pe</i>
  <i type="logical" name="LDAU"> T  </i>
  <v type="int" name="LDAUTYPE">     2</v>
  <v type="int" name="LDAUL">    -1    -1    -1     2</v>
  <v name="LDAUU">      0.00000000      0.00000000      0.00000000      4.00000000</v>
  <v name="LDAUJ">      0.00000000      0.00000000      0.00000000      0.00000000</v>
  <i type="logical" name="LEPSILON"> T  </i>
  <i type="logical" name="LASPH"> T  </i>
 </incar>
 <structure name="primitive_cell" >
  <crystal>
   <varray name="basis" >
    <v>       3.91190908      -0.01914762       0.00000000 </v>
    <v>       0.02740394       5.60916745       0.00000000 </v>
    <v>       0.00000000       0.00000000       5.59781005 </v>
   </varray>
   <i name="volume">    122.83318143 </i>
   <varray name="rec_basis" >
    <v>       0.25562355      -0.00124886       0.00000000 </v>
    <v>       0.00087260       0.17827531       0.00000000 </v>
    <v>       0.00000000       0.00000000       0.17864129 </v>
   </varray>
  </crystal>
  <varray name="positions" >
   <v>       0.10625117      -0.27444906      -0.28703703 </v>
   <v>      -0.39372807      -0.26461525      -0.25246982 </v>
   <v>       0.10628253      -0.25976107       0.24058895 </v>
   <v>      -0.39371625       0.43796120      -0.45507570 </v>
   <v>      -0.39371625      -0.06203880       0.45507570 </v>
   <v>       0.10628253       0.24023893      -0.24058895 </v>
   <v>      -0.39371839      -0.47549382       0.03993075 </v>
   <v>      -0.39371839       0.02450618      -0.03993075 </v>
   <v>       0.10625117       0.22555094       0.28703703 </v>
   <v>      -0.39372807       0.23538475       0.25246982 </v>
  </varray>
 </structure>
 <varray name="primitive_index" >
  <v type="int" >        1 </v>
  <v type="int" >        5 </v>
  <v type="int" >        7 </v>
  <v type="int" >        3 </v>
  <v type="int" >        4 </v>
  <v type="int" >        8 </v>
  <v type="int" >       10 </v>
  <v type="int" >        9 </v>
  <v type="int" >        2 </v>
  <v type="int" >        6 </v>
 </varray>
 <kpoints>
  <generation param="Gamma">
   <v type="int" name="divisions">       7        5        5 </v>
   <v name="usershift">      0.00000000       0.00000000       0.00000000 </v>
   <v name="genvec1">      0.14285714       0.00000000       0.00000000 </v>
   <v name="genvec2">      0.00000000       0.20000000       0.00000000 </v>
   <v name="genvec3">      0.00000000       0.00000000       0.20000000 </v>
   <v name="shift">      0.00000000       0.00000000       0.00000000 </v>
  </generation>
  <varray name="kpointlist" >
   <v>       0.00000000       0.00000000       0.00000000 </v>
   <v>       0.14285714      -0.00000000       0.00000000 </v>
   <v>       0.28571429       0.00000000       0.00000000 </v>
   <v>       0.42857143       0.00000000       0.00000000 </v>
   <v>       0.00000000       0.20000000       0.00000000 </v>
   <v>       0.14285714       0.20000000       0.00000000 </v>
   <v>       0.28571429       0.20000000       0.00000000 </v>
   <v>       0.42857143       0.20000000       0.00000000 </v>
   <v>      -0.42857143       0.20000000       0.00000000 </v>
   <v>      -0.28571429       0.20000000       0.00000000 </v>
   <v>      -0.14285714       0.20000000       0.00000000 </v>
   <v>       0.00000000       0.40000000       0.00000000 </v>
   <v>       0.14285714       0.40000000       0.00000000 </v>
   <v>       0.28571429       0.40000000       0.00000000 </v>
   <v>       0.42857143       0.40000000       0.00000000 </v>
   <v>      -0.42857143       0.40000000       0.00000000 </v>
   <v>      -0.28571429       0.40000000       0.00000000 </v>
   <v>      -0.14285714       0.40000000       0.00000000 </v>
   <v>       0.00000000       0.00000000       0.20000000 </v>
   <v>       0.14285714      -0.00000000       0.20000000 </v>
   <v>       0.28571429       0.00000000       0.20000000 </v>
   <v>       0.42857143       0.00000000       0.20000000 </v>
   <v>      -0.42857143       0.00000000       0.20000000 </v>
   <v>      -0.28571429       0.00000000       0.20000000 </v>
   <v>      -0.14285714       0.00000000       0.20000000 </v>
   <v>       0.00000000       0.20000000       0.20000000 </v>
   <v>       0.14285714       0.20000000       0.20000000 </v>
   <v>       0.28571429       0.20000000       0.20000000 </v>
   <v>       0.42857143       0.20000000       0.20000000 </v>
   <v>      -0.42857143       0.20000000       0.20000000 </v>
   <v>      -0.28571429       0.20000000       0.20000000 </v>
   <v>      -0.14285714       0.20000000       0.20000000 </v>
   <v>       0.00000000       0.40000000       0.20000000 </v>
   <v>       0.14285714       0.40000000       0.20000000 </v>
   <v>       0.28571429       0.40000000       0.20000000 </v>
   <v>       0.42857143       0.40000000       0.20000000 </v>
   <v>      -0.42857143       0.40000000       0.20000000 </v>
   <v>      -0.28571429       0.40000000       0.20000000 </v>
   <v>      -0.14285714       0.40000000       0.20000000 </v>
   <v>       0.00000000      -0.40000000       0.20000000 </v>
   <v>       0.14285714      -0.40000000       0.20000000 </v>
   <v>       0.28571429      -0.40000000       0.20000000 </v>
   <v>       0.42857143      -0.40000000       0.20000000 </v>
   <v>      -0.42857143      -0.40000000       0.20000000 </v>
   <v>      -0.28571429      -0.40000000       0.20000000 </v>
   <v>      -0.14285714      -0.40000000       0.20000000 </v>
   <v>       0.00000000      -0.20000000       0.20000000 </v>
   <v>       0.14285714      -0.20000000       0.20000000 </v>
   <v>       0.28571429      -0.20000000       0.20000000 </v>
   <v>       0.42857143      -0.20000000       0.20000000 </v>
   <v>      -0.42857143      -0.20000000       0.20000000 </v>
   <v>      -0.28571429      -0.20000000       0.20000000 </v>
   <v>      -0.14285714      -0.20000000       0.20000000 </v>
   <v>       0.00000000       0.00000000       0.40000000 </v>
   <v>       0.14285714      -0.00000000       0.40000000 </v>
   <v>       0.28571429       0.00000000       0.40000000 </v>
   <v>       0.42857143       0.00000000       0.40000000 </v>
   <v>      -0.42857143       0.00000000       0.40000000 </v>
   <v>      -0.28571429       0.00000000       0.40000000 </v>
   <v>      -0.14285714       0.00000000       0.40000000 </v>
   <v>       0.00000000       0.20000000       0.40000000 </v>
   <v>       0.14285714       0.20000000       0.40000000 </v>
   <v>       0.28571429       0.20000000       0.40000000 </v>
   <v>       0.42857143       0.20000000       0.40000000 </v>
   <v>      -0.42857143       0.20000000       0.40000000 </v>
   <v>      -0.28571429       0.20000000       0.40000000 </v>
   <v>      -0.14285714       0.20000000       0.40000000 </v>
   <v>       0.00000000       0.40000000       0.40000000 </v>
   <v>       0.14285714       0.40000000       0.40000000 </v>
   <v>       0.28571429       0.40000000       0.40000000 </v>
   <v>       0.42857143       0.40000000       0.40000000 </v>
   <v>      -0.42857143       0.40000000       0.40000000 </v>
   <v>      -0.28571429       0.40000000       0.40000000 </v>
   <v>      -0.14285714       0.40000000       0.40000000 </v>
   <v>       0.00000000      -0.40000000       0.40000000 </v>
   <v>       0.14285714      -0.40000000       0.40000000 </v>
   <v>       0.28571429      -0.40000000       0.40000000 </v>
   <v>       0.42857143      -0.40000000       0.40000000 </v>
   <v>      -0.42857143      -0.40000000       0.40000000 </v>
   <v>      -0.28571429      -0.40000000       0.40000000 </v>
   <v>      -0.14285714      -0.40000000       0.40000000 </v>
   <v>       0.00000000      -0.20000000       0.40000000 </v>
   <v>       0.14285714      -0.20000000       0.40000000 </v>
   <v>       0.28571429      -0.20000000       0.40000000 </v>
   <v>       0.42857143      -0.20000000       0.40000000 </v>
   <v>      -0.42857143      -0.20000000       0.40000000 </v>
   <v>      -0.28571429      -0.20000000       0.40000000 </v>
   <v>      -0.14285714      -0.20000000       0.40000000 </v>
  </varray>
  <varray name="weights" >
   <v>       0.00571429 </v>
   <v>       0.01142857 </v>
   <v>       0.01142857 </v>
   <v>       0.01142857 </v>
   <v>       0.01142857 </v>
   <v>       0.01142857 </v>
   <v>       0.01142857 </v>
   <v>       0.01142857 </v>
   <v>       0.01142857 </v>
   <v>       0.01142857 </v>
   <v>       0.01142857 </v>
   <v>       0.01142857 </v>
   <v>       0.01142857 </v>
   <v>       0.01142857 </v>
   <v>       0.01142857 </v>
   <v>       0.01142857 </v>
   <v>       0.01142857 </v>
   <v>       0.01142857 </v>
   <v>       0.01142857 </v>
   <v>       0.01142857 </v>
   <v>       0.01142857 </v>
   <v>       0.01142857 </v>
   <v>       0.01142857 </v>
   <v>       0.01142857 </v>
   <v>       0.01142857 </v>
   <v>       0.01142857 </v>
   <v>       0.01142857 </v>
   <v>       0.01142857 </v>
   <v>       0.01142857 </v>
   <v>       0.01142857 </v>
   <v>       0.01142857 </v>
   <v>       0.01142857 </v>
   <v>       0.01142857 </v>
   <v>       0.01142857 </v>
   <v>       0.01142857 </v>
   <v>       0.01142857 </v>
   <v>       0.01142857 </v>
   <v>       0.01142857 </v>
   <v>       0.01142857 </v>
   <v>       0.01142857 </v>
   <v>       0.01142857 </v>
   <v>       0.01142857 </v>
   <v>       0.01142857 </v>
   <v>       0.01142857 </v>
   <v>       0.01142857 </v>
   <v>       0.01142857 </v>
   <v>       0.01142857 </v>
   <v>       0.01142857 </v>
   <v>       0.01142857 </v>
   <v>       0.01142857 </v>
   <v>       0.01142857 </v>
   <v>       0.01142857 </v>
   <v>       0.01142857 </v>
   <v>       0.01142857 </v>
   <v>       0.01142857 </v>
   <v>       0.01142857 </v>
   <v>       0.01142857 </v>
   <v>       0.01142857 </v>
   <v>       0.01142857 </v>
   <v>       0.01142857 </v>
   <v>       0.01142857 </v>
   <v>       0.01142857 </v>
   <v>       0.01142857 </v>
   <v>       0.01142857 </v>
   <v>       0.01142857 </v>
   <v>       0.01142857 </v>
   <v>       0.01142857 </v>
   <v>       0.01142857 </v>
   <v>       0.01142857 </v>
   <v>       0.01142857 </v>
   <v>       0.01142857 </v>
   <v>       0.01142857 </v>
   <v>       0.01142857 </v>
   <v>       0.01142857 </v>
   <v>       0.01142857 </v>
   <v>       0.01142857 </v>
   <v>       0.01142857 </v>
   <v>       0.01142857 </v>
   <v>       0.01142857 </v>
   <v>       0.01142857 </v>
   <v>       0.01142857 </v>
   <v>       0.01142857 </v>
   <v>       0.01142857 </v>
   <v>       0.01142857 </v>
   <v>       0.01142857 </v>
   <v>       0.01142857 </v>
   <v>       0.01142857 </v>
   <v>       0.01142857 </v>
  </varray>
 </kpoints>
 <parameters>
  <separator name="general" >
   <i type="string" name="SYSTEM">unknown system</i>
   <i type="logical" name="LCOMPAT"> F  </i>
  </separator>
  <separator name="electronic" >
   <i type="string" name="PREC">accura</i>
   <i name="ENMAX">    650.00000000</i>
   <i name="ENAUG">    628.94500000</i>
   <i name="EDIFF">      0.00000001</i>
   <i type="int" name="IALGO">    38</i>
   <i type="int" name="IWAVPR">    10</i>
   <i type="int" name="NBANDS">    48</i>
   <i name="NELECT">     64.00000000</i>
   <i type="int" name="TURBO">     0</i>
   <i type="int" name="IRESTART">     0</i>
   <i type="int" name="NREBOOT">     0</i>
   <i type="int" name="NMIN">     0</i>
   <i name="EREF">      0.00000000</i>
   <separator name="electronic smearing" >
    <i type="int" name="ISMEAR">     0</i>
    <i name="SIGMA">      0.05000000</i>
    <i name="KSPACING">      0.50000000</i>
    <i type="logical" name="KGAMMA"> T  </i>
   </separator>
   <separator name="electronic projectors" >
    <i type="logical" name="LREAL"> F  </i>
    <v name="ROPT">      0.00000000      0.00000000      0.00000000      0.00000000</v>
    <i type="int" name="LMAXPAW">  -100</i>
    <i type="int" name="LMAXMIX">     4</i>
    <i type="logical" name="NLSPLINE"> F  </i>
   </separator>
   <separator name="electronic startup" >
    <i type="int" name="ISTART">     0</i>
    <i type="int" name="ICHARG">     2</i>
    <i type="int" name="INIWAV">     1</i>
   </separator>
   <separator name="electronic spin" >
    <i type="int" name="ISPIN">     2</i>
    <i type="logical" name="LNONCOLLINEAR"> F  </i>
    <v name="MAGMOM">      0.60000000      0.60000000      0.60000000      0.60000000      0.60000000      0.60000000      0.60000000      0.60000000      5.00000000      5.00000000</v>
    <i name="NUPDOWN">     -1.00000000</i>
    <i type="logical" name="LSORBIT"> F  </i>
    <v name="SAXIS">      0.00000000      0.00000000      1.00000000</v>
    <i type="logical" name="LSPIRAL"> F  </i>
    <v name="QSPIRAL">      0.00000000      0.00000000      0.00000000</v>
    <i type="logical" name="LZEROZ"> F  </i>
   </separator>
   <separator name="electronic exchange-correlation" >
    <i type="logical" name="LASPH"> T  </i>
    <i type="logical" name="LMETAGGA"> F  </i>
   </separator>
   <separator name="electronic convergence" >
    <i type="int" name="NELM">   200</i>
    <i type="int" name="NELMDL">    -5</i>
    <i type="int" name="NELMIN">     8</i>
    <i name="ENINI">    650.00000000</i>
    <separator name="electronic convergence detail" >
     <i type="logical" name="LDIAG"> T  </i>
     <i type="logical" name="LSUBROT"> F  </i>
     <i name="WEIMIN">      0.00000000</i>
     <i name="EBREAK">      0.00000000</i>
     <i name="DEPER">      0.30000000</i>
     <i type="int" name="NRMM">     4</i>
     <i name="TIME">      0.40000000</i>
    </separator>
   </separator>
   <separator name="electronic mixer" >
    <i name="AMIX">      0.40000000</i>
    <i name="BMIX">      1.00000000</i>
    <i name="AMIN">      0.10000000</i>
    <i name="AMIX_MAG">      1.60000000</i>
    <i name="BMIX_MAG">      1.00000000</i>
    <separator name="electronic mixer details" >
     <i type="int" name="IMIX">     4</i>
     <i type="logical" name="MIXFIRST"> F  </i>
     <i type="int" name="MAXMIX">   -45</i>
     <i name="WC">    100.00000000</i>
     <i type="int" name="INIMIX">     1</i>
     <i type="int" name="MIXPRE">     1</i>
     <i type="int" name="MREMOVE">     5</i>
    </separator>
   </separator>
   <separator name="electronic dipolcorrection" >
    <i type="logical" name="LDIPOL"> F  </i>
    <i type="logical" name="LMONO"> F  </i>
    <i type="int" name="IDIPOL">     0</i>
    <i name="EPSILON">      1.00000000</i>
    <v name="DIPOL">   -100.00000000   -100.00000000   -100.00000000</v>
    <i name="EFIELD">      0.00000000</i>
   </separator>
  </separator>
  <separator name="grids" >
   <i type="int" name="NGX">    36</i>
   <i type="int" name="NGY">    48</i>
   <i type="int" name="NGZ">    48</i>
   <i type="int" name="NGXF">    72</i>
   <i type="int" name="NGYF">    96</i>
   <i type="int" name="NGZF">    96</i>
   <i type="logical" name="ADDGRID"> T  </i>
  </separator>
  <separator name="ionic" >
   <i type="int" name="NSW">     0</i>
   <i type="int" name="IBRION">    -1</i>
   <i type="int" name="MDALGO">     0</i>
   <i type="int" name="ISIF">     3</i>
   <i name="PSTRESS">      0.00000000</i>
   <i name="EDIFFG">      0.00000010</i>
   <i type="int" name="NFREE">     0</i>
   <i name="POTIM">      0.50000000</i>
   <i name="SMASS">     -3.00000000</i>
   <i name="SCALEE">      1.00000000</i>
  </separator>
  <separator name="ionic md" >
   <i name="TEBEG">      0.00010000</i>
   <i name="TEEND">      0.00010000</i>
   <i type="int" name="NBLOCK">     1</i>
   <i type="int" name="KBLOCK">     1</i>
   <i type="int" name="NPACO">   256</i>
   <i name="APACO">     16.00000000</i>
  </separator>
  <separator name="symmetry" >
   <i type="int" name="ISYM">     0</i>
   <i name="SYMPREC">      0.00001000</i>
  </separator>
  <separator name="dos" >
   <i type="int" name="LORBIT">     0</i>
   <v name="RWIGS">     -1.00000000     -1.00000000     -1.00000000     -1.00000000</v>
   <i type="int" name="NEDOS">   301</i>
   <i name="EMIN">     10.00000000</i>
   <i name="EMAX">    -10.00000000</i>
   <i name="EFERMI">      0.00000000</i>
  </separator>
  <separator name="writing" >
   <i type="int" name="NWRITE">     1</i>
   <i type="logical" name="LWAVE"> F  </i>
   <i type="logical" name="LDOWNSAMPLE"> F  </i>
   <i type="logical" name="LCHARG"> T  </i>
   <i type="logical" name="LPARD"> F  </i>
   <i type="logical" name="LVTOT"> F  </i>
   <i type="logical" name="LVHAR"> F  </i>
   <i type="logical" name="LELF"> F  </i>
   <i type="logical" name="LOPTICS"> F  </i>
   <v name="STM">      0.00000000      0.00000000      0.00000000      0.00000000      0.00000000      0.00000000      0.00000000</v>
  </separator>
  <separator name="performance" >
   <i type="int" name="NPAR">    48</i>
   <i type="int" name="NSIM">     4</i>
   <i type="int" name="NBLK">    -1</i>
   <i type="logical" name="LPLANE"> T  </i>
   <i type="logical" name="LSCALAPACK"> T  </i>
   <i type="logical" name="LSCAAWARE"> F  </i>
   <i type="logical" name="LSCALU"> F  </i>
   <i type="logical" name="LASYNC"> F  </i>
   <i type="logical" name="LORBITALREAL"> F  </i>
  </separator>
  <separator name="miscellaneous" >
   <i type="int" name="IDIOT">     3</i>
   <i type="int" name="ISPECIAL">     0</i>
   <i type="logical" name="LMUSIC"> F  </i>
   <v name="POMASS">      7.01000000     16.00000000     32.06600000     55.84700000</v>
   <v name="DARWINR">      0.00000000      0.00000000      0.00000000      0.00000000</v>
   <v name="DARWINV">      1.00000000      1.00000000      1.00000000      1.00000000</v>
   <i type="logical" name="LCORR"> T  </i>
  </separator>
  <i type="logical" name="GGA_COMPAT"> T  </i>
  <i type="logical" name="LBERRY"> F  </i>
  <i type="int" name="ICORELEVEL">     0</i>
  <i type="logical" name="LDAU"> T  </i>
  <v type="int" name="LDAUTYPE">     2</v>
  <v type="int" name="LDAUL">    -1</v>
  <v name="LDAUU">      0.00000000</v>
  <v name="LDAUJ">      0.00000000</v>
  <i type="int" name="LDAUPRINT">     0</i>
  <i type="int" name="I_CONSTRAINED_M">     0</i>
  <separator name="electronic exchange-correlation" >
   <i type="string" name="GGA">PE</i>
   <i type="int" name="VOSKOWN">     0</i>
   <i type="logical" name="LHFCALC"> F  </i>
   <i type="string" name="PRECFOCK"></i>
   <i type="logical" name="LSYMGRAD"> F  </i>
   <i type="logical" name="LHFONE"> F  </i>
   <i type="logical" name="LRHFCALC"> F  </i>
   <i type="logical" name="LTHOMAS"> F  </i>
   <i type="logical" name="LMODELHF"> F  </i>
   <i name="ENCUT4O">     -1.00000000</i>
   <i type="int" name="EXXOEP">     0</i>
   <i type="int" name="FOURORBIT">     0</i>
   <i name="AEXX">      0.00000000</i>
   <i name="HFALPHA">      0.00000000</i>
   <i name="MCALPHA">      0.00000000</i>
   <i name="ALDAX">      1.00000000</i>
   <i name="AGGAX">      1.00000000</i>
   <i name="ALDAC">      1.00000000</i>
   <i name="AGGAC">      1.00000000</i>
   <i type="int" name="NKREDX">     1</i>
   <i type="int" name="NKREDY">     1</i>
   <i type="int" name="NKREDZ">     1</i>
   <i type="logical" name="SHIFTRED"> F  </i>
   <i type="logical" name="ODDONLY"> F  </i>
   <i type="logical" name="EVENONLY"> F  </i>
   <i type="int" name="LMAXFOCK">     0</i>
   <i type="int" name="NMAXFOCKAE">     0</i>
   <i type="logical" name="LFOCKAEDFT"> F  </i>
   <i name="HFSCREEN">      0.00000000</i>
   <i name="HFSCREENC">      0.00000000</i>
   <i type="int" name="NBANDSGWLOW">     0</i>
  </separator>
  <separator name="vdW DFT" >
   <i type="logical" name="LUSE_VDW"> F  </i>
   <i name="Zab_VDW">     -0.84910000</i>
   <i name="PARAM1">      0.12340000</i>
   <i name="PARAM2">      1.00000000</i>
   <i name="PARAM3">      0.00000000</i>
  </separator>
  <separator name="model GW" >
   <i type="int" name="MODEL_GW">     0</i>
   <i name="MODEL_EPS0">      7.36999089</i>
   <i name="MODEL_ALPHA">      1.00000000</i>
  </separator>
  <separator name="linear response parameters" >
   <i type="logical" name="LEPSILON"> T  </i>
   <i type="logical" name="LRPA"> F  </i>
   <i type="logical" name="LNABLA"> F  </i>
   <i type="logical" name="LVEL"> F  </i>
   <i type="int" name="KINTER">     0</i>
   <i name="CSHIFT">      0.10000000</i>
   <i name="OMEGAMAX">     -1.00000000</i>
   <i name="DEG_THRESHOLD">      0.00200000</i>
   <i name="RTIME">     -0.10000000</i>
   <i name="WPLASMAI">      0.00000000</i>
   <v name="DFIELD">      0.00000000      0.00000000      0.00000000</v>
   <v name="WPLASMA">      0.00000000      0.00000000      0.00000000      0.00000000      0.00000000      0.00000000      0.00000000      0.00000000      0.00000000</v>
  </separator>
  <separator name="orbital magnetization" >
   <i type="logical" name="NUCIND"> F  </i>
   <v name="MAGPOS">      0.00000000      0.00000000      0.00000000</v>
   <i type="logical" name="LNICSALL"> T  </i>
   <i type="logical" name="ORBITALMAG"> F  </i>
   <i type="logical" name="LMAGBLOCH"> F  </i>
   <i type="logical" name="LCHIMAG"> F  </i>
   <i type="logical" name="LGAUGE"> T  </i>
   <i type="int" name="MAGATOM">     0</i>
   <v name="MAGDIPOL">      0.00000000      0.00000000      0.00000000</v>
   <v name="AVECCONST">      0.00000000      0.00000000      0.00000000</v>
  </separator>
  <separator name="response functions" >
   <i type="logical" name="LADDER"> F  </i>
   <i type="logical" name="LRPAFORCE"> F  </i>
   <i type="logical" name="LFXC"> F  </i>
   <i type="logical" name="LHARTREE"> T  </i>
   <i type="int" name="IBSE">     0</i>
   <v type="int" name="KPOINT">    -1     0     0     0</v>
   <i type="logical" name="LTCTE"> F  </i>
   <i type="logical" name="LTETE"> F  </i>
   <i type="logical" name="LTRIPLET"> F  </i>
   <i type="logical" name="LFXCEPS"> F  </i>
   <i type="logical" name="LFXHEG"> F  </i>
   <i type="int" name="NATURALO">     2</i>
   <i type="logical" name="L2ORDER"> F  </i>
   <i type="logical" name="LMP2LT"> F  </i>
   <i type="logical" name="LUSEW"> F  </i>
   <i name="ENCUTGW">     -2.00000000</i>
   <i name="ENCUTGWSOFT">     -2.00000000</i>
   <i name="ENCUTLF">     -1.00000000</i>
   <i type="int" name="LMAXMP2">    -1</i>
   <i name="SCISSOR">      0.00000000</i>
   <i type="int" name="NOMEGA">     0</i>
   <i type="int" name="NOMEGAR">     0</i>
   <i type="int" name="NBANDSGW">    -1</i>
   <i type="int" name="NBANDSO">    -1</i>
   <i type="int" name="NBANDSV">    -1</i>
   <i type="int" name="NELM">   200</i>
   <i type="int" name="NELMHF">     1</i>
   <i type="int" name="DIM">     3</i>
   <i type="int" name="ANTIRES">     0</i>
   <i name="OMEGAMAX">    -30.00000000</i>
   <i name="OMEGAMIN">    -30.00000000</i>
   <i name="OMEGATL">   -200.00000000</i>
   <i type="int" name="OMEGAGRID">   140</i>
   <i name="CSHIFT">     -0.10000000</i>
   <i type="logical" name="SELFENERGY"> F  </i>
   <i type="logical" name="LSPECTRAL"> F  </i>
   <i type="logical" name="LSPECTRALGW"> F  </i>
   <i type="logical" name="LSINGLES"> F  </i>
   <i type="logical" name="LFERMIGW"> F  </i>
   <i type="logical" name="ODDONLYGW"> F  </i>
   <i type="logical" name="EVENONLYGW"> F  </i>
   <i type="int" name="NKREDLFX">     1</i>
   <i type="int" name="NKREDLFY">     1</i>
   <i type="int" name="NKREDLFZ">     1</i>
   <i type="int" name="MAXMEM">  2800</i>
   <i type="int" name="TELESCOPE">     0</i>
   <i type="int" name="TAUPAR">     1</i>
   <i type="int" name="OMEGAPAR">    -1</i>
   <i name="LAMBDA">      1.00000000</i>
  </separator>
  <separator name="External order field" >
   <i name="OFIELD_KAPPA">      0.00000000</i>
   <v name="OFIELD_K">      0.00000000      0.00000000      0.00000000</v>
   <i name="OFIELD_Q6_NEAR">      0.00000000</i>
   <i name="OFIELD_Q6_FAR">      0.00000000</i>
   <i name="OFIELD_A">      0.00000000</i>
  </separator>
 </parameters>
 <atominfo>
  <atoms>      10 </atoms>
  <types>       4 </types>
  <array name="atoms" >
   <dimension dim="1">ion</dimension>
   <field type="string">element</field>
   <field type="int">atomtype</field>
   <set>
    <rc><c>Li</c><c>   1</c></rc>
    <rc><c>Li</c><c>   1</c></rc>
    <rc><c>Li</c><c>   1</c></rc>
    <rc><c>Li</c><c>   1</c></rc>
    <rc><c>O </c><c>   2</c></rc>
    <rc><c>O </c><c>   2</c></rc>
    <rc><c>S </c><c>   3</c></rc>
    <rc><c>S </c><c>   3</c></rc>
    <rc><c>Fe</c><c>   4</c></rc>
    <rc><c>Fe</c><c>   4</c></rc>
   </set>
  </array>
  <array name="atomtypes" >
   <dimension dim="1">type</dimension>
   <field type="int">atomspertype</field>
   <field type="string">element</field>
   <field>mass</field>
   <field>valence</field>
   <field type="string">pseudopotential</field>
   <set>
    <rc><c>   4</c><c>Li</c><c>      7.01000000</c><c>      3.00000000</c><c>  PAW_PBE Li_sv 10Sep2004               </c></rc>
    <rc><c>   2</c><c>O </c><c>     16.00000000</c><c>      6.00000000</c><c>  PAW_PBE O 08Apr2002                   </c></rc>
    <rc><c>   2</c><c>S </c><c>     32.06600000</c><c>      6.00000000</c><c>  PAW_PBE S 06Sep2000                   </c></rc>
    <rc><c>   2</c><c>Fe</c><c>     55.84700000</c><c>     14.00000000</c><c>  PAW_PBE Fe_pv 02Aug2007               </c></rc>
   </set>
  </array>
 </atominfo>
 <structure name="initialpos" >
  <crystal>
   <varray name="basis" >
    <v>       3.91190908      -0.01914762       0.00000000 </v>
    <v>       0.02740394       5.60916745       0.00000000 </v>
    <v>       0.00000000       0.00000000       5.59781005 </v>
   </varray>
   <i name="volume">    122.83318143 </i>
   <varray name="rec_basis" >
    <v>       0.25562355      -0.00124886       0.00000000 </v>
    <v>       0.00087260       0.17827531       0.00000000 </v>
    <v>       0.00000000       0.00000000       0.17864129 </v>
   </varray>
  </crystal>
  <varray name="positions" >
   <v>       0.10625117       0.72555094       0.71296297 </v>
   <v>       0.10625117       0.22555094       0.28703703 </v>
   <v>       0.60628375       0.43796120       0.54492430 </v>
   <v>       0.60628375       0.93796120       0.45507570 </v>
   <v>       0.60627193       0.73538475       0.74753018 </v>
   <v>       0.60627193       0.23538475       0.25246982 </v>
   <v>       0.10628253       0.74023893       0.24058895 </v>
   <v>       0.10628253       0.24023893       0.75941105 </v>
   <v>       0.60628161       0.02450618       0.96006925 </v>
   <v>       0.60628161       0.52450618       0.03993075 </v>
  </varray>
 </structure>
 <calculation>
  <scstep>
   <time name="dav">    6.76    6.80</time>
   <time name="total">    7.37    7.41</time>
   <energy>
    <i name="alphaZ">    159.63921005 </i>
    <i name="ewald">  -4044.35416289 </i>
    <i name="hartreedc">  -2472.64508862 </i>
    <i name="XCdc">    276.54322695 </i>
    <i name="pawpsdc">   5444.54584303 </i>
    <i name="pawaedc">  -5664.88307330 </i>
    <i name="eentropy">     -0.00340922 </i>
    <i name="bandstr">   -591.15440540 </i>
    <i name="atom">   7144.33031577 </i>
    <i name="e_fr_energy">    252.01845637 </i>
    <i name="e_wo_entrp">    252.02186558 </i>
    <i name="e_0_energy">    252.02016098 </i>
   </energy>
  </scstep>
  <scstep>
   <time name="dav">   10.87   10.99</time>
   <time name="total">   10.87   10.99</time>
   <energy>
    <i name="e_fr_energy">    -50.22822351 </i>
    <i name="e_wo_entrp">    -50.22157401 </i>
    <i name="e_0_energy">    -50.22489876 </i>
   </energy>
  </scstep>
  <scstep>
   <time name="dav">    6.93    6.97</time>
   <time name="total">    6.95    6.98</time>
   <energy>
    <i name="e_fr_energy">    -57.44195020 </i>
    <i name="e_wo_entrp">    -57.43589180 </i>
    <i name="e_0_energy">    -57.43892100 </i>
   </energy>
  </scstep>
  <scstep>
   <time name="dav">   17.32   17.95</time>
   <time name="total">   17.34   17.97</time>
   <energy>
    <i name="e_fr_energy">    -57.77284790 </i>
    <i name="e_wo_entrp">    -57.76657301 </i>
    <i name="e_0_energy">    -57.76971045 </i>
   </energy>
  </scstep>
  <scstep>
   <time name="dav">    7.75    7.78</time>
   <time name="total">    8.00    8.03</time>
   <energy>
    <i name="e_fr_energy">    -57.77477584 </i>
    <i name="e_wo_entrp">    -57.76850142 </i>
    <i name="e_0_energy">    -57.77163863 </i>
   </energy>
  </scstep>
  <scstep>
   <time name="dav">    7.46    7.57</time>
   <time name="total">    8.31    8.42</time>
   <energy>
    <i name="e_fr_energy">    -50.87571532 </i>
    <i name="e_wo_entrp">    -50.86936775 </i>
    <i name="e_0_energy">    -50.87254154 </i>
   </energy>
  </scstep>
  <scstep>
   <time name="dav">    7.34    7.59</time>
   <time name="total">    8.19    8.44</time>
   <energy>
    <i name="e_fr_energy">    -50.57825275 </i>
    <i name="e_wo_entrp">    -50.57825275 </i>
    <i name="e_0_energy">    -50.57825275 </i>
   </energy>
  </scstep>
  <scstep>
   <time name="dav">   10.07   10.40</time>
   <time name="total">   10.91   11.24</time>
   <energy>
    <i name="e_fr_energy">    -51.11430107 </i>
    <i name="e_wo_entrp">    -51.11430107 </i>
    <i name="e_0_energy">    -51.11430107 </i>
   </energy>
  </scstep>
  <scstep>
   <time name="dav">   11.01   11.24</time>
   <time name="total">   11.85   12.08</time>
   <energy>
    <i name="e_fr_energy">    -51.29329078 </i>
    <i name="e_wo_entrp">    -51.29329078 </i>
    <i name="e_0_energy">    -51.29329078 </i>
   </energy>
  </scstep>
  <scstep>
   <time name="dav">    9.41    9.63</time>
   <time name="total">   10.28   10.50</time>
   <energy>
    <i name="e_fr_energy">    -51.34431464 </i>
    <i name="e_wo_entrp">    -51.34431464 </i>
    <i name="e_0_energy">    -51.34431464 </i>
   </energy>
  </scstep>
  <scstep>
   <time name="dav">   11.70   12.05</time>
   <time name="total">   12.53   12.88</time>
   <energy>
    <i name="e_fr_energy">    -51.35658781 </i>
    <i name="e_wo_entrp">    -51.35658781 </i>
    <i name="e_0_energy">    -51.35658781 </i>
   </energy>
  </scstep>
  <scstep>
   <time name="dav">   13.69   14.00</time>
   <time name="total">   14.52   14.85</time>
   <energy>
    <i name="e_fr_energy">    -51.36027847 </i>
    <i name="e_wo_entrp">    -51.36027847 </i>
    <i name="e_0_energy">    -51.36027847 </i>
   </energy>
  </scstep>
  <scstep>
   <time name="dav">   10.07   10.21</time>
   <time name="total">   10.89   11.06</time>
   <energy>
    <i name="e_fr_energy">    -51.36278028 </i>
    <i name="e_wo_entrp">    -51.36278028 </i>
    <i name="e_0_energy">    -51.36278028 </i>
   </energy>
  </scstep>
  <scstep>
   <time name="dav">   10.24   10.46</time>
   <time name="total">   11.10   11.33</time>
   <energy>
    <i name="e_fr_energy">    -51.36455605 </i>
    <i name="e_wo_entrp">    -51.36455605 </i>
    <i name="e_0_energy">    -51.36455605 </i>
   </energy>
  </scstep>
  <scstep>
   <time name="dav">    9.03    9.23</time>
   <time name="total">    9.90   10.12</time>
   <energy>
    <i name="e_fr_energy">    -51.36654086 </i>
    <i name="e_wo_entrp">    -51.36654086 </i>
    <i name="e_0_energy">    -51.36654086 </i>
   </energy>
  </scstep>
  <scstep>
   <time name="dav">   10.64   10.89</time>
   <time name="total">   11.49   11.75</time>
   <energy>
    <i name="e_fr_energy">    -51.36791231 </i>
    <i name="e_wo_entrp">    -51.36791231 </i>
    <i name="e_0_energy">    -51.36791231 </i>
   </energy>
  </scstep>
  <scstep>
   <time name="dav">   14.76   15.19</time>
   <time name="total">   15.61   16.06</time>
   <energy>
    <i name="e_fr_energy">    -51.36842099 </i>
    <i name="e_wo_entrp">    -51.36842099 </i>
    <i name="e_0_energy">    -51.36842099 </i>
   </energy>
  </scstep>
  <scstep>
   <time name="dav">    9.38    9.60</time>
   <time name="total">   10.21   10.45</time>
   <energy>
    <i name="e_fr_energy">    -51.36856611 </i>
    <i name="e_wo_entrp">    -51.36856611 </i>
    <i name="e_0_energy">    -51.36856611 </i>
   </energy>
  </scstep>
  <scstep>
   <time name="dav">   12.90   13.20</time>
   <time name="total">   13.74   14.05</time>
   <energy>
    <i name="e_fr_energy">    -51.36859987 </i>
    <i name="e_wo_entrp">    -51.36859987 </i>
    <i name="e_0_energy">    -51.36859987 </i>
   </energy>
  </scstep>
  <scstep>
   <time name="dav">    8.97    9.00</time>
   <time name="total">    9.82    9.87</time>
   <energy>
    <i name="e_fr_energy">    -51.36860820 </i>
    <i name="e_wo_entrp">    -51.36860820 </i>
    <i name="e_0_energy">    -51.36860820 </i>
   </energy>
  </scstep>
  <scstep>
   <time name="dav">   10.71   11.07</time>
   <time name="total">   11.57   11.93</time>
   <energy>
    <i name="e_fr_energy">    -51.36860917 </i>
    <i name="e_wo_entrp">    -51.36860917 </i>
    <i name="e_0_energy">    -51.36860917 </i>
   </energy>
  </scstep>
  <scstep>
   <time name="dav">    7.57    7.65</time>
   <time name="total">    8.41    8.50</time>
   <energy>
    <i name="e_fr_energy">    -51.36860921 </i>
    <i name="e_wo_entrp">    -51.36860921 </i>
    <i name="e_0_energy">    -51.36860921 </i>
   </energy>
  </scstep>
  <scstep>
   <time name="dav">   11.15   11.45</time>
   <time name="total">   11.94   12.28</time>
   <energy>
    <i name="e_fr_energy">    -51.36860922 </i>
    <i name="e_wo_entrp">    -51.36860922 </i>
    <i name="e_0_energy">    -51.36860922 </i>
   </energy>
  </scstep>
  <scstep>
   <time name="dav">    7.59    7.70</time>
   <time name="total">    8.17    8.29</time>
   <energy>
    <i name="alphaZ">    159.63921005 </i>
    <i name="ewald">  -4044.35416289 </i>
    <i name="hartreedc">  -2415.27659671 </i>
    <i name="XCdc">    274.77216192 </i>
    <i name="pawpsdc">   6809.19136843 </i>
    <i name="pawaedc">  -7035.50747171 </i>
    <i name="eentropy">     -0.00000000 </i>
    <i name="bandstr">   -944.16343408 </i>
    <i name="atom">   7144.33031577 </i>
    <i name="e_fr_energy">    -51.36860922 </i>
    <i name="e_wo_entrp">    -51.36860922 </i>
    <i name="e_0_energy">    -51.36860922 </i>
   </energy>
  </scstep>
  <structure>
   <crystal>
    <varray name="basis" >
     <v>       3.91190908      -0.01914762       0.00000000 </v>
     <v>       0.02740394       5.60916745       0.00000000 </v>
     <v>       0.00000000       0.00000000       5.59781005 </v>
    </varray>
    <i name="volume">    122.83318143 </i>
    <varray name="rec_basis" >
     <v>       0.25562355      -0.00124886       0.00000000 </v>
     <v>       0.00087260       0.17827531       0.00000000 </v>
     <v>       0.00000000       0.00000000       0.17864129 </v>
    </varray>
   </crystal>
   <varray name="positions" >
    <v>       0.10625117       0.72555094       0.71296297 </v>
    <v>       0.10625117       0.22555094       0.28703703 </v>
    <v>       0.60628375       0.43796120       0.54492430 </v>
    <v>       0.60628375       0.93796120       0.45507570 </v>
    <v>       0.60627193       0.73538475       0.74753018 </v>
    <v>       0.60627193       0.23538475       0.25246982 </v>
    <v>       0.10628253       0.74023893       0.24058895 </v>
    <v>       0.10628253       0.24023893       0.75941105 </v>
    <v>       0.60628161       0.02450618       0.96006925 </v>
    <v>       0.60628161       0.52450618       0.03993075 </v>
   </varray>
  </structure>
  <varray name="forces" >
   <v>       0.00001061      -0.00003408      -0.00011349 </v>
   <v>       0.00000894      -0.00003440       0.00011352 </v>
   <v>      -0.00000117       0.00005110      -0.00000621 </v>
   <v>      -0.00000103       0.00005006       0.00000614 </v>
   <v>       0.00000691      -0.00002079       0.00017098 </v>
   <v>       0.00000646      -0.00002108      -0.00017126 </v>
   <v>       0.00000176      -0.00001967       0.00000312 </v>
   <v>       0.00000212      -0.00001987      -0.00000303 </v>
   <v>      -0.00001748       0.00002364       0.00000342 </v>
   <v>      -0.00001712       0.00002508      -0.00000318 </v>
  </varray>
  <varray name="stress" >
   <v>       0.00866738       0.00441310       0.00000594 </v>
   <v>       0.00368047       0.00704324      -0.00000823 </v>
   <v>       0.00000553      -0.00000798       0.00631539 </v>
  </varray>
  <energy>
   <i name="e_fr_energy">    -51.36860922 </i>
   <i name="e_wo_entrp">    -51.36860922 </i>
   <i name="e_0_energy">     -0.00000000 </i>
  </energy>
  <scstep>
   <time name="total">    3.57    3.65</time>
   <energy>
    <i name="e_fr_energy">   -183.26842840 </i>
    <i name="e_wo_entrp">   -183.26842840 </i>
    <i name="e_0_energy">   -183.26842840 </i>
   </energy>
  </scstep>
  <scstep>
   <time name="total">    5.70    5.93</time>
   <energy>
    <i name="e_fr_energy">   -261.99853257 </i>
    <i name="e_wo_entrp">   -261.99853257 </i>
    <i name="e_0_energy">   -261.99853257 </i>
   </energy>
  </scstep>
  <scstep>
   <time name="total">    5.85    6.01</time>
   <energy>
    <i name="e_fr_energy">   -263.23851502 </i>
    <i name="e_wo_entrp">   -263.23851502 </i>
    <i name="e_0_energy">   -263.23851502 </i>
   </energy>
  </scstep>
  <scstep>
   <time name="total">    4.94    5.03</time>
   <energy>
    <i name="e_fr_energy">   -263.81472038 </i>
    <i name="e_wo_entrp">   -263.81472038 </i>
    <i name="e_0_energy">   -263.81472038 </i>
   </energy>
  </scstep>
  <scstep>
   <time name="total">    4.97    5.02</time>
   <energy>
    <i name="e_fr_energy">   -264.00752699 </i>
    <i name="e_wo_entrp">   -264.00752699 </i>
    <i name="e_0_energy">   -264.00752699 </i>
   </energy>
  </scstep>
  <scstep>
   <time name="total">    4.84    5.05</time>
   <energy>
    <i name="e_fr_energy">   -264.06377937 </i>
    <i name="e_wo_entrp">   -264.06377937 </i>
    <i name="e_0_energy">   -264.06377937 </i>
   </energy>
  </scstep>
  <scstep>
   <time name="total">    4.90    5.05</time>
   <energy>
    <i name="e_fr_energy">   -264.08423574 </i>
    <i name="e_wo_entrp">   -264.08423574 </i>
    <i name="e_0_energy">   -264.08423574 </i>
   </energy>
  </scstep>
  <scstep>
   <time name="total">    4.94    5.06</time>
   <energy>
    <i name="e_fr_energy">   -264.09201358 </i>
    <i name="e_wo_entrp">   -264.09201358 </i>
    <i name="e_0_energy">   -264.09201358 </i>
   </energy>
  </scstep>
  <scstep>
   <time name="total">    4.87    5.07</time>
   <energy>
    <i name="e_fr_energy">   -264.09522945 </i>
    <i name="e_wo_entrp">   -264.09522945 </i>
    <i name="e_0_energy">   -264.09522945 </i>
   </energy>
  </scstep>
  <scstep>
   <time name="total">    4.78    5.04</time>
   <energy>
    <i name="e_fr_energy">   -264.09654190 </i>
    <i name="e_wo_entrp">   -264.09654190 </i>
    <i name="e_0_energy">   -264.09654190 </i>
   </energy>
  </scstep>
  <scstep>
   <time name="total">    4.95    5.12</time>
   <energy>
    <i name="e_fr_energy">   -264.09709101 </i>
    <i name="e_wo_entrp">   -264.09709101 </i>
    <i name="e_0_energy">   -264.09709101 </i>
   </energy>
  </scstep>
  <scstep>
   <time name="total">    5.02    5.10</time>
   <energy>
    <i name="e_fr_energy">   -264.09732267 </i>
    <i name="e_wo_entrp">   -264.09732267 </i>
    <i name="e_0_energy">   -264.09732267 </i>
   </energy>
  </scstep>
  <scstep>
   <time name="total">    4.88    5.17</time>
   <energy>
    <i name="e_fr_energy">   -264.09742234 </i>
    <i name="e_wo_entrp">   -264.09742234 </i>
    <i name="e_0_energy">   -264.09742234 </i>
   </energy>
  </scstep>
  <scstep>
   <time name="total">    4.92    5.05</time>
   <energy>
    <i name="e_fr_energy">   -264.09746708 </i>
    <i name="e_wo_entrp">   -264.09746708 </i>
    <i name="e_0_energy">   -264.09746708 </i>
   </energy>
  </scstep>
  <scstep>
   <time name="total">    4.95    5.20</time>
   <energy>
    <i name="e_fr_energy">   -264.09748762 </i>
    <i name="e_wo_entrp">   -264.09748762 </i>
    <i name="e_0_energy">   -264.09748762 </i>
   </energy>
  </scstep>
  <scstep>
   <time name="total">    4.92    5.05</time>
   <energy>
    <i name="e_fr_energy">   -264.09749693 </i>
    <i name="e_wo_entrp">   -264.09749693 </i>
    <i name="e_0_energy">   -264.09749693 </i>
   </energy>
  </scstep>
  <scstep>
   <time name="total">    4.80    5.03</time>
   <energy>
    <i name="e_fr_energy">   -264.09750163 </i>
    <i name="e_wo_entrp">   -264.09750163 </i>
    <i name="e_0_energy">   -264.09750163 </i>
   </energy>
  </scstep>
  <scstep>
   <time name="total">    5.00    5.13</time>
   <energy>
    <i name="e_fr_energy">   -264.09750349 </i>
    <i name="e_wo_entrp">   -264.09750349 </i>
    <i name="e_0_energy">   -264.09750349 </i>
   </energy>
  </scstep>
  <scstep>
   <time name="total">    4.75    5.03</time>
   <energy>
    <i name="e_fr_energy">   -264.09750470 </i>
    <i name="e_wo_entrp">   -264.09750470 </i>
    <i name="e_0_energy">   -264.09750470 </i>
   </energy>
  </scstep>
  <scstep>
   <time name="total">    4.86    5.01</time>
   <energy>
    <i name="e_fr_energy">   -264.09750518 </i>
    <i name="e_wo_entrp">   -264.09750518 </i>
    <i name="e_0_energy">   -264.09750518 </i>
   </energy>
  </scstep>
  <scstep>
   <time name="total">    4.69    4.95</time>
   <energy>
    <i name="e_fr_energy">   -264.09750551 </i>
    <i name="e_wo_entrp">   -264.09750551 </i>
    <i name="e_0_energy">   -264.09750551 </i>
   </energy>
  </scstep>
  <scstep>
   <time name="total">    4.77    4.97</time>
   <energy>
    <i name="e_fr_energy">   -264.09750564 </i>
    <i name="e_wo_entrp">   -264.09750564 </i>
    <i name="e_0_energy">   -264.09750564 </i>
   </energy>
  </scstep>
  <scstep>
   <time name="total">    4.74    4.94</time>
   <energy>
    <i name="e_fr_energy">   -264.09750572 </i>
    <i name="e_wo_entrp">   -264.09750572 </i>
    <i name="e_0_energy">   -264.09750572 </i>
   </energy>
  </scstep>
  <scstep>
   <time name="total">    4.81    4.95</time>
   <energy>
    <i name="e_fr_energy">   -264.09750576 </i>
    <i name="e_wo_entrp">   -264.09750576 </i>
    <i name="e_0_energy">   -264.09750576 </i>
   </energy>
  </scstep>
  <scstep>
   <time name="total">    4.88    4.95</time>
   <energy>
    <i name="e_fr_energy">   -264.09750547 </i>
    <i name="e_wo_entrp">   -264.09750547 </i>
    <i name="e_0_energy">   -264.09750547 </i>
   </energy>
  </scstep>
  <scstep>
   <time name="total">    4.69    4.97</time>
   <energy>
    <i name="e_fr_energy">   -264.09750590 </i>
    <i name="e_wo_entrp">   -264.09750590 </i>
    <i name="e_0_energy">   -264.09750590 </i>
   </energy>
  </scstep>
  <scstep>
   <time name="total">    4.72    4.96</time>
   <energy>
    <i name="e_fr_energy">   -264.09750600 </i>
    <i name="e_wo_entrp">   -264.09750600 </i>
    <i name="e_0_energy">   -264.09750600 </i>
   </energy>
  </scstep>
  <scstep>
   <time name="total">    4.73    4.93</time>
   <energy>
    <i name="e_fr_energy">   -264.09750606 </i>
    <i name="e_wo_entrp">   -264.09750606 </i>
    <i name="e_0_energy">   -264.09750606 </i>
   </energy>
  </scstep>
  <scstep>
   <time name="total">    4.66    4.89</time>
   <energy>
    <i name="e_fr_energy">   -264.09750602 </i>
    <i name="e_wo_entrp">   -264.09750602 </i>
    <i name="e_0_energy">   -264.09750602 </i>
   </energy>
  </scstep>
  <scstep>
   <time name="total">    3.73    3.83</time>
   <energy>
    <i name="e_fr_energy">   -189.83576982 </i>
    <i name="e_wo_entrp">   -189.83576982 </i>
    <i name="e_0_energy">   -189.83576982 </i>
   </energy>
  </scstep>
  <scstep>
   <time name="total">    5.75    5.97</time>
   <energy>
    <i name="e_fr_energy">   -261.72148077 </i>
    <i name="e_wo_entrp">   -261.72148077 </i>
    <i name="e_0_energy">   -261.72148077 </i>
   </energy>
  </scstep>
  <scstep>
   <time name="total">    6.00    6.06</time>
   <energy>
    <i name="e_fr_energy">   -262.89543833 </i>
    <i name="e_wo_entrp">   -262.89543833 </i>
    <i name="e_0_energy">   -262.89543833 </i>
   </energy>
  </scstep>
  <scstep>
   <time name="total">    4.95    5.04</time>
   <energy>
    <i name="e_fr_energy">   -263.28194686 </i>
    <i name="e_wo_entrp">   -263.28194686 </i>
    <i name="e_0_energy">   -263.28194686 </i>
   </energy>
  </scstep>
  <scstep>
   <time name="total">    5.03    5.29</time>
   <energy>
    <i name="e_fr_energy">   -263.43723160 </i>
    <i name="e_wo_entrp">   -263.43723160 </i>
    <i name="e_0_energy">   -263.43723160 </i>
   </energy>
  </scstep>
  <scstep>
   <time name="total">    4.97    5.07</time>
   <energy>
    <i name="e_fr_energy">   -263.48474477 </i>
    <i name="e_wo_entrp">   -263.48474477 </i>
    <i name="e_0_energy">   -263.48474477 </i>
   </energy>
  </scstep>
  <scstep>
   <time name="total">    4.83    5.18</time>
   <energy>
    <i name="e_fr_energy">   -263.50061757 </i>
    <i name="e_wo_entrp">   -263.50061757 </i>
    <i name="e_0_energy">   -263.50061757 </i>
   </energy>
  </scstep>
  <scstep>
   <time name="total">    5.02    5.17</time>
   <energy>
    <i name="e_fr_energy">   -263.50620803 </i>
    <i name="e_wo_entrp">   -263.50620803 </i>
    <i name="e_0_energy">   -263.50620803 </i>
   </energy>
  </scstep>
  <scstep>
   <time name="total">    4.88    5.06</time>
   <energy>
    <i name="e_fr_energy">   -263.50839879 </i>
    <i name="e_wo_entrp">   -263.50839879 </i>
    <i name="e_0_energy">   -263.50839879 </i>
   </energy>
  </scstep>
  <scstep>
   <time name="total">    5.05    5.16</time>
   <energy>
    <i name="e_fr_energy">   -263.50925011 </i>
    <i name="e_wo_entrp">   -263.50925011 </i>
    <i name="e_0_energy">   -263.50925011 </i>
   </energy>
  </scstep>
  <scstep>
   <time name="total">    4.96    5.05</time>
   <energy>
    <i name="e_fr_energy">   -263.50960580 </i>
    <i name="e_wo_entrp">   -263.50960580 </i>
    <i name="e_0_energy">   -263.50960580 </i>
   </energy>
  </scstep>
  <scstep>
   <time name="total">    5.03    5.13</time>
   <energy>
    <i name="e_fr_energy">   -263.50975105 </i>
    <i name="e_wo_entrp">   -263.50975105 </i>
    <i name="e_0_energy">   -263.50975105 </i>
   </energy>
  </scstep>
  <scstep>
   <time name="total">    4.87    5.02</time>
   <energy>
    <i name="e_fr_energy">   -263.50981591 </i>
    <i name="e_wo_entrp">   -263.50981591 </i>
    <i name="e_0_energy">   -263.50981591 </i>
   </energy>
  </scstep>
  <scstep>
   <time name="total">    4.92    5.10</time>
   <energy>
    <i name="e_fr_energy">   -263.50984396 </i>
    <i name="e_wo_entrp">   -263.50984396 </i>
    <i name="e_0_energy">   -263.50984396 </i>
   </energy>
  </scstep>
  <scstep>
   <time name="total">    4.92    5.03</time>
   <energy>
    <i name="e_fr_energy">   -263.50985783 </i>
    <i name="e_wo_entrp">   -263.50985783 </i>
    <i name="e_0_energy">   -263.50985783 </i>
   </energy>
  </scstep>
  <scstep>
   <time name="total">    4.88    5.07</time>
   <energy>
    <i name="e_fr_energy">   -263.50986385 </i>
    <i name="e_wo_entrp">   -263.50986385 </i>
    <i name="e_0_energy">   -263.50986385 </i>
   </energy>
  </scstep>
  <scstep>
   <time name="total">    4.89    5.13</time>
   <energy>
    <i name="e_fr_energy">   -263.50986715 </i>
    <i name="e_wo_entrp">   -263.50986715 </i>
    <i name="e_0_energy">   -263.50986715 </i>
   </energy>
  </scstep>
  <scstep>
   <time name="total">    4.93    5.20</time>
   <energy>
    <i name="e_fr_energy">   -263.50986827 </i>
    <i name="e_wo_entrp">   -263.50986827 </i>
    <i name="e_0_energy">   -263.50986827 </i>
   </energy>
  </scstep>
  <scstep>
   <time name="total">    4.83    5.05</time>
   <energy>
    <i name="e_fr_energy">   -263.50986909 </i>
    <i name="e_wo_entrp">   -263.50986909 </i>
    <i name="e_0_energy">   -263.50986909 </i>
   </energy>
  </scstep>
  <scstep>
   <time name="total">    5.08    5.19</time>
   <energy>
    <i name="e_fr_energy">   -263.50986942 </i>
    <i name="e_wo_entrp">   -263.50986942 </i>
    <i name="e_0_energy">   -263.50986942 </i>
   </energy>
  </scstep>
  <scstep>
   <time name="total">    4.91    5.05</time>
   <energy>
    <i name="e_fr_energy">   -263.50986964 </i>
    <i name="e_wo_entrp">   -263.50986964 </i>
    <i name="e_0_energy">   -263.50986964 </i>
   </energy>
  </scstep>
  <scstep>
   <time name="total">    5.01    5.01</time>
   <energy>
    <i name="e_fr_energy">   -263.50986972 </i>
    <i name="e_wo_entrp">   -263.50986972 </i>
    <i name="e_0_energy">   -263.50986972 </i>
   </energy>
  </scstep>
  <scstep>
   <time name="total">    5.01    5.03</time>
   <energy>
    <i name="e_fr_energy">   -263.50986981 </i>
    <i name="e_wo_entrp">   -263.50986981 </i>
    <i name="e_0_energy">   -263.50986981 </i>
   </energy>
  </scstep>
  <scstep>
   <time name="total">    4.61    5.02</time>
   <energy>
    <i name="e_fr_energy">   -263.50986984 </i>
    <i name="e_wo_entrp">   -263.50986984 </i>
    <i name="e_0_energy">   -263.50986984 </i>
   </energy>
  </scstep>
  <scstep>
   <time name="total">    4.68    5.08</time>
   <energy>
    <i name="e_fr_energy">   -263.50986986 </i>
    <i name="e_wo_entrp">   -263.50986986 </i>
    <i name="e_0_energy">   -263.50986986 </i>
   </energy>
  </scstep>
  <scstep>
   <time name="total">    5.10    5.17</time>
   <energy>
    <i name="e_fr_energy">   -263.50986987 </i>
    <i name="e_wo_entrp">   -263.50986987 </i>
    <i name="e_0_energy">   -263.50986987 </i>
   </energy>
  </scstep>
  <scstep>
   <time name="total">    4.94    5.05</time>
   <energy>
    <i name="e_fr_energy">   -263.50986987 </i>
    <i name="e_wo_entrp">   -263.50986987 </i>
    <i name="e_0_energy">   -263.50986987 </i>
   </energy>
  </scstep>
  <scstep>
   <time name="total">    4.84    5.04</time>
   <energy>
    <i name="e_fr_energy">   -263.50986988 </i>
    <i name="e_wo_entrp">   -263.50986988 </i>
    <i name="e_0_energy">   -263.50986988 </i>
   </energy>
  </scstep>
  <scstep>
   <time name="total">    4.79    5.01</time>
   <energy>
    <i name="e_fr_energy">   -263.50986988 </i>
    <i name="e_wo_entrp">   -263.50986988 </i>
    <i name="e_0_energy">   -263.50986988 </i>
   </energy>
  </scstep>
  <scstep>
   <time name="total">    4.82    5.00</time>
   <energy>
    <i name="e_fr_energy">   -263.50986988 </i>
    <i name="e_wo_entrp">   -263.50986988 </i>
    <i name="e_0_energy">   -263.50986988 </i>
   </energy>
  </scstep>
  <scstep>
   <time name="total">    4.83    4.95</time>
   <energy>
    <i name="e_fr_energy">   -263.50986988 </i>
    <i name="e_wo_entrp">   -263.50986988 </i>
    <i name="e_0_energy">   -263.50986988 </i>
   </energy>
  </scstep>
  <scstep>
   <time name="total">    3.67    3.77</time>
   <energy>
    <i name="e_fr_energy">   -186.27049292 </i>
    <i name="e_wo_entrp">   -186.27049292 </i>
    <i name="e_0_energy">   -186.27049292 </i>
   </energy>
  </scstep>
  <scstep>
   <time name="total">    5.74    5.96</time>
   <energy>
    <i name="e_fr_energy">   -261.23306459 </i>
    <i name="e_wo_entrp">   -261.23306459 </i>
    <i name="e_0_energy">   -261.23306459 </i>
   </energy>
  </scstep>
  <scstep>
   <time name="total">    5.95    6.10</time>
   <energy>
    <i name="e_fr_energy">   -262.48984938 </i>
    <i name="e_wo_entrp">   -262.48984938 </i>
    <i name="e_0_energy">   -262.48984938 </i>
   </energy>
  </scstep>
  <scstep>
   <time name="total">    5.00    5.10</time>
   <energy>
    <i name="e_fr_energy">   -262.91487322 </i>
    <i name="e_wo_entrp">   -262.91487322 </i>
    <i name="e_0_energy">   -262.91487322 </i>
   </energy>
  </scstep>
  <scstep>
   <time name="total">    4.92    5.13</time>
   <energy>
    <i name="e_fr_energy">   -263.07885609 </i>
    <i name="e_wo_entrp">   -263.07885609 </i>
    <i name="e_0_energy">   -263.07885609 </i>
   </energy>
  </scstep>
  <scstep>
   <time name="total">    4.96    5.06</time>
   <energy>
    <i name="e_fr_energy">   -263.13040909 </i>
    <i name="e_wo_entrp">   -263.13040909 </i>
    <i name="e_0_energy">   -263.13040909 </i>
   </energy>
  </scstep>
  <scstep>
   <time name="total">    4.96    5.06</time>
   <energy>
    <i name="e_fr_energy">   -263.14768654 </i>
    <i name="e_wo_entrp">   -263.14768654 </i>
    <i name="e_0_energy">   -263.14768654 </i>
   </energy>
  </scstep>
  <scstep>
   <time name="total">    5.11    5.18</time>
   <energy>
    <i name="e_fr_energy">   -263.15355722 </i>
    <i name="e_wo_entrp">   -263.15355722 </i>
    <i name="e_0_energy">   -263.15355722 </i>
   </energy>
  </scstep>
  <scstep>
   <time name="total">    4.86    5.05</time>
   <energy>
    <i name="e_fr_energy">   -263.15586041 </i>
    <i name="e_wo_entrp">   -263.15586041 </i>
    <i name="e_0_energy">   -263.15586041 </i>
   </energy>
  </scstep>
  <scstep>
   <time name="total">    5.02    5.14</time>
   <energy>
    <i name="e_fr_energy">   -263.15669850 </i>
    <i name="e_wo_entrp">   -263.15669850 </i>
    <i name="e_0_energy">   -263.15669850 </i>
   </energy>
  </scstep>
  <scstep>
   <time name="total">    5.00    5.22</time>
   <energy>
    <i name="e_fr_energy">   -263.15707540 </i>
    <i name="e_wo_entrp">   -263.15707540 </i>
    <i name="e_0_energy">   -263.15707540 </i>
   </energy>
  </scstep>
  <scstep>
   <time name="total">    4.96    5.15</time>
   <energy>
    <i name="e_fr_energy">   -263.15721400 </i>
    <i name="e_wo_entrp">   -263.15721400 </i>
    <i name="e_0_energy">   -263.15721400 </i>
   </energy>
  </scstep>
  <scstep>
   <time name="total">    4.95    5.05</time>
   <energy>
    <i name="e_fr_energy">   -263.15728438 </i>
    <i name="e_wo_entrp">   -263.15728438 </i>
    <i name="e_0_energy">   -263.15728438 </i>
   </energy>
  </scstep>
  <scstep>
   <time name="total">    4.80    5.05</time>
   <energy>
    <i name="e_fr_energy">   -263.15730988 </i>
    <i name="e_wo_entrp">   -263.15730988 </i>
    <i name="e_0_energy">   -263.15730988 </i>
   </energy>
  </scstep>
  <scstep>
   <time name="total">    4.94    5.11</time>
   <energy>
    <i name="e_fr_energy">   -263.15732453 </i>
    <i name="e_wo_entrp">   -263.15732453 </i>
    <i name="e_0_energy">   -263.15732453 </i>
   </energy>
  </scstep>
  <scstep>
   <time name="total">    4.78    5.26</time>
   <energy>
    <i name="e_fr_energy">   -263.15732954 </i>
    <i name="e_wo_entrp">   -263.15732954 </i>
    <i name="e_0_energy">   -263.15732954 </i>
   </energy>
  </scstep>
  <scstep>
   <time name="total">    5.04    5.14</time>
   <energy>
    <i name="e_fr_energy">   -263.15733285 </i>
    <i name="e_wo_entrp">   -263.15733285 </i>
    <i name="e_0_energy">   -263.15733285 </i>
   </energy>
  </scstep>
  <scstep>
   <time name="total">    5.04    5.06</time>
   <energy>
    <i name="e_fr_energy">   -263.15733357 </i>
    <i name="e_wo_entrp">   -263.15733357 </i>
    <i name="e_0_energy">   -263.15733357 </i>
   </energy>
  </scstep>
  <scstep>
   <time name="total">    4.98    4.99</time>
   <energy>
    <i name="e_fr_energy">   -263.15733450 </i>
    <i name="e_wo_entrp">   -263.15733450 </i>
    <i name="e_0_energy">   -263.15733450 </i>
   </energy>
  </scstep>
  <scstep>
   <time name="total">    4.87    5.02</time>
   <energy>
    <i name="e_fr_energy">   -263.15733434 </i>
    <i name="e_wo_entrp">   -263.15733434 </i>
    <i name="e_0_energy">   -263.15733434 </i>
   </energy>
  </scstep>
  <scstep>
   <time name="total">    4.68    5.22</time>
   <energy>
    <i name="e_fr_energy">   -263.15733463 </i>
    <i name="e_wo_entrp">   -263.15733463 </i>
    <i name="e_0_energy">   -263.15733463 </i>
   </energy>
  </scstep>
  <scstep>
   <time name="total">    4.79    5.04</time>
   <energy>
    <i name="e_fr_energy">   -263.15733448 </i>
    <i name="e_wo_entrp">   -263.15733448 </i>
    <i name="e_0_energy">   -263.15733448 </i>
   </energy>
  </scstep>
  <scstep>
   <time name="total">    4.98    5.14</time>
   <energy>
    <i name="e_fr_energy">   -263.15733482 </i>
    <i name="e_wo_entrp">   -263.15733482 </i>
    <i name="e_0_energy">   -263.15733482 </i>
   </energy>
  </scstep>
  <scstep>
   <time name="total">    4.74    5.00</time>
   <energy>
    <i name="e_fr_energy">   -263.15733450 </i>
    <i name="e_wo_entrp">   -263.15733450 </i>
    <i name="e_0_energy">   -263.15733450 </i>
   </energy>
  </scstep>
  <scstep>
   <time name="total">    4.73    4.98</time>
   <energy>
    <i name="e_fr_energy">   -263.15733489 </i>
    <i name="e_wo_entrp">   -263.15733489 </i>
    <i name="e_0_energy">   -263.15733489 </i>
   </energy>
  </scstep>
  <scstep>
   <time name="total">    4.79    4.99</time>
   <energy>
    <i name="e_fr_energy">   -263.15733466 </i>
    <i name="e_wo_entrp">   -263.15733466 </i>
    <i name="e_0_energy">   -263.15733466 </i>
   </energy>
  </scstep>
  <scstep>
   <time name="total">    4.94    4.96</time>
   <energy>
    <i name="e_fr_energy">   -263.15733476 </i>
    <i name="e_wo_entrp">   -263.15733476 </i>
    <i name="e_0_energy">   -263.15733476 </i>
   </energy>
  </scstep>
  <scstep>
   <time name="total">    4.79    5.10</time>
   <energy>
    <i name="e_fr_energy">   -263.15733469 </i>
    <i name="e_wo_entrp">   -263.15733469 </i>
    <i name="e_0_energy">   -263.15733469 </i>
   </energy>
  </scstep>
  <scstep>
   <time name="total">    4.66    5.10</time>
   <energy>
    <i name="e_fr_energy">   -263.15733487 </i>
    <i name="e_wo_entrp">   -263.15733487 </i>
    <i name="e_0_energy">   -263.15733487 </i>
   </energy>
  </scstep>
  <scstep>
   <time name="total">    4.80    4.99</time>
   <energy>
    <i name="e_fr_energy">   -263.15733454 </i>
    <i name="e_wo_entrp">   -263.15733454 </i>
    <i name="e_0_energy">   -263.15733454 </i>
   </energy>
  </scstep>
  <scstep>
   <time name="total">    6.46    6.73</time>
   <energy>
    <i name="e_fr_energy">     -1.07434058 </i>
    <i name="e_wo_entrp">     -1.07434058 </i>
    <i name="e_0_energy">     -1.07434058 </i>
   </energy>
  </scstep>
  <scstep>
   <time name="total">    6.91    7.05</time>
   <energy>
    <i name="e_fr_energy">     -1.62905168 </i>
    <i name="e_wo_entrp">     -1.62905168 </i>
    <i name="e_0_energy">     -1.62905168 </i>
   </energy>
  </scstep>
  <scstep>
   <time name="total">    7.08    7.37</time>
   <energy>
    <i name="e_fr_energy">     -1.64159479 </i>
    <i name="e_wo_entrp">     -1.64159479 </i>
    <i name="e_0_energy">     -1.64159479 </i>
   </energy>
  </scstep>
  <scstep>
   <time name="total">    7.53    7.63</time>
   <energy>
    <i name="e_fr_energy">     -1.64496093 </i>
    <i name="e_wo_entrp">     -1.64496093 </i>
    <i name="e_0_energy">     -1.64496093 </i>
   </energy>
  </scstep>
  <scstep>
   <time name="total">    7.35    7.39</time>
   <energy>
    <i name="e_fr_energy">     -1.64591660 </i>
    <i name="e_wo_entrp">     -1.64591660 </i>
    <i name="e_0_energy">     -1.64591660 </i>
   </energy>
  </scstep>
  <scstep>
   <time name="total">    7.26    7.38</time>
   <energy>
    <i name="e_fr_energy">     -1.64613554 </i>
    <i name="e_wo_entrp">     -1.64613554 </i>
    <i name="e_0_energy">     -1.64613554 </i>
   </energy>
  </scstep>
  <scstep>
   <time name="total">    7.40    7.49</time>
   <energy>
    <i name="e_fr_energy">     -1.64619946 </i>
    <i name="e_wo_entrp">     -1.64619946 </i>
    <i name="e_0_energy">     -1.64619946 </i>
   </energy>
  </scstep>
  <scstep>
   <time name="total">    7.34    7.59</time>
   <energy>
    <i name="e_fr_energy">     -1.64621869 </i>
    <i name="e_wo_entrp">     -1.64621869 </i>
    <i name="e_0_energy">     -1.64621869 </i>
   </energy>
  </scstep>
  <scstep>
   <time name="total">    7.16    7.44</time>
   <energy>
    <i name="e_fr_energy">     -1.64622582 </i>
    <i name="e_wo_entrp">     -1.64622582 </i>
    <i name="e_0_energy">     -1.64622582 </i>
   </energy>
  </scstep>
  <scstep>
   <time name="total">    7.44    7.69</time>
   <energy>
    <i name="e_fr_energy">     -1.64622838 </i>
    <i name="e_wo_entrp">     -1.64622838 </i>
    <i name="e_0_energy">     -1.64622838 </i>
   </energy>
  </scstep>
  <scstep>
   <time name="total">    7.35    7.62</time>
   <energy>
    <i name="e_fr_energy">     -1.64622953 </i>
    <i name="e_wo_entrp">     -1.64622953 </i>
    <i name="e_0_energy">     -1.64622953 </i>
   </energy>
  </scstep>
  <scstep>
   <time name="total">    7.18    7.56</time>
   <energy>
    <i name="e_fr_energy">     -1.64622998 </i>
    <i name="e_wo_entrp">     -1.64622998 </i>
    <i name="e_0_energy">     -1.64622998 </i>
   </energy>
  </scstep>
  <scstep>
   <time name="total">    7.17    7.40</time>
   <energy>
    <i name="e_fr_energy">     -1.64623021 </i>
    <i name="e_wo_entrp">     -1.64623021 </i>
    <i name="e_0_energy">     -1.64623021 </i>
   </energy>
  </scstep>
  <scstep>
   <time name="total">    7.22    7.56</time>
   <energy>
    <i name="e_fr_energy">     -1.64623030 </i>
    <i name="e_wo_entrp">     -1.64623030 </i>
    <i name="e_0_energy">     -1.64623030 </i>
   </energy>
  </scstep>
  <scstep>
   <time name="total">    7.35    7.65</time>
   <energy>
    <i name="e_fr_energy">     -1.64623035 </i>
    <i name="e_wo_entrp">     -1.64623035 </i>
    <i name="e_0_energy">     -1.64623035 </i>
   </energy>
  </scstep>
  <scstep>
   <time name="total">    7.32    7.44</time>
   <energy>
    <i name="e_fr_energy">     -1.64623037 </i>
    <i name="e_wo_entrp">     -1.64623037 </i>
    <i name="e_0_energy">     -1.64623037 </i>
   </energy>
  </scstep>
  <scstep>
   <time name="total">    7.12    7.37</time>
   <energy>
    <i name="e_fr_energy">     -1.64623038 </i>
    <i name="e_wo_entrp">     -1.64623038 </i>
    <i name="e_0_energy">     -1.64623038 </i>
   </energy>
  </scstep>
  <scstep>
   <time name="total">    7.24    7.63</time>
   <energy>
    <i name="e_fr_energy">     -1.64623038 </i>
    <i name="e_wo_entrp">     -1.64623038 </i>
    <i name="e_0_energy">     -1.64623038 </i>
   </energy>
  </scstep>
  <scstep>
   <time name="total">    6.37    6.72</time>
   <energy>
    <i name="e_fr_energy">     -1.11705365 </i>
    <i name="e_wo_entrp">     -1.11705365 </i>
    <i name="e_0_energy">     -1.11705365 </i>
   </energy>
  </scstep>
  <scstep>
   <time name="total">    6.87    7.15</time>
   <energy>
    <i name="e_fr_energy">     -1.58059856 </i>
    <i name="e_wo_entrp">     -1.58059856 </i>
    <i name="e_0_energy">     -1.58059856 </i>
   </energy>
  </scstep>
  <scstep>
   <time name="total">    7.19    7.36</time>
   <energy>
    <i name="e_fr_energy">     -1.59352692 </i>
    <i name="e_wo_entrp">     -1.59352692 </i>
    <i name="e_0_energy">     -1.59352692 </i>
   </energy>
  </scstep>
  <scstep>
   <time name="total">    7.25    7.51</time>
   <energy>
    <i name="e_fr_energy">     -1.59680684 </i>
    <i name="e_wo_entrp">     -1.59680684 </i>
    <i name="e_0_energy">     -1.59680684 </i>
   </energy>
  </scstep>
  <scstep>
   <time name="total">    7.27    7.53</time>
   <energy>
    <i name="e_fr_energy">     -1.59764740 </i>
    <i name="e_wo_entrp">     -1.59764740 </i>
    <i name="e_0_energy">     -1.59764740 </i>
   </energy>
  </scstep>
  <scstep>
   <time name="total">    7.36    7.60</time>
   <energy>
    <i name="e_fr_energy">     -1.59783645 </i>
    <i name="e_wo_entrp">     -1.59783645 </i>
    <i name="e_0_energy">     -1.59783645 </i>
   </energy>
  </scstep>
  <scstep>
   <time name="total">    7.38    7.60</time>
   <energy>
    <i name="e_fr_energy">     -1.59788874 </i>
    <i name="e_wo_entrp">     -1.59788874 </i>
    <i name="e_0_energy">     -1.59788874 </i>
   </energy>
  </scstep>
  <scstep>
   <time name="total">    7.33    7.44</time>
   <energy>
    <i name="e_fr_energy">     -1.59790423 </i>
    <i name="e_wo_entrp">     -1.59790423 </i>
    <i name="e_0_energy">     -1.59790423 </i>
   </energy>
  </scstep>
  <scstep>
   <time name="total">    7.20    7.48</time>
   <energy>
    <i name="e_fr_energy">     -1.59790964 </i>
    <i name="e_wo_entrp">     -1.59790964 </i>
    <i name="e_0_energy">     -1.59790964 </i>
   </energy>
  </scstep>
  <scstep>
   <time name="total">    7.26    7.72</time>
   <energy>
    <i name="e_fr_energy">     -1.59791163 </i>
    <i name="e_wo_entrp">     -1.59791163 </i>
    <i name="e_0_energy">     -1.59791163 </i>
   </energy>
  </scstep>
  <scstep>
   <time name="total">    7.31    7.62</time>
   <energy>
    <i name="e_fr_energy">     -1.59791245 </i>
    <i name="e_wo_entrp">     -1.59791245 </i>
    <i name="e_0_energy">     -1.59791245 </i>
   </energy>
  </scstep>
  <scstep>
   <time name="total">    7.30    7.56</time>
   <energy>
    <i name="e_fr_energy">     -1.59791279 </i>
    <i name="e_wo_entrp">     -1.59791279 </i>
    <i name="e_0_energy">     -1.59791279 </i>
   </energy>
  </scstep>
  <scstep>
   <time name="total">    7.22    7.50</time>
   <energy>
    <i name="e_fr_energy">     -1.59791294 </i>
    <i name="e_wo_entrp">     -1.59791294 </i>
    <i name="e_0_energy">     -1.59791294 </i>
   </energy>
  </scstep>
  <scstep>
   <time name="total">    7.35    7.60</time>
   <energy>
    <i name="e_fr_energy">     -1.59791301 </i>
    <i name="e_wo_entrp">     -1.59791301 </i>
    <i name="e_0_energy">     -1.59791301 </i>
   </energy>
  </scstep>
  <scstep>
   <time name="total">    7.21    7.50</time>
   <energy>
    <i name="e_fr_energy">     -1.59791304 </i>
    <i name="e_wo_entrp">     -1.59791304 </i>
    <i name="e_0_energy">     -1.59791304 </i>
   </energy>
  </scstep>
  <scstep>
   <time name="total">    7.33    7.51</time>
   <energy>
    <i name="e_fr_energy">     -1.59791305 </i>
    <i name="e_wo_entrp">     -1.59791305 </i>
    <i name="e_0_energy">     -1.59791305 </i>
   </energy>
  </scstep>
  <scstep>
   <time name="total">    7.32    7.54</time>
   <energy>
    <i name="e_fr_energy">     -1.59791306 </i>
    <i name="e_wo_entrp">     -1.59791306 </i>
    <i name="e_0_energy">     -1.59791306 </i>
   </energy>
  </scstep>
  <scstep>
   <time name="total">    6.18    6.59</time>
   <energy>
    <i name="e_fr_energy">     -1.05572791 </i>
    <i name="e_wo_entrp">     -1.05572791 </i>
    <i name="e_0_energy">     -1.05572791 </i>
   </energy>
  </scstep>
  <scstep>
   <time name="total">    6.69    7.06</time>
   <energy>
    <i name="e_fr_energy">     -1.47446521 </i>
    <i name="e_wo_entrp">     -1.47446521 </i>
    <i name="e_0_energy">     -1.47446521 </i>
   </energy>
  </scstep>
  <scstep>
   <time name="total">    7.40    7.66</time>
   <energy>
    <i name="e_fr_energy">     -1.48743051 </i>
    <i name="e_wo_entrp">     -1.48743051 </i>
    <i name="e_0_energy">     -1.48743051 </i>
   </energy>
  </scstep>
  <scstep>
   <time name="total">    7.27    7.50</time>
   <energy>
    <i name="e_fr_energy">     -1.49086785 </i>
    <i name="e_wo_entrp">     -1.49086785 </i>
    <i name="e_0_energy">     -1.49086785 </i>
   </energy>
  </scstep>
  <scstep>
   <time name="total">    7.39    7.55</time>
   <energy>
    <i name="e_fr_energy">     -1.49171883 </i>
    <i name="e_wo_entrp">     -1.49171883 </i>
    <i name="e_0_energy">     -1.49171883 </i>
   </energy>
  </scstep>
  <scstep>
   <time name="total">    7.24    7.54</time>
   <energy>
    <i name="e_fr_energy">     -1.49191016 </i>
    <i name="e_wo_entrp">     -1.49191016 </i>
    <i name="e_0_energy">     -1.49191016 </i>
   </energy>
  </scstep>
  <scstep>
   <time name="total">    7.25    7.52</time>
   <energy>
    <i name="e_fr_energy">     -1.49196140 </i>
    <i name="e_wo_entrp">     -1.49196140 </i>
    <i name="e_0_energy">     -1.49196140 </i>
   </energy>
  </scstep>
  <scstep>
   <time name="total">    7.29    7.53</time>
   <energy>
    <i name="e_fr_energy">     -1.49197628 </i>
    <i name="e_wo_entrp">     -1.49197628 </i>
    <i name="e_0_energy">     -1.49197628 </i>
   </energy>
  </scstep>
  <scstep>
   <time name="total">    7.18    7.37</time>
   <energy>
    <i name="e_fr_energy">     -1.49198117 </i>
    <i name="e_wo_entrp">     -1.49198117 </i>
    <i name="e_0_energy">     -1.49198117 </i>
   </energy>
  </scstep>
  <scstep>
   <time name="total">    7.25    7.36</time>
   <energy>
    <i name="e_fr_energy">     -1.49198289 </i>
    <i name="e_wo_entrp">     -1.49198289 </i>
    <i name="e_0_energy">     -1.49198289 </i>
   </energy>
  </scstep>
  <scstep>
   <time name="total">    7.29    7.49</time>
   <energy>
    <i name="e_fr_energy">     -1.49198354 </i>
    <i name="e_wo_entrp">     -1.49198354 </i>
    <i name="e_0_energy">     -1.49198354 </i>
   </energy>
  </scstep>
  <scstep>
   <time name="total">    7.17    7.44</time>
   <energy>
    <i name="e_fr_energy">     -1.49198380 </i>
    <i name="e_wo_entrp">     -1.49198380 </i>
    <i name="e_0_energy">     -1.49198380 </i>
   </energy>
  </scstep>
  <scstep>
   <time name="total">    7.20    7.48</time>
   <energy>
    <i name="e_fr_energy">     -1.49198391 </i>
    <i name="e_wo_entrp">     -1.49198391 </i>
    <i name="e_0_energy">     -1.49198391 </i>
   </energy>
  </scstep>
  <scstep>
   <time name="total">    7.15    7.45</time>
   <energy>
    <i name="e_fr_energy">     -1.49198395 </i>
    <i name="e_wo_entrp">     -1.49198395 </i>
    <i name="e_0_energy">     -1.49198395 </i>
   </energy>
  </scstep>
  <scstep>
   <time name="total">    7.11    7.52</time>
   <energy>
    <i name="e_fr_energy">     -1.49198398 </i>
    <i name="e_wo_entrp">     -1.49198398 </i>
    <i name="e_0_energy">     -1.49198398 </i>
   </energy>
  </scstep>
  <scstep>
   <time name="total">    7.16    7.44</time>
   <energy>
    <i name="e_fr_energy">     -1.49198398 </i>
    <i name="e_wo_entrp">     -1.49198398 </i>
    <i name="e_0_energy">     -1.49198398 </i>
   </energy>
  </scstep>
  <scstep>
   <time name="total">    7.24    7.37</time>
   <energy>
    <i name="e_fr_energy">     -1.49198399 </i>
    <i name="e_wo_entrp">     -1.49198399 </i>
    <i name="e_0_energy">     -1.49198399 </i>
   </energy>
  </scstep>
  <varray name="epsilon_rpa" >
   <v>       5.85032299      -0.00069901      -0.00000010 </v>
   <v>      -0.00070508       5.70796509      -0.00002033 </v>
   <v>       0.00000012       0.00001936       5.39586408 </v>
  </varray>
  <scstep>
   <time name="total">    6.54    6.77</time>
   <energy>
    <i name="e_fr_energy">     -1.07434058 </i>
    <i name="e_wo_entrp">     -1.07434058 </i>
    <i name="e_0_energy">     -1.07434058 </i>
   </energy>
  </scstep>
  <scstep>
   <time name="total">    7.33    7.82</time>
   <energy>
    <i name="e_fr_energy">     -1.62905168 </i>
    <i name="e_wo_entrp">     -1.62905168 </i>
    <i name="e_0_energy">     -1.62905168 </i>
   </energy>
  </scstep>
  <scstep>
   <time name="total">    7.66    7.79</time>
   <energy>
    <i name="e_fr_energy">     -1.60352917 </i>
    <i name="e_wo_entrp">     -1.60352917 </i>
    <i name="e_0_energy">     -1.60352917 </i>
   </energy>
  </scstep>
  <scstep>
   <time name="total">    7.80    7.91</time>
   <energy>
    <i name="e_fr_energy">     -1.63736078 </i>
    <i name="e_wo_entrp">     -1.63736078 </i>
    <i name="e_0_energy">     -1.63736078 </i>
   </energy>
  </scstep>
  <scstep>
   <time name="total">    7.60    7.90</time>
   <energy>
    <i name="e_fr_energy">     -1.67127282 </i>
    <i name="e_wo_entrp">     -1.67127282 </i>
    <i name="e_0_energy">     -1.67127282 </i>
   </energy>
  </scstep>
  <scstep>
   <time name="total">    7.80    7.98</time>
   <energy>
    <i name="e_fr_energy">     -1.69703779 </i>
    <i name="e_wo_entrp">     -1.69703779 </i>
    <i name="e_0_energy">     -1.69703779 </i>
   </energy>
  </scstep>
  <scstep>
   <time name="total">    7.88    8.04</time>
   <energy>
    <i name="e_fr_energy">     -1.70095691 </i>
    <i name="e_wo_entrp">     -1.70095691 </i>
    <i name="e_0_energy">     -1.70095691 </i>
   </energy>
  </scstep>
  <scstep>
   <time name="total">    7.73    7.93</time>
   <energy>
    <i name="e_fr_energy">     -1.70628554 </i>
    <i name="e_wo_entrp">     -1.70628554 </i>
    <i name="e_0_energy">     -1.70628554 </i>
   </energy>
  </scstep>
  <scstep>
   <time name="total">    7.70    7.97</time>
   <energy>
    <i name="e_fr_energy">     -1.71027700 </i>
    <i name="e_wo_entrp">     -1.71027700 </i>
    <i name="e_0_energy">     -1.71027700 </i>
   </energy>
  </scstep>
  <scstep>
   <time name="total">    7.58    7.90</time>
   <energy>
    <i name="e_fr_energy">     -1.71424677 </i>
    <i name="e_wo_entrp">     -1.71424677 </i>
    <i name="e_0_energy">     -1.71424677 </i>
   </energy>
  </scstep>
  <scstep>
   <time name="total">    7.55    7.79</time>
   <energy>
    <i name="e_fr_energy">     -1.72216886 </i>
    <i name="e_wo_entrp">     -1.72216886 </i>
    <i name="e_0_energy">     -1.72216886 </i>
   </energy>
  </scstep>
  <scstep>
   <time name="total">    7.72    7.87</time>
   <energy>
    <i name="e_fr_energy">     -1.72599017 </i>
    <i name="e_wo_entrp">     -1.72599017 </i>
    <i name="e_0_energy">     -1.72599017 </i>
   </energy>
  </scstep>
  <scstep>
   <time name="total">    7.66    7.95</time>
   <energy>
    <i name="e_fr_energy">     -1.72651612 </i>
    <i name="e_wo_entrp">     -1.72651612 </i>
    <i name="e_0_energy">     -1.72651612 </i>
   </energy>
  </scstep>
  <scstep>
   <time name="total">    7.75    8.03</time>
   <energy>
    <i name="e_fr_energy">     -1.72650786 </i>
    <i name="e_wo_entrp">     -1.72650786 </i>
    <i name="e_0_energy">     -1.72650786 </i>
   </energy>
  </scstep>
  <scstep>
   <time name="total">    7.72    7.86</time>
   <energy>
    <i name="e_fr_energy">     -1.72653580 </i>
    <i name="e_wo_entrp">     -1.72653580 </i>
    <i name="e_0_energy">     -1.72653580 </i>
   </energy>
  </scstep>
  <scstep>
   <time name="total">    7.68    7.98</time>
   <energy>
    <i name="e_fr_energy">     -1.72656987 </i>
    <i name="e_wo_entrp">     -1.72656987 </i>
    <i name="e_0_energy">     -1.72656987 </i>
   </energy>
  </scstep>
  <scstep>
   <time name="total">    7.72    7.95</time>
   <energy>
    <i name="e_fr_energy">     -1.72657952 </i>
    <i name="e_wo_entrp">     -1.72657952 </i>
    <i name="e_0_energy">     -1.72657952 </i>
   </energy>
  </scstep>
  <scstep>
   <time name="total">    7.70    7.98</time>
   <energy>
    <i name="e_fr_energy">     -1.72660513 </i>
    <i name="e_wo_entrp">     -1.72660513 </i>
    <i name="e_0_energy">     -1.72660513 </i>
   </energy>
  </scstep>
  <scstep>
   <time name="total">    7.71    8.05</time>
   <energy>
    <i name="e_fr_energy">     -1.72659959 </i>
    <i name="e_wo_entrp">     -1.72659959 </i>
    <i name="e_0_energy">     -1.72659959 </i>
   </energy>
  </scstep>
  <scstep>
   <time name="total">    7.67    7.96</time>
   <energy>
    <i name="e_fr_energy">     -1.72659474 </i>
    <i name="e_wo_entrp">     -1.72659474 </i>
    <i name="e_0_energy">     -1.72659474 </i>
   </energy>
  </scstep>
  <scstep>
   <time name="total">    7.91    8.10</time>
   <energy>
    <i name="e_fr_energy">     -1.72659940 </i>
    <i name="e_wo_entrp">     -1.72659940 </i>
    <i name="e_0_energy">     -1.72659940 </i>
   </energy>
  </scstep>
  <scstep>
   <time name="total">    7.76    8.12</time>
   <energy>
    <i name="e_fr_energy">     -1.72660127 </i>
    <i name="e_wo_entrp">     -1.72660127 </i>
    <i name="e_0_energy">     -1.72660127 </i>
   </energy>
  </scstep>
  <scstep>
   <time name="total">    7.69    8.13</time>
   <energy>
    <i name="e_fr_energy">     -1.72660188 </i>
    <i name="e_wo_entrp">     -1.72660188 </i>
    <i name="e_0_energy">     -1.72660188 </i>
   </energy>
  </scstep>
  <scstep>
   <time name="total">    6.30    6.73</time>
   <energy>
    <i name="e_fr_energy">     -1.11705365 </i>
    <i name="e_wo_entrp">     -1.11705365 </i>
    <i name="e_0_energy">     -1.11705365 </i>
   </energy>
  </scstep>
  <scstep>
   <time name="total">    7.35    7.59</time>
   <energy>
    <i name="e_fr_energy">     -1.58059856 </i>
    <i name="e_wo_entrp">     -1.58059856 </i>
    <i name="e_0_energy">     -1.58059856 </i>
   </energy>
  </scstep>
  <scstep>
   <time name="total">    7.35    7.79</time>
   <energy>
    <i name="e_fr_energy">     -1.55430976 </i>
    <i name="e_wo_entrp">     -1.55430976 </i>
    <i name="e_0_energy">     -1.55430976 </i>
   </energy>
  </scstep>
  <scstep>
   <time name="total">    7.43    7.86</time>
   <energy>
    <i name="e_fr_energy">     -1.59327624 </i>
    <i name="e_wo_entrp">     -1.59327624 </i>
    <i name="e_0_energy">     -1.59327624 </i>
   </energy>
  </scstep>
  <scstep>
   <time name="total">    7.78    7.88</time>
   <energy>
    <i name="e_fr_energy">     -1.62893912 </i>
    <i name="e_wo_entrp">     -1.62893912 </i>
    <i name="e_0_energy">     -1.62893912 </i>
   </energy>
  </scstep>
  <scstep>
   <time name="total">    7.83    8.10</time>
   <energy>
    <i name="e_fr_energy">     -1.65795706 </i>
    <i name="e_wo_entrp">     -1.65795706 </i>
    <i name="e_0_energy">     -1.65795706 </i>
   </energy>
  </scstep>
  <scstep>
   <time name="total">    7.71    7.97</time>
   <energy>
    <i name="e_fr_energy">     -1.67046597 </i>
    <i name="e_wo_entrp">     -1.67046597 </i>
    <i name="e_0_energy">     -1.67046597 </i>
   </energy>
  </scstep>
  <scstep>
   <time name="total">    7.64    8.00</time>
   <energy>
    <i name="e_fr_energy">     -1.67465249 </i>
    <i name="e_wo_entrp">     -1.67465249 </i>
    <i name="e_0_energy">     -1.67465249 </i>
   </energy>
  </scstep>
  <scstep>
   <time name="total">    7.69    8.01</time>
   <energy>
    <i name="e_fr_energy">     -1.67913476 </i>
    <i name="e_wo_entrp">     -1.67913476 </i>
    <i name="e_0_energy">     -1.67913476 </i>
   </energy>
  </scstep>
  <scstep>
   <time name="total">    7.84    8.11</time>
   <energy>
    <i name="e_fr_energy">     -1.67968093 </i>
    <i name="e_wo_entrp">     -1.67968093 </i>
    <i name="e_0_energy">     -1.67968093 </i>
   </energy>
  </scstep>
  <scstep>
   <time name="total">    7.82    7.91</time>
   <energy>
    <i name="e_fr_energy">     -1.68048877 </i>
    <i name="e_wo_entrp">     -1.68048877 </i>
    <i name="e_0_energy">     -1.68048877 </i>
   </energy>
  </scstep>
  <scstep>
   <time name="total">    7.77    7.88</time>
   <energy>
    <i name="e_fr_energy">     -1.68133570 </i>
    <i name="e_wo_entrp">     -1.68133570 </i>
    <i name="e_0_energy">     -1.68133570 </i>
   </energy>
  </scstep>
  <scstep>
   <time name="total">    7.59    8.09</time>
   <energy>
    <i name="e_fr_energy">     -1.68227445 </i>
    <i name="e_wo_entrp">     -1.68227445 </i>
    <i name="e_0_energy">     -1.68227445 </i>
   </energy>
  </scstep>
[...]
       <r>    -0.2439     5.6805    21.1551 </r>
       <r>     0.0020     2.6608    21.8094 </r>
       <r>     0.2479     4.3089    22.8690 </r>
       <r>     0.4938     4.3290    23.9335 </r>
       <r>     0.7397     2.7771    24.6164 </r>
       <r>     0.9856     4.0701    25.6173 </r>
       <r>     1.2316     4.1384    26.6349 </r>
       <r>     1.4775     4.4440    27.7278 </r>
       <r>     1.7234     4.8581    28.9224 </r>
       <r>     1.9693     2.7969    29.6102 </r>
       <r>     2.2152     2.1664    30.1429 </r>
       <r>     2.4611     1.2480    30.4498 </r>
       <r>     2.7070     3.3296    31.2686 </r>
       <r>     2.9529     2.9365    31.9907 </r>
       <r>     3.1988     3.0046    32.7295 </r>
       <r>     3.4447     3.7474    33.6511 </r>
       <r>     3.6906     4.3689    34.7254 </r>
       <r>     3.9365     3.7371    35.6444 </r>
       <r>     4.1824     1.4357    35.9974 </r>
       <r>     4.4283     0.0105    36.0000 </r>
       <r>     4.6743     0.0000    36.0000 </r>
       <r>     4.9202     0.0000    36.0000 </r>
       <r>     5.1661     0.0000    36.0000 </r>
       <r>     5.4120     0.0000    36.0000 </r>
       <r>     5.6579     0.0000    36.0000 </r>
       <r>     5.9038     0.0000    36.0000 </r>
       <r>     6.1497     0.0000    36.0000 </r>
       <r>     6.3956     0.0000    36.0000 </r>
       <r>     6.6415     0.0000    36.0000 </r>
       <r>     6.8874     0.0000    36.0000 </r>
       <r>     7.1333     0.0000    36.0000 </r>
       <r>     7.3792     0.0201    36.0049 </r>
       <r>     7.6251     0.0034    36.0058 </r>
       <r>     7.8711     0.1470    36.0419 </r>
       <r>     8.1170     0.3458    36.1270 </r>
       <r>     8.3629     0.6389    36.2841 </r>
       <r>     8.6088     1.0768    36.5489 </r>
       <r>     8.8547     1.5787    36.9371 </r>
       <r>     9.1006     1.9528    37.4173 </r>
       <r>     9.3465     1.8516    37.8726 </r>
       <r>     9.5924     1.9111    38.3426 </r>
       <r>     9.8383     1.3536    38.6755 </r>
       <r>    10.0842     2.2328    39.2245 </r>
       <r>    10.3301     1.6502    39.6303 </r>
       <r>    10.5760     1.4170    39.9787 </r>
       <r>    10.8219     1.8266    40.4279 </r>
       <r>    11.0678     2.6379    41.0766 </r>
       <r>    11.3138     3.8098    42.0135 </r>
       <r>    11.5597     3.4643    42.8653 </r>
       <r>    11.8056     2.6287    43.5117 </r>
       <r>    12.0515     1.9052    43.9802 </r>
       <r>    12.2974     2.2662    44.5375 </r>
       <r>    12.5433     2.3873    45.1246 </r>
       <r>    12.7892     2.7163    45.7925 </r>
       <r>    13.0351     1.3345    46.1207 </r>
       <r>    13.2810     1.4958    46.4885 </r>
       <r>    13.5269     2.7262    47.1589 </r>
       <r>    13.7728     1.3846    47.4994 </r>
       <r>    14.0187     0.4897    47.6198 </r>
       <r>    14.2646     0.8773    47.8356 </r>
       <r>    14.5106     0.2949    47.9081 </r>
       <r>    14.7565     0.2539    47.9705 </r>
       <r>    15.0024     0.0813    47.9905 </r>
       <r>    15.2483     0.0386    48.0000 </r>
       <r>    15.4942     0.0000    48.0000 </r>
       <r>    15.7401     0.0000    48.0000 </r>
       <r>    15.9860     0.0000    48.0000 </r>
       <r>    16.2319     0.0000    48.0000 </r>
       <r>    16.4778     0.0000    48.0000 </r>
       <r>    16.7237     0.0000    48.0000 </r>
       <r>    16.9696     0.0000    48.0000 </r>
       <r>    17.2155     0.0000    48.0000 </r>
       <r>    17.4614     0.0000    48.0000 </r>
       <r>    17.7074     0.0000    48.0000 </r>
       <r>    17.9533     0.0000    48.0000 </r>
       <r>    18.1992     0.0000    48.0000 </r>
       <r>    18.4451     0.0000    48.0000 </r>
       <r>    18.6910     0.0000    48.0000 </r>
       <r>    18.9369     0.0000    48.0000 </r>
      </set>
      <set comment="spin 2">
       <r>   -54.8354     0.0000     0.0000 </r>
       <r>   -54.5894     0.0000     0.0000 </r>
       <r>   -54.3435     0.0000     0.0000 </r>
       <r>   -54.0976     0.0000     0.0000 </r>
       <r>   -53.8517     0.0000     0.0000 </r>
       <r>   -53.6058     0.0000     0.0000 </r>
       <r>   -53.3599     0.0000     0.0000 </r>
       <r>   -53.1140     0.0000     0.0000 </r>
       <r>   -52.8681     0.0000     0.0000 </r>
       <r>   -52.6222     0.0000     0.0000 </r>
       <r>   -52.3763     0.0000     0.0000 </r>
       <r>   -52.1304     0.0000     0.0000 </r>
       <r>   -51.8845     0.0000     0.0000 </r>
       <r>   -51.6386     0.0000     0.0000 </r>
       <r>   -51.3926     0.0000     0.0000 </r>
       <r>   -51.1467     0.0000     0.0000 </r>
       <r>   -50.9008     0.0000     0.0000 </r>
       <r>   -50.6549     0.0000     0.0000 </r>
       <r>   -50.4090     0.0000     0.0000 </r>
       <r>   -50.1631     0.0000     0.0000 </r>
       <r>   -49.9172     0.0000     0.0000 </r>
       <r>   -49.6713     0.0000     0.0000 </r>
       <r>   -49.4254     0.0000     0.0000 </r>
       <r>   -49.1795     0.0000     0.0000 </r>
       <r>   -48.9336     0.0000     0.0000 </r>
       <r>   -48.6877     0.0000     0.0000 </r>
       <r>   -48.4418     0.0000     0.0000 </r>
       <r>   -48.1958     0.0000     0.0000 </r>
       <r>   -47.9499     0.0000     0.0000 </r>
       <r>   -47.7040     0.0000     0.0000 </r>
       <r>   -47.4581     0.0000     0.0000 </r>
       <r>   -47.2122     0.0000     0.0000 </r>
       <r>   -46.9663     0.0000     0.0000 </r>
       <r>   -46.7204     6.2262     1.5311 </r>
       <r>   -46.4745     2.5750     2.1643 </r>
       <r>   -46.2286    15.5940     5.9990 </r>
       <r>   -45.9827     0.0042     6.0000 </r>
       <r>   -45.7368     0.0000     6.0000 </r>
       <r>   -45.4909     0.0000     6.0000 </r>
       <r>   -45.2450     0.0000     6.0000 </r>
       <r>   -44.9991     0.0000     6.0000 </r>
       <r>   -44.7531     0.0000     6.0000 </r>
       <r>   -44.5072     0.0000     6.0000 </r>
       <r>   -44.2613     0.0000     6.0000 </r>
       <r>   -44.0154     0.0000     6.0000 </r>
       <r>   -43.7695     0.0000     6.0000 </r>
       <r>   -43.5236     0.0000     6.0000 </r>
       <r>   -43.2777     0.0000     6.0000 </r>
       <r>   -43.0318     0.0000     6.0000 </r>
       <r>   -42.7859     0.0000     6.0000 </r>
       <r>   -42.5400     0.0000     6.0000 </r>
       <r>   -42.2941     0.0000     6.0000 </r>
       <r>   -42.0482     0.0000     6.0000 </r>
       <r>   -41.8023     0.0000     6.0000 </r>
       <r>   -41.5563     0.0000     6.0000 </r>
       <r>   -41.3104     0.0000     6.0000 </r>
       <r>   -41.0645     0.0000     6.0000 </r>
       <r>   -40.8186     0.0000     6.0000 </r>
       <r>   -40.5727     0.2340     6.0576 </r>
       <r>   -40.3268    10.0674     8.5332 </r>
       <r>   -40.0809     5.9648    10.0000 </r>
       <r>   -39.8350     0.0000    10.0000 </r>
       <r>   -39.5891     0.0000    10.0000 </r>
       <r>   -39.3432     0.0000    10.0000 </r>
       <r>   -39.0973     0.0000    10.0000 </r>
       <r>   -38.8514     0.0000    10.0000 </r>
       <r>   -38.6055     0.0000    10.0000 </r>
       <r>   -38.3596     0.0000    10.0000 </r>
       <r>   -38.1136     0.0000    10.0000 </r>
       <r>   -37.8677     0.0000    10.0000 </r>
       <r>   -37.6218     0.0000    10.0000 </r>
       <r>   -37.3759     0.0000    10.0000 </r>
       <r>   -37.1300     0.0000    10.0000 </r>
       <r>   -36.8841     0.0000    10.0000 </r>
       <r>   -36.6382     0.0000    10.0000 </r>
       <r>   -36.3923     0.0000    10.0000 </r>
       <r>   -36.1464     0.0000    10.0000 </r>
       <r>   -35.9005     0.0000    10.0000 </r>
       <r>   -35.6546     0.0000    10.0000 </r>
       <r>   -35.4087     0.0000    10.0000 </r>
       <r>   -35.1628     0.0000    10.0000 </r>
       <r>   -34.9168     0.0000    10.0000 </r>
       <r>   -34.6709     0.0000    10.0000 </r>
       <r>   -34.4250     0.0000    10.0000 </r>
       <r>   -34.1791     0.0000    10.0000 </r>
       <r>   -33.9332     0.0000    10.0000 </r>
       <r>   -33.6873     0.0000    10.0000 </r>
       <r>   -33.4414     0.0000    10.0000 </r>
       <r>   -33.1955     0.0000    10.0000 </r>
       <r>   -32.9496     0.0000    10.0000 </r>
       <r>   -32.7037     0.0000    10.0000 </r>
       <r>   -32.4578     0.0000    10.0000 </r>
       <r>   -32.2119     0.0000    10.0000 </r>
       <r>   -31.9660     0.0000    10.0000 </r>
       <r>   -31.7200     0.0000    10.0000 </r>
       <r>   -31.4741     0.0000    10.0000 </r>
       <r>   -31.2282     0.0000    10.0000 </r>
       <r>   -30.9823     0.0000    10.0000 </r>
       <r>   -30.7364     0.0000    10.0000 </r>
       <r>   -30.4905     0.0000    10.0000 </r>
       <r>   -30.2446     0.0000    10.0000 </r>
       <r>   -29.9987     0.0000    10.0000 </r>
       <r>   -29.7528     0.0000    10.0000 </r>
       <r>   -29.5069     0.0000    10.0000 </r>
       <r>   -29.2610     0.0000    10.0000 </r>
       <r>   -29.0151     0.0000    10.0000 </r>
       <r>   -28.7692     0.0000    10.0000 </r>
       <r>   -28.5233     0.0000    10.0000 </r>
       <r>   -28.2773     0.0000    10.0000 </r>
       <r>   -28.0314     0.0000    10.0000 </r>
       <r>   -27.7855     0.0000    10.0000 </r>
       <r>   -27.5396     0.0000    10.0000 </r>
       <r>   -27.2937     0.0000    10.0000 </r>
       <r>   -27.0478     0.0000    10.0000 </r>
       <r>   -26.8019     0.0000    10.0000 </r>
       <r>   -26.5560     0.0000    10.0000 </r>
       <r>   -26.3101     0.0000    10.0000 </r>
       <r>   -26.0642     0.0000    10.0000 </r>
       <r>   -25.8183     0.0000    10.0000 </r>
       <r>   -25.5724     0.0000    10.0000 </r>
       <r>   -25.3265     0.0000    10.0000 </r>
       <r>   -25.0805     0.0000    10.0000 </r>
       <r>   -24.8346     0.0000    10.0000 </r>
       <r>   -24.5887     0.0000    10.0000 </r>
       <r>   -24.3428     0.0000    10.0000 </r>
       <r>   -24.0969     0.0000    10.0000 </r>
       <r>   -23.8510     0.0000    10.0000 </r>
       <r>   -23.6051     0.0000    10.0000 </r>
       <r>   -23.3592     0.0000    10.0000 </r>
       <r>   -23.1133     0.0000    10.0000 </r>
       <r>   -22.8674     0.0000    10.0000 </r>
       <r>   -22.6215     0.0000    10.0000 </r>
       <r>   -22.3756     0.0000    10.0000 </r>
       <r>   -22.1297     0.0000    10.0000 </r>
       <r>   -21.8838     0.0000    10.0000 </r>
       <r>   -21.6378     0.0000    10.0000 </r>
       <r>   -21.3919     0.0000    10.0000 </r>
       <r>   -21.1460     0.0000    10.0000 </r>
       <r>   -20.9001     0.0000    10.0000 </r>
       <r>   -20.6542     0.0000    10.0000 </r>
       <r>   -20.4083     0.0000    10.0000 </r>
       <r>   -20.1624     0.0000    10.0000 </r>
       <r>   -19.9165     0.0000    10.0000 </r>
       <r>   -19.6706     0.0000    10.0000 </r>
       <r>   -19.4247     0.0000    10.0000 </r>
       <r>   -19.1788     0.0000    10.0000 </r>
       <r>   -18.9329     0.0000    10.0000 </r>
       <r>   -18.6870     0.0000    10.0000 </r>
       <r>   -18.4410     0.0000    10.0000 </r>
       <r>   -18.1951     0.0000    10.0000 </r>
       <r>   -17.9492     0.0000    10.0000 </r>
       <r>   -17.7033     0.0000    10.0000 </r>
       <r>   -17.4574     0.0000    10.0000 </r>
       <r>   -17.2115     0.0000    10.0000 </r>
       <r>   -16.9656     0.0000    10.0000 </r>
       <r>   -16.7197     0.0000    10.0000 </r>
       <r>   -16.4738     0.0000    10.0000 </r>
       <r>   -16.2279     0.0000    10.0000 </r>
       <r>   -15.9820     0.0000    10.0000 </r>
       <r>   -15.7361     0.0000    10.0000 </r>
       <r>   -15.4902     0.0000    10.0000 </r>
       <r>   -15.2442     0.0000    10.0000 </r>
       <r>   -14.9983     0.0000    10.0000 </r>
       <r>   -14.7524     0.0000    10.0000 </r>
       <r>   -14.5065     0.0000    10.0000 </r>
       <r>   -14.2606     0.0000    10.0000 </r>
       <r>   -14.0147     0.0000    10.0000 </r>
       <r>   -13.7688     0.0000    10.0000 </r>
       <r>   -13.5229     0.0000    10.0000 </r>
       <r>   -13.2770     0.0381    10.0094 </r>
       <r>   -13.0311     5.8233    11.4414 </r>
       <r>   -12.7852     2.2717    12.0000 </r>
       <r>   -12.5393     0.0000    12.0000 </r>
       <r>   -12.2934     0.0000    12.0000 </r>
       <r>   -12.0475     0.0000    12.0000 </r>
       <r>   -11.8015     0.0000    12.0000 </r>
       <r>   -11.5556     0.0000    12.0000 </r>
       <r>   -11.3097     0.0000    12.0000 </r>
       <r>   -11.0638     0.0000    12.0000 </r>
       <r>   -10.8179     0.0000    12.0000 </r>
       <r>   -10.5720     0.0000    12.0000 </r>
       <r>   -10.3261     0.0000    12.0000 </r>
       <r>   -10.0802     0.0000    12.0000 </r>
       <r>    -9.8343     0.0000    12.0000 </r>
       <r>    -9.5884     0.0000    12.0000 </r>
       <r>    -9.3425     0.0000    12.0000 </r>
       <r>    -9.0966     0.0000    12.0000 </r>
       <r>    -8.8507     0.0000    12.0000 </r>
       <r>    -8.6047     0.0000    12.0000 </r>
       <r>    -8.3588     0.0000    12.0000 </r>
       <r>    -8.1129     0.0000    12.0000 </r>
       <r>    -7.8670     0.0000    12.0000 </r>
       <r>    -7.6211     0.0002    12.0000 </r>
       <r>    -7.3752     1.6870    12.4149 </r>
       <r>    -7.1293     4.0466    13.4100 </r>
       <r>    -6.8834     2.2686    13.9678 </r>
       <r>    -6.6375     0.1308    14.0000 </r>
       <r>    -6.3916     0.0000    14.0000 </r>
       <r>    -6.1457     0.0000    14.0000 </r>
       <r>    -5.8998     0.0000    14.0000 </r>
       <r>    -5.6539     0.0000    14.0000 </r>
       <r>    -5.4080     0.0000    14.0000 </r>
       <r>    -5.1620     0.0000    14.0000 </r>
       <r>    -4.9161     0.0000    14.0000 </r>
       <r>    -4.6702     0.0000    14.0000 </r>
       <r>    -4.4243     0.0000    14.0000 </r>
       <r>    -4.1784     0.0000    14.0000 </r>
       <r>    -3.9325     0.0000    14.0000 </r>
       <r>    -3.6866     0.0000    14.0000 </r>
       <r>    -3.4407     0.0000    14.0000 </r>
       <r>    -3.1948     0.0000    14.0000 </r>
       <r>    -2.9489     0.0000    14.0000 </r>
       <r>    -2.7030     0.0000    14.0000 </r>
       <r>    -2.4571     0.0000    14.0000 </r>
       <r>    -2.2112     0.0000    14.0000 </r>
       <r>    -1.9652     0.0000    14.0000 </r>
       <r>    -1.7193     0.0000    14.0000 </r>
       <r>    -1.4734     0.0000    14.0000 </r>
       <r>    -1.2275     0.0000    14.0000 </r>
       <r>    -0.9816     0.0000    14.0000 </r>
       <r>    -0.7357     0.0042    14.0010 </r>
       <r>    -0.4898     1.0664    14.2633 </r>
       <r>    -0.2439     2.7607    14.9421 </r>
       <r>     0.0020     2.9495    15.6674 </r>
       <r>     0.2479     1.9975    16.1586 </r>
       <r>     0.4938     4.0974    17.1662 </r>
       <r>     0.7397     3.8455    18.1119 </r>
       <r>     0.9856     5.5813    19.4844 </r>
       <r>     1.2316     2.4680    20.0913 </r>
       <r>     1.4775     1.6592    20.4993 </r>
       <r>     1.7234     3.4933    21.3583 </r>
       <r>     1.9693     3.4157    22.1982 </r>
       <r>     2.2152     2.8668    22.9032 </r>
       <r>     2.4611     2.7110    23.5699 </r>
       <r>     2.7070     1.9764    24.0559 </r>
       <r>     2.9529     4.2920    25.1113 </r>
       <r>     3.1988     3.0809    25.8689 </r>
       <r>     3.4447     0.9582    26.1046 </r>
       <r>     3.6906     3.3675    26.9326 </r>
       <r>     3.9365     4.1434    27.9515 </r>
       <r>     4.1824     0.1971    28.0000 </r>
       <r>     4.4283     0.0000    28.0000 </r>
       <r>     4.6743     0.0000    28.0000 </r>
       <r>     4.9202     0.0000    28.0000 </r>
       <r>     5.1661     0.0000    28.0000 </r>
       <r>     5.4120     0.0000    28.0000 </r>
       <r>     5.6579     0.0000    28.0000 </r>
       <r>     5.9038     0.0000    28.0000 </r>
       <r>     6.1497     0.0496    28.0122 </r>
       <r>     6.3956     0.4908    28.1329 </r>
       <r>     6.6415     1.8319    28.5834 </r>
       <r>     6.8874     2.6258    29.2291 </r>
       <r>     7.1333     3.1378    30.0007 </r>
       <r>     7.3792     6.7804    31.6680 </r>
       <r>     7.6251     2.9742    32.3994 </r>
       <r>     7.8711     3.2989    33.2107 </r>
       <r>     8.1170     6.0417    34.6964 </r>
       <r>     8.3629     4.7514    35.8648 </r>
       <r>     8.6088     0.5996    36.0122 </r>
       <r>     8.8547     0.0895    36.0342 </r>
       <r>     9.1006     0.3680    36.1247 </r>
       <r>     9.3465     0.7997    36.3214 </r>
       <r>     9.5924     1.6884    36.7365 </r>
       <r>     9.8383     2.5969    37.3751 </r>
       <r>    10.0842     2.5499    38.0022 </r>
       <r>    10.3301     1.8469    38.4564 </r>
       <r>    10.5760     3.0219    39.1995 </r>
       <r>    10.8219     1.9441    39.6776 </r>
       <r>    11.0678     1.3728    40.0151 </r>
       <r>    11.3138     1.5128    40.3871 </r>
       <r>    11.5597     1.7397    40.8149 </r>
       <r>    11.8056     3.2957    41.6254 </r>
       <r>    12.0515     4.7792    42.8006 </r>
       <r>    12.2974     3.3418    43.6224 </r>
       <r>    12.5433     2.2409    44.1734 </r>
       <r>    12.7892     1.8274    44.6228 </r>
       <r>    13.0351     2.4153    45.2167 </r>
       <r>    13.2810     2.8910    45.9277 </r>
       <r>    13.5269     1.1310    46.2058 </r>
       <r>    13.7728     1.7399    46.6336 </r>
       <r>    14.0187     2.6185    47.2775 </r>
       <r>    14.2646     1.2514    47.5852 </r>
       <r>    14.5106     0.2746    47.6528 </r>
       <r>    14.7565     0.7200    47.8298 </r>
       <r>    15.0024     0.3977    47.9276 </r>
       <r>    15.2483     0.2663    47.9931 </r>
       <r>    15.4942     0.0049    47.9943 </r>
       <r>    15.7401     0.0231    48.0000 </r>
       <r>    15.9860     0.0000    48.0000 </r>
       <r>    16.2319     0.0000    48.0000 </r>
       <r>    16.4778     0.0000    48.0000 </r>
       <r>    16.7237     0.0000    48.0000 </r>
       <r>    16.9696     0.0000    48.0000 </r>
       <r>    17.2155     0.0000    48.0000 </r>
       <r>    17.4614     0.0000    48.0000 </r>
       <r>    17.7074     0.0000    48.0000 </r>
       <r>    17.9533     0.0000    48.0000 </r>
       <r>    18.1992     0.0000    48.0000 </r>
       <r>    18.4451     0.0000    48.0000 </r>
       <r>    18.6910     0.0000    48.0000 </r>
       <r>    18.9369     0.0000    48.0000 </r>
      </set>
     </set>
    </array>
   </total>
  </dos>
 </calculation>
 <structure name="finalpos" >
  <crystal>
   <varray name="basis" >
    <v>       3.91190908      -0.01914762       0.00000000 </v>
    <v>       0.02740394       5.60916745       0.00000000 </v>
    <v>       0.00000000       0.00000000       5.59781005 </v>
   </varray>
   <i name="volume">    122.83318143 </i>
   <varray name="rec_basis" >
    <v>       0.25562355      -0.00124886       0.00000000 </v>
    <v>       0.00087260       0.17827531       0.00000000 </v>
    <v>       0.00000000       0.00000000       0.17864129 </v>
   </varray>
  </crystal>
  <varray name="positions" >
   <v>       0.10625117       0.72555094       0.71296297 </v>
   <v>       0.10625117       0.22555094       0.28703703 </v>
   <v>       0.60628375       0.43796120       0.54492430 </v>
   <v>       0.60628375       0.93796120       0.45507570 </v>
   <v>       0.60627193       0.73538475       0.74753018 </v>
   <v>       0.60627193       0.23538475       0.25246982 </v>
   <v>       0.10628253       0.74023893       0.24058895 </v>
   <v>       0.10628253       0.24023893       0.75941105 </v>
   <v>       0.60628161       0.02450618       0.96006925 </v>
   <v>       0.60628161       0.52450618       0.03993075 </v>
  </varray>
 </structure>
</modeling>
