 120 120   0   0
  0.1228332E+02  0.1173587E-08  0.1121847E-08  0.1119562E-08  0.5000000E-15
  1.000000000000000E-004
  CAR 
 unknown system                          
     16.72919688    -54.73232431  301      4.40208448      1.00000000
    -54.732  0.0000E+00  0.0000E+00  0.0000E+00  0.0000E+00
    -54.494  0.0000E+00  0.0000E+00  0.0000E+00  0.0000E+00
    -54.256  0.0000E+00  0.0000E+00  0.0000E+00  0.0000E+00
    -54.018  0.0000E+00  0.0000E+00  0.0000E+00  0.0000E+00
    -53.780  0.0000E+00  0.0000E+00  0.0000E+00  0.0000E+00
    -53.541  0.0000E+00  0.0000E+00  0.0000E+00  0.0000E+00
    -53.303  0.0000E+00  0.0000E+00  0.0000E+00  0.0000E+00
    -53.065  0.0000E+00  0.0000E+00  0.0000E+00  0.0000E+00
    -52.827  0.0000E+00  0.0000E+00  0.0000E+00  0.0000E+00
    -52.588  0.0000E+00  0.0000E+00  0.0000E+00  0.0000E+00
    -52.350  0.0000E+00  0.0000E+00  0.0000E+00  0.0000E+00
    -52.112  0.0000E+00  0.0000E+00  0.0000E+00  0.0000E+00
    -51.874  0.0000E+00  0.0000E+00  0.0000E+00  0.0000E+00
    -51.636  0.2127E-03  0.0000E+00  0.5066E-04  0.0000E+00
    -51.397  0.9758E+02  0.0000E+00  0.2325E+02  0.0000E+00
    -51.159  0.3169E+01  0.0000E+00  0.2400E+02  0.0000E+00
    -50.921  0.0000E+00  0.0000E+00  0.2400E+02  0.0000E+00
    -50.683  0.0000E+00  0.0000E+00  0.2400E+02  0.0000E+00
    -50.445  0.1897E-09  0.0000E+00  0.2400E+02  0.0000E+00
    -50.206  0.4146E+02  0.0000E+00  0.3388E+02  0.0000E+00
    -49.968  0.1323E+03  0.0000E+00  0.6538E+02  0.0000E+00
    -49.730  0.2778E+02  0.0000E+00  0.7200E+02  0.0000E+00
    -49.492  0.0000E+00  0.0000E+00  0.7200E+02  0.0000E+00
    -49.254  0.0000E+00  0.0000E+00  0.7200E+02  0.0000E+00
    -49.015  0.0000E+00  0.0000E+00  0.7200E+02  0.0000E+00
    -48.777  0.0000E+00  0.0000E+00  0.7200E+02  0.0000E+00
    -48.539  0.0000E+00  0.0000E+00  0.7200E+02  0.0000E+00
    -48.301  0.0000E+00  0.0000E+00  0.7200E+02  0.0000E+00
    -48.063  0.0000E+00  0.0000E+00  0.7200E+02  0.0000E+00
    -47.824  0.0000E+00  0.0000E+00  0.7200E+02  0.0000E+00
    -47.586  0.0000E+00  0.0000E+00  0.7200E+02  0.0000E+00
    -47.348  0.0000E+00  0.0000E+00  0.7200E+02  0.0000E+00
    -47.110  0.0000E+00  0.0000E+00  0.7200E+02  0.0000E+00
    -46.872  0.0000E+00  0.5433E-01  0.7200E+02  0.1294E-01
    -46.633  0.0000E+00  0.1006E+03  0.7200E+02  0.2397E+02
    -46.395  0.0000E+00  0.9363E+02  0.7200E+02  0.4627E+02
    -46.157  0.0000E+00  0.1080E+03  0.7200E+02  0.7200E+02
    -45.919  0.0000E+00  0.0000E+00  0.7200E+02  0.7200E+02
    -45.681  0.0000E+00  0.0000E+00  0.7200E+02  0.7200E+02
    -45.442  0.0000E+00  0.0000E+00  0.7200E+02  0.7200E+02
    -45.204  0.0000E+00  0.0000E+00  0.7200E+02  0.7200E+02
    -44.966  0.0000E+00  0.0000E+00  0.7200E+02  0.7200E+02
    -44.728  0.0000E+00  0.0000E+00  0.7200E+02  0.7200E+02
    -44.490  0.0000E+00  0.0000E+00  0.7200E+02  0.7200E+02
    -44.251  0.0000E+00  0.0000E+00  0.7200E+02  0.7200E+02
    -44.013  0.0000E+00  0.0000E+00  0.7200E+02  0.7200E+02
    -43.775  0.0000E+00  0.0000E+00  0.7200E+02  0.7200E+02
    -43.537  0.0000E+00  0.0000E+00  0.7200E+02  0.7200E+02
    -43.298  0.0000E+00  0.0000E+00  0.7200E+02  0.7200E+02
    -43.060  0.0000E+00  0.0000E+00  0.7200E+02  0.7200E+02
    -42.822  0.0000E+00  0.0000E+00  0.7200E+02  0.7200E+02
    -42.584  0.0000E+00  0.0000E+00  0.7200E+02  0.7200E+02
    -42.346  0.0000E+00  0.0000E+00  0.7200E+02  0.7200E+02
    -42.107  0.0000E+00  0.0000E+00  0.7200E+02  0.7200E+02
    -41.869  0.0000E+00  0.0000E+00  0.7200E+02  0.7200E+02
    -41.631  0.0000E+00  0.0000E+00  0.7200E+02  0.7200E+02
    -41.393  0.0000E+00  0.0000E+00  0.7200E+02  0.7200E+02
    -41.155  0.0000E+00  0.0000E+00  0.7200E+02  0.7200E+02
    -40.916  0.0000E+00  0.0000E+00  0.7200E+02  0.7200E+02
    -40.678  0.1895E-03  0.5684E-04  0.7200E+02  0.7200E+02
    -40.440  0.9855E+02  0.9692E+02  0.9548E+02  0.9509E+02
    -40.202  0.1028E+03  0.1044E+03  0.1200E+03  0.1200E+03
    -39.964  0.1943E+00  0.1951E+00  0.1200E+03  0.1200E+03
    -39.725  0.0000E+00  0.0000E+00  0.1200E+03  0.1200E+03
    -39.487  0.0000E+00  0.0000E+00  0.1200E+03  0.1200E+03
    -39.249  0.0000E+00  0.0000E+00  0.1200E+03  0.1200E+03
    -39.011  0.0000E+00  0.0000E+00  0.1200E+03  0.1200E+03
    -38.773  0.0000E+00  0.0000E+00  0.1200E+03  0.1200E+03
    -38.534  0.0000E+00  0.0000E+00  0.1200E+03  0.1200E+03
    -38.296  0.0000E+00  0.0000E+00  0.1200E+03  0.1200E+03
    -38.058  0.0000E+00  0.0000E+00  0.1200E+03  0.1200E+03
    -37.820  0.0000E+00  0.0000E+00  0.1200E+03  0.1200E+03
    -37.582  0.0000E+00  0.0000E+00  0.1200E+03  0.1200E+03
    -37.343  0.0000E+00  0.0000E+00  0.1200E+03  0.1200E+03
    -37.105  0.0000E+00  0.0000E+00  0.1200E+03  0.1200E+03
    -36.867  0.0000E+00  0.0000E+00  0.1200E+03  0.1200E+03
    -36.629  0.0000E+00  0.0000E+00  0.1200E+03  0.1200E+03
    -36.391  0.0000E+00  0.0000E+00  0.1200E+03  0.1200E+03
    -36.152  0.0000E+00  0.0000E+00  0.1200E+03  0.1200E+03
    -35.914  0.0000E+00  0.0000E+00  0.1200E+03  0.1200E+03
    -35.676  0.0000E+00  0.0000E+00  0.1200E+03  0.1200E+03
    -35.438  0.0000E+00  0.0000E+00  0.1200E+03  0.1200E+03
    -35.200  0.0000E+00  0.0000E+00  0.1200E+03  0.1200E+03
    -34.961  0.0000E+00  0.0000E+00  0.1200E+03  0.1200E+03
    -34.723  0.0000E+00  0.0000E+00  0.1200E+03  0.1200E+03
    -34.485  0.0000E+00  0.0000E+00  0.1200E+03  0.1200E+03
    -34.247  0.0000E+00  0.0000E+00  0.1200E+03  0.1200E+03
    -34.008  0.0000E+00  0.0000E+00  0.1200E+03  0.1200E+03
    -33.770  0.0000E+00  0.0000E+00  0.1200E+03  0.1200E+03
    -33.532  0.0000E+00  0.0000E+00  0.1200E+03  0.1200E+03
    -33.294  0.0000E+00  0.0000E+00  0.1200E+03  0.1200E+03
    -33.056  0.0000E+00  0.0000E+00  0.1200E+03  0.1200E+03
    -32.817  0.0000E+00  0.0000E+00  0.1200E+03  0.1200E+03
    -32.579  0.0000E+00  0.0000E+00  0.1200E+03  0.1200E+03
    -32.341  0.0000E+00  0.0000E+00  0.1200E+03  0.1200E+03
    -32.103  0.0000E+00  0.0000E+00  0.1200E+03  0.1200E+03
    -31.865  0.0000E+00  0.0000E+00  0.1200E+03  0.1200E+03
    -31.626  0.0000E+00  0.0000E+00  0.1200E+03  0.1200E+03
    -31.388  0.0000E+00  0.0000E+00  0.1200E+03  0.1200E+03
    -31.150  0.0000E+00  0.0000E+00  0.1200E+03  0.1200E+03
    -30.912  0.0000E+00  0.0000E+00  0.1200E+03  0.1200E+03
    -30.674  0.0000E+00  0.0000E+00  0.1200E+03  0.1200E+03
    -30.435  0.0000E+00  0.0000E+00  0.1200E+03  0.1200E+03
    -30.197  0.0000E+00  0.0000E+00  0.1200E+03  0.1200E+03
    -29.959  0.0000E+00  0.0000E+00  0.1200E+03  0.1200E+03
    -29.721  0.0000E+00  0.0000E+00  0.1200E+03  0.1200E+03
    -29.483  0.0000E+00  0.0000E+00  0.1200E+03  0.1200E+03
    -29.244  0.0000E+00  0.0000E+00  0.1200E+03  0.1200E+03
    -29.006  0.0000E+00  0.0000E+00  0.1200E+03  0.1200E+03
    -28.768  0.0000E+00  0.0000E+00  0.1200E+03  0.1200E+03
    -28.530  0.0000E+00  0.0000E+00  0.1200E+03  0.1200E+03
    -28.292  0.0000E+00  0.0000E+00  0.1200E+03  0.1200E+03
    -28.053  0.0000E+00  0.0000E+00  0.1200E+03  0.1200E+03
    -27.815  0.0000E+00  0.0000E+00  0.1200E+03  0.1200E+03
    -27.577  0.0000E+00  0.0000E+00  0.1200E+03  0.1200E+03
    -27.339  0.0000E+00  0.0000E+00  0.1200E+03  0.1200E+03
    -27.101  0.0000E+00  0.0000E+00  0.1200E+03  0.1200E+03
    -26.862  0.0000E+00  0.0000E+00  0.1200E+03  0.1200E+03
    -26.624  0.0000E+00  0.0000E+00  0.1200E+03  0.1200E+03
    -26.386  0.0000E+00  0.0000E+00  0.1200E+03  0.1200E+03
    -26.148  0.0000E+00  0.0000E+00  0.1200E+03  0.1200E+03
    -25.910  0.0000E+00  0.0000E+00  0.1200E+03  0.1200E+03
    -25.671  0.0000E+00  0.0000E+00  0.1200E+03  0.1200E+03
    -25.433  0.0000E+00  0.0000E+00  0.1200E+03  0.1200E+03
    -25.195  0.0000E+00  0.0000E+00  0.1200E+03  0.1200E+03
    -24.957  0.0000E+00  0.0000E+00  0.1200E+03  0.1200E+03
    -24.718  0.0000E+00  0.0000E+00  0.1200E+03  0.1200E+03
    -24.480  0.0000E+00  0.0000E+00  0.1200E+03  0.1200E+03
    -24.242  0.0000E+00  0.0000E+00  0.1200E+03  0.1200E+03
    -24.004  0.0000E+00  0.0000E+00  0.1200E+03  0.1200E+03
    -23.766  0.0000E+00  0.0000E+00  0.1200E+03  0.1200E+03
    -23.527  0.0000E+00  0.0000E+00  0.1200E+03  0.1200E+03
    -23.289  0.0000E+00  0.0000E+00  0.1200E+03  0.1200E+03
    -23.051  0.0000E+00  0.0000E+00  0.1200E+03  0.1200E+03
    -22.813  0.0000E+00  0.0000E+00  0.1200E+03  0.1200E+03
    -22.575  0.0000E+00  0.0000E+00  0.1200E+03  0.1200E+03
    -22.336  0.0000E+00  0.0000E+00  0.1200E+03  0.1200E+03
    -22.098  0.0000E+00  0.0000E+00  0.1200E+03  0.1200E+03
    -21.860  0.0000E+00  0.0000E+00  0.1200E+03  0.1200E+03
    -21.622  0.0000E+00  0.0000E+00  0.1200E+03  0.1200E+03
    -21.384  0.0000E+00  0.0000E+00  0.1200E+03  0.1200E+03
    -21.145  0.0000E+00  0.0000E+00  0.1200E+03  0.1200E+03
    -20.907  0.0000E+00  0.0000E+00  0.1200E+03  0.1200E+03
    -20.669  0.0000E+00  0.0000E+00  0.1200E+03  0.1200E+03
    -20.431  0.0000E+00  0.0000E+00  0.1200E+03  0.1200E+03
    -20.193  0.0000E+00  0.0000E+00  0.1200E+03  0.1200E+03
    -19.954  0.0000E+00  0.0000E+00  0.1200E+03  0.1200E+03
    -19.716  0.0000E+00  0.0000E+00  0.1200E+03  0.1200E+03
    -19.478  0.0000E+00  0.0000E+00  0.1200E+03  0.1200E+03
    -19.240  0.0000E+00  0.0000E+00  0.1200E+03  0.1200E+03
    -19.002  0.0000E+00  0.0000E+00  0.1200E+03  0.1200E+03
    -18.763  0.0000E+00  0.0000E+00  0.1200E+03  0.1200E+03
    -18.525  0.0000E+00  0.0000E+00  0.1200E+03  0.1200E+03
    -18.287  0.0000E+00  0.0000E+00  0.1200E+03  0.1200E+03
    -18.049  0.0000E+00  0.0000E+00  0.1200E+03  0.1200E+03
    -17.811  0.0000E+00  0.0000E+00  0.1200E+03  0.1200E+03
    -17.572  0.0000E+00  0.0000E+00  0.1200E+03  0.1200E+03
    -17.334  0.0000E+00  0.0000E+00  0.1200E+03  0.1200E+03
    -17.096  0.0000E+00  0.0000E+00  0.1200E+03  0.1200E+03
    -16.858  0.0000E+00  0.0000E+00  0.1200E+03  0.1200E+03
    -16.620  0.0000E+00  0.0000E+00  0.1200E+03  0.1200E+03
    -16.381  0.0000E+00  0.0000E+00  0.1200E+03  0.1200E+03
    -16.143  0.0000E+00  0.0000E+00  0.1200E+03  0.1200E+03
    -15.905  0.0000E+00  0.0000E+00  0.1200E+03  0.1200E+03
    -15.667  0.0000E+00  0.0000E+00  0.1200E+03  0.1200E+03
    -15.428  0.0000E+00  0.0000E+00  0.1200E+03  0.1200E+03
    -15.190  0.0000E+00  0.0000E+00  0.1200E+03  0.1200E+03
    -14.952  0.0000E+00  0.0000E+00  0.1200E+03  0.1200E+03
    -14.714  0.0000E+00  0.0000E+00  0.1200E+03  0.1200E+03
    -14.476  0.0000E+00  0.0000E+00  0.1200E+03  0.1200E+03
    -14.237  0.0000E+00  0.0000E+00  0.1200E+03  0.1200E+03
    -13.999  0.0000E+00  0.0000E+00  0.1200E+03  0.1200E+03
    -13.761  0.1000E-08  0.0000E+00  0.1200E+03  0.1200E+03
    -13.523  0.8461E+01  0.1554E-15  0.1220E+03  0.1200E+03
    -13.285  0.5993E+02  0.2925E+00  0.1363E+03  0.1201E+03
    -13.046  0.3236E+02  0.6656E+02  0.1440E+03  0.1359E+03
    -12.808  0.3262E-03  0.3390E+02  0.1440E+03  0.1440E+03
    -12.570  0.0000E+00  0.4173E-04  0.1440E+03  0.1440E+03
    -12.332  0.0000E+00  0.0000E+00  0.1440E+03  0.1440E+03
    -12.094  0.0000E+00  0.0000E+00  0.1440E+03  0.1440E+03
    -11.855  0.0000E+00  0.0000E+00  0.1440E+03  0.1440E+03
    -11.617  0.0000E+00  0.0000E+00  0.1440E+03  0.1440E+03
    -11.379  0.0000E+00  0.0000E+00  0.1440E+03  0.1440E+03
    -11.141  0.0000E+00  0.0000E+00  0.1440E+03  0.1440E+03
    -10.903  0.0000E+00  0.0000E+00  0.1440E+03  0.1440E+03
    -10.664  0.0000E+00  0.0000E+00  0.1440E+03  0.1440E+03
    -10.426  0.0000E+00  0.0000E+00  0.1440E+03  0.1440E+03
    -10.188  0.0000E+00  0.0000E+00  0.1440E+03  0.1440E+03
     -9.950  0.0000E+00  0.0000E+00  0.1440E+03  0.1440E+03
     -9.712  0.0000E+00  0.0000E+00  0.1440E+03  0.1440E+03
     -9.473  0.0000E+00  0.0000E+00  0.1440E+03  0.1440E+03
     -9.235  0.0000E+00  0.0000E+00  0.1440E+03  0.1440E+03
     -8.997  0.0000E+00  0.0000E+00  0.1440E+03  0.1440E+03
     -8.759  0.0000E+00  0.0000E+00  0.1440E+03  0.1440E+03
     -8.521  0.0000E+00  0.0000E+00  0.1440E+03  0.1440E+03
     -8.282  0.0000E+00  0.0000E+00  0.1440E+03  0.1440E+03
     -8.044  0.0000E+00  0.0000E+00  0.1440E+03  0.1440E+03
     -7.806  0.1022E-01  0.1554E-15  0.1440E+03  0.1440E+03
     -7.568  0.1816E+02  0.1178E+00  0.1483E+03  0.1440E+03
     -7.330  0.4795E+02  0.2862E+02  0.1597E+03  0.1508E+03
     -7.091  0.3371E+02  0.4937E+02  0.1678E+03  0.1626E+03
     -6.853  0.9209E+00  0.2195E+02  0.1680E+03  0.1678E+03
     -6.615  0.0000E+00  0.7012E+00  0.1680E+03  0.1680E+03
     -6.377  0.0000E+00  0.0000E+00  0.1680E+03  0.1680E+03
     -6.138  0.0000E+00  0.0000E+00  0.1680E+03  0.1680E+03
     -5.900  0.0000E+00  0.0000E+00  0.1680E+03  0.1680E+03
     -5.662  0.0000E+00  0.0000E+00  0.1680E+03  0.1680E+03
     -5.424  0.0000E+00  0.0000E+00  0.1680E+03  0.1680E+03
     -5.186  0.0000E+00  0.0000E+00  0.1680E+03  0.1680E+03
     -4.947  0.0000E+00  0.0000E+00  0.1680E+03  0.1680E+03
     -4.709  0.0000E+00  0.0000E+00  0.1680E+03  0.1680E+03
     -4.471  0.0000E+00  0.0000E+00  0.1680E+03  0.1680E+03
     -4.233  0.0000E+00  0.0000E+00  0.1680E+03  0.1680E+03
     -3.995  0.0000E+00  0.0000E+00  0.1680E+03  0.1680E+03
     -3.756  0.0000E+00  0.0000E+00  0.1680E+03  0.1680E+03
     -3.518  0.0000E+00  0.0000E+00  0.1680E+03  0.1680E+03
     -3.280  0.0000E+00  0.0000E+00  0.1680E+03  0.1680E+03
     -3.042  0.0000E+00  0.0000E+00  0.1680E+03  0.1680E+03
     -2.804  0.0000E+00  0.0000E+00  0.1680E+03  0.1680E+03
     -2.565  0.0000E+00  0.0000E+00  0.1680E+03  0.1680E+03
     -2.327  0.0000E+00  0.0000E+00  0.1680E+03  0.1680E+03
     -2.089  0.1798E-05  0.0000E+00  0.1680E+03  0.1680E+03
     -1.851  0.7699E+01  0.0000E+00  0.1698E+03  0.1680E+03
     -1.613  0.5797E+02  0.0000E+00  0.1836E+03  0.1680E+03
     -1.374  0.4192E+02  0.0000E+00  0.1936E+03  0.1680E+03
     -1.136  0.3241E+02  0.0000E+00  0.2013E+03  0.1680E+03
     -0.898  0.5367E+02  0.1732E-08  0.2141E+03  0.1680E+03
     -0.660  0.5346E+02  0.1712E+01  0.2269E+03  0.1684E+03
     -0.422  0.6678E+02  0.1707E+02  0.2428E+03  0.1725E+03
     -0.183  0.5466E+02  0.3873E+02  0.2558E+03  0.1817E+03
      0.055  0.3435E+02  0.3533E+02  0.2640E+03  0.1901E+03
      0.293  0.5500E+02  0.2253E+02  0.2771E+03  0.1955E+03
      0.531  0.4785E+02  0.4864E+02  0.2885E+03  0.2071E+03
      0.769  0.3250E+02  0.4845E+02  0.2962E+03  0.2186E+03
      1.008  0.4982E+02  0.6839E+02  0.3081E+03  0.2349E+03
      1.246  0.4874E+02  0.2660E+02  0.3197E+03  0.2412E+03
      1.484  0.5445E+02  0.2276E+02  0.3327E+03  0.2467E+03
      1.722  0.6193E+02  0.3795E+02  0.3474E+03  0.2557E+03
      1.960  0.3431E+02  0.4603E+02  0.3556E+03  0.2667E+03
      2.199  0.2455E+02  0.2963E+02  0.3614E+03  0.2737E+03
      2.437  0.1348E+02  0.3581E+02  0.3647E+03  0.2822E+03
      2.675  0.3761E+02  0.2534E+02  0.3736E+03  0.2883E+03
      2.913  0.3861E+02  0.4570E+02  0.3828E+03  0.2992E+03
      3.152  0.3024E+02  0.4178E+02  0.3900E+03  0.3091E+03
      3.390  0.4369E+02  0.1475E+02  0.4004E+03  0.3126E+03
      3.628  0.5334E+02  0.3011E+02  0.4131E+03  0.3198E+03
      3.866  0.4750E+02  0.5722E+02  0.4244E+03  0.3334E+03
      4.104  0.2954E+02  0.1075E+02  0.4315E+03  0.3360E+03
      4.343  0.2202E+01  0.1154E-04  0.4320E+03  0.3360E+03
      4.581  0.0000E+00  0.0000E+00  0.4320E+03  0.3360E+03
      4.819  0.0000E+00  0.0000E+00  0.4320E+03  0.3360E+03
      5.057  0.0000E+00  0.0000E+00  0.4320E+03  0.3360E+03
      5.295  0.0000E+00  0.0000E+00  0.4320E+03  0.3360E+03
      5.534  0.0000E+00  0.0000E+00  0.4320E+03  0.3360E+03
      5.772  0.0000E+00  0.0000E+00  0.4320E+03  0.3360E+03
      6.010  0.0000E+00  0.3248E-02  0.4320E+03  0.3360E+03
      6.248  0.0000E+00  0.1864E+01  0.4320E+03  0.3364E+03
      6.486  0.0000E+00  0.1336E+02  0.4320E+03  0.3396E+03
      6.725  0.0000E+00  0.2690E+02  0.4320E+03  0.3460E+03
      6.963  0.0000E+00  0.2502E+02  0.4320E+03  0.3520E+03
      7.201  0.6386E-05  0.5703E+02  0.4320E+03  0.3656E+03
      7.439  0.1551E+00  0.7616E+02  0.4320E+03  0.3837E+03
      7.677  0.7151E+00  0.2953E+02  0.4322E+03  0.3908E+03
      7.916  0.1467E+01  0.4111E+02  0.4326E+03  0.4005E+03
      8.154  0.4807E+01  0.7751E+02  0.4337E+03  0.4190E+03
      8.392  0.6979E+01  0.5099E+02  0.4354E+03  0.4312E+03
      8.630  0.1574E+02  0.3954E+01  0.4391E+03  0.4321E+03
      8.868  0.2383E+02  0.1110E+01  0.4448E+03  0.4324E+03
      9.107  0.1967E+02  0.4462E+01  0.4495E+03  0.4334E+03
      9.345  0.1942E+02  0.1055E+02  0.4541E+03  0.4359E+03
      9.583  0.1992E+02  0.2078E+02  0.4588E+03  0.4409E+03
      9.821  0.2439E+02  0.2874E+02  0.4647E+03  0.4477E+03
     10.059  0.2210E+02  0.3011E+02  0.4699E+03  0.4549E+03
     10.298  0.1782E+02  0.3015E+02  0.4742E+03  0.4621E+03
     10.536  0.2461E+02  0.2581E+02  0.4800E+03  0.4682E+03
     10.774  0.1522E+02  0.2596E+02  0.4837E+03  0.4744E+03
     11.012  0.2704E+02  0.2450E+02  0.4901E+03  0.4803E+03
     11.250  0.4541E+02  0.1018E+02  0.5009E+03  0.4827E+03
     11.489  0.4872E+02  0.2570E+02  0.5125E+03  0.4888E+03
     11.727  0.3549E+02  0.3002E+02  0.5210E+03  0.4960E+03
     11.965  0.2025E+02  0.5679E+02  0.5258E+03  0.5095E+03
     12.203  0.2085E+02  0.4453E+02  0.5308E+03  0.5201E+03
     12.442  0.2977E+02  0.2691E+02  0.5379E+03  0.5265E+03
     12.680  0.3276E+02  0.2368E+02  0.5457E+03  0.5321E+03
     12.918  0.1884E+02  0.2768E+02  0.5501E+03  0.5387E+03
     13.156  0.7706E+01  0.3300E+02  0.5520E+03  0.5466E+03
     13.394  0.9286E-01  0.1857E+02  0.5520E+03  0.5510E+03
     13.633  0.0000E+00  0.4134E+01  0.5520E+03  0.5520E+03
     13.871  0.0000E+00  0.4549E-05  0.5520E+03  0.5520E+03
     14.109  0.0000E+00  0.0000E+00  0.5520E+03  0.5520E+03
     14.347  0.0000E+00  0.0000E+00  0.5520E+03  0.5520E+03
     14.585  0.0000E+00  0.0000E+00  0.5520E+03  0.5520E+03
     14.824  0.0000E+00  0.0000E+00  0.5520E+03  0.5520E+03
     15.062  0.0000E+00  0.0000E+00  0.5520E+03  0.5520E+03
     15.300  0.0000E+00  0.0000E+00  0.5520E+03  0.5520E+03
     15.538  0.0000E+00  0.0000E+00  0.5520E+03  0.5520E+03
     15.776  0.0000E+00  0.0000E+00  0.5520E+03  0.5520E+03
     16.015  0.0000E+00  0.0000E+00  0.5520E+03  0.5520E+03
     16.253  0.0000E+00  0.0000E+00  0.5520E+03  0.5520E+03
     16.491  0.0000E+00  0.0000E+00  0.5520E+03  0.5520E+03
     16.729  0.0000E+00  0.0000E+00  0.5520E+03  0.5520E+03
