 vasp.5.4.4.18Apr17-6-g9f103f2a35 (build Oct 25 2017 14:42:18) complex          
  
 executed on             LinuxIFC date 2021.04.16  14:27:15
 running on   48 total cores
 distrk:  each k-point on   24 cores,    2 groups
 distr:  one band on NCORES_PER_BAND=   6 cores,    4 groups


--------------------------------------------------------------------------------------------------------


 INCAR:
 POTCAR:    PAW_PBE Li_sv 10Sep2004               
 POTCAR:    PAW_PBE O 08Apr2002                   
 POTCAR:    PAW_PBE S 06Sep2000                   
 POTCAR:    PAW_PBE Fe_pv 02Aug2007               

 ----------------------------------------------------------------------------- 
|                                                                             |
|           W    W    AA    RRRRR   N    N  II  N    N   GGGG   !!!           |
|           W    W   A  A   R    R  NN   N  II  NN   N  G    G  !!!           |
|           W    W  A    A  R    R  N N  N  II  N N  N  G       !!!           |
|           W WW W  AAAAAA  RRRRR   N  N N  II  N  N N  G  GGG   !            |
|           WW  WW  A    A  R   R   N   NN  II  N   NN  G    G                |
|           W    W  A    A  R    R  N    N  II  N    N   GGGG   !!!           |
|                                                                             |
|      You have enabled k-point parallelism (KPAR>1).                         |
|      This developmental code was originally  written by Paul Kent at ORNL,  |
|      and carefully double checked in Vienna.                                |
|      GW as well as linear response parallelism added by Martijn Marsman     |
|      and Georg Kresse.                                                      |
|      Carefully verify results versus KPAR=1.                                |
|      Report problems to Paul Kent and Vienna.                               |
|                                                                             |
 ----------------------------------------------------------------------------- 

 POTCAR:    PAW_PBE Li_sv 10Sep2004               
  local pseudopotential read in
  atomic valenz-charges read in
  non local Contribution for L=           0  read in
    real space projection operators read in
  non local Contribution for L=           0  read in
    real space projection operators read in
  non local Contribution for L=           1  read in
    real space projection operators read in
    PAW grid and wavefunctions read in
 
   number of l-projection  operators is LMAX  =           3
   number of lm-projection operators is LMMAX =           5
 
 POTCAR:    PAW_PBE O 08Apr2002                   
  local pseudopotential read in
  partial core-charges read in
  partial kinetic energy density read in
  kinetic energy density of atom read in
  atomic valenz-charges read in
  non local Contribution for L=           0  read in
    real space projection operators read in
  non local Contribution for L=           0  read in
    real space projection operators read in
  non local Contribution for L=           1  read in
    real space projection operators read in
  non local Contribution for L=           1  read in
    real space projection operators read in
    PAW grid and wavefunctions read in
 
   number of l-projection  operators is LMAX  =           4
   number of lm-projection operators is LMMAX =           8
 
 POTCAR:    PAW_PBE S 06Sep2000                   
  local pseudopotential read in
  partial core-charges read in
  partial kinetic energy density read in
  atomic valenz-charges read in
  non local Contribution for L=           0  read in
    real space projection operators read in
  non local Contribution for L=           0  read in
    real space projection operators read in
  non local Contribution for L=           1  read in
    real space projection operators read in
  non local Contribution for L=           1  read in
    real space projection operators read in
    PAW grid and wavefunctions read in
 
   number of l-projection  operators is LMAX  =           4
   number of lm-projection operators is LMMAX =           8
 
 POTCAR:    PAW_PBE Fe_pv 02Aug2007               
  local pseudopotential read in
  partial core-charges read in
  partial kinetic energy density read in
  atomic valenz-charges read in
  non local Contribution for L=           1  read in
    real space projection operators read in
  non local Contribution for L=           1  read in
    real space projection operators read in
  non local Contribution for L=           2  read in
    real space projection operators read in
  non local Contribution for L=           2  read in
    real space projection operators read in
  non local Contribution for L=           0  read in
    real space projection operators read in
  non local Contribution for L=           0  read in
    real space projection operators read in
    PAW grid and wavefunctions read in
 
   number of l-projection  operators is LMAX  =           6
   number of lm-projection operators is LMMAX =          18
 

 ----------------------------------------------------------------------------- 
|                                                                             |
|  ADVICE TO THIS USER RUNNING 'VASP/VAMP'   (HEAR YOUR MASTER'S VOICE ...):  |
|                                                                             |
|      You have a (more or less) 'large supercell' and for larger cells       |
|      it might be more efficient to use real space projection opertators     |
|      So try LREAL= Auto  in the INCAR   file.                               |
|      Mind:          For very  accurate calculation you might also keep the  |
|      reciprocal projection scheme          (i.e. LREAL=.FALSE.)             |
|                                                                             |
 ----------------------------------------------------------------------------- 

  PAW_PBE Li_sv 10Sep2004               :
 energy of atom  1       EATOM= -202.7858
 kinetic energy error for atom=    0.0072 (will be added to EATOM!!)
  PAW_PBE O 08Apr2002                   :
 energy of atom  2       EATOM= -432.3788
 kinetic energy error for atom=    0.0129 (will be added to EATOM!!)
  PAW_PBE S 06Sep2000                   :
 energy of atom  3       EATOM= -276.8230
 kinetic energy error for atom=    0.0008 (will be added to EATOM!!)
  PAW_PBE Fe_pv 02Aug2007               :
 energy of atom  4       EATOM=-2457.4239
 kinetic energy error for atom=    0.0041 (will be added to EATOM!!)
 
 
 POSCAR: # Compound: Li48O24S24Fe24. Old comment:
  positions in direct lattice
  No initial velocities read in
 exchange correlation table for  LEXCH =        8
   RHO(1)=    0.500       N(1)  =     2000
   RHO(2)=  100.500       N(2)  =     4000
 


--------------------------------------------------------------------------------------------------------


 ion  position               nearest neighbor table
   1  0.035  0.363  0.356-  51 1.97  49 1.97  73 2.65
   2  0.369  0.363  0.356-  49 1.97  50 1.97  74 2.65
   3  0.702  0.363  0.356-  50 1.97  51 1.97  75 2.65
   4  0.035  0.863  0.356-  54 1.97  52 1.97  76 2.65
   5  0.369  0.863  0.356-  52 1.97  53 1.97  77 2.65
   6  0.702  0.863  0.356-  53 1.97  54 1.97  78 2.65
   7  0.035  0.363  0.856-  57 1.97  55 1.97  79 2.65
   8  0.369  0.363  0.856-  55 1.97  56 1.97  80 2.65
   9  0.702  0.363  0.856-  56 1.97  57 1.97  81 2.65
  10  0.035  0.863  0.856-  60 1.97  58 1.97  82 2.65
  11  0.369  0.863  0.856-  58 1.97  59 1.97  83 2.65
  12  0.702  0.863  0.856-  59 1.97  60 1.97  84 2.65
  13  0.035  0.113  0.144-  63 1.97  61 1.97  85 2.65
  14  0.369  0.113  0.144-  61 1.97  62 1.97  86 2.65
  15  0.702  0.113  0.144-  62 1.97  63 1.97  87 2.65
  16  0.035  0.613  0.144-  66 1.97  64 1.97  88 2.65
  17  0.369  0.613  0.144-  64 1.97  65 1.97  89 2.65
  18  0.702  0.613  0.144-  65 1.97  66 1.97  90 2.65
  19  0.035  0.113  0.644-  69 1.97  67 1.97  91 2.65
  20  0.369  0.113  0.644-  67 1.97  68 1.97  92 2.65
  21  0.702  0.113  0.644-  68 1.97  69 1.97  93 2.65
  22  0.035  0.613  0.644-  72 1.97  70 1.97  94 2.65
  23  0.369  0.613  0.644-  70 1.97  71 1.97  95 2.65
  24  0.702  0.613  0.644-  71 1.97  72 1.97  96 2.65
  25  0.202  0.219  0.272-  61 1.98  49 2.02  85 2.55  86 2.55
  26  0.535  0.219  0.272-  62 1.99  50 2.02  86 2.55  87 2.55
  27  0.869  0.219  0.272-  63 1.99  51 2.02  87 2.55  85 2.55
  28  0.202  0.719  0.272-  64 1.99  52 2.02  88 2.55  89 2.55
  29  0.535  0.719  0.272-  65 1.99  53 2.02  89 2.55  90 2.55
  30  0.869  0.719  0.272-  66 1.99  54 2.02  90 2.55  88 2.55
  31  0.202  0.219  0.772-  67 1.99  55 2.02  91 2.55  92 2.55
  32  0.535  0.219  0.772-  68 1.99  56 2.02  92 2.55  93 2.55
  33  0.869  0.219  0.772-  69 1.99  57 2.02  93 2.55  91 2.55
  34  0.202  0.719  0.772-  70 1.99  58 2.02  94 2.55  95 2.55
  35  0.535  0.719  0.772-  71 1.99  59 2.02  95 2.55  96 2.55
  36  0.869  0.719  0.772-  72 1.99  60 2.02  96 2.55  94 2.55
  37  0.202  0.469  0.228-  49 1.99  64 2.02  73 2.55  74 2.55
  38  0.535  0.469  0.228-  50 1.99  65 2.02  74 2.55  75 2.55
  39  0.869  0.469  0.228-  51 1.99  66 2.02  75 2.55  73 2.55
  40  0.202  0.969  0.228-  52 1.99  61 2.02  76 2.55  77 2.55
  41  0.535  0.969  0.228-  53 1.99  62 2.02  77 2.55  78 2.55
  42  0.869  0.969  0.228-  54 1.99  63 2.02  78 2.55  76 2.55
  43  0.202  0.469  0.728-  55 1.99  70 2.02  79 2.55  80 2.55
  44  0.535  0.469  0.728-  56 1.99  71 2.02  80 2.55  81 2.55
  45  0.869  0.469  0.728-  57 1.99  72 2.02  81 2.55  79 2.55
  46  0.202  0.969  0.728-  58 1.99  67 2.02  82 2.55  83 2.55
  47  0.535  0.969  0.728-  59 1.99  68 2.02  83 2.55  84 2.55
  48  0.869  0.969  0.728-  60 1.99  69 2.02  84 2.55  82 2.55
  49  0.202  0.368  0.374-   2 1.97   1 1.97  37 1.99 100 2.01 115 2.02  25 2.02
  50  0.535  0.368  0.374-   3 1.97   2 1.97  38 1.99 101 2.01  26 2.02 116 2.02
  51  0.869  0.368  0.374-   1 1.97   3 1.97  39 1.99 102 2.01  27 2.02 117 2.02
  52  0.202  0.868  0.374-   5 1.97   4 1.97  40 1.99  97 2.01  28 2.02 118 2.02
  53  0.535  0.868  0.374-   6 1.97   5 1.97  41 1.99  98 2.01  29 2.02 119 2.02
  54  0.869  0.868  0.374-   4 1.97   6 1.97  42 1.99  99 2.01  30 2.02 120 2.02
  55  0.202  0.368  0.874-   8 1.97   7 1.97  43 1.99 106 2.01  31 2.02 109 2.02
  56  0.535  0.368  0.874-   9 1.97   8 1.97  44 1.99 107 2.01  32 2.02 110 2.02
  57  0.869  0.368  0.874-   7 1.97   9 1.97  45 1.99 108 2.01  33 2.02 111 2.02
  58  0.202  0.868  0.874-  11 1.97  10 1.97  46 1.99 103 2.01  34 2.02 112 2.02
  59  0.535  0.868  0.874-  12 1.97  11 1.97  47 1.99 104 2.01  35 2.02 113 2.02
  60  0.869  0.868  0.874-  10 1.97  12 1.97  48 1.99 105 2.01  36 2.02 114 2.02
  61  0.202  0.118  0.126-  14 1.97  13 1.97  25 1.98 109 2.01  40 2.02 103 2.02
  62  0.535  0.118  0.126-  15 1.97  14 1.97  26 1.99 110 2.01  41 2.02 104 2.02
  63  0.869  0.118  0.126-  13 1.97  15 1.97  27 1.99 111 2.01  42 2.02 105 2.02
  64  0.202  0.618  0.126-  17 1.97  16 1.97  28 1.99 112 2.01  37 2.02 106 2.02
  65  0.535  0.618  0.126-  18 1.97  17 1.97  29 1.99 113 2.01  38 2.02 107 2.02
  66  0.869  0.618  0.126-  16 1.97  18 1.97  30 1.99 114 2.01  39 2.02 108 2.02
  67  0.202  0.118  0.626-  20 1.97  19 1.97  31 1.99 115 2.01  46 2.02  97 2.02
  68  0.535  0.118  0.626-  21 1.97  20 1.97  32 1.99 116 2.01  47 2.02  98 2.02
  69  0.869  0.118  0.626-  19 1.97  21 1.97  33 1.99 117 2.01  48 2.02  99 2.02
  70  0.202  0.618  0.626-  23 1.97  22 1.97  34 1.99 118 2.01  43 2.02 100 2.02
  71  0.535  0.618  0.626-  24 1.97  23 1.97  35 1.99 119 2.01  44 2.02 101 2.02
  72  0.869  0.618  0.626-  22 1.97  24 1.97  36 1.99 120 2.01  45 2.02 102 2.02
  73  0.035  0.370  0.120-  37 2.55  39 2.55 111 2.56 109 2.56   1 2.65
  74  0.369  0.370  0.120-  38 2.55  37 2.55 109 2.56 110 2.56   2 2.65
  75  0.702  0.370  0.120-  39 2.55  38 2.55 110 2.56 111 2.56   3 2.65
  76  0.035  0.870  0.120-  40 2.55  42 2.55 114 2.56 112 2.56   4 2.65
  77  0.369  0.870  0.120-  41 2.55  40 2.55 112 2.56 113 2.56   5 2.65
  78  0.702  0.870  0.120-  42 2.55  41 2.55 113 2.56 114 2.56   6 2.65
  79  0.035  0.370  0.620-  43 2.55  45 2.55 117 2.56 115 2.56   7 2.65
  80  0.369  0.370  0.620-  44 2.55  43 2.55 115 2.56 116 2.56   8 2.65
  81  0.702  0.370  0.620-  45 2.55  44 2.55 116 2.56 117 2.56   9 2.65
  82  0.035  0.870  0.620-  46 2.55  48 2.55 120 2.56 118 2.56  10 2.65
  83  0.369  0.870  0.620-  47 2.55  46 2.55 118 2.56 119 2.56  11 2.65
  84  0.702  0.870  0.620-  48 2.55  47 2.55 119 2.56 120 2.56  12 2.65
  85  0.035  0.120  0.380-  27 2.55  25 2.55  99 2.56  97 2.56  13 2.65
  86  0.369  0.120  0.380-  26 2.55  25 2.55  97 2.56  98 2.56  14 2.65
  87  0.702  0.120  0.380-  27 2.55  26 2.55  98 2.56  99 2.56  15 2.65
  88  0.035  0.620  0.380-  28 2.55  30 2.55 102 2.56 100 2.56  16 2.65
  89  0.369  0.620  0.380-  29 2.55  28 2.55 100 2.56 101 2.56  17 2.65
  90  0.702  0.620  0.380-  30 2.55  29 2.55 101 2.56 102 2.56  18 2.65
  91  0.035  0.120  0.880-  31 2.55  33 2.55 105 2.56 103 2.56  19 2.65
  92  0.369  0.120  0.880-  32 2.55  31 2.55 103 2.56 104 2.56  20 2.65
  93  0.702  0.120  0.880-  33 2.55  32 2.55 104 2.56 105 2.56  21 2.65
  94  0.035  0.620  0.880-  34 2.55  36 2.55 108 2.56 106 2.56  22 2.65
  95  0.369  0.620  0.880-  35 2.55  34 2.55 106 2.56 107 2.56  23 2.65
  96  0.702  0.620  0.880-  36 2.55  35 2.55 107 2.56 108 2.56  24 2.65
  97  0.202  0.012  0.480-  52 2.01  67 2.02  86 2.56  85 2.56
  98  0.535  0.012  0.480-  53 2.01  68 2.02  87 2.56  86 2.56
  99  0.869  0.012  0.480-  54 2.01  69 2.02  85 2.56  87 2.56
 100  0.202  0.512  0.480-  49 2.01  70 2.02  89 2.56  88 2.56
 101  0.535  0.512  0.480-  50 2.01  71 2.02  90 2.56  89 2.56
 102  0.869  0.512  0.480-  51 2.01  72 2.02  88 2.56  90 2.56
 103  0.202  0.012  0.980-  58 2.01  61 2.02  92 2.56  91 2.56
 104  0.535  0.012  0.980-  59 2.01  62 2.02  93 2.56  92 2.56
 105  0.869  0.012  0.980-  60 2.01  63 2.02  91 2.56  93 2.56
 106  0.202  0.512  0.980-  55 2.01  64 2.02  95 2.56  94 2.56
 107  0.535  0.512  0.980-  56 2.01  65 2.02  96 2.56  95 2.56
 108  0.869  0.512  0.980-  57 2.01  66 2.02  94 2.56  96 2.56
 109  0.202  0.262  0.020-  61 2.01  55 2.02  74 2.56  73 2.56
 110  0.535  0.262  0.020-  62 2.01  56 2.02  75 2.56  74 2.56
 111  0.869  0.262  0.020-  63 2.01  57 2.02  73 2.56  75 2.56
 112  0.202  0.762  0.020-  64 2.01  58 2.02  77 2.56  76 2.56
 113  0.535  0.762  0.020-  65 2.01  59 2.02  78 2.56  77 2.56
 114  0.869  0.762  0.020-  66 2.01  60 2.02  76 2.56  78 2.56
 115  0.202  0.262  0.520-  67 2.01  49 2.02  80 2.56  79 2.56
 116  0.535  0.262  0.520-  68 2.01  50 2.02  81 2.56  80 2.56
 117  0.869  0.262  0.520-  69 2.01  51 2.02  79 2.56  81 2.56
 118  0.202  0.762  0.520-  70 2.01  52 2.02  83 2.56  82 2.56
 119  0.535  0.762  0.520-  71 2.01  53 2.02  84 2.56  83 2.56
 120  0.869  0.762  0.520-  72 2.01  54 2.02  82 2.56  84 2.56
 

IMPORTANT INFORMATION: All symmetrisations will be switched off!
NOSYMM: (Re-)initialisation of all symmetry stuff for point group C_1.

 
 
 KPOINTS: # No comment                            

Automatic generation of k-mesh.
Space group operators:
 irot       det(A)        alpha          n_x          n_y          n_z        tau_x        tau_y        tau_z
    1     1.000000     0.000000     1.000000     0.000000     0.000000     0.000000     0.000000     0.000000
 
 Subroutine IBZKPT returns following result:
 ===========================================
 
 Found     14 irreducible k-points:
 
 Following reciprocal coordinates:
            Coordinates               Weight
  0.000000  0.000000  0.000000      1.000000
  0.333333  0.000000  0.000000      2.000000
  0.000000  0.333333  0.000000      2.000000
  0.333333  0.333333  0.000000      2.000000
 -0.333333  0.333333  0.000000      2.000000
  0.000000  0.000000  0.333333      2.000000
  0.333333  0.000000  0.333333      2.000000
 -0.333333  0.000000  0.333333      2.000000
  0.000000  0.333333  0.333333      2.000000
  0.333333  0.333333  0.333333      2.000000
 -0.333333  0.333333  0.333333      2.000000
 -0.000000 -0.333333  0.333333      2.000000
  0.333333 -0.333333  0.333333      2.000000
 -0.333333 -0.333333  0.333333      2.000000
 
 Following cartesian coordinates:
            Coordinates               Weight
  0.000000  0.000000  0.000000      1.000000
  0.028403 -0.000139  0.000000      2.000000
  0.000145  0.029713  0.000000      2.000000
  0.028548  0.029574  0.000000      2.000000
 -0.028257  0.029851  0.000000      2.000000
  0.000000  0.000000  0.029774      2.000000
  0.028403 -0.000139  0.029774      2.000000
 -0.028403  0.000139  0.029774      2.000000
  0.000145  0.029713  0.029774      2.000000
  0.028548  0.029574  0.029774      2.000000
 -0.028257  0.029851  0.029774      2.000000
 -0.000145 -0.029713  0.029774      2.000000
  0.028257 -0.029851  0.029774      2.000000
 -0.028548 -0.029574  0.029774      2.000000
 


--------------------------------------------------------------------------------------------------------




 Dimension of arrays:
   k-points           NKPTS =     14   k-points in BZ     NKDIM =     14   number of bands    NBANDS=    552
   number of dos      NEDOS =    301   number of ions     NIONS =    120
   non local maximal  LDIM  =      6   non local SUM 2l+1 LMDIM =     18
   total plane-waves  NPLWV = 903168
   max r-space proj   IRMAX =      1   max aug-charges    IRDMAX= 154614
   dimension x,y,z NGX =    98 NGY =   96 NGZ =   96
   dimension x,y,z NGXF=   196 NGYF=  192 NGZF=  192
   support grid    NGXF=   392 NGYF=  384 NGZF=  384
   ions per type =              48  24  24  24
   NGX,Y,Z   is equivalent  to a cutoff of  13.88, 14.23, 14.26 a.u.
   NGXF,Y,Z  is equivalent  to a cutoff of  27.76, 28.45, 28.51 a.u.

 SYSTEM =  unknown system                          
 POSCAR =  # Compound: Li48O24S24Fe24. Old comment:

 Startparameter for this run:
   NWRITE =      1    write-flag & timer
   PREC   = accura    normal or accurate (medium, high low for compatibility)
   ISTART =      0    job   : 0-new  1-cont  2-samecut
   ICHARG =      1    charge: 1-file 2-atom 10-const
   ISPIN  =      2    spin polarized calculation?
   LNONCOLLINEAR =      F non collinear calculations
   LSORBIT =      F    spin-orbit coupling
   INIWAV =      1    electr: 0-lowe 1-rand  2-diag
   LASPH  =      T    aspherical Exc in radial PAW
   METAGGA=      F    non-selfconsistent MetaGGA calc.

 Electronic Relaxation 1
   ENCUT  =  650.0 eV  47.77 Ry    6.91 a.u.  24.40 23.32 23.27*2*pi/ulx,y,z
   ENINI  =  650.0     initial cutoff
   ENAUG  =  628.9 eV  augmentation charge cutoff
   NELM   =    200;   NELMIN=  8; NELMDL=  0     # of ELM steps 
   EDIFF  = 0.1E-05   stopping-criterion for ELM
   LREAL  =      F    real-space projection
   NLSPLINE    = F    spline interpolate recip. space projectors
   LCOMPAT=      F    compatible to vasp.4.4
   GGA_COMPAT  = T    GGA compatible to vasp.4.4-vasp.4.6
   LMAXPAW     = -100 max onsite density
   LMAXMIX     =    4 max onsite mixed and CHGCAR
   VOSKOWN=      0    Vosko Wilk Nusair interpolation
   ROPT   =    0.00000   0.00000   0.00000   0.00000
 Ionic relaxation
   EDIFFG = 0.1E-04   stopping-criterion for IOM
   NSW    =      0    number of steps for IOM
   NBLOCK =      1;   KBLOCK =      1    inner block; outer block 
   IBRION =     -1    ionic relax: 0-MD 1-quasi-New 2-CG
   NFREE  =      0    steps in history (QN), initial steepest desc. (CG)
   ISIF   =      3    stress and relaxation
   IWAVPR =     10    prediction:  0-non 1-charg 2-wave 3-comb
   ISYM   =      0    0-nonsym 1-usesym 2-fastsym
   LCORR  =      T    Harris-Foulkes like correction to forces

   POTIM  = 0.5000    time-step for ionic-motion
   TEIN   =    0.0    initial temperature
   TEBEG  =    0.0;   TEEND  =   0.0 temperature during run
   SMASS  =  -3.00    Nose mass-parameter (am)
   estimated Nose-frequenzy (Omega)   =  0.10E-29 period in steps =****** mass=  -0.315E-26a.u.
   SCALEE = 1.0000    scale energy and forces
   NPACO  =    256;   APACO  = 16.0  distance and # of slots for P.C.
   PSTRESS=    0.0 pullay stress

  Mass of Ions in am
   POMASS =   7.01 16.00 32.07 55.85
  Ionic Valenz
   ZVAL   =   3.00  6.00  6.00 14.00
  Atomic Wigner-Seitz radii
   RWIGS  =  -1.00 -1.00 -1.00 -1.00
  virtual crystal weights 
   VCA    =   1.00  1.00  1.00  1.00
   NELECT =     768.0000    total number of electrons
   NUPDOWN=      -1.0000    fix difference up-down

 DOS related values:
   EMIN   =  10.00;   EMAX   =-10.00  energy-range for DOS
   EFERMI =   0.00
   ISMEAR =     0;   SIGMA  =   0.05  broadening in eV -4-tet -1-fermi 0-gaus

 Electronic relaxation 2 (details)
   IALGO  =     38    algorithm
   LDIAG  =      T    sub-space diagonalisation (order eigenvalues)
   LSUBROT=      F    optimize rotation matrix (better conditioning)
   TURBO    =      0    0=normal 1=particle mesh
   IRESTART =      0    0=no restart 2=restart with 2 vectors
   NREBOOT  =      0    no. of reboots
   NMIN     =      0    reboot dimension
   EREF     =   0.00    reference energy to select bands
   IMIX   =      4    mixing-type and parameters
     AMIX     =   0.40;   BMIX     =  1.00
     AMIX_MAG =   1.60;   BMIX_MAG =  1.00
     AMIN     =   0.10
     WC   =   100.;   INIMIX=   1;  MIXPRE=   1;  MAXMIX= -45

 Intra band minimization:
   WEIMIN = 0.0000     energy-eigenvalue tresh-hold
   EBREAK =  0.45E-09  absolut break condition
   DEPER  =   0.30     relativ break condition  

   TIME   =   0.40     timestep for ELM

  volume/ion in A,a.u.               =      12.28        82.89
  Fermi-wavevector in a.u.,A,eV,Ry     =   1.317335  2.489402 23.611165  1.735372
  Thomas-Fermi vector in A             =   2.447383
 
 Write flags
   LWAVE        =      F    write WAVECAR
   LDOWNSAMPLE  =      F    k-point downsampling of WAVECAR
   LCHARG       =      T    write CHGCAR
   LVTOT        =      F    write LOCPOT, total local potential
   LVHAR        =      F    write LOCPOT, Hartree potential only
   LELF         =      F    write electronic localiz. function (ELF)
   LORBIT       =      0    0 simple, 1 ext, 2 COOP (PROOUT), +10 PAW based schemes


 Dipole corrections
   LMONO  =      F    monopole corrections only (constant potential shift)
   LDIPOL =      F    correct potential (dipole corrections)
   IDIPOL =      0    1-x, 2-y, 3-z, 4-all directions 
   EPSILON=  1.0000000 bulk dielectric constant

 LDA+U is selected, type is set to LDAUTYPE =  2
   angular momentum for each species LDAUL =    -1   -1   -1    2
   U (eV)           for each species LDAUU =   0.0  0.0  0.0  4.0
   J (eV)           for each species LDAUJ =   0.0  0.0  0.0  0.0
 Exchange correlation treatment:
   GGA     =    PE    GGA type
   LEXCH   =     8    internal setting for exchange type
   VOSKOWN=      0    Vosko Wilk Nusair interpolation
   LHFCALC =     F    Hartree Fock is set to
   LHFONE  =     F    Hartree Fock one center treatment
   AEXX    =    0.0000 exact exchange contribution

 Linear response parameters
   LEPSILON=     F    determine dielectric tensor
   LRPA    =     F    only Hartree local field effects (RPA)
   LNABLA  =     F    use nabla operator in PAW spheres
   LVEL    =     F    velocity operator in full k-point grid
   LINTERFAST=   F  fast interpolation
   KINTER  =     0    interpolate to denser k-point grid
   CSHIFT  =0.1000    complex shift for real part using Kramers Kronig
   OMEGAMAX=  -1.0    maximum frequency
   DEG_THRESHOLD= 0.2000000E-02 threshold for treating states as degnerate
   RTIME   =   -0.100 relaxation time in fs
  (WPLASMAI=    0.000 imaginary part of plasma frequency in eV, 0.658/RTIME)
   DFIELD  = 0.0000000 0.0000000 0.0000000 field for delta impulse in time
 
 Orbital magnetization related:
   ORBITALMAG=     F  switch on orbital magnetization
   LCHIMAG   =     F  perturbation theory with respect to B field
   DQ        =  0.001000  dq finite difference perturbation B field
   LLRAUG    =     F  two centre corrections for induced B field



--------------------------------------------------------------------------------------------------------


 Static calculation
 charge density and potential will be updated during run
 spin polarized calculation
 Variant of blocked Davidson
 Davidson routine will perform the subspace rotation
 perform sub-space diagonalisation
    after iterative eigenvector-optimisation
 modified Broyden-mixing scheme, WC =      100.0
 initial mixing is a Kerker type mixing with AMIX =  0.4000 and BMIX =      1.0000
 Hartree-type preconditioning will be used
 using additional bands          168
 reciprocal scheme for non local part
 use partial core corrections
 calculate Harris-corrections to forces 
   (improved forces if not selfconsistent)
 use gradient corrections 
 use of overlap-Matrix (Vanderbilt PP)
 Gauss-broadening in eV      SIGMA  =   0.05


--------------------------------------------------------------------------------------------------------


  energy-cutoff  :      650.00
  volume of cell :     1474.00
      direct lattice vectors                 reciprocal lattice vectors
    11.735727240 -0.057442860  0.000000000     0.085207850 -0.000416288  0.000000000
     0.054807880 11.218334900  0.000000000     0.000436302  0.089137657  0.000000000
     0.000000000  0.000000000 11.195620100     0.000000000  0.000000000  0.089320644

  length of vectors
    11.735867822 11.218468783 11.195620100     0.085208867  0.089138725  0.089320644


 
 k-points in units of 2pi/SCALE and weight: # No comment                            
   0.00000000  0.00000000  0.00000000       0.037
   0.02840262 -0.00013876  0.00000000       0.074
   0.00014543  0.02971255  0.00000000       0.074
   0.02854805  0.02957379  0.00000000       0.074
  -0.02825718  0.02985132  0.00000000       0.074
   0.00000000  0.00000000  0.02977355       0.074
   0.02840262 -0.00013876  0.02977355       0.074
  -0.02840262  0.00013876  0.02977355       0.074
   0.00014543  0.02971255  0.02977355       0.074
   0.02854805  0.02957379  0.02977355       0.074
  -0.02825718  0.02985132  0.02977355       0.074
  -0.00014543 -0.02971255  0.02977355       0.074
   0.02825718 -0.02985132  0.02977355       0.074
  -0.02854805 -0.02957379  0.02977355       0.074
 
 k-points in reciprocal lattice and weights: # No comment                            
   0.00000000  0.00000000  0.00000000       0.037
   0.33333333  0.00000000  0.00000000       0.074
   0.00000000  0.33333333  0.00000000       0.074
   0.33333333  0.33333333  0.00000000       0.074
  -0.33333333  0.33333333  0.00000000       0.074
   0.00000000  0.00000000  0.33333333       0.074
   0.33333333  0.00000000  0.33333333       0.074
  -0.33333333  0.00000000  0.33333333       0.074
   0.00000000  0.33333333  0.33333333       0.074
   0.33333333  0.33333333  0.33333333       0.074
  -0.33333333  0.33333333  0.33333333       0.074
  -0.00000000 -0.33333333  0.33333333       0.074
   0.33333333 -0.33333333  0.33333333       0.074
  -0.33333333 -0.33333333  0.33333333       0.074
 
 position of ions in fractional coordinates (direct lattice) 
   0.03541706  0.36277547  0.35648149
   0.36875039  0.36277547  0.35648149
   0.70208372  0.36277547  0.35648149
   0.03541706  0.86277547  0.35648149
   0.36875039  0.86277547  0.35648149
   0.70208372  0.86277547  0.35648149
   0.03541706  0.36277547  0.85648149
   0.36875039  0.36277547  0.85648149
   0.70208372  0.36277547  0.85648149
   0.03541706  0.86277547  0.85648149
   0.36875039  0.86277547  0.85648149
   0.70208372  0.86277547  0.85648149
   0.03541706  0.11277547  0.14351851
   0.36875039  0.11277547  0.14351851
   0.70208372  0.11277547  0.14351851
   0.03541706  0.61277547  0.14351851
   0.36875039  0.61277547  0.14351851
   0.70208372  0.61277547  0.14351851
   0.03541706  0.11277547  0.64351851
   0.36875039  0.11277547  0.64351851
   0.70208372  0.11277547  0.64351851
   0.03541706  0.61277547  0.64351851
   0.36875039  0.61277547  0.64351851
   0.70208372  0.61277547  0.64351851
   0.20209458  0.21898060  0.27156894
   0.53542792  0.21898060  0.27246215
   0.86876125  0.21898060  0.27246215
   0.20209458  0.71898060  0.27246215
   0.53542792  0.71898060  0.27246215
   0.86876125  0.71898060  0.27246215
   0.20209458  0.21898060  0.77246215
   0.53542792  0.21898060  0.77246215
   0.86876125  0.21898060  0.77246215
   0.20209458  0.71898060  0.77246215
   0.53542792  0.71898060  0.77246215
   0.86876125  0.71898060  0.77246215
   0.20209458  0.46898060  0.22753785
   0.53542792  0.46898060  0.22753785
   0.86876125  0.46898060  0.22753785
   0.20209458  0.96898060  0.22753785
   0.53542792  0.96898060  0.22753785
   0.86876125  0.96898060  0.22753785
   0.20209458  0.46898060  0.72753785
   0.53542792  0.46898060  0.72753785
   0.86876125  0.46898060  0.72753785
   0.20209458  0.96898060  0.72753785
   0.53542792  0.96898060  0.72753785
   0.86876125  0.96898060  0.72753785
   0.20209064  0.36769237  0.37376509
   0.53542398  0.36769237  0.37376509
   0.86875731  0.36769237  0.37376509
   0.20209064  0.86769237  0.37376509
   0.53542398  0.86769237  0.37376509
   0.86875731  0.86769237  0.37376509
   0.20209064  0.36769237  0.87376509
   0.53542398  0.36769237  0.87376509
   0.86875731  0.36769237  0.87376509
   0.20209064  0.86769237  0.87376509
   0.53542398  0.86769237  0.87376509
   0.86875731  0.86769237  0.87376509
   0.20209064  0.11769237  0.12623491
   0.53542398  0.11769237  0.12623491
   0.86875731  0.11769237  0.12623491
   0.20209064  0.61769237  0.12623491
   0.53542398  0.61769237  0.12623491
   0.86875731  0.61769237  0.12623491
   0.20209064  0.11769237  0.62623491
   0.53542398  0.11769237  0.62623491
   0.86875731  0.11769237  0.62623491
   0.20209064  0.61769237  0.62623491
   0.53542398  0.61769237  0.62623491
   0.86875731  0.61769237  0.62623491
   0.03542751  0.37011947  0.12029448
   0.36876084  0.37011947  0.12029448
   0.70209418  0.37011947  0.12029448
   0.03542751  0.87011947  0.12029448
   0.36876084  0.87011947  0.12029448
   0.70209418  0.87011947  0.12029448
   0.03542751  0.37011947  0.62029448
   0.36876084  0.37011947  0.62029448
   0.70209418  0.37011947  0.62029448
   0.03542751  0.87011947  0.62029448
   0.36876084  0.87011947  0.62029448
   0.70209418  0.87011947  0.62029448
   0.03542751  0.12011947  0.37970552
   0.36876084  0.12011947  0.37970552
   0.70209418  0.12011947  0.37970552
   0.03542751  0.62011947  0.37970552
   0.36876084  0.62011947  0.37970552
   0.70209418  0.62011947  0.37970552
   0.03542751  0.12011947  0.87970552
   0.36876084  0.12011947  0.87970552
   0.70209418  0.12011947  0.87970552
   0.03542751  0.62011947  0.87970552
   0.36876084  0.62011947  0.87970552
   0.70209418  0.62011947  0.87970552
   0.20209387  0.01225309  0.48003463
   0.53542720  0.01225309  0.48003463
   0.86876054  0.01225309  0.48003463
   0.20209387  0.51225309  0.48003463
   0.53542720  0.51225309  0.48003463
   0.86876054  0.51225309  0.48003463
   0.20209387  0.01225309  0.98003463
   0.53542720  0.01225309  0.98003463
   0.86876054  0.01225309  0.98003463
   0.20209387  0.51225309  0.98003463
   0.53542720  0.51225309  0.98003463
   0.86876054  0.51225309  0.98003463
   0.20209387  0.26225309  0.01996537
   0.53542720  0.26225309  0.01996537
   0.86876054  0.26225309  0.01996537
   0.20209387  0.76225309  0.01996537
   0.53542720  0.76225309  0.01996537
   0.86876054  0.76225309  0.01996537
   0.20209387  0.26225309  0.51996537
   0.53542720  0.26225309  0.51996537
   0.86876054  0.26225309  0.51996537
   0.20209387  0.76225309  0.51996537
   0.53542720  0.76225309  0.51996537
   0.86876054  0.76225309  0.51996537
 
 position of ions in cartesian coordinates  (Angst):
   0.43552787  4.06770226  3.99103128
   4.34743695  4.04855464  3.99103128
   8.25934603  4.02940702  3.99103128
   0.46293181  9.67686971  3.99103128
   4.37484089  9.65772209  3.99103128
   8.28674997  9.63857447  3.99103128
   0.43552787  4.06770226  9.58884133
   4.34743695  4.04855464  9.58884133
   8.25934603  4.02940702  9.58884133
   0.46293181  9.67686971  9.58884133
   4.37484089  9.65772209  9.58884133
   8.28674997  9.63857447  9.58884133
   0.42182590  1.26311853  1.60677877
   4.33373498  1.24397091  1.60677877
   8.24564406  1.22482329  1.60677877
   0.44922984  6.87228598  1.60677877
   4.36113892  6.85313836  1.60677877
   8.27304800  6.83399074  1.60677877
   0.42182590  1.26311853  7.20458882
   4.33373498  1.24397091  7.20458882
   8.24564406  1.22482329  7.20458882
   0.44922984  6.87228598  7.20458882
   4.36113892  6.85313836  7.20458882
   8.27304800  6.83399074  7.20458882
   2.38372877  2.44498882  3.04038272
   6.29563785  2.42584120  3.05038272
  10.20754693  2.40669358  3.05038272
   2.41113271  8.05415627  3.05038272
   6.32304179  8.03500865  3.05038272
  10.23495087  8.01586103  3.05038272
   2.38372877  2.44498882  8.64819277
   6.29563785  2.42584120  8.64819277
  10.20754693  2.40669358  8.64819277
   2.41113271  8.05415627  8.64819277
   6.32304179  8.03500865  8.64819277
  10.23495087  8.01586103  8.64819277
   2.39743074  5.24957254  2.54742733
   6.30933982  5.23042492  2.54742733
  10.22124890  5.21127730  2.54742733
   2.42483468 10.85873999  2.54742733
   6.33674376 10.83959237  2.54742733
  10.24865284 10.82044475  2.54742733
   2.39743074  5.24957254  8.14523738
   6.30933982  5.23042492  8.14523738
  10.22124890  5.21127730  8.14523738
   2.42483468 10.85873999  8.14523738
   6.33674376 10.83959237  8.14523738
  10.24865284 10.82044475  8.14523738
   2.39183311  4.11328754  4.18453195
   6.30374219  4.09413992  4.18453195
  10.21565127  4.07499230  4.18453195
   2.41923705  9.72245499  4.18453195
   6.33114613  9.70330737  4.18453195
  10.24305521  9.68415975  4.18453195
   2.39183311  4.11328754  9.78234200
   6.30374219  4.09413992  9.78234200
  10.21565127  4.07499230  9.78234200
   2.41923705  9.72245499  9.78234200
   6.33114613  9.70330737  9.78234200
  10.24305521  9.68415975  9.78234200
   2.37813114  1.30870381  1.41327810
   6.29004022  1.28955619  1.41327810
  10.20194930  1.27040857  1.41327810
   2.40553508  6.91787126  1.41327810
   6.31744416  6.89872364  1.41327810
  10.22935324  6.87957602  1.41327810
   2.37813114  1.30870381  7.01108815
   6.29004022  1.28955619  7.01108815
  10.20194930  1.27040857  7.01108815
   2.40553508  6.91787126  7.01108815
   6.31744416  6.89872364  7.01108815
  10.22935324  6.87957602  7.01108815
   0.43605306  4.15008905  1.34677124
   4.34796214  4.13094143  1.34677124
   8.25987122  4.11179381  1.34677124
   0.46345700  9.75925650  1.34677124
   4.37536608  9.74010888  1.34677124
   8.28727516  9.72096126  1.34677124
   0.43605306  4.15008905  6.94458129
   4.34796214  4.13094143  6.94458129
   8.25987122  4.11179381  6.94458129
   0.46345700  9.75925650  6.94458129
   4.37536608  9.74010888  6.94458129
   8.28727516  9.72096126  6.94458129
   0.42235109  1.34550533  4.25103881
   4.33426017  1.32635771  4.25103881
   8.24616925  1.30721009  4.25103881
   0.44975503  6.95467278  4.25103881
   4.36166411  6.93552516  4.25103881
   8.27357319  6.91637754  4.25103881
   0.42235109  1.34550533  9.84884886
   4.33426017  1.32635771  9.84884886
   8.24616925  1.30721009  9.84884886
   0.44975503  6.95467278  9.84884886
   4.36166411  6.93552516  9.84884886
   8.27357319  6.91637754  9.84884886
   2.37239010  0.12585042  5.37428530
   6.28429918  0.10670280  5.37428530
  10.19620826  0.08755518  5.37428530
   2.39979404  5.73501787  5.37428530
   6.31170312  5.71587025  5.37428530
  10.22361220  5.69672263  5.37428530
   2.37239010  0.12585042 10.97209535
   6.28429918  0.10670280 10.97209535
  10.19620826  0.08755518 10.97209535
   2.39979404  5.73501787 10.97209535
   6.31170312  5.71587025 10.97209535
  10.22361220  5.69672263 10.97209535
   2.38609207  2.93043414  0.22352475
   6.29800115  2.91128652  0.22352475
  10.20991023  2.89213890  0.22352475
   2.41349601  8.53960159  0.22352475
   6.32540509  8.52045397  0.22352475
  10.23731417  8.50130635  0.22352475
   2.38609207  2.93043414  5.82133480
   6.29800115  2.91128652  5.82133480
  10.20991023  2.89213890  5.82133480
   2.41349601  8.53960159  5.82133480
   6.32540509  8.52045397  5.82133480
  10.23731417  8.50130635  5.82133480
 


--------------------------------------------------------------------------------------------------------


 k-point  1 :   0.0000 0.0000 0.0000  plane waves:   55469
 k-point  2 :   0.3333 0.0000 0.0000  plane waves:   55443
 k-point  3 :   0.0000 0.3333 0.0000  plane waves:   55474
 k-point  4 :   0.3333 0.3333 0.0000  plane waves:   55456
 k-point  5 :  -0.3333 0.3333 0.0000  plane waves:   55456
 k-point  6 :   0.0000 0.0000 0.3333  plane waves:   55522
 k-point  7 :   0.3333 0.0000 0.3333  plane waves:   55468
 k-point  8 :  -0.3333 0.0000 0.3333  plane waves:   55468
 k-point  9 :   0.0000 0.3333 0.3333  plane waves:   55433
 k-point 10 :   0.3333 0.3333 0.3333  plane waves:   55444
 k-point 11 :  -0.3333 0.3333 0.3333  plane waves:   55444
 k-point 12 :  -0.0000-0.3333 0.3333  plane waves:   55433
 k-point 13 :   0.3333-0.3333 0.3333  plane waves:   55444
 k-point 14 :  -0.3333-0.3333 0.3333  plane waves:   55444

 maximum and minimum number of plane-waves per node :      9314     9185

 maximum number of plane-waves:     55522
 maximum index in each direction: 
   IXMAX=   24   IYMAX=   23   IZMAX=   23
   IXMIN=  -24   IYMIN=  -23   IZMIN=  -23


 parallel 3D FFT for wavefunctions:
    minimum data exchange during FFTs selected (reduces bandwidth)
 parallel 3D FFT for charge:
    minimum data exchange during FFTs selected (reduces bandwidth)


 total amount of memory used by VASP MPI-rank0   801761. kBytes
=======================================================================

   base      :      30000. kBytes
   nonl-proj :      92491. kBytes
   fftplans  :      50318. kBytes
   grid      :      44712. kBytes
   one-center:        622. kBytes
   wavefun   :     583618. kBytes
 
     INWAV:  cpu time    0.0000: real time    0.0000
 Broyden mixing: mesh for mixing (old mesh)
   NGX = 49   NGY = 47   NGZ = 47
  (NGX  =196   NGY  =192   NGZ  =192)
  gives a total of 108241 points

 initial charge density was supplied:
 number of electron     768.0000015 magnetization      96.0009074
 keeping initial charge density in first step


--------------------------------------------------------------------------------------------------------


 Maximum index for augmentation-charges         7847 (set IRDMAX)


--------------------------------------------------------------------------------------------------------


 First call to EWALD:  gamma=   0.156
 Maximum number of real-space cells 3x 3x 3
 Maximum number of reciprocal cells 3x 3x 3

    FEWALD:  cpu time    0.1964: real time    0.1964


--------------------------------------- Iteration      1(   1)  ---------------------------------------


    POTLOK:  cpu time    0.4863: real time    0.4930
    SETDIJ:  cpu time    1.4588: real time    1.4600
     EDDAV:  cpu time  217.0845: real time  219.5908
       DOS:  cpu time    0.0052: real time    0.0052
    --------------------------------------------
      LOOP:  cpu time  219.0348: real time  221.5490

 eigenvalue-minimisations  : 32400
 total energy-change (2. order) : 0.1004338E+05  (-0.4138221E+05)
 number of electron     768.0000015 magnetization      96.0009074
 augmentation part      768.0000015 magnetization      96.0009074

 Free energy of the ion-electron system (eV)
  ---------------------------------------------------
  alpha Z        PSCENC =      1915.67052055
  Ewald energy   TEWEN  =    -48532.36284172
  -Hartree energ DENC   =    -28983.20054582
  -exchange      EXHF   =         0.00000000
  -V(xc)+E(xc)   XCENC  =      3297.26454046
  PAW double counting   =     81710.32686745   -84426.12035439
  entropy T*S    EENTRO =        -0.01826118
  eigenvalues    EBANDS =      -670.14491669
  atomic energy  EATOM  =     85731.96378919
  Solvation  Ediel_sol  =         0.00000000
  ---------------------------------------------------
  free energy    TOTEN  =     10043.37879786 eV

  energy without entropy =    10043.39705903  energy(sigma->0) =    10043.38792845


--------------------------------------------------------------------------------------------------------




--------------------------------------- Iteration      1(   2)  ---------------------------------------


     EDDAV:  cpu time  214.6108: real time  216.4760
       DOS:  cpu time    0.0053: real time    0.0055
    --------------------------------------------
      LOOP:  cpu time  214.6160: real time  216.4814

 eigenvalue-minimisations  : 30912
 total energy-change (2. order) :-0.9006320E+04  (-0.8363405E+04)
 number of electron     768.0000015 magnetization      96.0009074
 augmentation part      768.0000015 magnetization      96.0009074

 Free energy of the ion-electron system (eV)
  ---------------------------------------------------
  alpha Z        PSCENC =      1915.67052055
  Ewald energy   TEWEN  =    -48532.36284172
  -Hartree energ DENC   =    -28983.20054582
  -exchange      EXHF   =         0.00000000
  -V(xc)+E(xc)   XCENC  =      3297.26454046
  PAW double counting   =     81710.32686745   -84426.12035439
  entropy T*S    EENTRO =        -0.05224066
  eigenvalues    EBANDS =     -9676.43140816
  atomic energy  EATOM  =     85731.96378919
  Solvation  Ediel_sol  =         0.00000000
  ---------------------------------------------------
  free energy    TOTEN  =      1037.05832690 eV

  energy without entropy =     1037.11056757  energy(sigma->0) =     1037.08444723


--------------------------------------------------------------------------------------------------------




--------------------------------------- Iteration      1(   3)  ---------------------------------------


     EDDAV:  cpu time  233.5849: real time  235.7995
       DOS:  cpu time    0.0019: real time    0.0019
    --------------------------------------------
      LOOP:  cpu time  233.5869: real time  235.8015

 eigenvalue-minimisations  : 34704
 total energy-change (2. order) :-0.1436811E+04  (-0.1296158E+04)
 number of electron     768.0000015 magnetization      96.0009074
 augmentation part      768.0000015 magnetization      96.0009074

 Free energy of the ion-electron system (eV)
  ---------------------------------------------------
  alpha Z        PSCENC =      1915.67052055
  Ewald energy   TEWEN  =    -48532.36284172
  -Hartree energ DENC   =    -28983.20054582
  -exchange      EXHF   =         0.00000000
  -V(xc)+E(xc)   XCENC  =      3297.26454046
  PAW double counting   =     81710.32686745   -84426.12035439
  entropy T*S    EENTRO =        -0.00000000
  eigenvalues    EBANDS =    -11113.29457901
  atomic energy  EATOM  =     85731.96378919
  Solvation  Ediel_sol  =         0.00000000
  ---------------------------------------------------
  free energy    TOTEN  =      -399.75260329 eV

  energy without entropy =     -399.75260329  energy(sigma->0) =     -399.75260329


--------------------------------------------------------------------------------------------------------




--------------------------------------- Iteration      1(   4)  ---------------------------------------


     EDDAV:  cpu time  265.1124: real time  267.7018
       DOS:  cpu time    0.0022: real time    0.0022
    --------------------------------------------
      LOOP:  cpu time  265.1146: real time  267.7040

 eigenvalue-minimisations  : 41040
 total energy-change (2. order) :-0.1906065E+03  (-0.1884528E+03)
 number of electron     768.0000015 magnetization      96.0009074
 augmentation part      768.0000015 magnetization      96.0009074

 Free energy of the ion-electron system (eV)
  ---------------------------------------------------
  alpha Z        PSCENC =      1915.67052055
  Ewald energy   TEWEN  =    -48532.36284172
  -Hartree energ DENC   =    -28983.20054582
  -exchange      EXHF   =         0.00000000
  -V(xc)+E(xc)   XCENC  =      3297.26454046
  PAW double counting   =     81710.32686745   -84426.12035439
  entropy T*S    EENTRO =        -0.00000000
  eigenvalues    EBANDS =    -11303.90108750
  atomic energy  EATOM  =     85731.96378919
  Solvation  Ediel_sol  =         0.00000000
  ---------------------------------------------------
  free energy    TOTEN  =      -590.35911178 eV

  energy without entropy =     -590.35911178  energy(sigma->0) =     -590.35911178


--------------------------------------------------------------------------------------------------------




--------------------------------------- Iteration      1(   5)  ---------------------------------------


     EDDAV:  cpu time  329.0916: real time  332.1495
       DOS:  cpu time    0.0021: real time    0.0021
    CHARGE:  cpu time    5.7231: real time    5.7322
    MIXING:  cpu time    0.0218: real time    0.0218
    --------------------------------------------
      LOOP:  cpu time  334.8386: real time  337.9057

 eigenvalue-minimisations  : 54456
 total energy-change (2. order) :-0.2508490E+02  (-0.2484749E+02)
 number of electron     768.0000015 magnetization      96.0005841
 augmentation part      246.8412565 magnetization      62.9178346

 Broyden mixing:
  rms(total) = 0.27881E+00    rms(broyden)= 0.27866E+00
  rms(prec ) = 0.28304E+00
  weight for this iteration     100.00

 Free energy of the ion-electron system (eV)
  ---------------------------------------------------
  alpha Z        PSCENC =      1915.67052055
  Ewald energy   TEWEN  =    -48532.36284172
  -Hartree energ DENC   =    -28983.20054582
  -exchange      EXHF   =         0.00000000
  -V(xc)+E(xc)   XCENC  =      3297.26454046
  PAW double counting   =     81710.32686745   -84426.12035439
  entropy T*S    EENTRO =        -0.00000000
  eigenvalues    EBANDS =    -11328.98598587
  atomic energy  EATOM  =     85731.96378919
  Solvation  Ediel_sol  =         0.00000000
  ---------------------------------------------------
  free energy    TOTEN  =      -615.44401015 eV

  energy without entropy =     -615.44401015  energy(sigma->0) =     -615.44401015


--------------------------------------------------------------------------------------------------------




--------------------------------------- Iteration      1(   6)  ---------------------------------------


    POTLOK:  cpu time    0.4846: real time    0.4854
    SETDIJ:  cpu time    1.4744: real time    1.4753
     EDDAV:  cpu time  268.5294: real time  271.1995
       DOS:  cpu time    0.0022: real time    0.0022
    CHARGE:  cpu time    5.5618: real time    5.6155
    MIXING:  cpu time    0.0301: real time    0.0337
    --------------------------------------------
      LOOP:  cpu time  276.0825: real time  278.8114

 eigenvalue-minimisations  : 42336
 total energy-change (2. order) :-0.9435184E+00  (-0.9718441E+00)
 number of electron     768.0000015 magnetization      96.0004369
 augmentation part      245.7232764 magnetization      63.0630042

 Broyden mixing:
  rms(total) = 0.12020E+00    rms(broyden)= 0.12005E+00
  rms(prec ) = 0.12167E+00
  weight for this iteration     100.00

 eigenvalues of (default mixing * dielectric matrix)
  average eigenvalue GAMMA=   0.6662
  0.6662

 Free energy of the ion-electron system (eV)
  ---------------------------------------------------
  alpha Z        PSCENC =      1915.67052055
  Ewald energy   TEWEN  =    -48532.36284172
  -Hartree energ DENC   =    -28977.14209035
  -exchange      EXHF   =         0.00000000
  -V(xc)+E(xc)   XCENC  =      3296.39069176
  PAW double counting   =     81549.67091672   -84261.58307296
  entropy T*S    EENTRO =        -0.00000000
  eigenvalues    EBANDS =    -11338.99544175
  atomic energy  EATOM  =     85731.96378919
  Solvation  Ediel_sol  =         0.00000000
  ---------------------------------------------------
  free energy    TOTEN  =      -616.38752855 eV

  energy without entropy =     -616.38752855  energy(sigma->0) =     -616.38752855


--------------------------------------------------------------------------------------------------------




--------------------------------------- Iteration      1(   7)  ---------------------------------------


    POTLOK:  cpu time    0.4831: real time    0.4859
    SETDIJ:  cpu time    1.4540: real time    1.4547
     EDDAV:  cpu time  305.3061: real time  308.3901
       DOS:  cpu time    0.0021: real time    0.0021
    CHARGE:  cpu time    5.6995: real time    5.7081
    MIXING:  cpu time    0.0294: real time    0.0294
    --------------------------------------------
      LOOP:  cpu time  312.9741: real time  316.0702

 eigenvalue-minimisations  : 49424
 total energy-change (2. order) :-0.4787057E-01  (-0.4761185E-01)
 number of electron     768.0000015 magnetization      96.0003797
 augmentation part      245.5254434 magnetization      63.0183737

 Broyden mixing:
  rms(total) = 0.83747E-01    rms(broyden)= 0.83692E-01
  rms(prec ) = 0.85402E-01
  weight for this iteration     100.00

 eigenvalues of (default mixing * dielectric matrix)
  average eigenvalue GAMMA=   0.5823
  0.5823  0.5823

 Free energy of the ion-electron system (eV)
  ---------------------------------------------------
  alpha Z        PSCENC =      1915.67052055
  Ewald energy   TEWEN  =    -48532.36284172
  -Hartree energ DENC   =    -28979.09602207
  -exchange      EXHF   =         0.00000000
  -V(xc)+E(xc)   XCENC  =      3296.64492793
  PAW double counting   =     81589.17582183   -84302.02032439
  entropy T*S    EENTRO =        -0.00000000
  eigenvalues    EBANDS =    -11336.41127044
  atomic energy  EATOM  =     85731.96378919
  Solvation  Ediel_sol  =         0.00000000
  ---------------------------------------------------
  free energy    TOTEN  =      -616.43539912 eV

  energy without entropy =     -616.43539912  energy(sigma->0) =     -616.43539912


--------------------------------------------------------------------------------------------------------




--------------------------------------- Iteration      1(   8)  ---------------------------------------


    POTLOK:  cpu time    0.4850: real time    0.4869
    SETDIJ:  cpu time    1.4689: real time    1.4702
     EDDAV:  cpu time  295.4675: real time  298.0938
       DOS:  cpu time    0.0028: real time    0.0028
    CHARGE:  cpu time    5.5397: real time    5.6446
    MIXING:  cpu time    0.0259: real time    0.0259
    --------------------------------------------
      LOOP:  cpu time  302.9899: real time  305.7242

 eigenvalue-minimisations  : 47296
 total energy-change (2. order) :-0.1675802E-03  (-0.1751676E-02)
 number of electron     768.0000015 magnetization      96.0003538
 augmentation part      245.4885974 magnetization      63.0149898

 Broyden mixing:
  rms(total) = 0.72625E-01    rms(broyden)= 0.72620E-01
  rms(prec ) = 0.74159E-01
  weight for this iteration     100.00

 eigenvalues of (default mixing * dielectric matrix)
  average eigenvalue GAMMA=   0.5432
  0.6175  0.6175  0.3945

 Free energy of the ion-electron system (eV)
  ---------------------------------------------------
  alpha Z        PSCENC =      1915.67052055
  Ewald energy   TEWEN  =    -48532.36284172
  -Hartree energ DENC   =    -28979.84342366
  -exchange      EXHF   =         0.00000000
  -V(xc)+E(xc)   XCENC  =      3296.74675589
  PAW double counting   =     81609.79185359   -84323.18240417
  entropy T*S    EENTRO =        -0.00000000
  eigenvalues    EBANDS =    -11335.21981638
  atomic energy  EATOM  =     85731.96378919
  Solvation  Ediel_sol  =         0.00000000
  ---------------------------------------------------
  free energy    TOTEN  =      -616.43556670 eV

  energy without entropy =     -616.43556670  energy(sigma->0) =     -616.43556670


--------------------------------------------------------------------------------------------------------




--------------------------------------- Iteration      1(   9)  ---------------------------------------


    POTLOK:  cpu time    0.4866: real time    0.4934
    SETDIJ:  cpu time    1.4485: real time    1.4627
     EDDAV:  cpu time  305.5839: real time  307.8964
       DOS:  cpu time    0.0024: real time    0.0024
    CHARGE:  cpu time    5.6075: real time    5.6513
    MIXING:  cpu time    0.0326: real time    0.0341
    --------------------------------------------
      LOOP:  cpu time  313.1615: real time  315.5402

 eigenvalue-minimisations  : 49176
 total energy-change (2. order) : 0.6248537E-03  (-0.1047585E-03)
 number of electron     768.0000015 magnetization      96.0003527
 augmentation part      245.4939000 magnetization      63.0123505

 Broyden mixing:
  rms(total) = 0.66262E-01    rms(broyden)= 0.66261E-01
  rms(prec ) = 0.67644E-01
  weight for this iteration     100.00

 eigenvalues of (default mixing * dielectric matrix)
  average eigenvalue GAMMA=   0.4797
  0.6153  0.6153  0.3441  0.3441

 Free energy of the ion-electron system (eV)
  ---------------------------------------------------
  alpha Z        PSCENC =      1915.67052055
  Ewald energy   TEWEN  =    -48532.36284172
  -Hartree energ DENC   =    -28980.03727211
  -exchange      EXHF   =         0.00000000
  -V(xc)+E(xc)   XCENC  =      3296.79184313
  PAW double counting   =     81617.11150448   -84330.71973448
  entropy T*S    EENTRO =        -0.00000000
  eigenvalues    EBANDS =    -11334.85275089
  atomic energy  EATOM  =     85731.96378919
  Solvation  Ediel_sol  =         0.00000000
  ---------------------------------------------------
  free energy    TOTEN  =      -616.43494185 eV

  energy without entropy =     -616.43494185  energy(sigma->0) =     -616.43494185


--------------------------------------------------------------------------------------------------------




--------------------------------------- Iteration      1(  10)  ---------------------------------------


    POTLOK:  cpu time    0.4859: real time    0.4955
    SETDIJ:  cpu time    1.4126: real time    1.5005
     EDDAV:  cpu time  301.9551: real time  304.8695
       DOS:  cpu time    0.0022: real time    0.0022
    CHARGE:  cpu time    5.5740: real time    5.5774
    MIXING:  cpu time    0.0472: real time    0.0472
    --------------------------------------------
      LOOP:  cpu time  309.4770: real time  312.4923

 eigenvalue-minimisations  : 48480
 total energy-change (2. order) : 0.3029742E-04  (-0.1099439E-04)
 number of electron     768.0000015 magnetization      96.0002848
 augmentation part      245.4983737 magnetization      63.0120079

 Broyden mixing:
  rms(total) = 0.65762E-01    rms(broyden)= 0.65761E-01
  rms(prec ) = 0.67109E-01
  weight for this iteration     100.00

 eigenvalues of (default mixing * dielectric matrix)
  average eigenvalue GAMMA=   0.5271
  0.8006  0.8006  0.4320  0.4320  0.1703

 Free energy of the ion-electron system (eV)
  ---------------------------------------------------
  alpha Z        PSCENC =      1915.67052055
  Ewald energy   TEWEN  =    -48532.36284172
  -Hartree energ DENC   =    -28980.04989989
  -exchange      EXHF   =         0.00000000
  -V(xc)+E(xc)   XCENC  =      3296.79406046
  PAW double counting   =     81617.40858044   -84331.02573622
  entropy T*S    EENTRO =        -0.00000000
  eigenvalues    EBANDS =    -11334.83338437
  atomic energy  EATOM  =     85731.96378919
  Solvation  Ediel_sol  =         0.00000000
  ---------------------------------------------------
  free energy    TOTEN  =      -616.43491155 eV

  energy without entropy =     -616.43491155  energy(sigma->0) =     -616.43491155


--------------------------------------------------------------------------------------------------------




--------------------------------------- Iteration      1(  11)  ---------------------------------------


    POTLOK:  cpu time    0.4841: real time    0.4850
    SETDIJ:  cpu time    1.4939: real time    1.4945
     EDDAV:  cpu time  294.9662: real time  297.7793
       DOS:  cpu time    0.0027: real time    0.0027
    CHARGE:  cpu time    5.5803: real time    5.6194
    MIXING:  cpu time    0.0331: real time    0.0349
    --------------------------------------------
      LOOP:  cpu time  302.5603: real time  305.4159

 eigenvalue-minimisations  : 47288
 total energy-change (2. order) : 0.1157426E-02  (-0.1699143E-04)
 number of electron     768.0000015 magnetization      96.0002261
 augmentation part      245.5055654 magnetization      63.0110561

 Broyden mixing:
  rms(total) = 0.51700E-01    rms(broyden)= 0.51700E-01
  rms(prec ) = 0.52731E-01
  weight for this iteration     100.00

 eigenvalues of (default mixing * dielectric matrix)
  average eigenvalue GAMMA=   0.5901
  0.9834  0.9834  0.5070  0.5070  0.4144  0.1456

 Free energy of the ion-electron system (eV)
  ---------------------------------------------------
  alpha Z        PSCENC =      1915.67052055
  Ewald energy   TEWEN  =    -48532.36284172
  -Hartree energ DENC   =    -28980.67358628
  -exchange      EXHF   =         0.00000000
  -V(xc)+E(xc)   XCENC  =      3296.90325832
  PAW double counting   =     81637.46667017   -84351.65099020
  entropy T*S    EENTRO =        -0.00000000
  eigenvalues    EBANDS =    -11333.75057417
  atomic energy  EATOM  =     85731.96378919
  Solvation  Ediel_sol  =         0.00000000
  ---------------------------------------------------
  free energy    TOTEN  =      -616.43375412 eV

  energy without entropy =     -616.43375412  energy(sigma->0) =     -616.43375412


--------------------------------------------------------------------------------------------------------




--------------------------------------- Iteration      1(  12)  ---------------------------------------


    POTLOK:  cpu time    0.4940: real time    0.5033
    SETDIJ:  cpu time    1.4402: real time    1.4879
     EDDAV:  cpu time  288.3268: real time  291.1054
       DOS:  cpu time    0.0024: real time    0.0024
    CHARGE:  cpu time    5.6525: real time    5.6569
    MIXING:  cpu time    0.0361: real time    0.0364
    --------------------------------------------
      LOOP:  cpu time  295.9520: real time  298.7922

 eigenvalue-minimisations  : 45992
 total energy-change (2. order) : 0.6563217E-03  (-0.4120578E-04)
 number of electron     768.0000015 magnetization      96.0001669
 augmentation part      245.5184692 magnetization      63.0109693

 Broyden mixing:
  rms(total) = 0.39614E-01    rms(broyden)= 0.39613E-01
  rms(prec ) = 0.40353E-01
  weight for this iteration     100.00

 eigenvalues of (default mixing * dielectric matrix)
  average eigenvalue GAMMA=   0.6797
  1.2571  1.2571  0.5903  0.5903  0.4554  0.4554  0.1526

 Free energy of the ion-electron system (eV)
  ---------------------------------------------------
  alpha Z        PSCENC =      1915.67052055
  Ewald energy   TEWEN  =    -48532.36284172
  -Hartree energ DENC   =    -28981.26534531
  -exchange      EXHF   =         0.00000000
  -V(xc)+E(xc)   XCENC  =      3296.99296274
  PAW double counting   =     81654.06134515   -84368.69618938
  entropy T*S    EENTRO =        -0.00000000
  eigenvalues    EBANDS =    -11332.79733902
  atomic energy  EATOM  =     85731.96378919
  Solvation  Ediel_sol  =         0.00000000
  ---------------------------------------------------
  free energy    TOTEN  =      -616.43309780 eV

  energy without entropy =     -616.43309780  energy(sigma->0) =     -616.43309780


--------------------------------------------------------------------------------------------------------




--------------------------------------- Iteration      1(  13)  ---------------------------------------


    POTLOK:  cpu time    0.4976: real time    0.5011
    SETDIJ:  cpu time    1.4983: real time    1.4991
     EDDAV:  cpu time  304.4790: real time  306.9815
       DOS:  cpu time    0.0022: real time    0.0022
    CHARGE:  cpu time    5.7528: real time    5.7865
    MIXING:  cpu time    0.0409: real time    0.0418
    --------------------------------------------
      LOOP:  cpu time  312.2706: real time  314.8120

 eigenvalue-minimisations  : 49608
 total energy-change (2. order) : 0.4289576E-03  (-0.1175685E-04)
 number of electron     768.0000015 magnetization      96.0001370
 augmentation part      245.5238695 magnetization      63.0116350

 Broyden mixing:
  rms(total) = 0.28418E-01    rms(broyden)= 0.28417E-01
  rms(prec ) = 0.28916E-01
  weight for this iteration     100.00

 eigenvalues of (default mixing * dielectric matrix)
  average eigenvalue GAMMA=   0.7211
  1.4506  1.4506  0.6750  0.6750  0.4700  0.4700  0.4255  0.1520

 Free energy of the ion-electron system (eV)
  ---------------------------------------------------
  alpha Z        PSCENC =      1915.67052055
  Ewald energy   TEWEN  =    -48532.36284172
  -Hartree energ DENC   =    -28981.85076768
  -exchange      EXHF   =         0.00000000
  -V(xc)+E(xc)   XCENC  =      3297.07836403
  PAW double counting   =     81669.79350370   -84384.81307503
  entropy T*S    EENTRO =        -0.00000000
  eigenvalues    EBANDS =    -11331.91216189
  atomic energy  EATOM  =     85731.96378919
  Solvation  Ediel_sol  =         0.00000000
  ---------------------------------------------------
  free energy    TOTEN  =      -616.43266884 eV

  energy without entropy =     -616.43266884  energy(sigma->0) =     -616.43266884


--------------------------------------------------------------------------------------------------------




--------------------------------------- Iteration      1(  14)  ---------------------------------------


    POTLOK:  cpu time    0.4909: real time    0.4966
    SETDIJ:  cpu time    1.4287: real time    1.4986
     EDDAV:  cpu time  274.6977: real time  276.9074
       DOS:  cpu time    0.0022: real time    0.0033
    CHARGE:  cpu time    5.6813: real time    5.6876
    MIXING:  cpu time    0.0287: real time    0.0287
    --------------------------------------------
      LOOP:  cpu time  282.3295: real time  284.6226

 eigenvalue-minimisations  : 43288
 total energy-change (2. order) : 0.1250532E-03  (-0.1098490E-04)
 number of electron     768.0000015 magnetization      96.0000957
 augmentation part      245.5289710 magnetization      63.0104010

 Broyden mixing:
  rms(total) = 0.23176E-01    rms(broyden)= 0.23176E-01
  rms(prec ) = 0.23552E-01
  weight for this iteration     100.00

 eigenvalues of (default mixing * dielectric matrix)
  average eigenvalue GAMMA=   0.8014
  1.7469  1.7469  0.8151  0.8151  0.5299  0.5299  0.4382  0.4382  0.1521

 Free energy of the ion-electron system (eV)
  ---------------------------------------------------
  alpha Z        PSCENC =      1915.67052055
  Ewald energy   TEWEN  =    -48532.36284172
  -Hartree energ DENC   =    -28982.13242130
  -exchange      EXHF   =         0.00000000
  -V(xc)+E(xc)   XCENC  =      3297.11695269
  PAW double counting   =     81677.05592249   -84392.22959164
  entropy T*S    EENTRO =        -0.00000000
  eigenvalues    EBANDS =    -11331.51487405
  atomic energy  EATOM  =     85731.96378919
  Solvation  Ediel_sol  =         0.00000000
  ---------------------------------------------------
  free energy    TOTEN  =      -616.43254379 eV

  energy without entropy =     -616.43254379  energy(sigma->0) =     -616.43254379


--------------------------------------------------------------------------------------------------------




--------------------------------------- Iteration      1(  15)  ---------------------------------------


    POTLOK:  cpu time    0.4820: real time    0.4839
    SETDIJ:  cpu time    1.4684: real time    1.4750
     EDDAV:  cpu time  248.7449: real time  251.0922
       DOS:  cpu time    0.0021: real time    0.0023
    CHARGE:  cpu time    5.7274: real time    5.7926
    MIXING:  cpu time    0.0317: real time    0.0319
    --------------------------------------------
      LOOP:  cpu time  256.4565: real time  258.8776

 eigenvalue-minimisations  : 37288
 total energy-change (2. order) : 0.1284597E-03  (-0.3848766E-05)
 number of electron     768.0000015 magnetization      96.0000319
 augmentation part      245.5317677 magnetization      63.0108690

 Broyden mixing:
  rms(total) = 0.15792E-01    rms(broyden)= 0.15791E-01
  rms(prec ) = 0.16037E-01
  weight for this iteration     100.00

 eigenvalues of (default mixing * dielectric matrix)
  average eigenvalue GAMMA=   0.9495
  2.4118  2.4118  0.9627  0.9627  0.6123  0.6123  0.4709  0.4709  0.4272  0.1521

 Free energy of the ion-electron system (eV)
  ---------------------------------------------------
  alpha Z        PSCENC =      1915.67052055
  Ewald energy   TEWEN  =    -48532.36284172
  -Hartree energ DENC   =    -28982.51285171
  -exchange      EXHF   =         0.00000000
  -V(xc)+E(xc)   XCENC  =      3297.16801035
  PAW double counting   =     81686.73096238   -84402.08064927
  entropy T*S    EENTRO =        -0.00000000
  eigenvalues    EBANDS =    -11331.00935511
  atomic energy  EATOM  =     85731.96378919
  Solvation  Ediel_sol  =         0.00000000
  ---------------------------------------------------
  free energy    TOTEN  =      -616.43241533 eV

  energy without entropy =     -616.43241533  energy(sigma->0) =     -616.43241533


--------------------------------------------------------------------------------------------------------




--------------------------------------- Iteration      1(  16)  ---------------------------------------


    POTLOK:  cpu time    0.4842: real time    0.4846
    SETDIJ:  cpu time    1.4700: real time    1.5084
     EDDAV:  cpu time  277.8307: real time  280.4568
       DOS:  cpu time    0.0023: real time    0.0023
    CHARGE:  cpu time    5.6688: real time    5.6862
    MIXING:  cpu time    0.0344: real time    0.0410
    --------------------------------------------
      LOOP:  cpu time  285.4903: real time  288.1794

 eigenvalue-minimisations  : 43360
 total energy-change (2. order) : 0.1067357E-03  (-0.1282793E-04)
 number of electron     768.0000015 magnetization      96.0000087
 augmentation part      245.5379977 magnetization      63.0108010

 Broyden mixing:
  rms(total) = 0.46705E-02    rms(broyden)= 0.46682E-02
  rms(prec ) = 0.47095E-02
  weight for this iteration     100.00

 eigenvalues of (default mixing * dielectric matrix)
  average eigenvalue GAMMA=   0.9528
  2.4687  2.4687  1.0410  1.0410  0.6863  0.6863  0.1521  0.5056  0.5056  0.4628
  0.4628

 Free energy of the ion-electron system (eV)
  ---------------------------------------------------
  alpha Z        PSCENC =      1915.67052055
  Ewald energy   TEWEN  =    -48532.36284172
  -Hartree energ DENC   =    -28983.11179149
  -exchange      EXHF   =         0.00000000
  -V(xc)+E(xc)   XCENC  =      3297.24700202
  PAW double counting   =     81701.71723694   -84417.34745320
  entropy T*S    EENTRO =        -0.00000000
  eigenvalues    EBANDS =    -11330.20877090
  atomic energy  EATOM  =     85731.96378919
  Solvation  Ediel_sol  =         0.00000000
  ---------------------------------------------------
  free energy    TOTEN  =      -616.43230860 eV

  energy without entropy =     -616.43230860  energy(sigma->0) =     -616.43230860


--------------------------------------------------------------------------------------------------------




--------------------------------------- Iteration      1(  17)  ---------------------------------------


    POTLOK:  cpu time    0.4822: real time    0.4874
    SETDIJ:  cpu time    1.4027: real time    1.4703
     EDDAV:  cpu time  287.9018: real time  290.5806
       DOS:  cpu time    0.0026: real time    0.0026
    CHARGE:  cpu time    5.6829: real time    5.7342
    MIXING:  cpu time    0.0323: real time    0.0369
    --------------------------------------------
      LOOP:  cpu time  295.5044: real time  298.3121

 eigenvalue-minimisations  : 45560
 total energy-change (2. order) : 0.2004919E-05  (-0.9513690E-05)
 number of electron     768.0000015 magnetization      96.0000065
 augmentation part      245.5419597 magnetization      63.0104827

 Broyden mixing:
  rms(total) = 0.19880E-02    rms(broyden)= 0.19827E-02
  rms(prec ) = 0.20268E-02
  weight for this iteration     100.00

 eigenvalues of (default mixing * dielectric matrix)
  average eigenvalue GAMMA=   0.9108
  2.4770  2.4770  1.0568  1.0568  0.6961  0.6961  0.1521  0.4943  0.4943  0.4734
  0.4734  0.3818

 Free energy of the ion-electron system (eV)
  ---------------------------------------------------
  alpha Z        PSCENC =      1915.67052055
  Ewald energy   TEWEN  =    -48532.36284172
  -Hartree energ DENC   =    -28983.32787609
  -exchange      EXHF   =         0.00000000
  -V(xc)+E(xc)   XCENC  =      3297.27641221
  PAW double counting   =     81707.44726905   -84423.20073840
  entropy T*S    EENTRO =        -0.00000000
  eigenvalues    EBANDS =    -11329.89884138
  atomic energy  EATOM  =     85731.96378919
  Solvation  Ediel_sol  =         0.00000000
  ---------------------------------------------------
  free energy    TOTEN  =      -616.43230659 eV

  energy without entropy =     -616.43230659  energy(sigma->0) =     -616.43230659


--------------------------------------------------------------------------------------------------------




--------------------------------------- Iteration      1(  18)  ---------------------------------------


    POTLOK:  cpu time    0.4860: real time    0.4909
    SETDIJ:  cpu time    1.3886: real time    1.4443
     EDDAV:  cpu time  249.8774: real time  252.1957
       DOS:  cpu time    0.0022: real time    0.0022
    CHARGE:  cpu time    5.6731: real time    5.6764
    MIXING:  cpu time    0.0266: real time    0.0266
    --------------------------------------------
      LOOP:  cpu time  257.4540: real time  259.8362

 eigenvalue-minimisations  : 38808
 total energy-change (2. order) :-0.7312337E-06  (-0.1313931E-05)
 number of electron     768.0000015 magnetization      96.0000059
 augmentation part      245.5437462 magnetization      63.0106014

 Broyden mixing:
  rms(total) = 0.20638E-02    rms(broyden)= 0.20593E-02
  rms(prec ) = 0.21289E-02
  weight for this iteration     100.00

 eigenvalues of (default mixing * dielectric matrix)
  average eigenvalue GAMMA=   0.8670
  2.4986  2.4986  1.0569  1.0569  0.6958  0.6958  0.1521  0.4899  0.4899  0.4538
  0.4538  0.3646  0.3646

 Free energy of the ion-electron system (eV)
  ---------------------------------------------------
  alpha Z        PSCENC =      1915.67052055
  Ewald energy   TEWEN  =    -48532.36284172
  -Hartree energ DENC   =    -28983.34126008
  -exchange      EXHF   =         0.00000000
  -V(xc)+E(xc)   XCENC  =      3297.27825621
  PAW double counting   =     81707.92999847   -84423.68961302
  entropy T*S    EENTRO =        -0.00000000
  eigenvalues    EBANDS =    -11329.88115693
  atomic energy  EATOM  =     85731.96378919
  Solvation  Ediel_sol  =         0.00000000
  ---------------------------------------------------
  free energy    TOTEN  =      -616.43230732 eV

  energy without entropy =     -616.43230732  energy(sigma->0) =     -616.43230732


--------------------------------------------------------------------------------------------------------




--------------------------------------- Iteration      1(  19)  ---------------------------------------


    POTLOK:  cpu time    0.4814: real time    0.4818
    SETDIJ:  cpu time    1.4511: real time    1.4522
     EDDAV:  cpu time  160.8921: real time  162.4465
       DOS:  cpu time    0.0020: real time    0.0020
    --------------------------------------------
      LOOP:  cpu time  162.8265: real time  164.3825

 eigenvalue-minimisations  : 21384
 total energy-change (2. order) : 0.1296576E-06  (-0.3453158E-07)
 number of electron     768.0000015 magnetization      96.0000059
 augmentation part      245.5437462 magnetization      63.0106014

 Free energy of the ion-electron system (eV)
  ---------------------------------------------------
  alpha Z        PSCENC =      1915.67052055
  Ewald energy   TEWEN  =    -48532.36284172
  -Hartree energ DENC   =    -28983.34499750
  -exchange      EXHF   =         0.00000000
  -V(xc)+E(xc)   XCENC  =      3297.27829875
  PAW double counting   =     81707.98164304   -84423.74100504
  entropy T*S    EENTRO =        -0.00000000
  eigenvalues    EBANDS =    -11329.87771447
  atomic energy  EATOM  =     85731.96378919
  Solvation  Ediel_sol  =         0.00000000
  ---------------------------------------------------
  free energy    TOTEN  =      -616.43230719 eV

  energy without entropy =     -616.43230719  energy(sigma->0) =     -616.43230719


--------------------------------------------------------------------------------------------------------




 average (electrostatic) potential at core
  the test charge radii are     0.7079  0.7215  0.9698  0.9500
  (the norm of the test charge is              1.0000)
       1 -59.3875       2 -59.3880       3 -59.3900       4 -59.3892       5 -59.3892
       6 -59.3894       7 -59.3910       8 -59.3908       9 -59.3905      10 -59.3906
      11 -59.3905      12 -59.3907      13 -59.3930      14 -59.3933      15 -59.3907
      16 -59.3908      17 -59.3909      18 -59.3906      19 -59.3892      20 -59.3893
      21 -59.3896      22 -59.3897      23 -59.3895      24 -59.3899      25 -59.5927
      26 -59.5922      27 -59.5916      28 -59.5923      29 -59.5916      30 -59.5925
      31 -59.5929      32 -59.5927      33 -59.5937      34 -59.5922      35 -59.5927
      36 -59.5920      37 -59.5924      38 -59.5929      39 -59.5935      40 -59.5951
      41 -59.5922      42 -59.5912      43 -59.5926      44 -59.5919      45 -59.5922
      46 -59.5921      47 -59.5913      48 -59.5916      49 -70.1720      50 -70.1764
      51 -70.1765      52 -70.1761      53 -70.1761      54 -70.1762      55 -70.1782
      56 -70.1776      57 -70.1777      58 -70.1778      59 -70.1774      60 -70.1774
      61 -70.1839      62 -70.1775      63 -70.1775      64 -70.1778      65 -70.1777
      66 -70.1778      67 -70.1755      68 -70.1763      69 -70.1763      70 -70.1763
      71 -70.1766      72 -70.1766      73 -86.0067      74 -86.0067      75 -86.0048
      76 -86.0048      77 -86.0048      78 -86.0044      79 -86.0030      80 -86.0030
      81 -86.0037      82 -86.0035      83 -86.0035      84 -86.0036      85 -86.0015
      86 -86.0015      87 -86.0032      88 -86.0035      89 -86.0034      90 -86.0038
      91 -86.0052      92 -86.0052      93 -86.0045      94 -86.0047      95 -86.0047
      96 -86.0046      97 -79.0564      98 -79.0571      99 -79.0571     100 -79.0566
     101 -79.0580     102 -79.0580     103 -79.0608     104 -79.0590     105 -79.0590
     106 -79.0595     107 -79.0593     108 -79.0594     109 -79.0620     110 -79.0594
     111 -79.0594     112 -79.0591     113 -79.0590     114 -79.0590     115 -79.0553
     116 -79.0576     117 -79.0576     118 -79.0578     119 -79.0579     120 -79.0580
 
 
 
 E-fermi :   4.4021     XC(G=0): -10.1825     alpha+bet :-12.6708


 spin component 1

 k-point     1 :       0.0000    0.0000    0.0000
  band No.  band energies     occupation 
      1     -51.4841      1.00000
      2     -51.4827      1.00000
      3     -51.4827      1.00000
      4     -51.4813      1.00000
      5     -51.4812      1.00000
      6     -51.4802      1.00000
      7     -51.4685      1.00000
      8     -51.4681      1.00000
      9     -51.4671      1.00000
     10     -51.4670      1.00000
     11     -51.4670      1.00000
     12     -51.4670      1.00000
     13     -51.4657      1.00000
     14     -51.4657      1.00000
     15     -51.4655      1.00000
     16     -51.4654      1.00000
     17     -51.4645      1.00000
     18     -51.4644      1.00000
     19     -51.4527      1.00000
     20     -51.4515      1.00000
     21     -51.4515      1.00000
     22     -51.4501      1.00000
     23     -51.4500      1.00000
     24     -51.4489      1.00000
     25     -50.2035      1.00000
     26     -50.2023      1.00000
     27     -50.2017      1.00000
     28     -50.2007      1.00000
     29     -50.2007      1.00000
     30     -50.2004      1.00000
     31     -50.2002      1.00000
     32     -50.1996      1.00000
     33     -50.1995      1.00000
     34     -50.1994      1.00000
     35     -50.1990      1.00000
     36     -50.1990      1.00000
     37     -50.1981      1.00000
     38     -50.1978      1.00000
     39     -50.1977      1.00000
     40     -50.1975      1.00000
     41     -50.1975      1.00000
     42     -50.1968      1.00000
     43     -50.1964      1.00000
     44     -50.1964      1.00000
     45     -50.1963      1.00000
     46     -50.1952      1.00000
     47     -50.1948      1.00000
     48     -50.1934      1.00000
     49     -50.0087      1.00000
     50     -50.0075      1.00000
     51     -50.0075      1.00000
     52     -50.0060      1.00000
     53     -50.0060      1.00000
     54     -50.0050      1.00000
     55     -49.9925      1.00000
     56     -49.9922      1.00000
     57     -49.9913      1.00000
     58     -49.9913      1.00000
     59     -49.9912      1.00000
     60     -49.9912      1.00000
     61     -49.9899      1.00000
     62     -49.9898      1.00000
     63     -49.9896      1.00000
     64     -49.9896      1.00000
     65     -49.9889      1.00000
     66     -49.9886      1.00000
     67     -49.9758      1.00000
     68     -49.9748      1.00000
     69     -49.9747      1.00000
     70     -49.9732      1.00000
     71     -49.9732      1.00000
     72     -49.9722      1.00000
     73     -40.5230      1.00000
     74     -40.5226      1.00000
     75     -40.5206      1.00000
     76     -40.5202      1.00000
     77     -40.5199      1.00000
     78     -40.5199      1.00000
     79     -40.5141      1.00000
     80     -40.5137      1.00000
     81     -40.5131      1.00000
     82     -40.5130      1.00000
     83     -40.5125      1.00000
     84     -40.5123      1.00000
     85     -40.5121      1.00000
     86     -40.5119      1.00000
     87     -40.5117      1.00000
     88     -40.5116      1.00000
     89     -40.5114      1.00000
     90     -40.5111      1.00000
     91     -40.5044      1.00000
     92     -40.5039      1.00000
     93     -40.5037      1.00000
     94     -40.5036      1.00000
     95     -40.5034      1.00000
     96     -40.5034      1.00000
     97     -40.3073      1.00000
     98     -40.3070      1.00000
     99     -40.3052      1.00000
    100     -40.3050      1.00000
    101     -40.3049      1.00000
    102     -40.3049      1.00000
    103     -40.3048      1.00000
    104     -40.3047      1.00000
    105     -40.3046      1.00000
    106     -40.3046      1.00000
    107     -40.3045      1.00000
    108     -40.3042      1.00000
    109     -40.3038      1.00000
    110     -40.3038      1.00000
    111     -40.3036      1.00000
    112     -40.3035      1.00000
    113     -40.3033      1.00000
    114     -40.3033      1.00000
    115     -40.3032      1.00000
    116     -40.3031      1.00000
    117     -40.3026      1.00000
    118     -40.3024      1.00000
    119     -40.3019      1.00000
    120     -40.3012      1.00000
    121     -13.5429      1.00000
    122     -13.5425      1.00000
    123     -13.5130      1.00000
    124     -13.5119      1.00000
    125     -13.5109      1.00000
    126     -13.4890      1.00000
    127     -13.3775      1.00000
    128     -13.3747      1.00000
    129     -13.3746      1.00000
    130     -13.3745      1.00000
    131     -13.3729      1.00000
    132     -13.3727      1.00000
    133     -13.3727      1.00000
    134     -13.3710      1.00000
    135     -13.3416      1.00000
    136     -13.3403      1.00000
    137     -13.3370      1.00000
    138     -13.3360      1.00000
    139     -13.2389      1.00000
    140     -13.2385      1.00000
    141     -13.2021      1.00000
    142     -13.2018      1.00000
    143     -13.1974      1.00000
[...]
   0.193E+00 0.305E+02 -.266E+03   -.203E+00 -.319E+02 0.274E+03   0.100E-01 0.140E+01 -.824E+01   0.120E-03 -.245E-03 0.258E-03
   0.167E+00 0.305E+02 -.266E+03   -.175E+00 -.319E+02 0.274E+03   0.900E-02 0.140E+01 -.824E+01   -.803E-04 -.221E-03 0.983E-04
   0.163E+00 0.305E+02 -.266E+03   -.171E+00 -.319E+02 0.274E+03   0.740E-02 0.140E+01 -.824E+01   -.528E-04 -.152E-03 0.305E-03
   0.170E+00 0.305E+02 -.266E+03   -.180E+00 -.319E+02 0.274E+03   0.103E-01 0.140E+01 -.824E+01   0.103E-03 -.148E-03 0.161E-03
   0.167E+00 0.305E+02 -.266E+03   -.175E+00 -.319E+02 0.274E+03   0.901E-02 0.140E+01 -.823E+01   -.984E-04 -.144E-03 0.334E-03
   0.180E+00 0.305E+02 -.266E+03   -.189E+00 -.319E+02 0.274E+03   0.937E-02 0.140E+01 -.824E+01   0.244E-04 -.256E-03 0.384E-03
   0.153E+00 0.305E+02 -.266E+03   -.162E+00 -.319E+02 0.274E+03   0.836E-02 0.140E+01 -.824E+01   0.728E-04 -.347E-03 0.198E-03
   0.167E+00 0.305E+02 -.266E+03   -.176E+00 -.319E+02 0.274E+03   0.899E-02 0.140E+01 -.824E+01   -.114E-04 -.612E-04 0.304E-03
   0.170E+00 0.305E+02 -.266E+03   -.179E+00 -.319E+02 0.274E+03   0.944E-02 0.140E+01 -.824E+01   -.287E-04 -.194E-03 0.319E-03
   0.163E+00 0.305E+02 -.266E+03   -.172E+00 -.319E+02 0.274E+03   0.834E-02 0.140E+01 -.824E+01   -.238E-04 -.144E-03 0.397E-03
   -.352E-01 -.246E+02 -.149E+03   0.346E-01 0.251E+02 0.150E+03   0.290E-02 -.552E+00 -.114E+01   -.579E-04 0.166E-03 -.414E-03
   -.207E+00 -.246E+02 -.149E+03   0.213E+00 0.251E+02 0.150E+03   -.901E-02 -.552E+00 -.114E+01   0.295E-04 0.168E-03 -.437E-03
   -.121E+00 -.245E+02 -.149E+03   0.124E+00 0.251E+02 0.150E+03   -.299E-02 -.546E+00 -.115E+01   0.188E-04 0.551E-04 -.389E-03
   -.110E+00 -.245E+02 -.149E+03   0.113E+00 0.250E+02 0.150E+03   -.172E-02 -.544E+00 -.115E+01   -.905E-04 0.945E-04 -.521E-03
   -.131E+00 -.245E+02 -.149E+03   0.134E+00 0.250E+02 0.150E+03   -.429E-02 -.544E+00 -.115E+01   0.193E-04 0.362E-04 -.502E-03
   -.121E+00 -.245E+02 -.149E+03   0.124E+00 0.251E+02 0.150E+03   -.305E-02 -.546E+00 -.115E+01   0.445E-04 0.160E-03 -.368E-03
   -.142E+00 -.245E+02 -.149E+03   0.146E+00 0.250E+02 0.150E+03   -.420E-02 -.545E+00 -.114E+01   0.291E-04 0.635E-04 -.404E-03
   -.990E-01 -.245E+02 -.149E+03   0.101E+00 0.250E+02 0.150E+03   -.182E-02 -.545E+00 -.114E+01   0.444E-04 0.514E-04 -.345E-03
   -.121E+00 -.245E+02 -.149E+03   0.124E+00 0.251E+02 0.150E+03   -.297E-02 -.546E+00 -.114E+01   -.468E-04 0.488E-04 -.370E-03
   -.127E+00 -.245E+02 -.149E+03   0.130E+00 0.251E+02 0.150E+03   -.319E-02 -.546E+00 -.114E+01   -.308E-04 0.161E-03 -.301E-03
   -.114E+00 -.245E+02 -.149E+03   0.117E+00 0.251E+02 0.150E+03   -.286E-02 -.546E+00 -.114E+01   0.130E-04 0.115E-03 -.339E-03
   -.121E+00 -.245E+02 -.149E+03   0.124E+00 0.251E+02 0.150E+03   -.295E-02 -.546E+00 -.114E+01   0.300E-04 0.999E-04 -.317E-03
   -.288E+00 -.246E+02 0.149E+03   0.293E+00 0.252E+02 -.150E+03   -.348E-02 -.547E+00 0.114E+01   0.895E-04 0.205E-03 0.348E-03
   0.455E-01 -.246E+02 0.149E+03   -.444E-01 0.252E+02 -.150E+03   -.254E-02 -.547E+00 0.114E+01   -.988E-04 0.205E-03 0.360E-03
   -.121E+00 -.245E+02 0.149E+03   0.124E+00 0.251E+02 -.150E+03   -.304E-02 -.545E+00 0.114E+01   -.780E-05 0.118E-03 0.386E-03
   -.126E+00 -.245E+02 0.149E+03   0.129E+00 0.251E+02 -.150E+03   -.405E-02 -.545E+00 0.114E+01   -.141E-05 0.119E-03 0.283E-03
   -.116E+00 -.245E+02 0.149E+03   0.118E+00 0.251E+02 -.150E+03   -.202E-02 -.545E+00 0.114E+01   0.278E-04 0.884E-04 0.362E-03
   -.121E+00 -.245E+02 0.149E+03   0.124E+00 0.251E+02 -.150E+03   -.299E-02 -.546E+00 0.114E+01   -.396E-04 0.111E-03 0.330E-03
   -.104E+00 -.245E+02 0.149E+03   0.106E+00 0.251E+02 -.150E+03   -.149E-02 -.545E+00 0.115E+01   -.437E-04 -.210E-04 0.415E-03
   -.137E+00 -.245E+02 0.149E+03   0.141E+00 0.251E+02 -.150E+03   -.460E-02 -.545E+00 0.115E+01   0.328E-04 0.101E-03 0.409E-03
   -.121E+00 -.245E+02 0.149E+03   0.124E+00 0.251E+02 -.150E+03   -.294E-02 -.546E+00 0.115E+01   0.780E-05 0.932E-04 0.429E-03
   -.117E+00 -.245E+02 0.149E+03   0.120E+00 0.251E+02 -.150E+03   -.289E-02 -.546E+00 0.115E+01   -.136E-04 0.116E-03 0.473E-03
   -.124E+00 -.245E+02 0.149E+03   0.127E+00 0.251E+02 -.150E+03   -.312E-02 -.546E+00 0.115E+01   -.339E-04 0.771E-04 0.417E-03
   -.121E+00 -.245E+02 0.149E+03   0.124E+00 0.251E+02 -.150E+03   -.299E-02 -.546E+00 0.115E+01   0.799E-04 0.756E-04 0.369E-03
   -.790E-01 -.162E+02 0.823E+02   0.843E-01 0.173E+02 -.835E+02   -.526E-02 -.115E+01 0.122E+01   -.124E-03 0.399E-04 0.499E-03
   -.457E-01 -.160E+02 0.822E+02   0.445E-01 0.171E+02 -.834E+02   0.142E-03 -.115E+01 0.122E+01   0.110E-03 0.254E-04 0.560E-03
   -.110E+00 -.160E+02 0.822E+02   0.122E+00 0.171E+02 -.834E+02   -.110E-01 -.115E+01 0.122E+01   -.312E-04 -.205E-04 0.615E-03
   -.773E-01 -.158E+02 0.822E+02   0.825E-01 0.170E+02 -.834E+02   -.519E-02 -.113E+01 0.123E+01   -.702E-04 0.222E-03 0.581E-03
   -.560E-01 -.159E+02 0.822E+02   0.602E-01 0.171E+02 -.834E+02   -.464E-02 -.114E+01 0.122E+01   0.764E-04 -.122E-03 0.463E-03
   -.996E-01 -.159E+02 0.822E+02   0.106E+00 0.171E+02 -.834E+02   -.621E-02 -.114E+01 0.122E+01   -.805E-04 -.102E-03 0.477E-03
   -.772E-01 -.158E+02 0.823E+02   0.825E-01 0.170E+02 -.835E+02   -.521E-02 -.113E+01 0.123E+01   -.146E-03 0.194E-03 0.819E-03
   -.107E+00 -.159E+02 0.822E+02   0.114E+00 0.171E+02 -.834E+02   -.655E-02 -.114E+01 0.122E+01   0.141E-04 -.448E-04 0.473E-03
   -.488E-01 -.159E+02 0.822E+02   0.524E-01 0.171E+02 -.834E+02   -.429E-02 -.114E+01 0.122E+01   0.498E-04 -.123E-04 0.400E-03
   -.782E-01 -.160E+02 0.822E+02   0.834E-01 0.172E+02 -.834E+02   -.523E-02 -.115E+01 0.122E+01   -.107E-03 -.413E-04 0.563E-03
   -.938E-01 -.160E+02 0.822E+02   0.102E+00 0.171E+02 -.834E+02   -.799E-02 -.115E+01 0.122E+01   -.285E-04 -.140E-03 0.489E-03
   -.621E-01 -.160E+02 0.822E+02   0.640E-01 0.171E+02 -.834E+02   -.289E-02 -.115E+01 0.122E+01   0.361E-04 -.126E-03 0.591E-03
   -.784E-01 -.161E+02 -.817E+02   0.837E-01 0.172E+02 0.829E+02   -.532E-02 -.116E+01 -.120E+01   -.624E-04 -.286E-03 -.606E-03
   -.136E+00 -.160E+02 -.821E+02   0.145E+00 0.171E+02 0.834E+02   -.857E-02 -.114E+01 -.122E+01   0.751E-04 -.593E-04 -.518E-03
   -.198E-01 -.160E+02 -.821E+02   0.211E-01 0.171E+02 0.834E+02   -.226E-02 -.114E+01 -.122E+01   -.522E-04 -.582E-04 -.432E-03
   -.777E-01 -.159E+02 -.822E+02   0.830E-01 0.171E+02 0.834E+02   -.522E-02 -.114E+01 -.122E+01   -.134E-03 0.213E-04 -.572E-03
   -.860E-01 -.159E+02 -.822E+02   0.924E-01 0.171E+02 0.834E+02   -.641E-02 -.114E+01 -.122E+01   -.550E-04 0.219E-04 -.433E-03
   -.699E-01 -.159E+02 -.822E+02   0.737E-01 0.171E+02 0.834E+02   -.447E-02 -.114E+01 -.122E+01   0.132E-03 -.395E-04 -.558E-03
   -.771E-01 -.158E+02 -.816E+02   0.824E-01 0.170E+02 0.828E+02   -.522E-02 -.115E+01 -.120E+01   -.200E-03 -.371E-03 -.759E-03
   -.176E-01 -.159E+02 -.821E+02   0.200E-01 0.171E+02 0.834E+02   -.332E-02 -.114E+01 -.122E+01   0.188E-03 -.469E-04 -.569E-03
   -.138E+00 -.159E+02 -.821E+02   0.146E+00 0.171E+02 0.834E+02   -.755E-02 -.114E+01 -.122E+01   -.902E-04 -.784E-04 -.573E-03
   -.780E-01 -.160E+02 -.822E+02   0.831E-01 0.171E+02 0.834E+02   -.525E-02 -.114E+01 -.122E+01   -.166E-04 -.665E-05 -.487E-03
   -.692E-01 -.160E+02 -.822E+02   0.737E-01 0.171E+02 0.834E+02   -.496E-02 -.114E+01 -.122E+01   0.717E-04 -.494E-04 -.486E-03
   -.866E-01 -.160E+02 -.822E+02   0.925E-01 0.171E+02 0.834E+02   -.588E-02 -.114E+01 -.122E+01   -.171E-03 0.602E-04 -.339E-03
 -----------------------------------------------------------------------------------------------
   -.818E-01 -.204E+01 -.175E+00   0.139E-12 -.139E-12 0.114E-12   0.819E-01 0.205E+01 0.175E+00   -.699E-03 -.347E-02 -.813E-04
 
 
 POSITION                                       TOTAL-FORCE (eV/Angst)
 -----------------------------------------------------------------------------------
      0.43553      4.06770      3.99103         0.002729     -0.001865      0.000672
      4.34744      4.04855      3.99103        -0.000610     -0.001847      0.000690
      8.25935      4.02941      3.99103        -0.000245     -0.000136      0.000140
      0.46293      9.67687      3.99103         0.000051      0.000413      0.000212
      4.37484      9.65772      3.99103         0.002087      0.000401      0.000225
      8.28675      9.63857      3.99103        -0.000245      0.000066      0.000089
      0.43553      4.06770      9.58884        -0.000026      0.000052     -0.000875
      4.34744      4.04855      9.58884         0.002172      0.000041     -0.000862
      8.25935      4.02941      9.58884        -0.000254     -0.000026     -0.000358
      0.46293      9.67687      9.58884         0.000007     -0.000154     -0.000430
      4.37484      9.65772      9.58884         0.002125     -0.000158     -0.000417
      8.28675      9.63857      9.58884        -0.000246     -0.000014     -0.000301
      0.42183      1.26312      1.60678        -0.004116     -0.002275     -0.000310
      4.33373      1.24397      1.60678         0.006232     -0.002324     -0.000326
      8.24564      1.22482      1.60678        -0.000247     -0.000088      0.000417
      0.44923      6.87229      1.60678         0.000207      0.000397      0.000499
      4.36114      6.85314      1.60678         0.001945      0.000385      0.000488
      8.27305      6.83399      1.60678        -0.000255      0.000038      0.000309
      0.42183      1.26312      7.20459         0.000379      0.000063     -0.000609
      4.33373      1.24397      7.20459         0.001770      0.000057     -0.000621
      8.24564      1.22482      7.20459        -0.000251     -0.000051     -0.000154
      0.44923      6.87229      7.20459         0.000172     -0.000183     -0.000143
      4.36114      6.85314      7.20459         0.001963     -0.000191     -0.000156
      8.27305      6.83399      7.20459        -0.000246     -0.000033     -0.000064
      2.38373      2.44499      3.04038        -0.000088      0.013714      0.038493
      6.29564      2.42584      3.05038        -0.000372     -0.000477      0.000881
     10.20755      2.40669      3.05038        -0.000028     -0.000487      0.000870
      2.41113      8.05416      3.05038        -0.000152      0.000056      0.000490
      6.32304      8.03501      3.05038        -0.000199      0.000126      0.000472
     10.23495      8.01586      3.05038        -0.000198      0.000130      0.000464
      2.38373      2.44499      8.64819        -0.000151      0.000022     -0.000833
      6.29564      2.42584      8.64819        -0.000100      0.000213     -0.000605
     10.20755      2.40669      8.64819        -0.000294      0.000210     -0.000594
      2.41113      8.05416      8.64819        -0.000153      0.000100     -0.000557
      6.32304      8.03501      8.64819        -0.000167      0.000188     -0.000421
     10.23495      8.01586      8.64819        -0.000221      0.000187     -0.000404
      2.39743      5.24957      2.54743        -0.000145      0.001207      0.002152
      6.30934      5.23042      2.54743         0.000189      0.000314      0.000820
     10.22125      5.21128      2.54743        -0.000581      0.000311      0.000836
      2.42483     10.85874      2.54743        -0.000161     -0.001426      0.002148
      6.33674     10.83959      2.54743        -0.000361      0.000387      0.000822
     10.24865     10.82044      2.54743        -0.000027      0.000388      0.000833
      2.39743      5.24957      8.14524        -0.000150      0.000069     -0.000674
      6.30934      5.23042      8.14524        -0.000330     -0.000017     -0.000406
     10.22125      5.21128      8.14524        -0.000067     -0.000016     -0.000427
      2.42483     10.85874      8.14524        -0.000148      0.000185     -0.000676
      6.33674     10.83959      8.14524        -0.000108     -0.000016     -0.000411
     10.24865     10.82044      8.14524        -0.000290     -0.000021     -0.000422
      2.39183      4.11329      4.18453         0.000021     -0.000132     -0.004215
      6.30374      4.09414      4.18453         0.000263      0.000486     -0.000466
     10.21565      4.07499      4.18453        -0.000515      0.000445     -0.000476
      2.41924      9.72245      4.18453         0.000004     -0.000865     -0.000459
      6.33115      9.70331      4.18453         0.000393     -0.000854     -0.000065
     10.24306      9.68416      4.18453        -0.000648     -0.000915     -0.000078
      2.39183      4.11329      9.78234         0.000004     -0.000531      0.001803
      6.30374      4.09414      9.78234        -0.000315     -0.000011      0.001219
     10.21565      4.07499      9.78234         0.000070     -0.000019      0.001130
      2.41924      9.72245      9.78234         0.000015      0.000668      0.000910
      6.33115      9.70331      9.78234        -0.000136      0.000075      0.000608
     10.24306      9.68416      9.78234        -0.000109      0.000087      0.000537
      2.37813      1.30870      1.41328         0.000000     -0.003444     -0.008038
      6.29004      1.28956      1.41328        -0.000334      0.000473     -0.000992
     10.20195      1.27041      1.41328         0.000086      0.000441     -0.000969
      2.40554      6.91787      1.41328         0.000013     -0.000530     -0.000603
      6.31744      6.89872      1.41328        -0.000447     -0.000616     -0.000587
     10.22935      6.87958      1.41328         0.000193     -0.000650     -0.000544
      2.37813      1.30870      7.01109         0.000014     -0.000796      0.001948
      6.29004      1.28956      7.01109         0.000128     -0.000044      0.000731
     10.20195      1.27041      7.01109        -0.000379     -0.000023      0.000835
      2.40554      6.91787      7.01109         0.000013      0.000420      0.000580
      6.31744      6.89872      7.01109         0.000116      0.000017      0.000101
     10.22935      6.87958      7.01109        -0.000355      0.000033      0.000178
      0.43605      4.15009      1.34677         0.002296     -0.002076      0.000212
      4.34796      4.13094      1.34677        -0.002654     -0.002063      0.000210
      8.25987      4.11179      1.34677        -0.000157     -0.000011     -0.000387
      0.46346      9.75926      1.34677         0.000500      0.000510     -0.000537
      4.37537      9.74011      1.34677        -0.000834      0.000513     -0.000538
      8.28728      9.72096      1.34677        -0.000163     -0.000191     -0.000385
      0.43605      4.15009      6.94458        -0.000864      0.000223      0.001030
      4.34796      4.13094      6.94458         0.000525      0.000220      0.001029
      8.25987      4.11179      6.94458        -0.000155      0.000054      0.000246
      0.46346      9.75926      6.94458        -0.000276     -0.000338      0.000500
      4.37537      9.74011      6.94458        -0.000065     -0.000333      0.000502
      8.28728      9.72096      6.94458        -0.000157     -0.000216      0.000282
      0.42235      1.34551      4.25104         0.001222      0.000285     -0.002513
      4.33426      1.32636      4.25104        -0.001568      0.000289     -0.002511
      8.24617      1.30721      4.25104        -0.000150      0.000078     -0.000158
      0.44976      6.95467      4.25104        -0.000701      0.000364     -0.000360
      4.36166      6.93553      4.25104         0.000363      0.000349     -0.000362
      8.27357      6.91638      4.25104        -0.000159     -0.000152     -0.000193
      0.42235      1.34551      9.84885         0.000628      0.000110      0.001358
      4.33426      1.32636      9.84885        -0.000963      0.000109      0.001361
      8.24617      1.30721      9.84885        -0.000162      0.000009      0.000370
      0.44976      6.95467      9.84885        -0.000110     -0.000330      0.000669
      4.36166      6.93553      9.84885        -0.000230     -0.000327      0.000671
      8.27357      6.91638      9.84885        -0.000162     -0.000238      0.000445
      2.37239      0.12585      5.37429        -0.000065      0.001870     -0.000902
      6.28430      0.10670      5.37429        -0.001016      0.000609     -0.000926
     10.19621      0.08756      5.37429         0.000486      0.000576     -0.000950
      2.39979      5.73502      5.37429        -0.000086     -0.002370     -0.001649
      6.31170      5.71587      5.37429        -0.000442     -0.000057      0.000055
     10.22361      5.69672      5.37429        -0.000095     -0.000084      0.000027
      2.37239      0.12585     10.97210        -0.000092     -0.002665     -0.003035
      6.28430      0.10670     10.97210         0.000060     -0.000123      0.000110
     10.19621      0.08756     10.97210        -0.000599     -0.000128      0.000135
      2.39979      5.73502     10.97210        -0.000072      0.000972     -0.000326
      6.31170      5.71587     10.97210         0.000465      0.000599     -0.000592
     10.22361      5.69672     10.97210        -0.000995      0.000595     -0.000568
      2.38609      2.93043      0.22352        -0.000058      0.003603     -0.011627
      6.29800      2.91129      0.22352         0.000475     -0.000459     -0.000423
     10.20991      2.89214      0.22352        -0.001020     -0.000482     -0.000403
      2.41350      8.53960      0.22352        -0.000079     -0.000089     -0.000109
      6.32541      8.52045      0.22352        -0.000034      0.000214     -0.000279
     10.23731      8.50131      0.22352        -0.000502      0.000204     -0.000269
      2.38609      2.93043      5.82133        -0.000082     -0.001362     -0.011989
      6.29800      2.91129      5.82133        -0.000789     -0.000310     -0.000306
     10.20991      2.89214      5.82133         0.000251     -0.000324     -0.000346
      2.41350      8.53960      5.82133        -0.000074      0.000203     -0.000124
      6.32541      8.52045      5.82133        -0.000359      0.000270     -0.000232
     10.23731      8.50131      5.82133        -0.000175      0.000267     -0.000269
 -----------------------------------------------------------------------------------
    total drift:                               -0.000631      0.001230      0.000043


--------------------------------------------------------------------------------------------------------



  FREE ENERGIE OF THE ION-ELECTRON SYSTEM (eV)
  ---------------------------------------------------
  free  energy   TOTEN  =      -616.43230719 eV

  energy  without entropy=     -616.43230719  energy(sigma->0) =     -616.43230719
 


--------------------------------------------------------------------------------------------------------


    POTLOK:  cpu time    1.9127: real time    1.9969


--------------------------------------------------------------------------------------------------------


     LOOP+:  cpu time 5598.7362: real time 5650.6110
    4ORBIT:  cpu time    0.0000: real time    0.0000

 total amount of memory used by VASP MPI-rank0   801761. kBytes
=======================================================================

   base      :      30000. kBytes
   nonl-proj :      92491. kBytes
   fftplans  :      50318. kBytes
   grid      :      44712. kBytes
   one-center:        622. kBytes
   wavefun   :     583618. kBytes
 
  
  
 General timing and accounting informations for this job:
 ========================================================
  
                  Total CPU time used (sec):     5699.529
                            User time (sec):     5636.268
                          System time (sec):       63.261
                         Elapsed time (sec):     5752.908
  
                   Maximum memory used (kb):      976848.
                   Average memory used (kb):           0.
  
                          Minor page faults:       611320
                          Major page faults:            8
                 Voluntary context switches:        58033
