  99  99   0   0
  0.1430410E+02  0.1177748E-08  0.1177748E-08  0.1058004E-08  0.5000000E-15
  1.000000000000000E-004
  CAR 
 unknown system                          
     18.01706895    -54.34021256  301      5.29424696      1.00000000
    -54.340  0.0000E+00  0.0000E+00  0.0000E+00  0.0000E+00
    -54.099  0.0000E+00  0.0000E+00  0.0000E+00  0.0000E+00
    -53.858  0.0000E+00  0.0000E+00  0.0000E+00  0.0000E+00
    -53.617  0.0000E+00  0.0000E+00  0.0000E+00  0.0000E+00
    -53.375  0.0000E+00  0.0000E+00  0.0000E+00  0.0000E+00
    -53.134  0.0000E+00  0.0000E+00  0.0000E+00  0.0000E+00
    -52.893  0.0000E+00  0.0000E+00  0.0000E+00  0.0000E+00
    -52.652  0.0000E+00  0.0000E+00  0.0000E+00  0.0000E+00
    -52.411  0.0000E+00  0.0000E+00  0.0000E+00  0.0000E+00
    -52.169  0.0000E+00  0.0000E+00  0.0000E+00  0.0000E+00
    -51.928  0.0000E+00  0.0000E+00  0.0000E+00  0.0000E+00
    -51.687  0.0000E+00  0.0000E+00  0.0000E+00  0.0000E+00
    -51.446  0.0000E+00  0.0000E+00  0.0000E+00  0.0000E+00
    -51.205  0.4684E-03  0.0000E+00  0.1130E-03  0.0000E+00
    -50.964  0.1472E+03  0.0000E+00  0.3550E+02  0.0000E+00
    -50.722  0.2066E+01  0.0000E+00  0.3600E+02  0.0000E+00
    -50.481  0.0000E+00  0.0000E+00  0.3600E+02  0.0000E+00
    -50.240  0.0000E+00  0.0000E+00  0.3600E+02  0.0000E+00
    -49.999  0.0000E+00  0.0000E+00  0.3600E+02  0.0000E+00
    -49.758  0.1987E+01  0.0000E+00  0.3648E+02  0.0000E+00
    -49.516  0.2726E+03  0.0000E+00  0.1022E+03  0.0000E+00
    -49.275  0.2390E+02  0.0000E+00  0.1080E+03  0.0000E+00
    -49.034  0.0000E+00  0.0000E+00  0.1080E+03  0.0000E+00
    -48.793  0.0000E+00  0.0000E+00  0.1080E+03  0.0000E+00
    -48.552  0.0000E+00  0.0000E+00  0.1080E+03  0.0000E+00
    -48.310  0.0000E+00  0.0000E+00  0.1080E+03  0.0000E+00
    -48.069  0.0000E+00  0.0000E+00  0.1080E+03  0.0000E+00
    -47.828  0.0000E+00  0.0000E+00  0.1080E+03  0.0000E+00
    -47.587  0.0000E+00  0.0000E+00  0.1080E+03  0.0000E+00
    -47.346  0.0000E+00  0.0000E+00  0.1080E+03  0.0000E+00
    -47.104  0.0000E+00  0.0000E+00  0.1080E+03  0.0000E+00
    -46.863  0.0000E+00  0.0000E+00  0.1080E+03  0.0000E+00
    -46.622  0.0000E+00  0.0000E+00  0.1080E+03  0.0000E+00
    -46.381  0.0000E+00  0.5606E+00  0.1080E+03  0.1352E+00
    -46.140  0.0000E+00  0.1487E+03  0.1080E+03  0.3600E+02
    -45.899  0.0000E+00  0.7770E+02  0.1080E+03  0.5474E+02
    -45.657  0.0000E+00  0.2208E+03  0.1080E+03  0.1080E+03
    -45.416  0.0000E+00  0.0000E+00  0.1080E+03  0.1080E+03
    -45.175  0.0000E+00  0.0000E+00  0.1080E+03  0.1080E+03
    -44.934  0.0000E+00  0.0000E+00  0.1080E+03  0.1080E+03
    -44.693  0.0000E+00  0.0000E+00  0.1080E+03  0.1080E+03
    -44.451  0.0000E+00  0.0000E+00  0.1080E+03  0.1080E+03
    -44.210  0.0000E+00  0.0000E+00  0.1080E+03  0.1080E+03
    -43.969  0.0000E+00  0.0000E+00  0.1080E+03  0.1080E+03
    -43.728  0.0000E+00  0.0000E+00  0.1080E+03  0.1080E+03
    -43.487  0.0000E+00  0.0000E+00  0.1080E+03  0.1080E+03
    -43.245  0.0000E+00  0.0000E+00  0.1080E+03  0.1080E+03
    -43.004  0.0000E+00  0.0000E+00  0.1080E+03  0.1080E+03
    -42.763  0.0000E+00  0.0000E+00  0.1080E+03  0.1080E+03
    -42.522  0.0000E+00  0.0000E+00  0.1080E+03  0.1080E+03
    -42.281  0.0000E+00  0.0000E+00  0.1080E+03  0.1080E+03
    -42.039  0.0000E+00  0.0000E+00  0.1080E+03  0.1080E+03
    -41.798  0.0000E+00  0.0000E+00  0.1080E+03  0.1080E+03
    -41.557  0.0000E+00  0.0000E+00  0.1080E+03  0.1080E+03
    -41.316  0.0000E+00  0.0000E+00  0.1080E+03  0.1080E+03
    -41.075  0.0000E+00  0.0000E+00  0.1080E+03  0.1080E+03
    -40.834  0.0000E+00  0.0000E+00  0.1080E+03  0.1080E+03
    -40.592  0.0000E+00  0.0000E+00  0.1080E+03  0.1080E+03
    -40.351  0.0000E+00  0.0000E+00  0.1080E+03  0.1080E+03
    -40.110  0.4913E-09  0.3222E-09  0.1080E+03  0.1080E+03
    -39.869  0.3531E+02  0.3347E+02  0.1165E+03  0.1161E+03
    -39.628  0.3932E+02  0.4116E+02  0.1260E+03  0.1260E+03
    -39.386  0.0000E+00  0.0000E+00  0.1260E+03  0.1260E+03
    -39.145  0.0000E+00  0.0000E+00  0.1260E+03  0.1260E+03
    -38.904  0.0000E+00  0.0000E+00  0.1260E+03  0.1260E+03
    -38.663  0.0000E+00  0.0000E+00  0.1260E+03  0.1260E+03
    -38.422  0.0000E+00  0.0000E+00  0.1260E+03  0.1260E+03
    -38.180  0.0000E+00  0.0000E+00  0.1260E+03  0.1260E+03
    -37.939  0.0000E+00  0.0000E+00  0.1260E+03  0.1260E+03
    -37.698  0.0000E+00  0.0000E+00  0.1260E+03  0.1260E+03
    -37.457  0.0000E+00  0.0000E+00  0.1260E+03  0.1260E+03
    -37.216  0.0000E+00  0.0000E+00  0.1260E+03  0.1260E+03
    -36.974  0.0000E+00  0.0000E+00  0.1260E+03  0.1260E+03
    -36.733  0.0000E+00  0.0000E+00  0.1260E+03  0.1260E+03
    -36.492  0.0000E+00  0.0000E+00  0.1260E+03  0.1260E+03
    -36.251  0.0000E+00  0.0000E+00  0.1260E+03  0.1260E+03
    -36.010  0.0000E+00  0.0000E+00  0.1260E+03  0.1260E+03
    -35.769  0.0000E+00  0.0000E+00  0.1260E+03  0.1260E+03
    -35.527  0.0000E+00  0.0000E+00  0.1260E+03  0.1260E+03
    -35.286  0.0000E+00  0.0000E+00  0.1260E+03  0.1260E+03
    -35.045  0.0000E+00  0.0000E+00  0.1260E+03  0.1260E+03
    -34.804  0.0000E+00  0.0000E+00  0.1260E+03  0.1260E+03
    -34.563  0.0000E+00  0.0000E+00  0.1260E+03  0.1260E+03
    -34.321  0.0000E+00  0.0000E+00  0.1260E+03  0.1260E+03
    -34.080  0.0000E+00  0.0000E+00  0.1260E+03  0.1260E+03
    -33.839  0.0000E+00  0.0000E+00  0.1260E+03  0.1260E+03
    -33.598  0.0000E+00  0.0000E+00  0.1260E+03  0.1260E+03
    -33.357  0.0000E+00  0.0000E+00  0.1260E+03  0.1260E+03
    -33.115  0.0000E+00  0.0000E+00  0.1260E+03  0.1260E+03
    -32.874  0.0000E+00  0.0000E+00  0.1260E+03  0.1260E+03
    -32.633  0.0000E+00  0.0000E+00  0.1260E+03  0.1260E+03
    -32.392  0.0000E+00  0.0000E+00  0.1260E+03  0.1260E+03
    -32.151  0.0000E+00  0.0000E+00  0.1260E+03  0.1260E+03
    -31.909  0.0000E+00  0.0000E+00  0.1260E+03  0.1260E+03
    -31.668  0.0000E+00  0.0000E+00  0.1260E+03  0.1260E+03
    -31.427  0.0000E+00  0.0000E+00  0.1260E+03  0.1260E+03
    -31.186  0.0000E+00  0.0000E+00  0.1260E+03  0.1260E+03
    -30.945  0.0000E+00  0.0000E+00  0.1260E+03  0.1260E+03
    -30.704  0.0000E+00  0.0000E+00  0.1260E+03  0.1260E+03
    -30.462  0.0000E+00  0.0000E+00  0.1260E+03  0.1260E+03
    -30.221  0.0000E+00  0.0000E+00  0.1260E+03  0.1260E+03
    -29.980  0.0000E+00  0.0000E+00  0.1260E+03  0.1260E+03
    -29.739  0.0000E+00  0.0000E+00  0.1260E+03  0.1260E+03
    -29.498  0.0000E+00  0.0000E+00  0.1260E+03  0.1260E+03
    -29.256  0.0000E+00  0.0000E+00  0.1260E+03  0.1260E+03
    -29.015  0.0000E+00  0.0000E+00  0.1260E+03  0.1260E+03
    -28.774  0.0000E+00  0.0000E+00  0.1260E+03  0.1260E+03
    -28.533  0.0000E+00  0.0000E+00  0.1260E+03  0.1260E+03
    -28.292  0.0000E+00  0.0000E+00  0.1260E+03  0.1260E+03
    -28.050  0.0000E+00  0.0000E+00  0.1260E+03  0.1260E+03
    -27.809  0.0000E+00  0.0000E+00  0.1260E+03  0.1260E+03
    -27.568  0.0000E+00  0.0000E+00  0.1260E+03  0.1260E+03
    -27.327  0.0000E+00  0.0000E+00  0.1260E+03  0.1260E+03
    -27.086  0.0000E+00  0.0000E+00  0.1260E+03  0.1260E+03
    -26.844  0.0000E+00  0.0000E+00  0.1260E+03  0.1260E+03
    -26.603  0.0000E+00  0.0000E+00  0.1260E+03  0.1260E+03
    -26.362  0.0000E+00  0.0000E+00  0.1260E+03  0.1260E+03
    -26.121  0.0000E+00  0.0000E+00  0.1260E+03  0.1260E+03
    -25.880  0.0000E+00  0.0000E+00  0.1260E+03  0.1260E+03
    -25.638  0.0000E+00  0.0000E+00  0.1260E+03  0.1260E+03
    -25.397  0.0000E+00  0.0000E+00  0.1260E+03  0.1260E+03
    -25.156  0.0000E+00  0.0000E+00  0.1260E+03  0.1260E+03
    -24.915  0.0000E+00  0.0000E+00  0.1260E+03  0.1260E+03
    -24.674  0.0000E+00  0.0000E+00  0.1260E+03  0.1260E+03
    -24.433  0.0000E+00  0.0000E+00  0.1260E+03  0.1260E+03
    -24.191  0.0000E+00  0.0000E+00  0.1260E+03  0.1260E+03
    -23.950  0.0000E+00  0.0000E+00  0.1260E+03  0.1260E+03
    -23.709  0.0000E+00  0.0000E+00  0.1260E+03  0.1260E+03
    -23.468  0.0000E+00  0.0000E+00  0.1260E+03  0.1260E+03
    -23.227  0.0000E+00  0.0000E+00  0.1260E+03  0.1260E+03
    -22.985  0.0000E+00  0.0000E+00  0.1260E+03  0.1260E+03
    -22.744  0.0000E+00  0.0000E+00  0.1260E+03  0.1260E+03
    -22.503  0.0000E+00  0.0000E+00  0.1260E+03  0.1260E+03
    -22.262  0.0000E+00  0.0000E+00  0.1260E+03  0.1260E+03
    -22.021  0.0000E+00  0.0000E+00  0.1260E+03  0.1260E+03
    -21.779  0.0000E+00  0.0000E+00  0.1260E+03  0.1260E+03
    -21.538  0.0000E+00  0.0000E+00  0.1260E+03  0.1260E+03
    -21.297  0.0000E+00  0.0000E+00  0.1260E+03  0.1260E+03
    -21.056  0.0000E+00  0.0000E+00  0.1260E+03  0.1260E+03
    -20.815  0.0000E+00  0.0000E+00  0.1260E+03  0.1260E+03
    -20.573  0.0000E+00  0.0000E+00  0.1260E+03  0.1260E+03
    -20.332  0.0000E+00  0.0000E+00  0.1260E+03  0.1260E+03
    -20.091  0.0000E+00  0.0000E+00  0.1260E+03  0.1260E+03
    -19.850  0.0000E+00  0.0000E+00  0.1260E+03  0.1260E+03
    -19.609  0.0000E+00  0.0000E+00  0.1260E+03  0.1260E+03
    -19.368  0.0000E+00  0.0000E+00  0.1260E+03  0.1260E+03
    -19.126  0.0000E+00  0.0000E+00  0.1260E+03  0.1260E+03
    -18.885  0.0000E+00  0.0000E+00  0.1260E+03  0.1260E+03
    -18.644  0.0000E+00  0.0000E+00  0.1260E+03  0.1260E+03
    -18.403  0.0000E+00  0.0000E+00  0.1260E+03  0.1260E+03
    -18.162  0.0000E+00  0.0000E+00  0.1260E+03  0.1260E+03
    -17.920  0.0000E+00  0.0000E+00  0.1260E+03  0.1260E+03
    -17.679  0.0000E+00  0.0000E+00  0.1260E+03  0.1260E+03
    -17.438  0.0000E+00  0.0000E+00  0.1260E+03  0.1260E+03
    -17.197  0.0000E+00  0.0000E+00  0.1260E+03  0.1260E+03
    -16.956  0.0000E+00  0.0000E+00  0.1260E+03  0.1260E+03
    -16.714  0.0000E+00  0.0000E+00  0.1260E+03  0.1260E+03
    -16.473  0.0000E+00  0.0000E+00  0.1260E+03  0.1260E+03
    -16.232  0.0000E+00  0.0000E+00  0.1260E+03  0.1260E+03
    -15.991  0.0000E+00  0.0000E+00  0.1260E+03  0.1260E+03
    -15.750  0.0000E+00  0.0000E+00  0.1260E+03  0.1260E+03
    -15.508  0.0000E+00  0.0000E+00  0.1260E+03  0.1260E+03
    -15.267  0.0000E+00  0.0000E+00  0.1260E+03  0.1260E+03
    -15.026  0.0000E+00  0.0000E+00  0.1260E+03  0.1260E+03
    -14.785  0.0000E+00  0.0000E+00  0.1260E+03  0.1260E+03
    -14.544  0.0000E+00  0.0000E+00  0.1260E+03  0.1260E+03
    -14.303  0.0000E+00  0.0000E+00  0.1260E+03  0.1260E+03
    -14.061  0.0000E+00  0.0000E+00  0.1260E+03  0.1260E+03
    -13.820  0.0000E+00  0.0000E+00  0.1260E+03  0.1260E+03
    -13.579  0.0000E+00  0.0000E+00  0.1260E+03  0.1260E+03
    -13.338  0.1296E-01  0.0000E+00  0.1260E+03  0.1260E+03
    -13.097  0.3869E+02  0.9308E-13  0.1353E+03  0.1260E+03
    -12.855  0.3592E+02  0.2444E+01  0.1440E+03  0.1266E+03
    -12.614  0.8331E-02  0.6666E+02  0.1440E+03  0.1427E+03
    -12.373  0.0000E+00  0.5526E+01  0.1440E+03  0.1440E+03
    -12.132  0.0000E+00  0.0000E+00  0.1440E+03  0.1440E+03
    -11.891  0.0000E+00  0.0000E+00  0.1440E+03  0.1440E+03
    -11.649  0.0000E+00  0.0000E+00  0.1440E+03  0.1440E+03
    -11.408  0.0000E+00  0.0000E+00  0.1440E+03  0.1440E+03
    -11.167  0.0000E+00  0.0000E+00  0.1440E+03  0.1440E+03
    -10.926  0.0000E+00  0.0000E+00  0.1440E+03  0.1440E+03
    -10.685  0.0000E+00  0.0000E+00  0.1440E+03  0.1440E+03
    -10.443  0.0000E+00  0.0000E+00  0.1440E+03  0.1440E+03
    -10.202  0.0000E+00  0.0000E+00  0.1440E+03  0.1440E+03
     -9.961  0.0000E+00  0.0000E+00  0.1440E+03  0.1440E+03
     -9.720  0.0000E+00  0.0000E+00  0.1440E+03  0.1440E+03
     -9.479  0.0000E+00  0.0000E+00  0.1440E+03  0.1440E+03
     -9.238  0.0000E+00  0.0000E+00  0.1440E+03  0.1440E+03
     -8.996  0.0000E+00  0.0000E+00  0.1440E+03  0.1440E+03
     -8.755  0.0000E+00  0.0000E+00  0.1440E+03  0.1440E+03
     -8.514  0.0000E+00  0.0000E+00  0.1440E+03  0.1440E+03
     -8.273  0.0000E+00  0.0000E+00  0.1440E+03  0.1440E+03
     -8.032  0.0000E+00  0.0000E+00  0.1440E+03  0.1440E+03
     -7.790  0.5402E-07  0.0000E+00  0.1440E+03  0.1440E+03
     -7.549  0.1825E+01  0.1074E-07  0.1444E+03  0.1440E+03
     -7.308  0.2328E+02  0.1729E+01  0.1501E+03  0.1444E+03
     -7.067  0.2941E+02  0.2530E+02  0.1571E+03  0.1505E+03
     -6.826  0.4257E+02  0.2748E+02  0.1674E+03  0.1571E+03
     -6.584  0.1486E+02  0.3264E+02  0.1710E+03  0.1650E+03
     -6.343  0.0000E+00  0.2480E+02  0.1710E+03  0.1710E+03
     -6.102  0.0000E+00  0.3212E-02  0.1710E+03  0.1710E+03
     -5.861  0.0000E+00  0.0000E+00  0.1710E+03  0.1710E+03
     -5.620  0.0000E+00  0.0000E+00  0.1710E+03  0.1710E+03
     -5.378  0.0000E+00  0.0000E+00  0.1710E+03  0.1710E+03
     -5.137  0.0000E+00  0.0000E+00  0.1710E+03  0.1710E+03
     -4.896  0.0000E+00  0.0000E+00  0.1710E+03  0.1710E+03
     -4.655  0.0000E+00  0.0000E+00  0.1710E+03  0.1710E+03
     -4.414  0.0000E+00  0.0000E+00  0.1710E+03  0.1710E+03
     -4.172  0.0000E+00  0.0000E+00  0.1710E+03  0.1710E+03
     -3.931  0.0000E+00  0.0000E+00  0.1710E+03  0.1710E+03
     -3.690  0.0000E+00  0.0000E+00  0.1710E+03  0.1710E+03
     -3.449  0.0000E+00  0.0000E+00  0.1710E+03  0.1710E+03
     -3.208  0.0000E+00  0.0000E+00  0.1710E+03  0.1710E+03
     -2.967  0.0000E+00  0.0000E+00  0.1710E+03  0.1710E+03
     -2.725  0.0000E+00  0.0000E+00  0.1710E+03  0.1710E+03
     -2.484  0.0000E+00  0.0000E+00  0.1710E+03  0.1710E+03
     -2.243  0.8524E-16  0.0000E+00  0.1710E+03  0.1710E+03
     -2.002  0.4006E+00  0.0000E+00  0.1711E+03  0.1710E+03
     -1.761  0.2993E+02  0.0000E+00  0.1783E+03  0.1710E+03
     -1.519  0.1777E+02  0.0000E+00  0.1826E+03  0.1710E+03
     -1.278  0.1574E+02  0.0000E+00  0.1864E+03  0.1710E+03
     -1.037  0.2624E+02  0.0000E+00  0.1927E+03  0.1710E+03
     -0.796  0.5824E+02  0.0000E+00  0.2068E+03  0.1710E+03
     -0.555  0.6227E+02  0.1805E-01  0.2218E+03  0.1710E+03
     -0.313  0.4602E+02  0.1525E+02  0.2329E+03  0.1747E+03
     -0.072  0.8033E+02  0.1760E+02  0.2523E+03  0.1789E+03
      0.169  0.9340E+02  0.1507E+02  0.2748E+03  0.1826E+03
      0.410  0.7970E+02  0.2423E+02  0.2940E+03  0.1884E+03
      0.651  0.7459E+02  0.3683E+02  0.3120E+03  0.1973E+03
      0.893  0.5286E+02  0.4621E+02  0.3248E+03  0.2084E+03
      1.134  0.3587E+02  0.3963E+02  0.3334E+03  0.2180E+03
      1.375  0.4132E+02  0.3089E+02  0.3434E+03  0.2254E+03
      1.616  0.4737E+02  0.2701E+02  0.3548E+03  0.2320E+03
      1.857  0.6294E+02  0.3300E+02  0.3700E+03  0.2399E+03
      2.098  0.7844E+02  0.4044E+02  0.3889E+03  0.2497E+03
      2.340  0.4842E+02  0.2480E+02  0.4006E+03  0.2557E+03
      2.581  0.3564E+02  0.3052E+02  0.4092E+03  0.2630E+03
      2.822  0.5059E+02  0.4395E+02  0.4214E+03  0.2736E+03
      3.063  0.1605E+02  0.4895E+02  0.4252E+03  0.2854E+03
      3.304  0.1400E+02  0.4403E+02  0.4286E+03  0.2960E+03
      3.546  0.3862E+02  0.3439E+02  0.4379E+03  0.3043E+03
      3.787  0.2634E+02  0.7013E+01  0.4443E+03  0.3060E+03
      4.028  0.4063E+02  0.3386E+02  0.4541E+03  0.3142E+03
      4.269  0.3793E+02  0.7650E+02  0.4632E+03  0.3326E+03
      4.510  0.3914E+02  0.3290E+02  0.4727E+03  0.3406E+03
      4.752  0.3293E+02  0.5879E+01  0.4806E+03  0.3420E+03
      4.993  0.2121E+02  0.0000E+00  0.4857E+03  0.3420E+03
      5.234  0.1084E+01  0.0000E+00  0.4860E+03  0.3420E+03
      5.475  0.0000E+00  0.0000E+00  0.4860E+03  0.3420E+03
      5.716  0.0000E+00  0.0000E+00  0.4860E+03  0.3420E+03
      5.958  0.0000E+00  0.0000E+00  0.4860E+03  0.3420E+03
      6.199  0.0000E+00  0.3424E-05  0.4860E+03  0.3420E+03
      6.440  0.0000E+00  0.2010E+01  0.4860E+03  0.3425E+03
      6.681  0.0000E+00  0.5234E+01  0.4860E+03  0.3437E+03
      6.922  0.0000E+00  0.1375E+02  0.4860E+03  0.3471E+03
      7.163  0.9901E-09  0.2686E+02  0.4860E+03  0.3535E+03
      7.405  0.1339E+00  0.6052E+02  0.4860E+03  0.3681E+03
      7.646  0.1980E-01  0.6572E+02  0.4860E+03  0.3840E+03
      7.887  0.6329E+00  0.6394E+02  0.4862E+03  0.3994E+03
      8.128  0.1188E+01  0.7564E+02  0.4865E+03  0.4177E+03
      8.369  0.2767E+01  0.8304E+02  0.4871E+03  0.4377E+03
      8.611  0.4970E+01  0.6630E+02  0.4883E+03  0.4537E+03
      8.852  0.1101E+02  0.6189E+02  0.4910E+03  0.4686E+03
      9.093  0.1439E+02  0.4211E+02  0.4945E+03  0.4788E+03
      9.334  0.1972E+02  0.2667E+02  0.4992E+03  0.4852E+03
      9.575  0.1688E+02  0.6456E+01  0.5033E+03  0.4868E+03
      9.817  0.1775E+02  0.7075E+01  0.5076E+03  0.4885E+03
     10.058  0.2478E+02  0.1181E+02  0.5136E+03  0.4913E+03
     10.299  0.1782E+02  0.2080E+02  0.5179E+03  0.4963E+03
     10.540  0.2050E+02  0.2149E+02  0.5228E+03  0.5015E+03
     10.781  0.1164E+02  0.2286E+02  0.5256E+03  0.5070E+03
     11.023  0.1774E+02  0.2676E+02  0.5299E+03  0.5135E+03
     11.264  0.2498E+02  0.2630E+02  0.5359E+03  0.5198E+03
     11.505  0.3226E+02  0.2066E+02  0.5437E+03  0.5248E+03
     11.746  0.2736E+02  0.1580E+02  0.5503E+03  0.5286E+03
     11.987  0.3398E+02  0.1155E+02  0.5585E+03  0.5314E+03
     12.228  0.3349E+02  0.3040E+02  0.5666E+03  0.5387E+03
     12.470  0.2255E+02  0.4631E+02  0.5720E+03  0.5499E+03
     12.711  0.1988E+02  0.3541E+02  0.5768E+03  0.5584E+03
     12.952  0.2427E+02  0.2676E+02  0.5826E+03  0.5649E+03
     13.193  0.2775E+02  0.2084E+02  0.5893E+03  0.5699E+03
     13.434  0.2826E+02  0.2776E+02  0.5962E+03  0.5766E+03
     13.676  0.2309E+02  0.3149E+02  0.6017E+03  0.5842E+03
     13.917  0.1576E+02  0.2633E+02  0.6055E+03  0.5906E+03
     14.158  0.1967E+01  0.2478E+02  0.6060E+03  0.5965E+03
     14.399  0.0000E+00  0.2269E+02  0.6060E+03  0.6020E+03
     14.640  0.0000E+00  0.1558E+02  0.6060E+03  0.6058E+03
     14.882  0.0000E+00  0.9893E+00  0.6060E+03  0.6060E+03
     15.123  0.0000E+00  0.2176E-05  0.6060E+03  0.6060E+03
     15.364  0.0000E+00  0.0000E+00  0.6060E+03  0.6060E+03
     15.605  0.0000E+00  0.0000E+00  0.6060E+03  0.6060E+03
     15.846  0.0000E+00  0.0000E+00  0.6060E+03  0.6060E+03
     16.088  0.0000E+00  0.0000E+00  0.6060E+03  0.6060E+03
     16.329  0.0000E+00  0.0000E+00  0.6060E+03  0.6060E+03
     16.570  0.0000E+00  0.0000E+00  0.6060E+03  0.6060E+03
     16.811  0.0000E+00  0.0000E+00  0.6060E+03  0.6060E+03
     17.052  0.0000E+00  0.0000E+00  0.6060E+03  0.6060E+03
     17.293  0.0000E+00  0.0000E+00  0.6060E+03  0.6060E+03
     17.535  0.0000E+00  0.0000E+00  0.6060E+03  0.6060E+03
     17.776  0.0000E+00  0.0000E+00  0.6060E+03  0.6060E+03
     18.017  0.0000E+00  0.0000E+00  0.6060E+03  0.6060E+03
