   10   10   60    2
  0.1194201E+02  0.3887665E-09  0.5545537E-09  0.5539176E-09  0.5000000E-15
  1.000000000000000E-004
  CAR 
 unknown system                          
     64     42     45
 
  0.0000000E+00  0.0000000E+00  0.0000000E+00  0.1041667E-01
    1      -56.219276    -49.669875   1.000000   1.000000
    2      -56.181033    -49.645885   1.000000   1.000000
    3      -54.897579    -49.636210   1.000000   1.000000
    4      -54.891362    -49.615645   1.000000   1.000000
    5      -54.668127    -49.607861   1.000000   1.000000
    6      -54.629910    -49.557300   1.000000   1.000000
    7      -43.970791    -43.959705   1.000000   1.000000
    8      -43.948935    -43.937936   1.000000   1.000000
    9      -43.733602    -43.735347   1.000000   1.000000
   10      -43.731429    -43.733125   1.000000   1.000000
   11      -16.100115    -15.713944   1.000000   1.000000
   12      -15.810882    -15.439646   1.000000   1.000000
   13       -9.490357     -9.209050   1.000000   1.000000
   14       -8.916515     -8.671411   1.000000   1.000000
   15       -2.934906     -1.873817   1.000000   1.000000
   16       -2.916514     -1.801063   1.000000   1.000000
   17       -2.041071     -0.592677   1.000000   1.000000
   18       -1.486225     -0.566290   1.000000   1.000000
   19       -1.230744     -0.404273   1.000000   1.000000
   20       -1.218115     -0.143588   1.000000   1.000000
   21       -0.988120      1.123831   1.000000   1.000000
   22       -0.913974      1.194049   1.000000   1.000000
   23       -0.787942      1.893029   1.000000   1.000000
   24       -0.603888      2.590043   1.000000   1.000000
   25       -0.424810      2.655660   1.000000   1.000000
   26       -0.216014      2.880357   1.000000   1.000000
   27        0.065973      3.231075   1.000000   1.000000
   28        0.881285      3.983372   1.000000   1.000000
   29        1.341291      7.434109   1.000000   0.000000
   30        1.647634      7.642458   1.000000   0.000000
   31        2.823797      7.958180   1.000000   0.000000
   32        2.835660      8.014859   1.000000   0.000000
   33        2.876973      8.196491   1.000000   0.000000
   34        3.628345      8.827679   1.000000   0.000000
   35        3.687575      9.044362   1.000000   0.000000
   36        3.860398      9.305483   1.000000   0.000000
   37        8.296201      9.456922   0.000000   0.000000
   38        8.407657      9.945788   0.000000   0.000000
   39        9.969572     10.132693   0.000000   0.000000
   40       10.151109     11.072503   0.000000   0.000000
   41       10.876212     11.475183   0.000000   0.000000
   42       11.452644     11.822605   0.000000   0.000000
   43       11.471860     11.879008   0.000000   0.000000
   44       14.786106     15.203081   0.000000   0.000000
   45       14.814546     15.386714   0.000000   0.000000
 
  0.1666667E+00  0.1424455E-18  0.0000000E+00  0.2083333E-01
    1      -56.219247    -49.669753   1.000000   1.000000
    2      -56.180983    -49.646056   1.000000   1.000000
    3      -54.897800    -49.636597   1.000000   1.000000
    4      -54.891550    -49.615519   1.000000   1.000000
    5      -54.668087    -49.607770   1.000000   1.000000
    6      -54.629881    -49.557250   1.000000   1.000000
    7      -43.969774    -43.958643   1.000000   1.000000
    8      -43.948749    -43.937742   1.000000   1.000000
    9      -43.733391    -43.735159   1.000000   1.000000
   10      -43.732075    -43.733789   1.000000   1.000000
   11      -16.107845    -15.721141   1.000000   1.000000
   12      -15.825329    -15.454266   1.000000   1.000000
   13       -9.421945     -9.149574   1.000000   1.000000
   14       -8.866149     -8.606095   1.000000   1.000000
   15       -2.865979     -1.704335   1.000000   1.000000
   16       -2.856017     -1.646056   1.000000   1.000000
   17       -2.101333     -0.535216   1.000000   1.000000
   18       -1.382337     -0.507451   1.000000   1.000000
   19       -1.326537     -0.382640   1.000000   1.000000
   20       -1.141281     -0.102710   1.000000   1.000000
   21       -1.030050      1.045109   1.000000   1.000000
   22       -0.827370      1.111393   1.000000   1.000000
   23       -0.699768      1.372938   1.000000   1.000000
   24       -0.592339      1.593561   1.000000   1.000000
   25       -0.372807      2.757001   1.000000   1.000000
   26       -0.129193      2.788072   1.000000   1.000000
   27        0.109270      3.396360   1.000000   1.000000
   28        0.734112      3.919463   1.000000   1.000000
   29        1.369310      7.258329   1.000000   0.000000
   30        1.623618      7.675230   1.000000   0.000000
   31        2.215730      7.843185   1.000000   0.000000
   32        2.550152      8.012942   1.000000   0.000000
   33        3.073094      8.674543   1.000000   0.000000
   34        3.076865      8.687826   1.000000   0.000000
   35        3.334670      8.816691   1.000000   0.000000
   36        3.455183      9.304198   1.000000   0.000000
   37        8.952247      9.884742   0.000000   0.000000
   38        9.496126     10.605551   0.000000   0.000000
   39       10.350287     10.643576   0.000000   0.000000
   40       10.467604     11.108943   0.000000   0.000000
   41       11.304270     12.041450   0.000000   0.000000
   42       11.551079     12.223499   0.000000   0.000000
   43       11.718678     12.243363   0.000000   0.000000
   44       14.011812     14.575436   0.000000   0.000000
   45       14.011906     14.673133   0.000000   0.000000
 
  0.3333333E+00  0.6161543E-18  0.0000000E+00  0.2083333E-01
    1      -56.219211    -49.669518   1.000000   1.000000
    2      -56.180905    -49.646377   1.000000   1.000000
    3      -54.898224    -49.637404   1.000000   1.000000
    4      -54.891958    -49.615276   1.000000   1.000000
    5      -54.668010    -49.607595   1.000000   1.000000
    6      -54.629835    -49.557155   1.000000   1.000000
    7      -43.967704    -43.956478   1.000000   1.000000
    8      -43.948422    -43.937397   1.000000   1.000000
    9      -43.733379    -43.735129   1.000000   1.000000
   10      -43.732973    -43.734789   1.000000   1.000000
   11      -16.123422    -15.735673   1.000000   1.000000
   12      -15.854246    -15.483537   1.000000   1.000000
   13       -9.273961     -9.021679   1.000000   1.000000
   14       -8.761955     -8.468219   1.000000   1.000000
   15       -2.748378     -1.283243   1.000000   1.000000
   16       -2.742131     -1.269544   1.000000   1.000000
   17       -2.185508     -0.606502   1.000000   1.000000
   18       -1.770776     -0.344788   1.000000   1.000000
   19       -1.025262     -0.215385   1.000000   1.000000
   20       -0.936108     -0.068067   1.000000   1.000000
   21       -0.773309      0.546049   1.000000   1.000000
   22       -0.718380      0.643636   1.000000   1.000000
   23       -0.669577      0.788404   1.000000   1.000000
   24       -0.407018      0.900656   1.000000   1.000000
   25       -0.274093      2.403934   1.000000   1.000000
   26        0.122241      2.490911   1.000000   1.000000
   27        0.207676      3.463439   1.000000   1.000000
   28        0.474272      3.854767   1.000000   1.000000
   29        0.988149      7.039212   1.000000   0.000000
   30        1.407297      7.180877   1.000000   0.000000
   31        1.494031      8.033790   1.000000   0.000000
   32        1.623783      8.255387   1.000000   0.000000
   33        2.360183      8.565833   1.000000   0.000000
   34        2.994851      8.890133   1.000000   0.000000
   35        3.181436      8.932239   1.000000   0.000000
   36        3.212964      9.326458   1.000000   0.000000
   37        9.947523     10.554529   0.000000   0.000000
   38       10.045415     10.571704   0.000000   0.000000
   39       11.372841     11.813618   0.000000   0.000000
   40       11.401079     12.593155   0.000000   0.000000
   41       11.439048     12.626684   0.000000   0.000000
   42       12.462337     13.060426   0.000000   0.000000
   43       12.650103     13.116700   0.000000   0.000000
   44       13.077768     13.661948   0.000000   0.000000
   45       13.354772     13.784836   0.000000   0.000000
 
  0.5000000E+00  0.1363928E-18  0.0000000E+00  0.1041667E-01
    1      -56.219191    -49.669394   1.000000   1.000000
    2      -56.180870    -49.646561   1.000000   1.000000
    3      -54.898454    -49.637831   1.000000   1.000000
    4      -54.892181    -49.615160   1.000000   1.000000
    5      -54.667971    -49.607502   1.000000   1.000000
    6      -54.629821    -49.557112   1.000000   1.000000
    7      -43.966697    -43.955422   1.000000   1.000000
    8      -43.948289    -43.937256   1.000000   1.000000
    9      -43.734080    -43.735850   1.000000   1.000000
   10      -43.732821    -43.734660   1.000000   1.000000
   11      -16.131362    -15.743118   1.000000   1.000000
   12      -15.868813    -15.498284   1.000000   1.000000
   13       -9.193516     -8.952674   1.000000   1.000000
   14       -8.707970     -8.395160   1.000000   1.000000
   15       -2.701989     -1.072864   1.000000   1.000000
   16       -2.701407     -0.992304   1.000000   1.000000
   17       -2.216708     -0.672241   1.000000   1.000000
   18       -1.964273     -0.174120   1.000000   1.000000
   19       -1.023264     -0.167196   1.000000   1.000000
   20       -0.740950     -0.058490   1.000000   1.000000
   21       -0.656182      0.237206   1.000000   1.000000
   22       -0.425648      0.302633   1.000000   1.000000
   23       -0.378826      0.549755   1.000000   1.000000
   24       -0.355531      0.721412   1.000000   1.000000
   25       -0.057783      2.204891   1.000000   1.000000
   26        0.058315      2.320360   1.000000   1.000000
   27        0.126833      3.463092   1.000000   1.000000
   28        0.358254      3.846692   1.000000   1.000000
   29        0.667756      6.953505   1.000000   0.000000
   30        0.835721      6.983641   1.000000   0.000000
   31        1.117303      8.059202   1.000000   0.000000
   32        1.551423      8.266385   1.000000   0.000000
   33        2.083867      8.823368   1.000000   0.000000
   34        2.817010      8.882095   1.000000   0.000000
   35        3.192495      9.060813   1.000000   0.000000
   36        3.262255      9.218231   1.000000   0.000000
   37       10.055570     10.398051   0.000000   0.000000
   38       10.830843     11.249393   0.000000   0.000000
   39       11.171827     12.489075   0.000000   0.000000
   40       11.202245     12.598402   0.000000   0.000000
   41       12.339415     12.835834   0.000000   0.000000
   42       12.459880     13.024882   0.000000   0.000000
   43       12.509202     13.195518   0.000000   0.000000
   44       13.566580     13.994229   0.000000   0.000000
   45       13.964298     14.616249   0.000000   0.000000
 
  0.9398907E-19  0.2500000E+00  0.0000000E+00  0.2083333E-01
    1      -56.213619    -49.658518   1.000000   1.000000
    2      -56.186577    -49.644498   1.000000   1.000000
    3      -54.896675    -49.637645   1.000000   1.000000
    4      -54.892271    -49.619976   1.000000   1.000000
    5      -54.662616    -49.603935   1.000000   1.000000
    6      -54.635594    -49.568384   1.000000   1.000000
    7      -43.967626    -43.956555   1.000000   1.000000
    8      -43.952176    -43.941167   1.000000   1.000000
    9      -43.733288    -43.735022   1.000000   1.000000
   10      -43.731722    -43.733423   1.000000   1.000000
   11      -16.056026    -15.671464   1.000000   1.000000
   12      -15.851168    -15.477139   1.000000   1.000000
   13       -9.438121     -9.164617   1.000000   1.000000
   14       -9.041256     -8.793264   1.000000   1.000000
   15       -2.779838     -1.659811   1.000000   1.000000
   16       -2.669277     -1.464080   1.000000   1.000000
   17       -1.942370     -0.710213   1.000000   1.000000
   18       -1.685536     -0.492988   1.000000   1.000000
   19       -1.684750     -0.336455   1.000000   1.000000
   20       -1.209807     -0.143427   1.000000   1.000000
   21       -1.117536      0.911038   1.000000   1.000000
   22       -0.927884      1.270320   1.000000   1.000000
   23       -0.604388      1.921027   1.000000   1.000000
   24       -0.580671      2.276168   1.000000   1.000000
   25       -0.081384      2.454482   1.000000   1.000000
   26        0.128121      2.685983   1.000000   1.000000
   27        0.317213      3.103551   1.000000   1.000000
   28        0.976608      3.807737   1.000000   1.000000
   29        1.176867      7.612786   1.000000   0.000000
   30        1.427358      7.827987   1.000000   0.000000
   31        2.329388      7.953977   1.000000   0.000000
   32        2.571964      8.004766   1.000000   0.000000
   33        2.917185      8.505760   1.000000   0.000000
   34        3.415435      8.675959   1.000000   0.000000
   35        3.528702      8.701446   1.000000   0.000000
   36        3.620960      9.240899   1.000000   0.000000
   37        8.874659      9.941427   0.000000   0.000000
   38        8.913365     10.191337   0.000000   0.000000
   39       10.447908     10.679559   0.000000   0.000000
   40       10.868379     11.453254   0.000000   0.000000
   41       11.018990     11.596540   0.000000   0.000000
   42       11.814311     12.317343   0.000000   0.000000
   43       12.100652     12.587382   0.000000   0.000000
   44       13.799628     14.215469   0.000000   0.000000
   45       13.895152     14.255152   0.000000   0.000000
 
  0.1666667E+00  0.2500000E+00  0.0000000E+00  0.2083333E-01
    1      -56.213595    -49.658413   1.000000   1.000000
    2      -56.186539    -49.644688   1.000000   1.000000
    3      -54.896888    -49.638002   1.000000   1.000000
    4      -54.892475    -49.619860   1.000000   1.000000
    5      -54.662582    -49.603841   1.000000   1.000000
    6      -54.635568    -49.568323   1.000000   1.000000
    7      -43.966726    -43.955615   1.000000   1.000000
    8      -43.951880    -43.940858   1.000000   1.000000
    9      -43.733226    -43.734983   1.000000   1.000000
   10      -43.732275    -43.733994   1.000000   1.000000
   11      -16.065068    -15.680130   1.000000   1.000000
   12      -15.865134    -15.491237   1.000000   1.000000
   13       -9.366164     -9.097959   1.000000   1.000000
   14       -8.979776     -8.720611   1.000000   1.000000
   15       -2.726315     -1.523719   1.000000   1.000000
   16       -2.649367     -1.389091   1.000000   1.000000
   17       -2.032045     -0.654114   1.000000   1.000000
   18       -1.636940     -0.609246   1.000000   1.000000
   19       -1.612873     -0.224374   1.000000   1.000000
   20       -1.288157     -0.135859   1.000000   1.000000
   21       -1.076451      1.023166   1.000000   1.000000
   22       -0.861762      1.180889   1.000000   1.000000
   23       -0.671594      1.445200   1.000000   1.000000
   24       -0.452274      1.466416   1.000000   1.000000
   25       -0.113396      2.396470   1.000000   1.000000
   26        0.267935      2.532609   1.000000   1.000000
   27        0.345749      3.527062   1.000000   1.000000
   28        0.850355      3.817445   1.000000   1.000000
   29        1.151038      7.424376   1.000000   0.000000
   30        1.350021      7.814348   1.000000   0.000000
   31        2.172408      7.858928   1.000000   0.000000
   32        2.230524      8.045003   1.000000   0.000000
   33        2.816980      8.611353   1.000000   0.000000
   34        3.075199      8.616312   1.000000   0.000000
   35        3.345117      8.900860   1.000000   0.000000
   36        3.422720      9.143409   1.000000   0.000000
   37        9.512983     10.410122   0.000000   0.000000
   38        9.940644     10.701596   0.000000   0.000000
   39       10.341999     10.898886   0.000000   0.000000
   40       11.029940     11.557182   0.000000   0.000000
   41       11.417823     11.984461   0.000000   0.000000
   42       11.863887     12.437559   0.000000   0.000000
   43       12.154350     12.834186   0.000000   0.000000
   44       13.206615     13.745513   0.000000   0.000000
   45       13.225498     13.832509   0.000000   0.000000
 
  0.1666667E+00 -0.2500000E+00  0.0000000E+00  0.2083333E-01
    1      -56.213594    -49.658410   1.000000   1.000000
    2      -56.186538    -49.644687   1.000000   1.000000
    3      -54.896886    -49.638000   1.000000   1.000000
    4      -54.892474    -49.619858   1.000000   1.000000
    5      -54.662580    -49.603840   1.000000   1.000000
    6      -54.635567    -49.568322   1.000000   1.000000
    7      -43.966723    -43.955612   1.000000   1.000000
    8      -43.951877    -43.940855   1.000000   1.000000
    9      -43.733223    -43.734980   1.000000   1.000000
   10      -43.732272    -43.733991   1.000000   1.000000
   11      -16.065067    -15.680129   1.000000   1.000000
   12      -15.865133    -15.491237   1.000000   1.000000
   13       -9.366167     -9.097967   1.000000   1.000000
   14       -8.979733     -8.720558   1.000000   1.000000
   15       -2.726252     -1.523874   1.000000   1.000000
   16       -2.649546     -1.389435   1.000000   1.000000
   17       -2.031761     -0.653389   1.000000   1.000000
   18       -1.636502     -0.608626   1.000000   1.000000
   19       -1.613577     -0.225138   1.000000   1.000000
   20       -1.289095     -0.137327   1.000000   1.000000
   21       -1.075631      1.021910   1.000000   1.000000
   22       -0.863574      1.179359   1.000000   1.000000
   23       -0.672120      1.447820   1.000000   1.000000
   24       -0.450546      1.468996   1.000000   1.000000
   25       -0.114931      2.395886   1.000000   1.000000
   26        0.271408      2.533072   1.000000   1.000000
   27        0.347272      3.529095   1.000000   1.000000
   28        0.848880      3.814862   1.000000   1.000000
   29        1.149972      7.428439   1.000000   0.000000
   30        1.349699      7.810167   1.000000   0.000000
   31        2.172102      7.854780   1.000000   0.000000
   32        2.232180      8.049194   1.000000   0.000000
   33        2.815443      8.612114   1.000000   0.000000
   34        3.071669      8.613986   1.000000   0.000000
   35        3.345980      8.902765   1.000000   0.000000
   36        3.426594      9.143826   1.000000   0.000000
   37        9.510996     10.411748   0.000000   0.000000
   38        9.977523     10.723075   0.000000   0.000000
   39       10.351519     10.917255   0.000000   0.000000
   40       11.068457     11.611929   0.000000   0.000000
   41       11.421231     12.057056   0.000000   0.000000
   42       11.887177     12.499262   0.000000   0.000000
   43       12.187811     12.890877   0.000000   0.000000
   44       13.403659     14.000432   0.000000   0.000000
   45       13.432463     14.055765   0.000000   0.000000
 
  0.3333333E+00  0.2500000E+00  0.0000000E+00  0.2083333E-01
    1      -56.213548    -49.658192   1.000000   1.000000
    2      -56.186462    -49.645074   1.000000   1.000000
    3      -54.897315    -49.638727   1.000000   1.000000
    4      -54.892882    -49.619624   1.000000   1.000000
    5      -54.662510    -49.603657   1.000000   1.000000
    6      -54.635517    -49.568203   1.000000   1.000000
    7      -43.964911    -43.953720   1.000000   1.000000
    8      -43.951261    -43.940213   1.000000   1.000000
    9      -43.733361    -43.735120   1.000000   1.000000
   10      -43.733078    -43.734883   1.000000   1.000000
   11      -16.083266    -15.697599   1.000000   1.000000
   12      -15.892892    -15.519262   1.000000   1.000000
   13       -9.210890     -8.954638   1.000000   1.000000
   14       -8.850975     -8.566004   1.000000   1.000000
   15       -2.635754     -1.279163   1.000000   1.000000
   16       -2.612664     -1.271260   1.000000   1.000000
   17       -2.130411     -0.767481   1.000000   1.000000
   18       -1.579515     -0.451616   1.000000   1.000000
   19       -1.484721     -0.307992   1.000000   1.000000
   20       -1.459856      0.070960   1.000000   1.000000
   21       -1.216957      0.431722   1.000000   1.000000
   22       -0.935805      0.682052   1.000000   1.000000
   23       -0.382870      1.060899   1.000000   1.000000
   24       -0.160352      1.294983   1.000000   1.000000
   25        0.034564      2.202381   1.000000   1.000000
   26        0.294068      2.480200   1.000000   1.000000
   27        0.515245      3.601237   1.000000   1.000000
   28        0.674540      3.813485   1.000000   1.000000
   29        0.708186      7.191674   1.000000   0.000000
   30        1.216256      7.402412   1.000000   0.000000
   31        1.699838      7.849491   1.000000   0.000000
   32        1.803324      8.118626   1.000000   0.000000
   33        2.768416      8.598169   1.000000   0.000000
   34        2.918250      8.751132   1.000000   0.000000
   35        2.930650      8.939579   1.000000   0.000000
   36        3.085213      9.062380   1.000000   0.000000
   37       10.169268     10.948457   0.000000   0.000000
   38       10.173509     11.159330   0.000000   0.000000
   39       10.826874     11.246762   0.000000   0.000000
   40       11.303524     12.059761   0.000000   0.000000
   41       11.955901     12.745249   0.000000   0.000000
   42       12.132118     12.863792   0.000000   0.000000
   43       12.607731     13.326801   0.000000   0.000000
   44       13.323434     13.659561   0.000000   0.000000
   45       13.855033     14.273500   0.000000   0.000000
 
  0.3333333E+00 -0.2500000E+00  0.0000000E+00  0.2083333E-01
    1      -56.213546    -49.658189   1.000000   1.000000
    2      -56.186461    -49.645073   1.000000   1.000000
    3      -54.897313    -49.638725   1.000000   1.000000
    4      -54.892881    -49.619622   1.000000   1.000000
    5      -54.662508    -49.603656   1.000000   1.000000
    6      -54.635516    -49.568201   1.000000   1.000000
    7      -43.964907    -43.953717   1.000000   1.000000
    8      -43.951257    -43.940209   1.000000   1.000000
    9      -43.733357    -43.735116   1.000000   1.000000
   10      -43.733074    -43.734880   1.000000   1.000000
   11      -16.083265    -15.697597   1.000000   1.000000
   12      -15.892892    -15.519262   1.000000   1.000000
   13       -9.210894     -8.954647   1.000000   1.000000
   14       -8.850928     -8.565945   1.000000   1.000000
   15       -2.635596     -1.279002   1.000000   1.000000
   16       -2.612876     -1.271805   1.000000   1.000000
   17       -2.130292     -0.767951   1.000000   1.000000
   18       -1.579038     -0.449640   1.000000   1.000000
   19       -1.486580     -0.309991   1.000000   1.000000
   20       -1.460181      0.069502   1.000000   1.000000
   21       -1.216492      0.433289   1.000000   1.000000
   22       -0.935117      0.681926   1.000000   1.000000
   23       -0.382327      1.060561   1.000000   1.000000
   24       -0.162563      1.296147   1.000000   1.000000
   25        0.034185      2.202885   1.000000   1.000000
   26        0.298168      2.481422   1.000000   1.000000
   27        0.518249      3.601462   1.000000   1.000000
   28        0.671544      3.811789   1.000000   1.000000
   29        0.706668      7.196984   1.000000   0.000000
   30        1.214513      7.404155   1.000000   0.000000
   31        1.701197      7.847296   1.000000   0.000000
   32        1.804434      8.120967   1.000000   0.000000
   33        2.768947      8.603347   1.000000   0.000000
   34        2.917329      8.752910   1.000000   0.000000
   35        2.930546      8.942179   1.000000   0.000000
   36        3.085445      9.062252   1.000000   0.000000
   37       10.155720     10.924342   0.000000   0.000000
   38       10.198581     11.155328   0.000000   0.000000
   39       10.815698     11.257081   0.000000   0.000000
   40       11.521598     12.286738   0.000000   0.000000
   41       12.000337     12.742856   0.000000   0.000000
   42       12.672549     13.155816   0.000000   0.000000
   43       12.705928     13.402067   0.000000   0.000000
   44       13.401470     13.708309   0.000000   0.000000
   45       13.999686     14.338029   0.000000   0.000000
 
  0.5000000E+00  0.2500000E+00  0.0000000E+00  0.2083333E-01
    1      -56.213530    -49.658084   1.000000   1.000000
    2      -56.186429    -49.645283   1.000000   1.000000
    3      -54.897536    -49.639101   1.000000   1.000000
    4      -54.893093    -49.619507   1.000000   1.000000
    5      -54.662477    -49.603565   1.000000   1.000000
    6      -54.635497    -49.568146   1.000000   1.000000
    7      -43.963992    -43.952760   1.000000   1.000000
    8      -43.950949    -43.939888   1.000000   1.000000
    9      -43.733917    -43.735697   1.000000   1.000000
   10      -43.733001    -43.734831   1.000000   1.000000
   11      -16.092428    -15.706415   1.000000   1.000000
   12      -15.906781    -15.533287   1.000000   1.000000
   13       -9.126691     -8.877273   1.000000   1.000000
   14       -8.783359     -8.483372   1.000000   1.000000
   15       -2.609959     -1.302173   1.000000   1.000000
   16       -2.595704     -1.267230   1.000000   1.000000
   17       -2.161600     -0.610897   1.000000   1.000000
   18       -1.744671     -0.498400   1.000000   1.000000
   19       -1.433490     -0.162144   1.000000   1.000000
   20       -1.343236     -0.039114   1.000000   1.000000
   21       -1.322537      0.310647   1.000000   1.000000
   22       -0.654905      0.455319   1.000000   1.000000
   23       -0.559406      0.825200   1.000000   1.000000
   24       -0.425267      1.278448   1.000000   1.000000
   25        0.317543      2.106908   1.000000   1.000000
   26        0.523939      2.578906   1.000000   1.000000
   27        0.601784      3.529109   1.000000   1.000000
   28        0.725740      3.801149   1.000000   1.000000
   29        0.885925      7.109395   1.000000   0.000000
   30        1.019603      7.121604   1.000000   0.000000
   31        1.075567      7.852739   1.000000   0.000000
   32        1.696345      8.093165   1.000000   0.000000
   33        2.406970      8.752298   1.000000   0.000000
   34        2.826211      8.804180   1.000000   0.000000
   35        2.857961      8.967319   1.000000   0.000000
   36        3.194116      8.978845   1.000000   0.000000
   37       10.272274     11.171965   0.000000   0.000000
   38       10.601741     11.341485   0.000000   0.000000
   39       10.843150     11.711390   0.000000   0.000000
   40       11.081310     12.197351   0.000000   0.000000
   41       12.163455     12.781840   0.000000   0.000000
   42       12.794620     13.644659   0.000000   0.000000
   43       13.456373     13.928502   0.000000   0.000000
   44       14.100884     14.521631   0.000000   0.000000
   45       14.115274     14.629973   0.000000   0.000000
 
  0.1879781E-18  0.5000000E+00  0.0000000E+00  0.1041667E-01
    1      -56.200024    -49.641097   1.000000   1.000000
    2      -56.200022    -49.641096   1.000000   1.000000
    3      -54.894474    -49.635184   1.000000   1.000000
    4      -54.894474    -49.635183   1.000000   1.000000
    5      -54.649188    -49.590276   1.000000   1.000000
    6      -54.649186    -49.590275   1.000000   1.000000
    7      -43.959921    -43.948880   1.000000   1.000000
    8      -43.959902    -43.948867   1.000000   1.000000
    9      -43.732489    -43.734204   1.000000   1.000000
   10      -43.732471    -43.734185   1.000000   1.000000
   11      -15.951651    -15.571763   1.000000   1.000000
   12      -15.951649    -15.571762   1.000000   1.000000
   13       -9.274476     -9.016186   1.000000   1.000000
   14       -9.274469     -9.016181   1.000000   1.000000
   15       -2.474765     -1.319813   1.000000   1.000000
   16       -2.474764     -1.319810   1.000000   1.000000
   17       -1.945498     -0.464539   1.000000   1.000000
   18       -1.945497     -0.464538   1.000000   1.000000
   19       -1.653036     -0.205272   1.000000   1.000000
   20       -1.653035     -0.205271   1.000000   1.000000
   21       -0.843365      0.798426   1.000000   1.000000
   22       -0.843363      0.798429   1.000000   1.000000
   23       -0.698522      2.103084   1.000000   1.000000
   24       -0.698521      2.103088   1.000000   1.000000
   25        0.548290      2.253976   1.000000   1.000000
   26        0.548291      2.253979   1.000000   1.000000
   27        0.719331      3.404499   1.000000   1.000000
   28        0.719334      3.404501   1.000000   1.000000
   29        1.089786      7.942416   1.000000   0.000000
   30        1.089786      7.942417   1.000000   0.000000
   31        1.949590      7.982366   1.000000   0.000000
   32        1.949591      7.982367   1.000000   0.000000
   33        3.201606      8.495995   1.000000   0.000000
   34        3.201615      8.495997   1.000000   0.000000
   35        3.337817      8.838292   1.000000   0.000000
   36        3.337819      8.838294   1.000000   0.000000
   37        9.383367     10.459926   0.000000   0.000000
   38        9.383369     10.459929   0.000000   0.000000
   39       11.755790     11.972901   0.000000   0.000000
   40       11.756321     11.973091   0.000000   0.000000
   41       12.246466     12.500645   0.000000   0.000000
   42       12.253193     12.502109   0.000000   0.000000
   43       12.501176     13.185584   0.000000   0.000000
   44       12.518661     13.240320   0.000000   0.000000
   45       12.720270     13.328436   0.000000   0.000000
 
  0.1666667E+00  0.5000000E+00  0.0000000E+00  0.2083333E-01
    1      -56.199996    -49.641373   1.000000   1.000000
    2      -56.199994    -49.641367   1.000000   1.000000
    3      -54.894685    -49.635085   1.000000   1.000000
    4      -54.894685    -49.635080   1.000000   1.000000
    5      -54.649159    -49.590188   1.000000   1.000000