# energy dos(up) dos(down)
-6.385430000000000206e+01 0.000000000000000000e+00 -0.000000000000000000e+00
-6.381470000000000198e+01 0.000000000000000000e+00 -0.000000000000000000e+00
-6.377519999999999811e+01 0.000000000000000000e+00 -0.000000000000000000e+00
-6.373559999999999803e+01 0.000000000000000000e+00 -0.000000000000000000e+00
-6.369610000000000127e+01 0.000000000000000000e+00 -0.000000000000000000e+00
-6.365650000000000119e+01 0.000000000000000000e+00 -0.000000000000000000e+00
-6.361699999999999733e+01 0.000000000000000000e+00 -0.000000000000000000e+00
-6.357739999999999725e+01 0.000000000000000000e+00 -0.000000000000000000e+00
-6.353790000000000049e+01 0.000000000000000000e+00 -0.000000000000000000e+00
-6.349830000000000041e+01 0.000000000000000000e+00 -0.000000000000000000e+00
-6.345879999999999654e+01 0.000000000000000000e+00 -0.000000000000000000e+00
-6.341919999999999646e+01 0.000000000000000000e+00 -0.000000000000000000e+00
-6.337969999999999970e+01 0.000000000000000000e+00 -0.000000000000000000e+00
-6.334009999999999962e+01 0.000000000000000000e+00 -0.000000000000000000e+00
-6.330060000000000286e+01 0.000000000000000000e+00 -0.000000000000000000e+00
-6.326100000000000279e+01 0.000000000000000000e+00 -0.000000000000000000e+00
-6.322149999999999892e+01 0.000000000000000000e+00 -0.000000000000000000e+00
-6.318189999999999884e+01 0.000000000000000000e+00 -0.000000000000000000e+00
-6.314240000000000208e+01 0.000000000000000000e+00 -0.000000000000000000e+00
-6.310280000000000200e+01 0.000000000000000000e+00 -0.000000000000000000e+00
-6.306329999999999814e+01 0.000000000000000000e+00 -0.000000000000000000e+00
-6.302369999999999806e+01 0.000000000000000000e+00 -0.000000000000000000e+00
-6.298420000000000130e+01 0.000000000000000000e+00 -0.000000000000000000e+00
-6.294460000000000122e+01 0.000000000000000000e+00 -0.000000000000000000e+00
-6.290509999999999735e+01 0.000000000000000000e+00 -0.000000000000000000e+00
-6.286549999999999727e+01 0.000000000000000000e+00 -0.000000000000000000e+00
-6.282600000000000051e+01 0.000000000000000000e+00 -0.000000000000000000e+00
-6.278640000000000043e+01 0.000000000000000000e+00 -0.000000000000000000e+00
-6.274689999999999657e+01 0.000000000000000000e+00 -0.000000000000000000e+00
-6.270729999999999649e+01 0.000000000000000000e+00 -0.000000000000000000e+00
-6.266779999999999973e+01 0.000000000000000000e+00 -0.000000000000000000e+00
-6.262819999999999965e+01 0.000000000000000000e+00 -0.000000000000000000e+00
-6.258870000000000289e+01 0.000000000000000000e+00 -0.000000000000000000e+00
-6.254910000000000281e+01 0.000000000000000000e+00 -0.000000000000000000e+00
-6.250959999999999894e+01 0.000000000000000000e+00 -0.000000000000000000e+00
-6.246999999999999886e+01 0.000000000000000000e+00 -0.000000000000000000e+00
-6.243050000000000210e+01 0.000000000000000000e+00 -0.000000000000000000e+00
-6.239090000000000202e+01 0.000000000000000000e+00 -0.000000000000000000e+00
-6.235139999999999816e+01 0.000000000000000000e+00 -0.000000000000000000e+00
-6.231179999999999808e+01 0.000000000000000000e+00 -0.000000000000000000e+00
-6.227230000000000132e+01 0.000000000000000000e+00 -0.000000000000000000e+00
-6.223270000000000124e+01 0.000000000000000000e+00 -0.000000000000000000e+00
-6.219319999999999737e+01 0.000000000000000000e+00 -0.000000000000000000e+00
-6.215359999999999729e+01 0.000000000000000000e+00 -0.000000000000000000e+00
-6.211410000000000053e+01 0.000000000000000000e+00 -0.000000000000000000e+00
-6.207450000000000045e+01 0.000000000000000000e+00 -0.000000000000000000e+00
-6.203499999999999659e+01 0.000000000000000000e+00 -0.000000000000000000e+00
-6.199539999999999651e+01 0.000000000000000000e+00 -0.000000000000000000e+00
-6.195589999999999975e+01 0.000000000000000000e+00 -0.000000000000000000e+00
-6.191629999999999967e+01 0.000000000000000000e+00 -0.000000000000000000e+00
-6.187680000000000291e+01 0.000000000000000000e+00 -0.000000000000000000e+00
-6.183720000000000283e+01 0.000000000000000000e+00 -0.000000000000000000e+00
-6.179769999999999897e+01 0.000000000000000000e+00 -0.000000000000000000e+00
-6.175809999999999889e+01 0.000000000000000000e+00 -0.000000000000000000e+00
-6.171860000000000213e+01 0.000000000000000000e+00 -0.000000000000000000e+00
-6.167900000000000205e+01 0.000000000000000000e+00 -0.000000000000000000e+00
-6.163949999999999818e+01 0.000000000000000000e+00 -0.000000000000000000e+00
-6.159989999999999810e+01 0.000000000000000000e+00 -0.000000000000000000e+00
-6.156040000000000134e+01 0.000000000000000000e+00 -0.000000000000000000e+00
-6.152080000000000126e+01 0.000000000000000000e+00 -0.000000000000000000e+00
-6.148129999999999740e+01 0.000000000000000000e+00 -0.000000000000000000e+00
-6.144169999999999732e+01 0.000000000000000000e+00 -0.000000000000000000e+00
-6.140220000000000056e+01 0.000000000000000000e+00 -0.000000000000000000e+00
-6.136260000000000048e+01 0.000000000000000000e+00 -0.000000000000000000e+00
-6.132309999999999661e+01 0.000000000000000000e+00 -0.000000000000000000e+00
-6.128349999999999653e+01 0.000000000000000000e+00 -0.000000000000000000e+00
-6.124399999999999977e+01 0.000000000000000000e+00 -0.000000000000000000e+00
-6.120439999999999969e+01 0.000000000000000000e+00 -0.000000000000000000e+00
-6.116479999999999961e+01 0.000000000000000000e+00 -0.000000000000000000e+00
-6.112530000000000285e+01 0.000000000000000000e+00 -0.000000000000000000e+00
-6.108570000000000277e+01 0.000000000000000000e+00 -0.000000000000000000e+00
-6.104619999999999891e+01 0.000000000000000000e+00 -0.000000000000000000e+00
-6.100659999999999883e+01 0.000000000000000000e+00 -0.000000000000000000e+00
-6.096710000000000207e+01 0.000000000000000000e+00 -0.000000000000000000e+00
-6.092750000000000199e+01 0.000000000000000000e+00 -0.000000000000000000e+00
-6.088799999999999812e+01 0.000000000000000000e+00 -0.000000000000000000e+00
-6.084839999999999804e+01 0.000000000000000000e+00 -0.000000000000000000e+00
-6.080890000000000128e+01 0.000000000000000000e+00 -0.000000000000000000e+00
-6.076930000000000121e+01 0.000000000000000000e+00 -0.000000000000000000e+00
-6.072979999999999734e+01 0.000000000000000000e+00 -0.000000000000000000e+00
-6.069019999999999726e+01 0.000000000000000000e+00 -0.000000000000000000e+00
-6.065070000000000050e+01 0.000000000000000000e+00 -0.000000000000000000e+00
-6.061110000000000042e+01 0.000000000000000000e+00 -0.000000000000000000e+00
-6.057159999999999656e+01 0.000000000000000000e+00 -0.000000000000000000e+00
-6.053199999999999648e+01 0.000000000000000000e+00 -0.000000000000000000e+00
-6.049249999999999972e+01 0.000000000000000000e+00 -0.000000000000000000e+00
-6.045289999999999964e+01 0.000000000000000000e+00 -0.000000000000000000e+00
-6.041340000000000288e+01 1.000000000000000048e-04 -0.000000000000000000e+00
-6.037380000000000280e+01 1.039999999999999952e-02 -0.000000000000000000e+00
-6.033429999999999893e+01 3.376000000000000112e-01 -0.000000000000000000e+00
-6.029469999999999885e+01 3.667499999999999982e+00 -0.000000000000000000e+00
-6.025520000000000209e+01 1.407240000000000002e+01 -0.000000000000000000e+00
-6.021560000000000201e+01 1.987630000000000052e+01 -0.000000000000000000e+00
-6.017609999999999815e+01 1.046199999999999974e+01 -0.000000000000000000e+00
-6.013649999999999807e+01 2.005500000000000060e+00 -0.000000000000000000e+00
-6.009700000000000131e+01 1.335999999999999965e-01 -0.000000000000000000e+00
-6.005740000000000123e+01 2.899999999999999800e-03 -0.000000000000000000e+00
-6.001789999999999736e+01 0.000000000000000000e+00 -0.000000000000000000e+00
-5.997829999999999728e+01 0.000000000000000000e+00 -0.000000000000000000e+00
-5.993880000000000052e+01 0.000000000000000000e+00 -0.000000000000000000e+00
-5.989920000000000044e+01 0.000000000000000000e+00 -0.000000000000000000e+00
-5.985969999999999658e+01 0.000000000000000000e+00 -0.000000000000000000e+00
-5.982009999999999650e+01 0.000000000000000000e+00 -0.000000000000000000e+00
-5.978059999999999974e+01 0.000000000000000000e+00 -0.000000000000000000e+00
-5.974099999999999966e+01 0.000000000000000000e+00 -0.000000000000000000e+00
-5.970150000000000290e+01 0.000000000000000000e+00 -0.000000000000000000e+00
-5.966190000000000282e+01 0.000000000000000000e+00 -0.000000000000000000e+00
-5.962239999999999895e+01 0.000000000000000000e+00 -0.000000000000000000e+00
-5.958279999999999887e+01 0.000000000000000000e+00 -0.000000000000000000e+00
-5.954330000000000211e+01 0.000000000000000000e+00 -0.000000000000000000e+00
-5.950370000000000203e+01 0.000000000000000000e+00 -0.000000000000000000e+00
-5.946419999999999817e+01 0.000000000000000000e+00 -0.000000000000000000e+00
-5.942459999999999809e+01 0.000000000000000000e+00 -0.000000000000000000e+00
-5.938510000000000133e+01 0.000000000000000000e+00 -0.000000000000000000e+00
-5.934550000000000125e+01 0.000000000000000000e+00 -0.000000000000000000e+00
-5.930599999999999739e+01 0.000000000000000000e+00 -0.000000000000000000e+00
-5.926639999999999731e+01 0.000000000000000000e+00 -0.000000000000000000e+00
-5.922690000000000055e+01 0.000000000000000000e+00 -0.000000000000000000e+00
-5.918730000000000047e+01 0.000000000000000000e+00 -0.000000000000000000e+00
-5.914779999999999660e+01 0.000000000000000000e+00 -0.000000000000000000e+00
-5.910819999999999652e+01 0.000000000000000000e+00 -0.000000000000000000e+00
-5.906869999999999976e+01 4.599999999999999922e-03 -0.000000000000000000e+00
-5.902909999999999968e+01 2.154999999999999971e-01 -0.000000000000000000e+00
-5.898960000000000292e+01 3.113100000000000200e+00 -0.000000000000000000e+00
-5.895000000000000284e+01 1.426909999999999989e+01 -0.000000000000000000e+00
-5.891049999999999898e+01 2.113629999999999853e+01 -0.000000000000000000e+00
-5.887089999999999890e+01 1.017570000000000086e+01 -0.000000000000000000e+00
-5.883140000000000214e+01 1.580200000000000049e+00 -0.000000000000000000e+00
-5.879180000000000206e+01 2.515000000000000013e-01 -0.000000000000000000e+00
-5.875229999999999819e+01 2.397299999999999986e+00 -0.000000000000000000e+00
-5.871269999999999811e+01 1.147519999999999918e+01 -0.000000000000000000e+00
-5.867320000000000135e+01 2.006070000000000064e+01 -0.000000000000000000e+00
-5.863360000000000127e+01 1.306489999999999974e+01 -0.000000000000000000e+00
-5.859409999999999741e+01 3.122799999999999798e+00 -0.000000000000000000e+00
-5.855449999999999733e+01 2.625000000000000111e-01 -0.000000000000000000e+00
-5.851500000000000057e+01 7.400000000000000328e-03 -0.000000000000000000e+00
-5.847540000000000049e+01 1.000000000000000048e-04 -0.000000000000000000e+00
-5.843589999999999662e+01 0.000000000000000000e+00 -0.000000000000000000e+00
-5.839629999999999654e+01 0.000000000000000000e+00 -0.000000000000000000e+00
-5.835679999999999978e+01 0.000000000000000000e+00 -0.000000000000000000e+00
-5.831719999999999970e+01 0.000000000000000000e+00 -0.000000000000000000e+00
-5.827770000000000294e+01 0.000000000000000000e+00 -0.000000000000000000e+00
-5.823810000000000286e+01 0.000000000000000000e+00 -0.000000000000000000e+00
-5.819859999999999900e+01 0.000000000000000000e+00 -0.000000000000000000e+00
-5.815899999999999892e+01 0.000000000000000000e+00 -0.000000000000000000e+00
-5.811950000000000216e+01 0.000000000000000000e+00 -0.000000000000000000e+00
-5.807990000000000208e+01 0.000000000000000000e+00 -0.000000000000000000e+00
-5.804039999999999822e+01 0.000000000000000000e+00 -0.000000000000000000e+00
-5.800079999999999814e+01 0.000000000000000000e+00 -0.000000000000000000e+00
-5.796130000000000138e+01 0.000000000000000000e+00 -0.000000000000000000e+00
-5.792170000000000130e+01 0.000000000000000000e+00 -0.000000000000000000e+00
-5.788219999999999743e+01 0.000000000000000000e+00 -0.000000000000000000e+00
-5.784259999999999735e+01 0.000000000000000000e+00 -0.000000000000000000e+00
-5.780310000000000059e+01 0.000000000000000000e+00 -0.000000000000000000e+00
-5.776350000000000051e+01 0.000000000000000000e+00 -0.000000000000000000e+00
-5.772399999999999665e+01 0.000000000000000000e+00 -0.000000000000000000e+00
-5.768439999999999657e+01 0.000000000000000000e+00 -0.000000000000000000e+00
-5.764489999999999981e+01 0.000000000000000000e+00 -0.000000000000000000e+00
-5.760529999999999973e+01 0.000000000000000000e+00 -0.000000000000000000e+00
-5.756580000000000297e+01 0.000000000000000000e+00 -0.000000000000000000e+00
-5.752620000000000289e+01 0.000000000000000000e+00 -0.000000000000000000e+00
-5.748669999999999902e+01 0.000000000000000000e+00 -0.000000000000000000e+00
-5.744709999999999894e+01 0.000000000000000000e+00 -0.000000000000000000e+00
-5.740760000000000218e+01 0.000000000000000000e+00 -0.000000000000000000e+00
-5.736800000000000210e+01 0.000000000000000000e+00 -0.000000000000000000e+00
-5.732849999999999824e+01 0.000000000000000000e+00 -0.000000000000000000e+00
-5.728889999999999816e+01 0.000000000000000000e+00 -0.000000000000000000e+00
-5.724940000000000140e+01 0.000000000000000000e+00 -0.000000000000000000e+00
-5.720980000000000132e+01 0.000000000000000000e+00 -0.000000000000000000e+00
-5.717029999999999745e+01 0.000000000000000000e+00 -0.000000000000000000e+00
-5.713069999999999737e+01 0.000000000000000000e+00 -0.000000000000000000e+00
-5.709120000000000061e+01 0.000000000000000000e+00 -0.000000000000000000e+00
-5.705160000000000053e+01 0.000000000000000000e+00 -0.000000000000000000e+00
-5.701209999999999667e+01 0.000000000000000000e+00 -0.000000000000000000e+00
-5.697249999999999659e+01 0.000000000000000000e+00 -0.000000000000000000e+00
-5.693299999999999983e+01 0.000000000000000000e+00 -0.000000000000000000e+00
-5.689339999999999975e+01 0.000000000000000000e+00 -0.000000000000000000e+00
-5.685390000000000299e+01 0.000000000000000000e+00 -0.000000000000000000e+00
-5.681430000000000291e+01 0.000000000000000000e+00 -0.000000000000000000e+00
-5.677479999999999905e+01 0.000000000000000000e+00 -0.000000000000000000e+00
-5.673519999999999897e+01 0.000000000000000000e+00 -0.000000000000000000e+00
-5.669559999999999889e+01 0.000000000000000000e+00 -0.000000000000000000e+00
-5.665610000000000213e+01 0.000000000000000000e+00 -0.000000000000000000e+00
-5.661650000000000205e+01 0.000000000000000000e+00 -0.000000000000000000e+00
-5.657699999999999818e+01 0.000000000000000000e+00 -0.000000000000000000e+00
-5.653739999999999810e+01 0.000000000000000000e+00 -0.000000000000000000e+00
-5.649790000000000134e+01 0.000000000000000000e+00 -0.000000000000000000e+00
-5.645830000000000126e+01 0.000000000000000000e+00 -0.000000000000000000e+00
-5.641879999999999740e+01 0.000000000000000000e+00 -0.000000000000000000e+00
-5.637919999999999732e+01 0.000000000000000000e+00 -0.000000000000000000e+00
-5.633970000000000056e+01 0.000000000000000000e+00 -0.000000000000000000e+00
-5.630010000000000048e+01 0.000000000000000000e+00 -0.000000000000000000e+00
-5.626059999999999661e+01 0.000000000000000000e+00 -0.000000000000000000e+00
-5.622099999999999653e+01 0.000000000000000000e+00 -0.000000000000000000e+00
-5.618149999999999977e+01 0.000000000000000000e+00 -0.000000000000000000e+00
-5.614189999999999969e+01 0.000000000000000000e+00 -0.000000000000000000e+00
-5.610240000000000293e+01 0.000000000000000000e+00 -0.000000000000000000e+00
-5.606280000000000285e+01 0.000000000000000000e+00 -0.000000000000000000e+00
-5.602329999999999899e+01 0.000000000000000000e+00 -0.000000000000000000e+00
-5.598369999999999891e+01 0.000000000000000000e+00 -0.000000000000000000e+00
-5.594420000000000215e+01 0.000000000000000000e+00 -0.000000000000000000e+00
-5.590460000000000207e+01 0.000000000000000000e+00 -0.000000000000000000e+00
-5.586509999999999820e+01 0.000000000000000000e+00 -0.000000000000000000e+00
-5.582549999999999812e+01 0.000000000000000000e+00 -0.000000000000000000e+00
-5.578600000000000136e+01 0.000000000000000000e+00 -0.000000000000000000e+00
-5.574640000000000128e+01 0.000000000000000000e+00 -0.000000000000000000e+00
-5.570689999999999742e+01 0.000000000000000000e+00 -0.000000000000000000e+00
-5.566729999999999734e+01 0.000000000000000000e+00 -0.000000000000000000e+00
-5.562780000000000058e+01 0.000000000000000000e+00 -0.000000000000000000e+00
-5.558820000000000050e+01 0.000000000000000000e+00 -0.000000000000000000e+00
-5.554869999999999663e+01 0.000000000000000000e+00 -0.000000000000000000e+00
-5.550909999999999656e+01 0.000000000000000000e+00 -0.000000000000000000e+00
-5.546959999999999980e+01 0.000000000000000000e+00 -0.000000000000000000e+00
-5.542999999999999972e+01 0.000000000000000000e+00 -0.000000000000000000e+00
-5.539050000000000296e+01 0.000000000000000000e+00 -0.000000000000000000e+00
-5.535090000000000288e+01 0.000000000000000000e+00 -0.000000000000000000e+00
-5.531139999999999901e+01 0.000000000000000000e+00 -0.000000000000000000e+00
-5.527179999999999893e+01 0.000000000000000000e+00 -0.000000000000000000e+00
-5.523230000000000217e+01 0.000000000000000000e+00 -0.000000000000000000e+00
-5.519270000000000209e+01 0.000000000000000000e+00 -0.000000000000000000e+00
-5.515319999999999823e+01 0.000000000000000000e+00 -0.000000000000000000e+00
-5.511359999999999815e+01 0.000000000000000000e+00 -0.000000000000000000e+00
-5.507410000000000139e+01 0.000000000000000000e+00 -0.000000000000000000e+00
-5.503450000000000131e+01 0.000000000000000000e+00 -0.000000000000000000e+00
-5.499499999999999744e+01 0.000000000000000000e+00 -0.000000000000000000e+00
-5.495539999999999736e+01 0.000000000000000000e+00 -0.000000000000000000e+00
-5.491590000000000060e+01 0.000000000000000000e+00 -0.000000000000000000e+00
-5.487630000000000052e+01 0.000000000000000000e+00 -0.000000000000000000e+00
-5.483679999999999666e+01 0.000000000000000000e+00 -0.000000000000000000e+00
-5.479719999999999658e+01 0.000000000000000000e+00 -0.000000000000000000e+00
-5.475769999999999982e+01 0.000000000000000000e+00 -0.000000000000000000e+00
-5.471809999999999974e+01 0.000000000000000000e+00 -0.000000000000000000e+00
-5.467860000000000298e+01 0.000000000000000000e+00 -0.000000000000000000e+00
-5.463900000000000290e+01 0.000000000000000000e+00 -0.000000000000000000e+00
-5.459949999999999903e+01 0.000000000000000000e+00 -0.000000000000000000e+00
-5.455989999999999895e+01 0.000000000000000000e+00 -0.000000000000000000e+00
-5.452040000000000219e+01 0.000000000000000000e+00 -0.000000000000000000e+00
-5.448080000000000211e+01 0.000000000000000000e+00 -0.000000000000000000e+00
-5.444129999999999825e+01 0.000000000000000000e+00 -0.000000000000000000e+00
-5.440169999999999817e+01 0.000000000000000000e+00 -0.000000000000000000e+00
-5.436220000000000141e+01 0.000000000000000000e+00 -0.000000000000000000e+00
-5.432260000000000133e+01 0.000000000000000000e+00 -0.000000000000000000e+00
-5.428309999999999746e+01 0.000000000000000000e+00 -0.000000000000000000e+00
-5.424349999999999739e+01 0.000000000000000000e+00 -0.000000000000000000e+00
-5.420400000000000063e+01 0.000000000000000000e+00 -0.000000000000000000e+00
-5.416440000000000055e+01 0.000000000000000000e+00 -0.000000000000000000e+00
-5.412489999999999668e+01 0.000000000000000000e+00 -0.000000000000000000e+00
-5.408529999999999660e+01 0.000000000000000000e+00 -0.000000000000000000e+00
-5.404579999999999984e+01 0.000000000000000000e+00 -0.000000000000000000e+00
-5.400619999999999976e+01 0.000000000000000000e+00 -0.000000000000000000e+00
-5.396670000000000300e+01 0.000000000000000000e+00 -0.000000000000000000e+00
-5.392710000000000292e+01 0.000000000000000000e+00 -0.000000000000000000e+00
-5.388759999999999906e+01 0.000000000000000000e+00 -0.000000000000000000e+00
-5.384799999999999898e+01 0.000000000000000000e+00 -5.999999999999999474e-04
-5.380850000000000222e+01 0.000000000000000000e+00 -4.259999999999999898e-02
-5.376890000000000214e+01 0.000000000000000000e+00 -1.062799999999999967e+00
-5.372939999999999827e+01 0.000000000000000000e+00 -9.679600000000000648e+00
-5.368979999999999819e+01 0.000000000000000000e+00 -3.394680000000000319e+01
-5.365030000000000143e+01 0.000000000000000000e+00 -5.007030000000000314e+01
-5.361070000000000135e+01 0.000000000000000000e+00 -3.675999999999999801e+01
-5.357119999999999749e+01 0.000000000000000000e+00 -1.594319999999999915e+01
-5.353159999999999741e+01 0.000000000000000000e+00 -3.795799999999999841e+00
-5.349210000000000065e+01 0.000000000000000000e+00 -3.887999999999999790e-01
-5.345250000000000057e+01 0.000000000000000000e+00 -1.430000000000000021e-02
-5.341299999999999670e+01 0.000000000000000000e+00 -2.000000000000000096e-04
-5.337339999999999662e+01 0.000000000000000000e+00 -0.000000000000000000e+00
-5.333389999999999986e+01 0.000000000000000000e+00 -0.000000000000000000e+00
-5.329429999999999978e+01 0.000000000000000000e+00 -0.000000000000000000e+00
-5.325480000000000302e+01 0.000000000000000000e+00 -0.000000000000000000e+00
-5.321520000000000294e+01 0.000000000000000000e+00 -0.000000000000000000e+00
-5.317569999999999908e+01 0.000000000000000000e+00 -0.000000000000000000e+00
-5.313609999999999900e+01 0.000000000000000000e+00 -0.000000000000000000e+00
-5.309660000000000224e+01 0.000000000000000000e+00 -0.000000000000000000e+00
-5.305700000000000216e+01 0.000000000000000000e+00 -0.000000000000000000e+00
-5.301749999999999829e+01 0.000000000000000000e+00 -0.000000000000000000e+00
-5.297789999999999822e+01 0.000000000000000000e+00 -0.000000000000000000e+00
-5.293840000000000146e+01 0.000000000000000000e+00 -0.000000000000000000e+00
-5.289880000000000138e+01 0.000000000000000000e+00 -0.000000000000000000e+00
-5.285929999999999751e+01 0.000000000000000000e+00 -0.000000000000000000e+00
-5.281969999999999743e+01 0.000000000000000000e+00 -0.000000000000000000e+00
-5.278020000000000067e+01 0.000000000000000000e+00 -0.000000000000000000e+00
-5.274060000000000059e+01 0.000000000000000000e+00 -0.000000000000000000e+00
-5.270109999999999673e+01 0.000000000000000000e+00 -0.000000000000000000e+00
-5.266149999999999665e+01 0.000000000000000000e+00 -0.000000000000000000e+00
-5.262199999999999989e+01 0.000000000000000000e+00 -0.000000000000000000e+00
-5.258239999999999981e+01 0.000000000000000000e+00 -0.000000000000000000e+00
-5.254290000000000305e+01 0.000000000000000000e+00 -0.000000000000000000e+00
-5.250330000000000297e+01 0.000000000000000000e+00 -0.000000000000000000e+00
-5.246379999999999910e+01 0.000000000000000000e+00 -0.000000000000000000e+00
-5.242419999999999902e+01 0.000000000000000000e+00 -0.000000000000000000e+00
-5.238470000000000226e+01 0.000000000000000000e+00 -0.000000000000000000e+00
-5.234510000000000218e+01 0.000000000000000000e+00 -0.000000000000000000e+00
-5.230559999999999832e+01 0.000000000000000000e+00 -0.000000000000000000e+00
-5.226599999999999824e+01 0.000000000000000000e+00 -0.000000000000000000e+00
-5.222650000000000148e+01 0.000000000000000000e+00 -0.000000000000000000e+00
-5.218690000000000140e+01 0.000000000000000000e+00 -0.000000000000000000e+00
-5.214730000000000132e+01 0.000000000000000000e+00 -0.000000000000000000e+00
-5.210779999999999745e+01 0.000000000000000000e+00 -0.000000000000000000e+00
-5.206819999999999737e+01 0.000000000000000000e+00 -0.000000000000000000e+00
-5.202870000000000061e+01 0.000000000000000000e+00 -0.000000000000000000e+00
-5.198910000000000053e+01 0.000000000000000000e+00 -0.000000000000000000e+00
-5.194959999999999667e+01 0.000000000000000000e+00 -0.000000000000000000e+00
-5.190999999999999659e+01 0.000000000000000000e+00 -0.000000000000000000e+00
-5.187049999999999983e+01 0.000000000000000000e+00 -0.000000000000000000e+00
-5.183089999999999975e+01 0.000000000000000000e+00 -0.000000000000000000e+00
-5.179140000000000299e+01 0.000000000000000000e+00 -0.000000000000000000e+00
-5.175180000000000291e+01 0.000000000000000000e+00 -0.000000000000000000e+00
-5.171229999999999905e+01 0.000000000000000000e+00 -0.000000000000000000e+00
-5.167269999999999897e+01 0.000000000000000000e+00 -0.000000000000000000e+00
-5.163320000000000221e+01 0.000000000000000000e+00 -0.000000000000000000e+00
-5.159360000000000213e+01 0.000000000000000000e+00 -0.000000000000000000e+00
-5.155409999999999826e+01 0.000000000000000000e+00 -0.000000000000000000e+00
-5.151449999999999818e+01 0.000000000000000000e+00 -0.000000000000000000e+00
-5.147500000000000142e+01 0.000000000000000000e+00 -0.000000000000000000e+00
-5.143540000000000134e+01 0.000000000000000000e+00 -0.000000000000000000e+00
-5.139589999999999748e+01 0.000000000000000000e+00 -0.000000000000000000e+00
-5.135629999999999740e+01 0.000000000000000000e+00 -0.000000000000000000e+00
-5.131680000000000064e+01 0.000000000000000000e+00 -0.000000000000000000e+00
-5.127720000000000056e+01 0.000000000000000000e+00 -0.000000000000000000e+00
-5.123769999999999669e+01 0.000000000000000000e+00 -0.000000000000000000e+00
-5.119809999999999661e+01 0.000000000000000000e+00 -0.000000000000000000e+00
-5.115859999999999985e+01 0.000000000000000000e+00 -0.000000000000000000e+00
-5.111899999999999977e+01 0.000000000000000000e+00 -0.000000000000000000e+00
-5.107950000000000301e+01 0.000000000000000000e+00 -0.000000000000000000e+00
-5.103990000000000293e+01 0.000000000000000000e+00 -0.000000000000000000e+00
-5.100039999999999907e+01 0.000000000000000000e+00 -0.000000000000000000e+00
-5.096079999999999899e+01 0.000000000000000000e+00 -0.000000000000000000e+00
-5.092130000000000223e+01 0.000000000000000000e+00 -0.000000000000000000e+00
-5.088170000000000215e+01 0.000000000000000000e+00 -0.000000000000000000e+00
-5.084219999999999828e+01 0.000000000000000000e+00 -0.000000000000000000e+00
-5.080259999999999820e+01 0.000000000000000000e+00 -0.000000000000000000e+00
-5.076310000000000144e+01 0.000000000000000000e+00 -0.000000000000000000e+00
-5.072350000000000136e+01 0.000000000000000000e+00 -0.000000000000000000e+00
-5.068399999999999750e+01 0.000000000000000000e+00 -0.000000000000000000e+00
-5.064439999999999742e+01 0.000000000000000000e+00 -0.000000000000000000e+00
-5.060490000000000066e+01 0.000000000000000000e+00 -0.000000000000000000e+00
-5.056530000000000058e+01 0.000000000000000000e+00 -0.000000000000000000e+00
-5.052579999999999671e+01 0.000000000000000000e+00 -0.000000000000000000e+00
-5.048619999999999663e+01 0.000000000000000000e+00 -0.000000000000000000e+00
-5.044669999999999987e+01 0.000000000000000000e+00 -0.000000000000000000e+00
-5.040709999999999980e+01 0.000000000000000000e+00 -0.000000000000000000e+00
-5.036760000000000304e+01 0.000000000000000000e+00 -0.000000000000000000e+00
-5.032800000000000296e+01 0.000000000000000000e+00 -0.000000000000000000e+00
-5.028849999999999909e+01 0.000000000000000000e+00 -0.000000000000000000e+00
-5.024889999999999901e+01 0.000000000000000000e+00 -0.000000000000000000e+00
-5.020940000000000225e+01 0.000000000000000000e+00 -0.000000000000000000e+00
-5.016980000000000217e+01 0.000000000000000000e+00 -0.000000000000000000e+00
-5.013029999999999831e+01 0.000000000000000000e+00 -0.000000000000000000e+00
-5.009069999999999823e+01 0.000000000000000000e+00 -0.000000000000000000e+00
-5.005120000000000147e+01 0.000000000000000000e+00 -0.000000000000000000e+00
-5.001160000000000139e+01 0.000000000000000000e+00 -0.000000000000000000e+00
-4.997209999999999752e+01 0.000000000000000000e+00 -0.000000000000000000e+00
-4.993249999999999744e+01 0.000000000000000000e+00 -0.000000000000000000e+00
-4.989300000000000068e+01 0.000000000000000000e+00 -0.000000000000000000e+00
-4.985340000000000060e+01 0.000000000000000000e+00 -0.000000000000000000e+00
-4.981389999999999674e+01 0.000000000000000000e+00 -0.000000000000000000e+00
-4.977429999999999666e+01 0.000000000000000000e+00 -0.000000000000000000e+00
-4.973479999999999990e+01 0.000000000000000000e+00 -0.000000000000000000e+00
-4.969519999999999982e+01 0.000000000000000000e+00 -0.000000000000000000e+00
-4.965570000000000306e+01 0.000000000000000000e+00 -0.000000000000000000e+00
-4.961610000000000298e+01 0.000000000000000000e+00 -0.000000000000000000e+00
-4.957659999999999911e+01 0.000000000000000000e+00 -0.000000000000000000e+00
-4.953699999999999903e+01 0.000000000000000000e+00 -0.000000000000000000e+00
-4.949750000000000227e+01 0.000000000000000000e+00 -0.000000000000000000e+00
-4.945790000000000219e+01 0.000000000000000000e+00 -0.000000000000000000e+00
-4.941839999999999833e+01 0.000000000000000000e+00 -0.000000000000000000e+00
-4.937879999999999825e+01 0.000000000000000000e+00 -0.000000000000000000e+00
-4.933930000000000149e+01 0.000000000000000000e+00 -0.000000000000000000e+00
-4.929970000000000141e+01 0.000000000000000000e+00 -0.000000000000000000e+00
-4.926019999999999754e+01 0.000000000000000000e+00 -0.000000000000000000e+00
-4.922059999999999746e+01 0.000000000000000000e+00 -0.000000000000000000e+00
-4.918110000000000070e+01 0.000000000000000000e+00 -0.000000000000000000e+00
-4.914150000000000063e+01 0.000000000000000000e+00 -0.000000000000000000e+00
-4.910199999999999676e+01 0.000000000000000000e+00 -0.000000000000000000e+00
-4.906239999999999668e+01 0.000000000000000000e+00 -0.000000000000000000e+00
-4.902289999999999992e+01 0.000000000000000000e+00 -0.000000000000000000e+00
-4.898329999999999984e+01 0.000000000000000000e+00 -0.000000000000000000e+00
-4.894380000000000308e+01 0.000000000000000000e+00 -0.000000000000000000e+00
-4.890420000000000300e+01 0.000000000000000000e+00 -0.000000000000000000e+00
-4.886469999999999914e+01 0.000000000000000000e+00 -0.000000000000000000e+00
-4.882509999999999906e+01 0.000000000000000000e+00 -0.000000000000000000e+00
-4.878560000000000230e+01 0.000000000000000000e+00 -0.000000000000000000e+00
-4.874600000000000222e+01 0.000000000000000000e+00 -0.000000000000000000e+00
-4.870649999999999835e+01 0.000000000000000000e+00 -0.000000000000000000e+00
-4.866689999999999827e+01 0.000000000000000000e+00 -0.000000000000000000e+00
-4.862740000000000151e+01 0.000000000000000000e+00 -0.000000000000000000e+00
-4.858780000000000143e+01 0.000000000000000000e+00 -0.000000000000000000e+00
-4.854829999999999757e+01 0.000000000000000000e+00 -0.000000000000000000e+00
-4.850869999999999749e+01 0.000000000000000000e+00 -0.000000000000000000e+00