 144 144   0   0
  0.1325381E+02  0.1546422E-08  0.1214491E-08  0.1054520E-08  0.5000000E-15
  1.000000000000000E-004
  CAR 
 unknown system                          
     17.00747307    -54.87160899  301      5.08752529      1.00000000
    -54.872  0.0000E+00  0.0000E+00  0.0000E+00  0.0000E+00
    -54.632  0.0000E+00  0.0000E+00  0.0000E+00  0.0000E+00
    -54.392  0.0000E+00  0.0000E+00  0.0000E+00  0.0000E+00
    -54.153  0.0000E+00  0.0000E+00  0.0000E+00  0.0000E+00
    -53.913  0.0000E+00  0.0000E+00  0.0000E+00  0.0000E+00
    -53.674  0.0000E+00  0.0000E+00  0.0000E+00  0.0000E+00
    -53.434  0.0000E+00  0.0000E+00  0.0000E+00  0.0000E+00
    -53.194  0.0000E+00  0.0000E+00  0.0000E+00  0.0000E+00
    -52.955  0.0000E+00  0.0000E+00  0.0000E+00  0.0000E+00
    -52.715  0.0000E+00  0.0000E+00  0.0000E+00  0.0000E+00
    -52.476  0.0000E+00  0.0000E+00  0.0000E+00  0.0000E+00
    -52.236  0.0000E+00  0.0000E+00  0.0000E+00  0.0000E+00
    -51.996  0.0000E+00  0.0000E+00  0.0000E+00  0.0000E+00
    -51.757  0.3234E-03  0.0000E+00  0.7749E-04  0.0000E+00
    -51.517  0.4981E+02  0.0000E+00  0.1193E+02  0.0000E+00
    -51.278  0.8611E+02  0.0000E+00  0.3257E+02  0.0000E+00
    -51.038  0.1433E+02  0.0000E+00  0.3600E+02  0.0000E+00
    -50.798  0.0000E+00  0.0000E+00  0.3600E+02  0.0000E+00
    -50.559  0.0000E+00  0.0000E+00  0.3600E+02  0.0000E+00
    -50.319  0.1159E-03  0.0000E+00  0.3600E+02  0.0000E+00
    -50.080  0.6677E+02  0.0000E+00  0.5200E+02  0.0000E+00
    -49.840  0.2083E+03  0.0000E+00  0.1019E+03  0.0000E+00
    -49.600  0.2542E+02  0.0000E+00  0.1080E+03  0.0000E+00
    -49.361  0.0000E+00  0.0000E+00  0.1080E+03  0.0000E+00
    -49.121  0.0000E+00  0.0000E+00  0.1080E+03  0.0000E+00
    -48.882  0.0000E+00  0.0000E+00  0.1080E+03  0.0000E+00
    -48.642  0.0000E+00  0.0000E+00  0.1080E+03  0.0000E+00
    -48.402  0.0000E+00  0.0000E+00  0.1080E+03  0.0000E+00
    -48.163  0.0000E+00  0.0000E+00  0.1080E+03  0.0000E+00
    -47.923  0.0000E+00  0.0000E+00  0.1080E+03  0.0000E+00
    -47.684  0.0000E+00  0.0000E+00  0.1080E+03  0.0000E+00
    -47.444  0.0000E+00  0.0000E+00  0.1080E+03  0.0000E+00
    -47.205  0.0000E+00  0.0000E+00  0.1080E+03  0.0000E+00
    -46.965  0.0000E+00  0.6099E-01  0.1080E+03  0.1461E-01
    -46.725  0.0000E+00  0.5090E+02  0.1080E+03  0.1221E+02
    -46.486  0.0000E+00  0.9535E+02  0.1080E+03  0.3505E+02
    -46.246  0.0000E+00  0.1453E+03  0.1080E+03  0.6988E+02
    -46.007  0.0000E+00  0.1591E+03  0.1080E+03  0.1080E+03
    -45.767  0.0000E+00  0.4937E-02  0.1080E+03  0.1080E+03
    -45.527  0.0000E+00  0.0000E+00  0.1080E+03  0.1080E+03
    -45.288  0.0000E+00  0.0000E+00  0.1080E+03  0.1080E+03
    -45.048  0.0000E+00  0.0000E+00  0.1080E+03  0.1080E+03
    -44.809  0.0000E+00  0.0000E+00  0.1080E+03  0.1080E+03
    -44.569  0.0000E+00  0.0000E+00  0.1080E+03  0.1080E+03
    -44.329  0.0000E+00  0.0000E+00  0.1080E+03  0.1080E+03
    -44.090  0.0000E+00  0.0000E+00  0.1080E+03  0.1080E+03
    -43.850  0.0000E+00  0.0000E+00  0.1080E+03  0.1080E+03
    -43.611  0.0000E+00  0.0000E+00  0.1080E+03  0.1080E+03
    -43.371  0.0000E+00  0.0000E+00  0.1080E+03  0.1080E+03
    -43.131  0.0000E+00  0.0000E+00  0.1080E+03  0.1080E+03
    -42.892  0.0000E+00  0.0000E+00  0.1080E+03  0.1080E+03
    -42.652  0.0000E+00  0.0000E+00  0.1080E+03  0.1080E+03
    -42.413  0.0000E+00  0.0000E+00  0.1080E+03  0.1080E+03
    -42.173  0.0000E+00  0.0000E+00  0.1080E+03  0.1080E+03
    -41.933  0.0000E+00  0.0000E+00  0.1080E+03  0.1080E+03
    -41.694  0.0000E+00  0.0000E+00  0.1080E+03  0.1080E+03
    -41.454  0.0000E+00  0.0000E+00  0.1080E+03  0.1080E+03
    -41.215  0.0000E+00  0.0000E+00  0.1080E+03  0.1080E+03
    -40.975  0.0000E+00  0.0000E+00  0.1080E+03  0.1080E+03
    -40.735  0.1346E-08  0.4411E-09  0.1080E+03  0.1080E+03
    -40.496  0.2924E+02  0.2599E+02  0.1150E+03  0.1142E+03
    -40.256  0.4642E+02  0.5009E+02  0.1261E+03  0.1262E+03
    -40.017  0.1001E+03  0.1000E+03  0.1501E+03  0.1502E+03
    -39.777  0.2459E+02  0.2423E+02  0.1560E+03  0.1560E+03
    -39.537  0.0000E+00  0.0000E+00  0.1560E+03  0.1560E+03
    -39.298  0.0000E+00  0.0000E+00  0.1560E+03  0.1560E+03
    -39.058  0.0000E+00  0.0000E+00  0.1560E+03  0.1560E+03
    -38.819  0.0000E+00  0.0000E+00  0.1560E+03  0.1560E+03
    -38.579  0.0000E+00  0.0000E+00  0.1560E+03  0.1560E+03
    -38.339  0.0000E+00  0.0000E+00  0.1560E+03  0.1560E+03
    -38.100  0.0000E+00  0.0000E+00  0.1560E+03  0.1560E+03
    -37.860  0.0000E+00  0.0000E+00  0.1560E+03  0.1560E+03
    -37.621  0.0000E+00  0.0000E+00  0.1560E+03  0.1560E+03
    -37.381  0.0000E+00  0.0000E+00  0.1560E+03  0.1560E+03
    -37.141  0.0000E+00  0.0000E+00  0.1560E+03  0.1560E+03
    -36.902  0.0000E+00  0.0000E+00  0.1560E+03  0.1560E+03
    -36.662  0.0000E+00  0.0000E+00  0.1560E+03  0.1560E+03
    -36.423  0.0000E+00  0.0000E+00  0.1560E+03  0.1560E+03
    -36.183  0.0000E+00  0.0000E+00  0.1560E+03  0.1560E+03
    -35.943  0.0000E+00  0.0000E+00  0.1560E+03  0.1560E+03
    -35.704  0.0000E+00  0.0000E+00  0.1560E+03  0.1560E+03
    -35.464  0.0000E+00  0.0000E+00  0.1560E+03  0.1560E+03
    -35.225  0.0000E+00  0.0000E+00  0.1560E+03  0.1560E+03
    -34.985  0.0000E+00  0.0000E+00  0.1560E+03  0.1560E+03
    -34.745  0.0000E+00  0.0000E+00  0.1560E+03  0.1560E+03
    -34.506  0.0000E+00  0.0000E+00  0.1560E+03  0.1560E+03
    -34.266  0.0000E+00  0.0000E+00  0.1560E+03  0.1560E+03
    -34.027  0.0000E+00  0.0000E+00  0.1560E+03  0.1560E+03
    -33.787  0.0000E+00  0.0000E+00  0.1560E+03  0.1560E+03
    -33.547  0.0000E+00  0.0000E+00  0.1560E+03  0.1560E+03
    -33.308  0.0000E+00  0.0000E+00  0.1560E+03  0.1560E+03
    -33.068  0.0000E+00  0.0000E+00  0.1560E+03  0.1560E+03
    -32.829  0.0000E+00  0.0000E+00  0.1560E+03  0.1560E+03
    -32.589  0.0000E+00  0.0000E+00  0.1560E+03  0.1560E+03
    -32.349  0.0000E+00  0.0000E+00  0.1560E+03  0.1560E+03
    -32.110  0.0000E+00  0.0000E+00  0.1560E+03  0.1560E+03
    -31.870  0.0000E+00  0.0000E+00  0.1560E+03  0.1560E+03
    -31.631  0.0000E+00  0.0000E+00  0.1560E+03  0.1560E+03
    -31.391  0.0000E+00  0.0000E+00  0.1560E+03  0.1560E+03
    -31.152  0.0000E+00  0.0000E+00  0.1560E+03  0.1560E+03
    -30.912  0.0000E+00  0.0000E+00  0.1560E+03  0.1560E+03
    -30.672  0.0000E+00  0.0000E+00  0.1560E+03  0.1560E+03
    -30.433  0.0000E+00  0.0000E+00  0.1560E+03  0.1560E+03
    -30.193  0.0000E+00  0.0000E+00  0.1560E+03  0.1560E+03
    -29.954  0.0000E+00  0.0000E+00  0.1560E+03  0.1560E+03
    -29.714  0.0000E+00  0.0000E+00  0.1560E+03  0.1560E+03
    -29.474  0.0000E+00  0.0000E+00  0.1560E+03  0.1560E+03
    -29.235  0.0000E+00  0.0000E+00  0.1560E+03  0.1560E+03
    -28.995  0.0000E+00  0.0000E+00  0.1560E+03  0.1560E+03
    -28.756  0.0000E+00  0.0000E+00  0.1560E+03  0.1560E+03
    -28.516  0.0000E+00  0.0000E+00  0.1560E+03  0.1560E+03
    -28.276  0.0000E+00  0.0000E+00  0.1560E+03  0.1560E+03
    -28.037  0.0000E+00  0.0000E+00  0.1560E+03  0.1560E+03
    -27.797  0.0000E+00  0.0000E+00  0.1560E+03  0.1560E+03
    -27.558  0.0000E+00  0.0000E+00  0.1560E+03  0.1560E+03
    -27.318  0.0000E+00  0.0000E+00  0.1560E+03  0.1560E+03
    -27.078  0.0000E+00  0.0000E+00  0.1560E+03  0.1560E+03
    -26.839  0.0000E+00  0.0000E+00  0.1560E+03  0.1560E+03
    -26.599  0.0000E+00  0.0000E+00  0.1560E+03  0.1560E+03
    -26.360  0.0000E+00  0.0000E+00  0.1560E+03  0.1560E+03
    -26.120  0.0000E+00  0.0000E+00  0.1560E+03  0.1560E+03
    -25.880  0.0000E+00  0.0000E+00  0.1560E+03  0.1560E+03
    -25.641  0.0000E+00  0.0000E+00  0.1560E+03  0.1560E+03
    -25.401  0.0000E+00  0.0000E+00  0.1560E+03  0.1560E+03
    -25.162  0.0000E+00  0.0000E+00  0.1560E+03  0.1560E+03
    -24.922  0.0000E+00  0.0000E+00  0.1560E+03  0.1560E+03
    -24.682  0.0000E+00  0.0000E+00  0.1560E+03  0.1560E+03
    -24.443  0.0000E+00  0.0000E+00  0.1560E+03  0.1560E+03
    -24.203  0.0000E+00  0.0000E+00  0.1560E+03  0.1560E+03
    -23.964  0.0000E+00  0.0000E+00  0.1560E+03  0.1560E+03
    -23.724  0.0000E+00  0.0000E+00  0.1560E+03  0.1560E+03
    -23.484  0.0000E+00  0.0000E+00  0.1560E+03  0.1560E+03
    -23.245  0.0000E+00  0.0000E+00  0.1560E+03  0.1560E+03
    -23.005  0.0000E+00  0.0000E+00  0.1560E+03  0.1560E+03
    -22.766  0.0000E+00  0.0000E+00  0.1560E+03  0.1560E+03
    -22.526  0.0000E+00  0.0000E+00  0.1560E+03  0.1560E+03
    -22.286  0.0000E+00  0.0000E+00  0.1560E+03  0.1560E+03
    -22.047  0.0000E+00  0.0000E+00  0.1560E+03  0.1560E+03
    -21.807  0.0000E+00  0.0000E+00  0.1560E+03  0.1560E+03
    -21.568  0.0000E+00  0.0000E+00  0.1560E+03  0.1560E+03
    -21.328  0.0000E+00  0.0000E+00  0.1560E+03  0.1560E+03
    -21.088  0.0000E+00  0.0000E+00  0.1560E+03  0.1560E+03
    -20.849  0.0000E+00  0.0000E+00  0.1560E+03  0.1560E+03
    -20.609  0.0000E+00  0.0000E+00  0.1560E+03  0.1560E+03
    -20.370  0.0000E+00  0.0000E+00  0.1560E+03  0.1560E+03
    -20.130  0.0000E+00  0.0000E+00  0.1560E+03  0.1560E+03
    -19.890  0.0000E+00  0.0000E+00  0.1560E+03  0.1560E+03
    -19.651  0.0000E+00  0.0000E+00  0.1560E+03  0.1560E+03
    -19.411  0.0000E+00  0.0000E+00  0.1560E+03  0.1560E+03
    -19.172  0.0000E+00  0.0000E+00  0.1560E+03  0.1560E+03
    -18.932  0.0000E+00  0.0000E+00  0.1560E+03  0.1560E+03
    -18.692  0.0000E+00  0.0000E+00  0.1560E+03  0.1560E+03
    -18.453  0.0000E+00  0.0000E+00  0.1560E+03  0.1560E+03
    -18.213  0.0000E+00  0.0000E+00  0.1560E+03  0.1560E+03
    -17.974  0.0000E+00  0.0000E+00  0.1560E+03  0.1560E+03
    -17.734  0.0000E+00  0.0000E+00  0.1560E+03  0.1560E+03
    -17.494  0.0000E+00  0.0000E+00  0.1560E+03  0.1560E+03
    -17.255  0.0000E+00  0.0000E+00  0.1560E+03  0.1560E+03
    -17.015  0.0000E+00  0.0000E+00  0.1560E+03  0.1560E+03
    -16.776  0.0000E+00  0.0000E+00  0.1560E+03  0.1560E+03
    -16.536  0.0000E+00  0.0000E+00  0.1560E+03  0.1560E+03
    -16.297  0.0000E+00  0.0000E+00  0.1560E+03  0.1560E+03
    -16.057  0.0000E+00  0.0000E+00  0.1560E+03  0.1560E+03
    -15.817  0.0000E+00  0.0000E+00  0.1560E+03  0.1560E+03
    -15.578  0.0000E+00  0.0000E+00  0.1560E+03  0.1560E+03
    -15.338  0.0000E+00  0.0000E+00  0.1560E+03  0.1560E+03
    -15.099  0.0000E+00  0.0000E+00  0.1560E+03  0.1560E+03
    -14.859  0.0000E+00  0.0000E+00  0.1560E+03  0.1560E+03
    -14.619  0.0000E+00  0.0000E+00  0.1560E+03  0.1560E+03
    -14.380  0.0000E+00  0.0000E+00  0.1560E+03  0.1560E+03
    -14.140  0.0000E+00  0.0000E+00  0.1560E+03  0.1560E+03
    -13.901  0.1100E-02  0.0000E+00  0.1560E+03  0.1560E+03
    -13.661  0.2203E+02  0.4435E-13  0.1613E+03  0.1560E+03
    -13.421  0.2786E+02  0.1700E+01  0.1680E+03  0.1564E+03
    -13.182  0.8781E+01  0.4440E+02  0.1701E+03  0.1670E+03
    -12.942  0.3150E+02  0.4652E+01  0.1776E+03  0.1682E+03
    -12.703  0.1001E+02  0.4194E+02  0.1800E+03  0.1782E+03
    -12.463  0.0000E+00  0.7467E+01  0.1800E+03  0.1800E+03
    -12.223  0.0000E+00  0.0000E+00  0.1800E+03  0.1800E+03
    -11.984  0.0000E+00  0.0000E+00  0.1800E+03  0.1800E+03
    -11.744  0.0000E+00  0.0000E+00  0.1800E+03  0.1800E+03
    -11.505  0.0000E+00  0.0000E+00  0.1800E+03  0.1800E+03
    -11.265  0.0000E+00  0.0000E+00  0.1800E+03  0.1800E+03
    -11.025  0.0000E+00  0.0000E+00  0.1800E+03  0.1800E+03
    -10.786  0.0000E+00  0.0000E+00  0.1800E+03  0.1800E+03
    -10.546  0.0000E+00  0.0000E+00  0.1800E+03  0.1800E+03
    -10.307  0.0000E+00  0.0000E+00  0.1800E+03  0.1800E+03
    -10.067  0.0000E+00  0.0000E+00  0.1800E+03  0.1800E+03
     -9.827  0.0000E+00  0.0000E+00  0.1800E+03  0.1800E+03
     -9.588  0.0000E+00  0.0000E+00  0.1800E+03  0.1800E+03
     -9.348  0.0000E+00  0.0000E+00  0.1800E+03  0.1800E+03
     -9.109  0.0000E+00  0.0000E+00  0.1800E+03  0.1800E+03
     -8.869  0.0000E+00  0.0000E+00  0.1800E+03  0.1800E+03
     -8.629  0.0000E+00  0.0000E+00  0.1800E+03  0.1800E+03
     -8.390  0.0000E+00  0.0000E+00  0.1800E+03  0.1800E+03
     -8.150  0.0000E+00  0.0000E+00  0.1800E+03  0.1800E+03
     -7.911  0.2060E-02  0.0000E+00  0.1800E+03  0.1800E+03
     -7.671  0.9327E+01  0.1565E-01  0.1822E+03  0.1800E+03
     -7.431  0.2302E+02  0.1190E+02  0.1878E+03  0.1829E+03
     -7.192  0.5554E+02  0.2842E+02  0.2011E+03  0.1897E+03
     -6.952  0.5827E+02  0.5978E+02  0.2150E+03  0.2040E+03
     -6.713  0.4084E+01  0.4672E+02  0.2160E+03  0.2152E+03
     -6.473  0.0000E+00  0.3408E+01  0.2160E+03  0.2160E+03
     -6.233  0.0000E+00  0.0000E+00  0.2160E+03  0.2160E+03
     -5.994  0.0000E+00  0.0000E+00  0.2160E+03  0.2160E+03
     -5.754  0.0000E+00  0.0000E+00  0.2160E+03  0.2160E+03
     -5.515  0.0000E+00  0.0000E+00  0.2160E+03  0.2160E+03
     -5.275  0.0000E+00  0.0000E+00  0.2160E+03  0.2160E+03
     -5.035  0.0000E+00  0.0000E+00  0.2160E+03  0.2160E+03
     -4.796  0.0000E+00  0.0000E+00  0.2160E+03  0.2160E+03
     -4.556  0.0000E+00  0.0000E+00  0.2160E+03  0.2160E+03
     -4.317  0.0000E+00  0.0000E+00  0.2160E+03  0.2160E+03
     -4.077  0.0000E+00  0.0000E+00  0.2160E+03  0.2160E+03
     -3.837  0.0000E+00  0.0000E+00  0.2160E+03  0.2160E+03
     -3.598  0.0000E+00  0.0000E+00  0.2160E+03  0.2160E+03
     -3.358  0.0000E+00  0.0000E+00  0.2160E+03  0.2160E+03
     -3.119  0.0000E+00  0.0000E+00  0.2160E+03  0.2160E+03
     -2.879  0.1272E-13  0.0000E+00  0.2160E+03  0.2160E+03
     -2.639  0.7942E+00  0.0000E+00  0.2162E+03  0.2160E+03
     -2.400  0.1034E+02  0.0000E+00  0.2187E+03  0.2160E+03
     -2.160  0.2039E+02  0.0000E+00  0.2236E+03  0.2160E+03
     -1.921  0.1943E+01  0.0000E+00  0.2240E+03  0.2160E+03
     -1.681  0.3447E+02  0.0000E+00  0.2323E+03  0.2160E+03
     -1.441  0.1940E+02  0.3347E-15  0.2369E+03  0.2160E+03
     -1.202  0.4427E+02  0.8161E-01  0.2475E+03  0.2160E+03
     -0.962  0.4949E+02  0.4403E+01  0.2594E+03  0.2171E+03
     -0.723  0.7491E+02  0.1404E+02  0.2773E+03  0.2204E+03
     -0.483  0.1032E+03  0.1528E+02  0.3021E+03  0.2241E+03
     -0.244  0.8551E+02  0.1947E+02  0.3225E+03  0.2288E+03
     -0.004  0.1105E+03  0.4129E+02  0.3490E+03  0.2387E+03
      0.236  0.7002E+02  0.3396E+02  0.3658E+03  0.2468E+03
      0.475  0.3836E+02  0.4204E+02  0.3750E+03  0.2569E+03
      0.715  0.4569E+02  0.3379E+02  0.3859E+03  0.2650E+03
      0.954  0.4868E+02  0.5282E+02  0.3976E+03  0.2776E+03
      1.194  0.5544E+02  0.6052E+02  0.4109E+03  0.2921E+03
      1.434  0.6420E+02  0.4442E+02  0.4262E+03  0.3028E+03
      1.673  0.1008E+03  0.4014E+02  0.4504E+03  0.3124E+03
      1.913  0.5276E+02  0.3841E+02  0.4630E+03  0.3216E+03
      2.152  0.3869E+02  0.3742E+02  0.4723E+03  0.3305E+03
      2.392  0.4654E+02  0.3825E+02  0.4835E+03  0.3397E+03
      2.632  0.4781E+02  0.4926E+02  0.4949E+03  0.3515E+03
      2.871  0.4356E+02  0.6296E+02  0.5054E+03  0.3666E+03
      3.111  0.4014E+02  0.5875E+02  0.5150E+03  0.3807E+03
      3.350  0.4734E+02  0.4814E+02  0.5263E+03  0.3922E+03
      3.590  0.5256E+02  0.2980E+02  0.5389E+03  0.3993E+03
      3.830  0.4548E+02  0.6115E+02  0.5498E+03  0.4140E+03
      4.069  0.3195E+02  0.7372E+02  0.5575E+03  0.4317E+03
      4.309  0.4247E+02  0.1408E+01  0.5676E+03  0.4320E+03
      4.548  0.2369E+02  0.0000E+00  0.5733E+03  0.4320E+03
      4.788  0.1029E+02  0.0000E+00  0.5758E+03  0.4320E+03
      5.028  0.9293E+00  0.0000E+00  0.5760E+03  0.4320E+03
      5.267  0.0000E+00  0.0000E+00  0.5760E+03  0.4320E+03
      5.507  0.0000E+00  0.0000E+00  0.5760E+03  0.4320E+03
      5.746  0.0000E+00  0.0000E+00  0.5760E+03  0.4320E+03
      5.986  0.0000E+00  0.4006E-11  0.5760E+03  0.4320E+03
      6.226  0.0000E+00  0.1401E+00  0.5760E+03  0.4320E+03
      6.465  0.0000E+00  0.8080E+01  0.5760E+03  0.4340E+03
      6.705  0.0000E+00  0.3016E+02  0.5760E+03  0.4412E+03
      6.944  0.5758E-12  0.4328E+02  0.5760E+03  0.4516E+03
      7.184  0.1040E+00  0.7304E+02  0.5760E+03  0.4691E+03
      7.424  0.1337E+00  0.8090E+02  0.5761E+03  0.4884E+03
      7.663  0.8826E+00  0.6537E+02  0.5763E+03  0.5041E+03
      7.903  0.3489E+01  0.8791E+02  0.5771E+03  0.5252E+03
      8.142  0.4269E+01  0.7138E+02  0.5781E+03  0.5423E+03
      8.382  0.7004E+01  0.5452E+02  0.5798E+03  0.5553E+03
      8.622  0.1631E+02  0.3718E+02  0.5837E+03  0.5642E+03
      8.861  0.2531E+02  0.3928E+02  0.5898E+03  0.5737E+03
      9.101  0.1924E+02  0.1944E+02  0.5944E+03  0.5783E+03
      9.340  0.2530E+02  0.1383E+02  0.6004E+03  0.5816E+03
      9.580  0.3120E+02  0.2058E+02  0.6079E+03  0.5866E+03
      9.820  0.2665E+02  0.2996E+02  0.6143E+03  0.5937E+03
     10.059  0.2969E+02  0.2655E+02  0.6214E+03  0.6001E+03
     10.299  0.2277E+02  0.3463E+02  0.6269E+03  0.6084E+03
     10.538  0.2041E+02  0.3556E+02  0.6318E+03  0.6169E+03
     10.778  0.2845E+02  0.2791E+02  0.6386E+03  0.6236E+03
     11.018  0.3897E+02  0.2252E+02  0.6479E+03  0.6290E+03
     11.257  0.3938E+02  0.2152E+02  0.6574E+03  0.6342E+03
     11.497  0.3731E+02  0.3227E+02  0.6663E+03  0.6419E+03
     11.736  0.4476E+02  0.3877E+02  0.6770E+03  0.6512E+03
     11.976  0.3858E+02  0.4254E+02  0.6863E+03  0.6614E+03
     12.216  0.3852E+02  0.5192E+02  0.6955E+03  0.6738E+03
     12.455  0.3987E+02  0.4688E+02  0.7050E+03  0.6850E+03
     12.695  0.3658E+02  0.3598E+02  0.7138E+03  0.6937E+03
     12.934  0.3442E+02  0.4125E+02  0.7221E+03  0.7035E+03
     13.174  0.2295E+02  0.3982E+02  0.7276E+03  0.7131E+03
     13.414  0.1859E+01  0.3416E+02  0.7280E+03  0.7213E+03
     13.653  0.0000E+00  0.2409E+02  0.7280E+03  0.7270E+03
     13.893  0.0000E+00  0.3993E+01  0.7280E+03  0.7280E+03
     14.132  0.0000E+00  0.3742E-05  0.7280E+03  0.7280E+03
     14.372  0.0000E+00  0.0000E+00  0.7280E+03  0.7280E+03
     14.612  0.0000E+00  0.0000E+00  0.7280E+03  0.7280E+03
     14.851  0.0000E+00  0.0000E+00  0.7280E+03  0.7280E+03
     15.091  0.0000E+00  0.0000E+00  0.7280E+03  0.7280E+03
     15.330  0.0000E+00  0.0000E+00  0.7280E+03  0.7280E+03
     15.570  0.0000E+00  0.0000E+00  0.7280E+03  0.7280E+03
     15.809  0.0000E+00  0.0000E+00  0.7280E+03  0.7280E+03
     16.049  0.0000E+00  0.0000E+00  0.7280E+03  0.7280E+03
     16.289  0.0000E+00  0.0000E+00  0.7280E+03  0.7280E+03
     16.528  0.0000E+00  0.0000E+00  0.7280E+03  0.7280E+03
     16.768  0.0000E+00  0.0000E+00  0.7280E+03  0.7280E+03
     17.007  0.0000E+00  0.0000E+00  0.7280E+03  0.7280E+03
