 160 160   0   0
  0.1215613E+02  0.1537564E-08  0.1124787E-08  0.1124760E-08  0.5000000E-15
  1.000000000000000E-004
  CAR 
 unknown system                          
     17.04916656    -54.80296419  301      4.89418111      1.00000000
    -54.803  0.0000E+00  0.0000E+00  0.0000E+00  0.0000E+00
    -54.563  0.0000E+00  0.0000E+00  0.0000E+00  0.0000E+00
    -54.324  0.0000E+00  0.0000E+00  0.0000E+00  0.0000E+00
    -54.084  0.0000E+00  0.0000E+00  0.0000E+00  0.0000E+00
    -53.845  0.0000E+00  0.0000E+00  0.0000E+00  0.0000E+00
    -53.605  0.0000E+00  0.0000E+00  0.0000E+00  0.0000E+00
    -53.366  0.0000E+00  0.0000E+00  0.0000E+00  0.0000E+00
    -53.126  0.0000E+00  0.0000E+00  0.0000E+00  0.0000E+00
    -52.887  0.0000E+00  0.0000E+00  0.0000E+00  0.0000E+00
    -52.647  0.0000E+00  0.0000E+00  0.0000E+00  0.0000E+00
    -52.408  0.0000E+00  0.0000E+00  0.0000E+00  0.0000E+00
    -52.168  0.0000E+00  0.0000E+00  0.0000E+00  0.0000E+00
    -51.929  0.0000E+00  0.0000E+00  0.0000E+00  0.0000E+00
    -51.689  0.9701E-04  0.0000E+00  0.2324E-04  0.0000E+00
    -51.450  0.7472E+02  0.0000E+00  0.1790E+02  0.0000E+00
    -51.210  0.5888E+02  0.0000E+00  0.3200E+02  0.0000E+00
    -50.971  0.0000E+00  0.0000E+00  0.3200E+02  0.0000E+00
    -50.731  0.0000E+00  0.0000E+00  0.3200E+02  0.0000E+00
    -50.492  0.7417E-14  0.0000E+00  0.3200E+02  0.0000E+00
    -50.252  0.4214E+01  0.0000E+00  0.3301E+02  0.0000E+00
    -50.013  0.1523E+03  0.0000E+00  0.6949E+02  0.0000E+00
    -49.773  0.1107E+03  0.0000E+00  0.9600E+02  0.0000E+00
    -49.534  0.0000E+00  0.0000E+00  0.9600E+02  0.0000E+00
    -49.294  0.0000E+00  0.0000E+00  0.9600E+02  0.0000E+00
    -49.055  0.0000E+00  0.0000E+00  0.9600E+02  0.0000E+00
    -48.815  0.0000E+00  0.0000E+00  0.9600E+02  0.0000E+00
    -48.576  0.0000E+00  0.0000E+00  0.9600E+02  0.0000E+00
    -48.336  0.0000E+00  0.0000E+00  0.9600E+02  0.0000E+00
    -48.097  0.0000E+00  0.0000E+00  0.9600E+02  0.0000E+00
    -47.857  0.0000E+00  0.0000E+00  0.9600E+02  0.0000E+00
    -47.618  0.0000E+00  0.0000E+00  0.9600E+02  0.0000E+00
    -47.378  0.0000E+00  0.0000E+00  0.9600E+02  0.0000E+00
    -47.139  0.0000E+00  0.0000E+00  0.9600E+02  0.0000E+00
    -46.899  0.0000E+00  0.7408E-01  0.9600E+02  0.1774E-01
    -46.660  0.0000E+00  0.9742E+02  0.9600E+02  0.2335E+02
    -46.420  0.0000E+00  0.9934E+02  0.9600E+02  0.4714E+02
    -46.181  0.0000E+00  0.2032E+03  0.9600E+02  0.9581E+02
    -45.941  0.0000E+00  0.8023E+00  0.9600E+02  0.9600E+02
    -45.702  0.0000E+00  0.0000E+00  0.9600E+02  0.9600E+02
    -45.462  0.0000E+00  0.0000E+00  0.9600E+02  0.9600E+02
    -45.223  0.0000E+00  0.0000E+00  0.9600E+02  0.9600E+02
    -44.983  0.0000E+00  0.0000E+00  0.9600E+02  0.9600E+02
    -44.744  0.0000E+00  0.0000E+00  0.9600E+02  0.9600E+02
    -44.504  0.0000E+00  0.0000E+00  0.9600E+02  0.9600E+02
    -44.265  0.0000E+00  0.0000E+00  0.9600E+02  0.9600E+02
    -44.025  0.0000E+00  0.0000E+00  0.9600E+02  0.9600E+02
    -43.786  0.0000E+00  0.0000E+00  0.9600E+02  0.9600E+02
    -43.546  0.0000E+00  0.0000E+00  0.9600E+02  0.9600E+02
    -43.307  0.0000E+00  0.0000E+00  0.9600E+02  0.9600E+02
    -43.067  0.0000E+00  0.0000E+00  0.9600E+02  0.9600E+02
    -42.828  0.0000E+00  0.0000E+00  0.9600E+02  0.9600E+02
    -42.588  0.0000E+00  0.0000E+00  0.9600E+02  0.9600E+02
    -42.349  0.0000E+00  0.0000E+00  0.9600E+02  0.9600E+02
    -42.109  0.0000E+00  0.0000E+00  0.9600E+02  0.9600E+02
    -41.870  0.0000E+00  0.0000E+00  0.9600E+02  0.9600E+02
    -41.630  0.0000E+00  0.0000E+00  0.9600E+02  0.9600E+02
    -41.391  0.0000E+00  0.0000E+00  0.9600E+02  0.9600E+02
    -41.151  0.0000E+00  0.0000E+00  0.9600E+02  0.9600E+02
    -40.912  0.0000E+00  0.0000E+00  0.9600E+02  0.9600E+02
    -40.672  0.2318E-15  0.2318E-15  0.9600E+02  0.9600E+02
    -40.433  0.2024E+01  0.1756E+01  0.9648E+02  0.9642E+02
    -40.193  0.1671E+03  0.1691E+03  0.1365E+03  0.1369E+03
    -39.954  0.9812E+02  0.9633E+02  0.1600E+03  0.1600E+03
    -39.714  0.0000E+00  0.0000E+00  0.1600E+03  0.1600E+03
    -39.475  0.0000E+00  0.0000E+00  0.1600E+03  0.1600E+03
    -39.235  0.0000E+00  0.0000E+00  0.1600E+03  0.1600E+03
    -38.995  0.0000E+00  0.0000E+00  0.1600E+03  0.1600E+03
    -38.756  0.0000E+00  0.0000E+00  0.1600E+03  0.1600E+03
    -38.516  0.0000E+00  0.0000E+00  0.1600E+03  0.1600E+03
    -38.277  0.0000E+00  0.0000E+00  0.1600E+03  0.1600E+03
    -38.037  0.0000E+00  0.0000E+00  0.1600E+03  0.1600E+03
    -37.798  0.0000E+00  0.0000E+00  0.1600E+03  0.1600E+03
    -37.558  0.0000E+00  0.0000E+00  0.1600E+03  0.1600E+03
    -37.319  0.0000E+00  0.0000E+00  0.1600E+03  0.1600E+03
    -37.079  0.0000E+00  0.0000E+00  0.1600E+03  0.1600E+03
    -36.840  0.0000E+00  0.0000E+00  0.1600E+03  0.1600E+03
    -36.600  0.0000E+00  0.0000E+00  0.1600E+03  0.1600E+03
    -36.361  0.0000E+00  0.0000E+00  0.1600E+03  0.1600E+03
    -36.121  0.0000E+00  0.0000E+00  0.1600E+03  0.1600E+03
    -35.882  0.0000E+00  0.0000E+00  0.1600E+03  0.1600E+03
    -35.642  0.0000E+00  0.0000E+00  0.1600E+03  0.1600E+03
    -35.403  0.0000E+00  0.0000E+00  0.1600E+03  0.1600E+03
    -35.163  0.0000E+00  0.0000E+00  0.1600E+03  0.1600E+03
    -34.924  0.0000E+00  0.0000E+00  0.1600E+03  0.1600E+03
    -34.684  0.0000E+00  0.0000E+00  0.1600E+03  0.1600E+03
    -34.445  0.0000E+00  0.0000E+00  0.1600E+03  0.1600E+03
    -34.205  0.0000E+00  0.0000E+00  0.1600E+03  0.1600E+03
    -33.966  0.0000E+00  0.0000E+00  0.1600E+03  0.1600E+03
    -33.726  0.0000E+00  0.0000E+00  0.1600E+03  0.1600E+03
    -33.487  0.0000E+00  0.0000E+00  0.1600E+03  0.1600E+03
    -33.247  0.0000E+00  0.0000E+00  0.1600E+03  0.1600E+03
    -33.008  0.0000E+00  0.0000E+00  0.1600E+03  0.1600E+03
    -32.768  0.0000E+00  0.0000E+00  0.1600E+03  0.1600E+03
    -32.529  0.0000E+00  0.0000E+00  0.1600E+03  0.1600E+03
    -32.289  0.0000E+00  0.0000E+00  0.1600E+03  0.1600E+03
    -32.050  0.0000E+00  0.0000E+00  0.1600E+03  0.1600E+03
    -31.810  0.0000E+00  0.0000E+00  0.1600E+03  0.1600E+03
    -31.571  0.0000E+00  0.0000E+00  0.1600E+03  0.1600E+03
    -31.331  0.0000E+00  0.0000E+00  0.1600E+03  0.1600E+03
    -31.092  0.0000E+00  0.0000E+00  0.1600E+03  0.1600E+03
    -30.852  0.0000E+00  0.0000E+00  0.1600E+03  0.1600E+03
    -30.613  0.0000E+00  0.0000E+00  0.1600E+03  0.1600E+03
    -30.373  0.0000E+00  0.0000E+00  0.1600E+03  0.1600E+03
    -30.134  0.0000E+00  0.0000E+00  0.1600E+03  0.1600E+03
    -29.894  0.0000E+00  0.0000E+00  0.1600E+03  0.1600E+03
    -29.655  0.0000E+00  0.0000E+00  0.1600E+03  0.1600E+03
    -29.415  0.0000E+00  0.0000E+00  0.1600E+03  0.1600E+03
    -29.176  0.0000E+00  0.0000E+00  0.1600E+03  0.1600E+03
    -28.936  0.0000E+00  0.0000E+00  0.1600E+03  0.1600E+03
    -28.697  0.0000E+00  0.0000E+00  0.1600E+03  0.1600E+03
    -28.457  0.0000E+00  0.0000E+00  0.1600E+03  0.1600E+03
    -28.218  0.0000E+00  0.0000E+00  0.1600E+03  0.1600E+03
    -27.978  0.0000E+00  0.0000E+00  0.1600E+03  0.1600E+03
    -27.739  0.0000E+00  0.0000E+00  0.1600E+03  0.1600E+03
    -27.499  0.0000E+00  0.0000E+00  0.1600E+03  0.1600E+03
    -27.260  0.0000E+00  0.0000E+00  0.1600E+03  0.1600E+03
    -27.020  0.0000E+00  0.0000E+00  0.1600E+03  0.1600E+03
    -26.781  0.0000E+00  0.0000E+00  0.1600E+03  0.1600E+03
    -26.541  0.0000E+00  0.0000E+00  0.1600E+03  0.1600E+03
    -26.302  0.0000E+00  0.0000E+00  0.1600E+03  0.1600E+03
    -26.062  0.0000E+00  0.0000E+00  0.1600E+03  0.1600E+03
    -25.823  0.0000E+00  0.0000E+00  0.1600E+03  0.1600E+03
    -25.583  0.0000E+00  0.0000E+00  0.1600E+03  0.1600E+03
    -25.344  0.0000E+00  0.0000E+00  0.1600E+03  0.1600E+03
    -25.104  0.0000E+00  0.0000E+00  0.1600E+03  0.1600E+03
    -24.865  0.0000E+00  0.0000E+00  0.1600E+03  0.1600E+03
    -24.625  0.0000E+00  0.0000E+00  0.1600E+03  0.1600E+03
    -24.386  0.0000E+00  0.0000E+00  0.1600E+03  0.1600E+03
    -24.146  0.0000E+00  0.0000E+00  0.1600E+03  0.1600E+03
    -23.907  0.0000E+00  0.0000E+00  0.1600E+03  0.1600E+03
    -23.667  0.0000E+00  0.0000E+00  0.1600E+03  0.1600E+03
    -23.428  0.0000E+00  0.0000E+00  0.1600E+03  0.1600E+03
    -23.188  0.0000E+00  0.0000E+00  0.1600E+03  0.1600E+03
    -22.949  0.0000E+00  0.0000E+00  0.1600E+03  0.1600E+03
    -22.709  0.0000E+00  0.0000E+00  0.1600E+03  0.1600E+03
    -22.470  0.0000E+00  0.0000E+00  0.1600E+03  0.1600E+03
    -22.230  0.0000E+00  0.0000E+00  0.1600E+03  0.1600E+03
    -21.990  0.0000E+00  0.0000E+00  0.1600E+03  0.1600E+03
    -21.751  0.0000E+00  0.0000E+00  0.1600E+03  0.1600E+03
    -21.511  0.0000E+00  0.0000E+00  0.1600E+03  0.1600E+03
    -21.272  0.0000E+00  0.0000E+00  0.1600E+03  0.1600E+03
    -21.032  0.0000E+00  0.0000E+00  0.1600E+03  0.1600E+03
    -20.793  0.0000E+00  0.0000E+00  0.1600E+03  0.1600E+03
    -20.553  0.0000E+00  0.0000E+00  0.1600E+03  0.1600E+03
    -20.314  0.0000E+00  0.0000E+00  0.1600E+03  0.1600E+03
    -20.074  0.0000E+00  0.0000E+00  0.1600E+03  0.1600E+03
    -19.835  0.0000E+00  0.0000E+00  0.1600E+03  0.1600E+03
    -19.595  0.0000E+00  0.0000E+00  0.1600E+03  0.1600E+03
    -19.356  0.0000E+00  0.0000E+00  0.1600E+03  0.1600E+03
    -19.116  0.0000E+00  0.0000E+00  0.1600E+03  0.1600E+03
    -18.877  0.0000E+00  0.0000E+00  0.1600E+03  0.1600E+03
    -18.637  0.0000E+00  0.0000E+00  0.1600E+03  0.1600E+03
    -18.398  0.0000E+00  0.0000E+00  0.1600E+03  0.1600E+03
    -18.158  0.0000E+00  0.0000E+00  0.1600E+03  0.1600E+03
    -17.919  0.0000E+00  0.0000E+00  0.1600E+03  0.1600E+03
    -17.679  0.0000E+00  0.0000E+00  0.1600E+03  0.1600E+03
    -17.440  0.0000E+00  0.0000E+00  0.1600E+03  0.1600E+03
    -17.200  0.0000E+00  0.0000E+00  0.1600E+03  0.1600E+03
    -16.961  0.0000E+00  0.0000E+00  0.1600E+03  0.1600E+03
    -16.721  0.0000E+00  0.0000E+00  0.1600E+03  0.1600E+03
    -16.482  0.0000E+00  0.0000E+00  0.1600E+03  0.1600E+03
    -16.242  0.0000E+00  0.0000E+00  0.1600E+03  0.1600E+03
    -16.003  0.0000E+00  0.0000E+00  0.1600E+03  0.1600E+03
    -15.763  0.0000E+00  0.0000E+00  0.1600E+03  0.1600E+03
    -15.524  0.0000E+00  0.0000E+00  0.1600E+03  0.1600E+03
    -15.284  0.0000E+00  0.0000E+00  0.1600E+03  0.1600E+03
    -15.045  0.0000E+00  0.0000E+00  0.1600E+03  0.1600E+03
    -14.805  0.0000E+00  0.0000E+00  0.1600E+03  0.1600E+03
    -14.566  0.0000E+00  0.0000E+00  0.1600E+03  0.1600E+03
    -14.326  0.0000E+00  0.0000E+00  0.1600E+03  0.1600E+03
    -14.087  0.0000E+00  0.0000E+00  0.1600E+03  0.1600E+03
    -13.847  0.0000E+00  0.0000E+00  0.1600E+03  0.1600E+03
    -13.608  0.1133E-01  0.0000E+00  0.1600E+03  0.1600E+03
    -13.368  0.5121E+02  0.9146E-06  0.1723E+03  0.1600E+03
    -13.129  0.7275E+02  0.2642E+02  0.1897E+03  0.1663E+03
    -12.889  0.9638E+01  0.1014E+03  0.1920E+03  0.1906E+03
    -12.650  0.0000E+00  0.5764E+01  0.1920E+03  0.1920E+03
    -12.410  0.0000E+00  0.0000E+00  0.1920E+03  0.1920E+03
    -12.171  0.0000E+00  0.0000E+00  0.1920E+03  0.1920E+03
    -11.931  0.0000E+00  0.0000E+00  0.1920E+03  0.1920E+03
    -11.692  0.0000E+00  0.0000E+00  0.1920E+03  0.1920E+03
    -11.452  0.0000E+00  0.0000E+00  0.1920E+03  0.1920E+03
    -11.213  0.0000E+00  0.0000E+00  0.1920E+03  0.1920E+03
    -10.973  0.0000E+00  0.0000E+00  0.1920E+03  0.1920E+03
    -10.734  0.0000E+00  0.0000E+00  0.1920E+03  0.1920E+03
    -10.494  0.0000E+00  0.0000E+00  0.1920E+03  0.1920E+03
    -10.255  0.0000E+00  0.0000E+00  0.1920E+03  0.1920E+03
    -10.015  0.0000E+00  0.0000E+00  0.1920E+03  0.1920E+03
     -9.776  0.0000E+00  0.0000E+00  0.1920E+03  0.1920E+03
     -9.536  0.0000E+00  0.0000E+00  0.1920E+03  0.1920E+03
     -9.297  0.0000E+00  0.0000E+00  0.1920E+03  0.1920E+03
     -9.057  0.0000E+00  0.0000E+00  0.1920E+03  0.1920E+03
     -8.818  0.0000E+00  0.0000E+00  0.1920E+03  0.1920E+03
     -8.578  0.0000E+00  0.0000E+00  0.1920E+03  0.1920E+03
     -8.339  0.0000E+00  0.0000E+00  0.1920E+03  0.1920E+03
     -8.099  0.0000E+00  0.0000E+00  0.1920E+03  0.1920E+03
     -7.860  0.1857E-10  0.0000E+00  0.1920E+03  0.1920E+03
     -7.620  0.1318E+01  0.2032E-07  0.1923E+03  0.1920E+03
     -7.381  0.4595E+02  0.6906E+01  0.2033E+03  0.1937E+03
     -7.141  0.6535E+02  0.6028E+02  0.2190E+03  0.2081E+03
     -6.902  0.2098E+02  0.5500E+02  0.2240E+03  0.2213E+03
     -6.662  0.1390E-01  0.1141E+02  0.2240E+03  0.2240E+03
     -6.423  0.0000E+00  0.5207E-02  0.2240E+03  0.2240E+03
     -6.183  0.0000E+00  0.0000E+00  0.2240E+03  0.2240E+03
     -5.944  0.0000E+00  0.0000E+00  0.2240E+03  0.2240E+03
     -5.704  0.0000E+00  0.0000E+00  0.2240E+03  0.2240E+03
     -5.465  0.0000E+00  0.0000E+00  0.2240E+03  0.2240E+03
     -5.225  0.0000E+00  0.0000E+00  0.2240E+03  0.2240E+03
     -4.985  0.0000E+00  0.0000E+00  0.2240E+03  0.2240E+03
     -4.746  0.0000E+00  0.0000E+00  0.2240E+03  0.2240E+03
     -4.506  0.0000E+00  0.0000E+00  0.2240E+03  0.2240E+03
     -4.267  0.0000E+00  0.0000E+00  0.2240E+03  0.2240E+03
     -4.027  0.0000E+00  0.0000E+00  0.2240E+03  0.2240E+03
     -3.788  0.0000E+00  0.0000E+00  0.2240E+03  0.2240E+03
     -3.548  0.0000E+00  0.0000E+00  0.2240E+03  0.2240E+03
     -3.309  0.0000E+00  0.0000E+00  0.2240E+03  0.2240E+03
     -3.069  0.0000E+00  0.0000E+00  0.2240E+03  0.2240E+03
     -2.830  0.1416E-15  0.0000E+00  0.2240E+03  0.2240E+03
     -2.590  0.3251E+00  0.0000E+00  0.2241E+03  0.2240E+03
     -2.351  0.3065E+02  0.0000E+00  0.2314E+03  0.2240E+03
     -2.111  0.1141E+02  0.0000E+00  0.2342E+03  0.2240E+03
     -1.872  0.1329E+02  0.0000E+00  0.2373E+03  0.2240E+03
     -1.632  0.1118E+02  0.0000E+00  0.2400E+03  0.2240E+03
     -1.393  0.1539E+02  0.0000E+00  0.2437E+03  0.2240E+03
     -1.153  0.6244E+02  0.1452E-05  0.2587E+03  0.2240E+03
     -0.914  0.7624E+02  0.3171E+01  0.2769E+03  0.2248E+03
     -0.674  0.6775E+02  0.3271E+02  0.2931E+03  0.2326E+03
     -0.435  0.7752E+02  0.1906E+02  0.3117E+03  0.2372E+03
     -0.195  0.1058E+03  0.1913E+02  0.3371E+03  0.2417E+03
      0.044  0.7918E+02  0.1211E+02  0.3560E+03  0.2446E+03
      0.284  0.5364E+02  0.3157E+02  0.3689E+03  0.2522E+03
      0.523  0.4748E+02  0.8095E+02  0.3802E+03  0.2716E+03
      0.763  0.4650E+02  0.6830E+02  0.3914E+03  0.2879E+03
      1.002  0.4636E+02  0.6982E+02  0.4025E+03  0.3047E+03
      1.242  0.7650E+02  0.6396E+02  0.4208E+03  0.3200E+03
      1.481  0.8734E+02  0.2166E+02  0.4417E+03  0.3252E+03
      1.721  0.5878E+02  0.5059E+02  0.4558E+03  0.3373E+03
      1.960  0.4021E+02  0.5155E+02  0.4654E+03  0.3496E+03
      2.200  0.4696E+02  0.3075E+02  0.4767E+03  0.3570E+03
      2.439  0.4186E+02  0.3885E+02  0.4867E+03  0.3663E+03
      2.679  0.5318E+02  0.6427E+02  0.4994E+03  0.3817E+03
      2.918  0.5368E+02  0.7231E+02  0.5123E+03  0.3990E+03
      3.158  0.5669E+02  0.6040E+02  0.5259E+03  0.4135E+03
      3.397  0.5318E+02  0.1618E+02  0.5386E+03  0.4174E+03
      3.637  0.5323E+02  0.3588E+02  0.5514E+03  0.4260E+03
      3.876  0.4008E+02  0.5929E+02  0.5610E+03  0.4402E+03
      4.116  0.3559E+02  0.3270E+02  0.5695E+03  0.4480E+03
      4.355  0.1932E+02  0.5085E-01  0.5741E+03  0.4480E+03
      4.595  0.7565E+01  0.0000E+00  0.5759E+03  0.4480E+03
      4.834  0.3378E+00  0.0000E+00  0.5760E+03  0.4480E+03
      5.074  0.0000E+00  0.0000E+00  0.5760E+03  0.4480E+03
      5.313  0.0000E+00  0.0000E+00  0.5760E+03  0.4480E+03
      5.553  0.0000E+00  0.0000E+00  0.5760E+03  0.4480E+03
      5.792  0.0000E+00  0.0000E+00  0.5760E+03  0.4480E+03
      6.032  0.0000E+00  0.0000E+00  0.5760E+03  0.4480E+03
      6.271  0.0000E+00  0.1030E-15  0.5760E+03  0.4480E+03
      6.511  0.0000E+00  0.6060E-01  0.5760E+03  0.4480E+03
      6.750  0.0000E+00  0.2387E+02  0.5760E+03  0.4537E+03
      6.990  0.5495E-06  0.7756E+02  0.5760E+03  0.4723E+03
      7.229  0.2287E+00  0.6338E+02  0.5761E+03  0.4875E+03
      7.469  0.1768E+00  0.6368E+02  0.5761E+03  0.5027E+03
      7.708  0.1390E+01  0.6313E+02  0.5764E+03  0.5179E+03
      7.948  0.2980E+01  0.9478E+02  0.5771E+03  0.5406E+03
      8.187  0.6514E+01  0.7302E+02  0.5787E+03  0.5580E+03
      8.427  0.9512E+01  0.4930E+02  0.5810E+03  0.5699E+03
      8.666  0.1864E+02  0.2519E+02  0.5854E+03  0.5759E+03
      8.906  0.2337E+02  0.7285E+01  0.5910E+03  0.5776E+03
      9.145  0.3139E+02  0.8586E+01  0.5986E+03  0.5797E+03
      9.385  0.2845E+02  0.1777E+02  0.6054E+03  0.5839E+03
      9.624  0.2984E+02  0.2675E+02  0.6125E+03  0.5904E+03
      9.864  0.2623E+02  0.3189E+02  0.6188E+03  0.5980E+03
     10.103  0.1759E+02  0.3786E+02  0.6230E+03  0.6071E+03
     10.343  0.2590E+02  0.3352E+02  0.6292E+03  0.6151E+03
     10.582  0.3621E+02  0.2857E+02  0.6379E+03  0.6219E+03
     10.822  0.4025E+02  0.3304E+02  0.6475E+03  0.6298E+03
     11.061  0.3299E+02  0.2825E+02  0.6554E+03  0.6366E+03
     11.301  0.4927E+02  0.2601E+02  0.6672E+03  0.6428E+03
     11.541  0.4116E+02  0.2917E+02  0.6771E+03  0.6498E+03
     11.780  0.4151E+02  0.5088E+02  0.6870E+03  0.6620E+03
     12.020  0.3403E+02  0.5025E+02  0.6952E+03  0.6740E+03
     12.259  0.3281E+02  0.5610E+02  0.7030E+03  0.6875E+03
     12.499  0.3251E+02  0.3155E+02  0.7108E+03  0.6950E+03
     12.738  0.3681E+02  0.3267E+02  0.7196E+03  0.7029E+03
     12.978  0.3444E+02  0.3215E+02  0.7279E+03  0.7106E+03
     13.217  0.1562E+02  0.3811E+02  0.7316E+03  0.7197E+03
     13.457  0.1169E+01  0.3332E+02  0.7319E+03  0.7277E+03
     13.696  0.3707E+00  0.1724E+02  0.7320E+03  0.7318E+03
     13.936  0.0000E+00  0.8085E+00  0.7320E+03  0.7320E+03
     14.175  0.0000E+00  0.3526E-05  0.7320E+03  0.7320E+03
     14.415  0.0000E+00  0.0000E+00  0.7320E+03  0.7320E+03
     14.654  0.0000E+00  0.0000E+00  0.7320E+03  0.7320E+03
     14.894  0.0000E+00  0.0000E+00  0.7320E+03  0.7320E+03
     15.133  0.0000E+00  0.0000E+00  0.7320E+03  0.7320E+03
     15.373  0.0000E+00  0.0000E+00  0.7320E+03  0.7320E+03
     15.612  0.0000E+00  0.0000E+00  0.7320E+03  0.7320E+03
     15.852  0.0000E+00  0.0000E+00  0.7320E+03  0.7320E+03
     16.091  0.0000E+00  0.0000E+00  0.7320E+03  0.7320E+03
     16.331  0.0000E+00  0.0000E+00  0.7320E+03  0.7320E+03
     16.570  0.0000E+00  0.0000E+00  0.7320E+03  0.7320E+03
     16.810  0.0000E+00  0.0000E+00  0.7320E+03  0.7320E+03
     17.049  0.0000E+00  0.0000E+00  0.7320E+03  0.7320E+03
