 vasp.5.4.4.18Apr17-6-g9f103f2a35 (build Oct 25 2017 14:42:18) complex          
  
 executed on             LinuxIFC date 2021.06.17  04:12:41
 running on   48 total cores
 distrk:  each k-point on   24 cores,    2 groups
 distr:  one band on NCORES_PER_BAND=   6 cores,    4 groups


--------------------------------------------------------------------------------------------------------


 INCAR:
 POTCAR:    PAW_PBE Li_sv 10Sep2004               
 POTCAR:    PAW_PBE Fe_pv 02Aug2007               
 POTCAR:    PAW_PBE S 06Sep2000                   
 POTCAR:    PAW_PBE O 08Apr2002                   

 ----------------------------------------------------------------------------- 
|                                                                             |
|           W    W    AA    RRRRR   N    N  II  N    N   GGGG   !!!           |
|           W    W   A  A   R    R  NN   N  II  NN   N  G    G  !!!           |
|           W    W  A    A  R    R  N N  N  II  N N  N  G       !!!           |
|           W WW W  AAAAAA  RRRRR   N  N N  II  N  N N  G  GGG   !            |
|           WW  WW  A    A  R   R   N   NN  II  N   NN  G    G                |
|           W    W  A    A  R    R  N    N  II  N    N   GGGG   !!!           |
|                                                                             |
|      You have enabled k-point parallelism (KPAR>1).                         |
|      This developmental code was originally  written by Paul Kent at ORNL,  |
|      and carefully double checked in Vienna.                                |
|      GW as well as linear response parallelism added by Martijn Marsman     |
|      and Georg Kresse.                                                      |
|      Carefully verify results versus KPAR=1.                                |
|      Report problems to Paul Kent and Vienna.                               |
|                                                                             |
 ----------------------------------------------------------------------------- 

 POTCAR:    PAW_PBE Li_sv 10Sep2004               
  local pseudopotential read in
  atomic valenz-charges read in
  non local Contribution for L=           0  read in
    real space projection operators read in
  non local Contribution for L=           0  read in
    real space projection operators read in
  non local Contribution for L=           1  read in
    real space projection operators read in
    PAW grid and wavefunctions read in
 
   number of l-projection  operators is LMAX  =           3
   number of lm-projection operators is LMMAX =           5
 
 POTCAR:    PAW_PBE Fe_pv 02Aug2007               
  local pseudopotential read in
  partial core-charges read in
  partial kinetic energy density read in
  atomic valenz-charges read in
  non local Contribution for L=           1  read in
    real space projection operators read in
  non local Contribution for L=           1  read in
    real space projection operators read in
  non local Contribution for L=           2  read in
    real space projection operators read in
  non local Contribution for L=           2  read in
    real space projection operators read in
  non local Contribution for L=           0  read in
    real space projection operators read in
  non local Contribution for L=           0  read in
    real space projection operators read in
    PAW grid and wavefunctions read in
 
   number of l-projection  operators is LMAX  =           6
   number of lm-projection operators is LMMAX =          18
 
 POTCAR:    PAW_PBE S 06Sep2000                   
  local pseudopotential read in
  partial core-charges read in
  partial kinetic energy density read in
  atomic valenz-charges read in
  non local Contribution for L=           0  read in
    real space projection operators read in
  non local Contribution for L=           0  read in
    real space projection operators read in
  non local Contribution for L=           1  read in
    real space projection operators read in
  non local Contribution for L=           1  read in
    real space projection operators read in
    PAW grid and wavefunctions read in
 
   number of l-projection  operators is LMAX  =           4
   number of lm-projection operators is LMMAX =           8
 
 POTCAR:    PAW_PBE O 08Apr2002                   
  local pseudopotential read in
  partial core-charges read in
  partial kinetic energy density read in
  kinetic energy density of atom read in
  atomic valenz-charges read in
  non local Contribution for L=           0  read in
    real space projection operators read in
  non local Contribution for L=           0  read in
    real space projection operators read in
  non local Contribution for L=           1  read in
    real space projection operators read in
  non local Contribution for L=           1  read in
    real space projection operators read in
    PAW grid and wavefunctions read in
 
   number of l-projection  operators is LMAX  =           4
   number of lm-projection operators is LMMAX =           8
 

 ----------------------------------------------------------------------------- 
|                                                                             |
|  ADVICE TO THIS USER RUNNING 'VASP/VAMP'   (HEAR YOUR MASTER'S VOICE ...):  |
|                                                                             |
|      You have a (more or less) 'large supercell' and for larger cells       |
|      it might be more efficient to use real space projection opertators     |
|      So try LREAL= Auto  in the INCAR   file.                               |
|      Mind:          For very  accurate calculation you might also keep the  |
|      reciprocal projection scheme          (i.e. LREAL=.FALSE.)             |
|                                                                             |
 ----------------------------------------------------------------------------- 

  PAW_PBE Li_sv 10Sep2004               :
 energy of atom  1       EATOM= -202.7858
 kinetic energy error for atom=    0.0072 (will be added to EATOM!!)
  PAW_PBE Fe_pv 02Aug2007               :
 energy of atom  2       EATOM=-2457.4239
 kinetic energy error for atom=    0.0041 (will be added to EATOM!!)
  PAW_PBE S 06Sep2000                   :
 energy of atom  3       EATOM= -276.8230
 kinetic energy error for atom=    0.0008 (will be added to EATOM!!)
  PAW_PBE O 08Apr2002                   :
 energy of atom  4       EATOM= -432.3788
 kinetic energy error for atom=    0.0129 (will be added to EATOM!!)
 
 
 POSCAR: # Compound: Li64Fe32S32O32. Old comment:
  positions in direct lattice
  No initial velocities read in
 exchange correlation table for  LEXCH =        8
   RHO(1)=    0.500       N(1)  =     2000
   RHO(2)=  100.500       N(2)  =     4000
 


--------------------------------------------------------------------------------------------------------


 ion  position               nearest neighbor table
   1  0.125  0.276  0.475- 149 1.96 133 1.97  97 2.54 105 2.54
   2  0.625  0.276  0.475- 150 1.96 134 1.97  98 2.54 106 2.54
   3  0.125  0.776  0.475- 151 1.96 135 1.97  99 2.54 107 2.54
   4  0.625  0.776  0.475- 152 1.96 136 1.97 100 2.54 108 2.54
   5  0.125  0.276  0.975- 145 1.96 129 1.97 101 2.54 109 2.54
   6  0.625  0.276  0.975- 146 1.96 130 1.97 102 2.54 110 2.54
   7  0.125  0.776  0.975- 147 1.96 131 1.97 103 2.54 111 2.54
   8  0.625  0.776  0.975- 148 1.96 132 1.97 104 2.54 112 2.54
   9  0.125  0.474  0.275- 155 1.96 139 1.97 105 2.54  97 2.54
  10  0.625  0.474  0.275- 156 1.96 140 1.97 106 2.54  98 2.54
  11  0.125  0.974  0.275- 153 1.96 137 1.97 107 2.54  99 2.54
  12  0.625  0.974  0.275- 154 1.96 138 1.97 108 2.54 100 2.54
  13  0.125  0.474  0.775- 159 1.96 143 1.97 109 2.54 101 2.54
  14  0.625  0.474  0.775- 160 1.96 144 1.97 110 2.54 102 2.54
  15  0.125  0.974  0.775- 157 1.96 141 1.97 111 2.54 103 2.54
  16  0.625  0.974  0.775- 158 1.96 142 1.97 112 2.54 104 2.54
  17  0.375  0.224  0.025- 145 1.96 130 1.97 113 2.54 121 2.54
  18  0.875  0.224  0.025- 146 1.96 129 1.97 114 2.54 122 2.54
  19  0.375  0.724  0.025- 147 1.96 132 1.97 115 2.54 123 2.54
  20  0.875  0.724  0.025- 148 1.96 131 1.97 116 2.54 124 2.54
  21  0.375  0.224  0.525- 149 1.96 134 1.97 117 2.54 125 2.54
  22  0.875  0.224  0.525- 150 1.96 133 1.97 118 2.54 126 2.54
  23  0.375  0.724  0.525- 151 1.96 136 1.97 119 2.54 127 2.54
  24  0.875  0.724  0.525- 152 1.96 135 1.97 120 2.54 128 2.54
  25  0.375  0.026  0.225- 153 1.96 138 1.97 121 2.54 113 2.54
  26  0.875  0.026  0.225- 154 1.96 137 1.97 122 2.54 114 2.54
  27  0.375  0.526  0.225- 155 1.96 140 1.97 123 2.54 115 2.54
  28  0.875  0.526  0.225- 156 1.96 139 1.97 124 2.54 116 2.54
  29  0.375  0.026  0.725- 157 1.96 142 1.97 125 2.54 117 2.54
  30  0.875  0.026  0.725- 158 1.96 141 1.97 126 2.54 118 2.54
  31  0.375  0.526  0.725- 159 1.96 144 1.97 127 2.54 119 2.54
  32  0.875  0.526  0.725- 160 1.96 143 1.97 128 2.54 120 2.54
  33  0.276  0.375  0.375- 149 2.01 155 2.01 119 2.52 121 2.52
  34  0.776  0.375  0.375- 150 2.01 156 2.01 120 2.52 122 2.52
  35  0.276  0.875  0.375- 151 2.01 153 2.01 117 2.52 123 2.52
  36  0.776  0.875  0.375- 152 2.01 154 2.01 118 2.52 124 2.52
  37  0.276  0.375  0.875- 145 2.01 159 2.01 115 2.52 125 2.52
  38  0.776  0.375  0.875- 146 2.01 160 2.01 116 2.52 126 2.52
  39  0.276  0.875  0.875- 147 2.01 157 2.01 113 2.52 127 2.52
  40  0.776  0.875  0.875- 148 2.01 158 2.01 114 2.52 128 2.52
  41  0.224  0.125  0.125- 145 2.01 153 2.01 103 2.52 105 2.52
  42  0.724  0.125  0.125- 146 2.01 154 2.01 104 2.52 106 2.52
  43  0.224  0.625  0.125- 147 2.01 155 2.01 101 2.52 107 2.52
  44  0.724  0.625  0.125- 148 2.01 156 2.01 102 2.52 108 2.52
  45  0.224  0.125  0.625- 149 2.01 157 2.01  99 2.52 109 2.52
  46  0.724  0.125  0.625- 150 2.01 158 2.01 100 2.52 110 2.52
  47  0.224  0.625  0.625- 151 2.01 159 2.01  97 2.52 111 2.52
  48  0.724  0.625  0.625- 152 2.01 160 2.01  98 2.52 112 2.52
  49  0.500  0.375  0.125- 130 2.00 140 2.00
  50  1.000  0.375  0.125- 129 2.00 139 2.00
  51  0.500  0.875  0.125- 132 2.00 138 2.00
  52  1.000  0.875  0.125- 131 2.00 137 2.00
  53  0.500  0.375  0.625- 134 2.00 144 2.00
  54  1.000  0.375  0.625- 133 2.00 143 2.00
  55  0.500  0.875  0.625- 136 2.00 142 2.00
  56  1.000  0.875  0.625- 135 2.00 141 2.00
  57  0.000  0.125  0.375- 133 2.00 137 2.00
  58  0.500  0.125  0.375- 134 2.00 138 2.00
  59  0.000  0.625  0.375- 135 2.00 139 2.00
  60  0.500  0.625  0.375- 136 2.00 140 2.00
  61  0.000  0.125  0.875- 141 2.00 129 2.01
  62  0.500  0.125  0.875- 130 2.00 142 2.00
  63  0.000  0.625  0.875- 131 2.00 143 2.00
  64  0.500  0.625  0.875- 132 2.00 144 2.00
  65  0.479  0.375  0.375- 134 2.00 140 2.00 119 2.57 121 2.57
  66  0.979  0.375  0.375- 133 2.00 139 2.00 120 2.57 122 2.57
  67  0.479  0.875  0.375- 136 2.00 138 2.00 117 2.57 123 2.57
  68  0.979  0.875  0.375- 135 2.00 137 2.00 118 2.57 124 2.57
  69  0.479  0.375  0.875- 130 2.00 144 2.00 115 2.57 125 2.57
  70  0.979  0.375  0.875- 129 1.99 143 2.00 116 2.57 126 2.57
  71  0.479  0.875  0.875- 132 2.00 142 2.00 113 2.57 127 2.57
  72  0.979  0.875  0.875- 131 2.00 141 2.00 114 2.57 128 2.57
  73  0.021  0.125  0.125- 137 2.00 129 2.01 103 2.57 105 2.57
  74  0.521  0.125  0.125- 130 2.00 138 2.00 104 2.57 106 2.57
  75  0.021  0.625  0.125- 131 2.00 139 2.00 101 2.57 107 2.57
  76  0.521  0.625  0.125- 132 2.00 140 2.00 102 2.57 108 2.57
  77  0.021  0.125  0.625- 133 2.00 141 2.00  99 2.57 109 2.57
  78  0.521  0.125  0.625- 134 2.00 142 2.00 100 2.57 110 2.57
  79  0.021  0.625  0.625- 135 2.00 143 2.00  97 2.57 111 2.57
  80  0.521  0.625  0.625- 136 2.00 144 2.00  98 2.57 112 2.57
  81  0.250  0.375  0.125- 145 2.00 155 2.00 115 2.75 121 2.75 101 2.75 105 2.75
  82  0.750  0.375  0.125- 146 2.00 156 2.00 116 2.75 122 2.75 102 2.75 106 2.75
  83  0.250  0.875  0.125- 147 2.00 153 2.00 113 2.75 123 2.75 103 2.75 107 2.75
  84  0.750  0.875  0.125- 148 2.00 154 2.00 114 2.75 124 2.75 104 2.75 108 2.75
  85  0.250  0.375  0.625- 149 2.00 159 2.00 119 2.75 125 2.75  97 2.75 109 2.75
  86  0.750  0.375  0.625- 150 2.00 160 2.00 120 2.75 126 2.75  98 2.75 110 2.75
  87  0.250  0.875  0.625- 151 2.00 157 2.00 117 2.75 127 2.75  99 2.75 111 2.75
  88  0.750  0.875  0.625- 152 2.00 158 2.00 118 2.75 128 2.75 100 2.75 112 2.75
  89  0.250  0.125  0.375- 149 2.00 153 2.00  99 2.75 105 2.75 117 2.75 121 2.75
  90  0.750  0.125  0.375- 150 2.00 154 2.00 100 2.75 106 2.75 118 2.75 122 2.75
  91  0.250  0.625  0.375- 151 2.00 155 2.00  97 2.75 107 2.75 119 2.75 123 2.75
  92  0.750  0.625  0.375- 152 2.00 156 2.00  98 2.75 108 2.75 120 2.75 124 2.75
  93  0.250  0.125  0.875- 145 2.00 157 2.00 103 2.75 109 2.75 113 2.75 125 2.75
  94  0.750  0.125  0.875- 146 2.00 158 2.00 104 2.75 110 2.75 114 2.75 126 2.75
  95  0.250  0.625  0.875- 147 2.00 159 2.00 101 2.75 111 2.75 115 2.75 127 2.75
  96  0.750  0.625  0.875- 148 2.00 160 2.00 102 2.75 112 2.75 116 2.75 128 2.75
  97  0.125  0.500  0.500-  47 2.52   1 2.54   9 2.54  79 2.57  91 2.75  85 2.75
  98  0.625  0.500  0.500-  48 2.52   2 2.54  10 2.54  80 2.57  92 2.75  86 2.75
  99  0.125  1.000  0.500-  45 2.52   3 2.54  11 2.54  77 2.57  89 2.75  87 2.75
 100  0.625  1.000  0.500-  46 2.52   4 2.54  12 2.54  78 2.57  90 2.75  88 2.75
 101  0.125  0.500  1.000-  43 2.52   5 2.54  13 2.54  75 2.57  95 2.75  81 2.75
 102  0.625  0.500  1.000-  44 2.52   6 2.54  14 2.54  76 2.57  96 2.75  82 2.75
 103  0.125  1.000  1.000-  41 2.52   7 2.54  15 2.54  73 2.57  93 2.75  83 2.75
 104  0.625  1.000  1.000-  42 2.52   8 2.54  16 2.54  74 2.57  94 2.75  84 2.75
 105  0.125  0.250  0.250-  41 2.52   9 2.54   1 2.54  73 2.57  89 2.75  81 2.75
 106  0.625  0.250  0.250-  42 2.52  10 2.54   2 2.54  74 2.57  90 2.75  82 2.75
 107  0.125  0.750  0.250-  43 2.52  11 2.54   3 2.54  75 2.57  91 2.75  83 2.75
 108  0.625  0.750  0.250-  44 2.52  12 2.54   4 2.54  76 2.57  92 2.75  84 2.75
 109  0.125  0.250  0.750-  45 2.52  13 2.54   5 2.54  77 2.57  93 2.75  85 2.75
 110  0.625  0.250  0.750-  46 2.52  14 2.54   6 2.54  78 2.57  94 2.75  86 2.75
 111  0.125  0.750  0.750-  47 2.52  15 2.54   7 2.54  79 2.57  95 2.75  87 2.75
 112  0.625  0.750  0.750-  48 2.52  16 2.54   8 2.54  80 2.57  96 2.75  88 2.75
 113  0.375  0.000  0.000-  39 2.52  17 2.54  25 2.54  71 2.57  83 2.75  93 2.75
 114  0.875  0.000  0.000-  40 2.52  18 2.54  26 2.54  72 2.57  84 2.75  94 2.75
 115  0.375  0.500  0.000-  37 2.52  19 2.54  27 2.54  69 2.57  81 2.75  95 2.75
 116  0.875  0.500  0.000-  38 2.52  20 2.54  28 2.54  70 2.57  82 2.75  96 2.75
 117  0.375  0.000  0.500-  35 2.52  21 2.54  29 2.54  67 2.57  87 2.75  89 2.75
 118  0.875  0.000  0.500-  36 2.52  22 2.54  30 2.54  68 2.57  88 2.75  90 2.75
 119  0.375  0.500  0.500-  33 2.52  23 2.54  31 2.54  65 2.57  85 2.75  91 2.75
 120  0.875  0.500  0.500-  34 2.52  24 2.54  32 2.54  66 2.57  86 2.75  92 2.75
 121  0.375  0.250  0.250-  33 2.52  25 2.54  17 2.54  65 2.57  81 2.75  89 2.75
 122  0.875  0.250  0.250-  34 2.52  26 2.54  18 2.54  66 2.57  82 2.75  90 2.75
 123  0.375  0.750  0.250-  35 2.52  27 2.54  19 2.54  67 2.57  83 2.75  91 2.75
 124  0.875  0.750  0.250-  36 2.52  28 2.54  20 2.54  68 2.57  84 2.75  92 2.75
 125  0.375  0.250  0.750-  37 2.52  29 2.54  21 2.54  69 2.57  85 2.75  93 2.75
 126  0.875  0.250  0.750-  38 2.52  30 2.54  22 2.54  70 2.57  86 2.75  94 2.75
 127  0.375  0.750  0.750-  39 2.52  31 2.54  23 2.54  71 2.57  87 2.75  95 2.75
 128  0.875  0.750  0.750-  40 2.52  32 2.54  24 2.54  72 2.57  88 2.75  96 2.75
 129  0.000  0.251  0.000-   5 1.97  18 1.97  70 1.99  50 2.00  73 2.01  61 2.01
 130  0.500  0.250  0.000-   6 1.97  17 1.97  69 2.00  74 2.00  49 2.00  62 2.00
 131  0.000  0.750  0.000-   7 1.97  20 1.97  72 2.00  75 2.00  52 2.00  63 2.00
 132  0.500  0.750  0.000-   8 1.97  19 1.97  71 2.00  76 2.00  51 2.00  64 2.00
 133  0.000  0.250  0.500-   1 1.97  22 1.97  66 2.00  77 2.00  54 2.00  57 2.00
 134  0.500  0.250  0.500-   2 1.97  21 1.97  65 2.00  78 2.00  53 2.00  58 2.00
 135  0.000  0.750  0.500-   3 1.97  24 1.97  68 2.00  79 2.00  56 2.00  59 2.00
 136  0.500  0.750  0.500-   4 1.97  23 1.97  67 2.00  80 2.00  55 2.00  60 2.00
 137  0.000  0.000  0.250-  11 1.97  26 1.97  68 2.00  73 2.00  52 2.00  57 2.00
 138  0.500  0.000  0.250-  12 1.97  25 1.97  67 2.00  74 2.00  51 2.00  58 2.00
 139  0.000  0.500  0.250-   9 1.97  28 1.97  66 2.00  75 2.00  50 2.00  59 2.00
 140  0.500  0.500  0.250-  10 1.97  27 1.97  65 2.00  76 2.00  49 2.00  60 2.00
 141  0.000  0.000  0.750-  15 1.97  30 1.97  72 2.00  77 2.00  56 2.00  61 2.00
 142  0.500  0.000  0.750-  16 1.97  29 1.97  71 2.00  78 2.00  55 2.00  62 2.00
 143  0.000  0.500  0.750-  13 1.97  32 1.97  70 2.00  79 2.00  54 2.00  63 2.00
 144  0.500  0.500  0.750-  14 1.97  31 1.97  69 2.00  80 2.00  53 2.00  64 2.00
 145  0.250  0.250  0.000-   5 1.96  17 1.96  81 2.00  93 2.00  37 2.01  41 2.01
 146  0.750  0.250  0.000-   6 1.96  18 1.96  82 2.00  94 2.00  38 2.01  42 2.01
 147  0.250  0.750  0.000-   7 1.96  19 1.96  83 2.00  95 2.00  39 2.01  43 2.01
 148  0.750  0.750  0.000-   8 1.96  20 1.96  84 2.00  96 2.00  40 2.01  44 2.01
 149  0.250  0.250  0.500-   1 1.96  21 1.96  85 2.00  89 2.00  33 2.01  45 2.01
 150  0.750  0.250  0.500-   2 1.96  22 1.96  86 2.00  90 2.00  34 2.01  46 2.01
 151  0.250  0.750  0.500-   3 1.96  23 1.96  87 2.00  91 2.00  35 2.01  47 2.01
 152  0.750  0.750  0.500-   4 1.96  24 1.96  88 2.00  92 2.00  36 2.01  48 2.01
 153  0.250  0.000  0.250-  11 1.96  25 1.96  83 2.00  89 2.00  35 2.01  41 2.01
 154  0.750  0.000  0.250-  12 1.96  26 1.96  84 2.00  90 2.00  36 2.01  42 2.01
 155  0.250  0.500  0.250-   9 1.96  27 1.96  81 2.00  91 2.00  33 2.01  43 2.01
 156  0.750  0.500  0.250-  10 1.96  28 1.96  82 2.00  92 2.00  34 2.01  44 2.01
 157  0.250  0.000  0.750-  15 1.96  29 1.96  87 2.00  93 2.00  39 2.01  45 2.01
 158  0.750  0.000  0.750-  16 1.96  30 1.96  88 2.00  94 2.00  40 2.01  46 2.01
 159  0.250  0.500  0.750-  13 1.96  31 1.96  85 2.00  95 2.00  37 2.01  47 2.01
 160  0.750  0.500  0.750-  14 1.96  32 1.96  86 2.00  96 2.00  38 2.01  48 2.01
 
  LATTYP: Found a simple monoclinic cell.
 ALAT       =    16.0245724362
 B/A-ratio  =     0.9595037360
 C/A-ratio  =     1.5788311284
 COS(beta)  =    -0.9500776273
  
  Lattice vectors:
  
 A1 = (   0.0000000000, -11.3322995400, -11.3298680000)
 A2 = ( -15.3756371200,   0.0000000000,   0.0000000000)
 A3 = (   0.0000000000,  22.5798703800,  11.4124580600)


Analysis of symmetry for initial positions (statically):
=====================================================================
 Subroutine PRICEL returns:
 Original cell was already a primitive cell.
 

 Routine SETGRP: Setting up the symmetry group for a 
 simple monoclinic supercell.


 Subroutine GETGRP returns: Found  1 space group operations
 (whereof  1 operations were pure point group operations)
 out of a pool of  4 trial point group operations.


The static configuration has the point symmetry C_1 .


Analysis of symmetry for dynamics (positions and initial velocities):
=====================================================================
 Subroutine PRICEL returns:
 Original cell was already a primitive cell.
 

 Routine SETGRP: Setting up the symmetry group for a 
 simple monoclinic supercell.


 Subroutine GETGRP returns: Found  1 space group operations
 (whereof  1 operations were pure point group operations)
 out of a pool of  4 trial point group operations.


The dynamic configuration has the point symmetry C_1 .


Analysis of structural, dynamic, and magnetic symmetry:
=====================================================================
 Subroutine PRICEL returns:
 Original cell was already a primitive cell.
 

 Routine SETGRP: Setting up the symmetry group for a 
 simple monoclinic supercell.


 Subroutine GETGRP returns: Found  1 space group operations
 (whereof  1 operations were pure point group operations)
 out of a pool of  4 trial point group operations.


The magnetic configuration has the point symmetry C_1 .


 Subroutine INISYM returns: Found  1 space group operations
 (whereof  1 operations are pure point group operations),
 and found     1 'primitive' translations

 
 
 KPOINTS: # No comment                            

Automatic generation of k-mesh.
Space group operators:
 irot       det(A)        alpha          n_x          n_y          n_z        tau_x        tau_y        tau_z
    1     1.000000     0.000001     1.000000     0.000000     0.000000     0.000000     0.000000     0.000000
 
 Subroutine IBZKPT returns following result:
 ===========================================
 
 Found     10 irreducible k-points:
 
 Following reciprocal coordinates:
            Coordinates               Weight
  0.000000  0.000000  0.000000      1.000000
  0.500000  0.000000  0.000000      1.000000
  0.000000  0.333333 -0.000000      2.000000
  0.500000  0.333333 -0.000000      2.000000
  0.000000 -0.000000  0.333333      2.000000
  0.500000 -0.000000  0.333333      2.000000
  0.000000  0.333333  0.333333      2.000000
  0.500000  0.333333  0.333333      2.000000
  0.000000 -0.333333  0.333333      2.000000
  0.500000 -0.333333  0.333333      2.000000
 
 Following cartesian coordinates:
            Coordinates               Weight
  0.000000  0.000000  0.000000      1.000000
  0.032519  0.000000  0.000000      1.000000
  0.000000  0.029638 -0.000223      2.000000
  0.032519  0.029638 -0.000223      2.000000
  0.000000 -0.000218  0.029638      2.000000
  0.032519 -0.000218  0.029638      2.000000
  0.000000  0.029420  0.029415      2.000000
  0.032519  0.029420  0.029415      2.000000
  0.000000 -0.029855  0.029862      2.000000
  0.032519 -0.029855  0.029862      2.000000
 


--------------------------------------------------------------------------------------------------------




 Dimension of arrays:
   k-points           NKPTS =     10   k-points in BZ     NKDIM =     10   number of bands    NBANDS=    732
   number of dos      NEDOS =    301   number of ions     NIONS =    160
   non local maximal  LDIM  =      6   non local SUM 2l+1 LMDIM =     18
   total plane-waves  NPLWV = ******
   max r-space proj   IRMAX =      1   max aug-charges    IRDMAX= 153046
   dimension x,y,z NGX =   128 NGY =   96 NGZ =   96
   dimension x,y,z NGXF=   256 NGYF=  192 NGZF=  192
   support grid    NGXF=   512 NGYF=  384 NGZF=  384
   ions per type =              64  32  32  32
   NGX,Y,Z   is equivalent  to a cutoff of  13.84, 14.19, 14.19 a.u.
   NGXF,Y,Z  is equivalent  to a cutoff of  27.68, 28.38, 28.38 a.u.

 SYSTEM =  unknown system                          
 POSCAR =  # Compound: Li64Fe32S32O32. Old comment:

 Startparameter for this run:
   NWRITE =      1    write-flag & timer
   PREC   = accura    normal or accurate (medium, high low for compatibility)
   ISTART =      0    job   : 0-new  1-cont  2-samecut
   ICHARG =      1    charge: 1-file 2-atom 10-const
   ISPIN  =      2    spin polarized calculation?
   LNONCOLLINEAR =      F non collinear calculations
   LSORBIT =      F    spin-orbit coupling
   INIWAV =      1    electr: 0-lowe 1-rand  2-diag
   LASPH  =      T    aspherical Exc in radial PAW
   METAGGA=      F    non-selfconsistent MetaGGA calc.

 Electronic Relaxation 1
   ENCUT  =  650.0 eV  47.77 Ry    6.91 a.u.  31.96 23.38 23.38*2*pi/ulx,y,z
   ENINI  =  650.0     initial cutoff
   ENAUG  =  628.9 eV  augmentation charge cutoff
   NELM   =    200;   NELMIN=  8; NELMDL=  0     # of ELM steps 
   EDIFF  = 0.1E-07   stopping-criterion for ELM
   LREAL  =      F    real-space projection
   NLSPLINE    = F    spline interpolate recip. space projectors
   LCOMPAT=      F    compatible to vasp.4.4
   GGA_COMPAT  = T    GGA compatible to vasp.4.4-vasp.4.6
   LMAXPAW     = -100 max onsite density
   LMAXMIX     =    4 max onsite mixed and CHGCAR
   VOSKOWN=      0    Vosko Wilk Nusair interpolation
   ROPT   =    0.00000   0.00000   0.00000   0.00000
 Ionic relaxation
   EDIFFG = 0.1E-06   stopping-criterion for IOM
   NSW    =      0    number of steps for IOM
   NBLOCK =      1;   KBLOCK =      1    inner block; outer block 
   IBRION =     -1    ionic relax: 0-MD 1-quasi-New 2-CG
   NFREE  =      0    steps in history (QN), initial steepest desc. (CG)
   ISIF   =      2    stress and relaxation
   IWAVPR =     10    prediction:  0-non 1-charg 2-wave 3-comb
   ISYM   =      2    0-nonsym 1-usesym 2-fastsym
   LCORR  =      T    Harris-Foulkes like correction to forces

   POTIM  = 0.5000    time-step for ionic-motion
   TEIN   =    0.0    initial temperature
   TEBEG  =    0.0;   TEEND  =   0.0 temperature during run
   SMASS  =  -3.00    Nose mass-parameter (am)
   estimated Nose-frequenzy (Omega)   =  0.10E-29 period in steps =****** mass=  -0.540E-26a.u.
   SCALEE = 1.0000    scale energy and forces
   NPACO  =    256;   APACO  = 16.0  distance and # of slots for P.C.
   PSTRESS=    0.0 pullay stress

  Mass of Ions in am
   POMASS =   7.01 55.85 32.07 16.00
  Ionic Valenz
   ZVAL   =   3.00 14.00  6.00  6.00
  Atomic Wigner-Seitz radii
   RWIGS  =  -1.00 -1.00 -1.00 -1.00
  virtual crystal weights 
   VCA    =   1.00  1.00  1.00  1.00
   NELECT =    1024.0000    total number of electrons
   NUPDOWN=      -1.0000    fix difference up-down

 DOS related values:
   EMIN   =  10.00;   EMAX   =-10.00  energy-range for DOS
   EFERMI =   0.00
   ISMEAR =     0;   SIGMA  =   0.05  broadening in eV -4-tet -1-fermi 0-gaus

 Electronic relaxation 2 (details)
   IALGO  =     38    algorithm
   LDIAG  =      T    sub-space diagonalisation (order eigenvalues)
   LSUBROT=      F    optimize rotation matrix (better conditioning)
   TURBO    =      0    0=normal 1=particle mesh
   IRESTART =      0    0=no restart 2=restart with 2 vectors
   NREBOOT  =      0    no. of reboots
   NMIN     =      0    reboot dimension
   EREF     =   0.00    reference energy to select bands
   IMIX   =      4    mixing-type and parameters
     AMIX     =   0.40;   BMIX     =  1.00
     AMIX_MAG =   1.60;   BMIX_MAG =  1.00
     AMIN     =   0.10
     WC   =   100.;   INIMIX=   1;  MIXPRE=   1;  MAXMIX= -45

 Intra band minimization:
   WEIMIN = 0.0000     energy-eigenvalue tresh-hold
   EBREAK =  0.34E-11  absolut break condition
   DEPER  =   0.30     relativ break condition  

   TIME   =   0.40     timestep for ELM

  volume/ion in A,a.u.               =      12.16        82.03
  Fermi-wavevector in a.u.,A,eV,Ry     =   1.321914  2.498054 23.775576  1.747456
  Thomas-Fermi vector in A             =   2.451633
 
 Write flags
   LWAVE        =      F    write WAVECAR
   LDOWNSAMPLE  =      F    k-point downsampling of WAVECAR
   LCHARG       =      T    write CHGCAR
   LVTOT        =      F    write LOCPOT, total local potential
   LVHAR        =      F    write LOCPOT, Hartree potential only
   LELF         =      F    write electronic localiz. function (ELF)
   LORBIT       =      0    0 simple, 1 ext, 2 COOP (PROOUT), +10 PAW based schemes


 Dipole corrections
   LMONO  =      F    monopole corrections only (constant potential shift)
   LDIPOL =      F    correct potential (dipole corrections)
   IDIPOL =      0    1-x, 2-y, 3-z, 4-all directions 
   EPSILON=  1.0000000 bulk dielectric constant

 LDA+U is selected, type is set to LDAUTYPE =  2
   angular momentum for each species LDAUL =    -1    2   -1   -1
   U (eV)           for each species LDAUU =   0.0  4.0  0.0  0.0
   J (eV)           for each species LDAUJ =   0.0  0.0  0.0  0.0
 Exchange correlation treatment:
   GGA     =    PE    GGA type
   LEXCH   =     8    internal setting for exchange type
   VOSKOWN=      0    Vosko Wilk Nusair interpolation
   LHFCALC =     F    Hartree Fock is set to
   LHFONE  =     F    Hartree Fock one center treatment
   AEXX    =    0.0000 exact exchange contribution

 Linear response parameters
   LEPSILON=     F    determine dielectric tensor
   LRPA    =     F    only Hartree local field effects (RPA)
   LNABLA  =     F    use nabla operator in PAW spheres
   LVEL    =     F    velocity operator in full k-point grid
   LINTERFAST=   F  fast interpolation
   KINTER  =     0    interpolate to denser k-point grid
   CSHIFT  =0.1000    complex shift for real part using Kramers Kronig
   OMEGAMAX=  -1.0    maximum frequency
   DEG_THRESHOLD= 0.2000000E-02 threshold for treating states as degnerate
   RTIME   =   -0.100 relaxation time in fs
  (WPLASMAI=    0.000 imaginary part of plasma frequency in eV, 0.658/RTIME)
   DFIELD  = 0.0000000 0.0000000 0.0000000 field for delta impulse in time
 
 Orbital magnetization related:
   ORBITALMAG=     F  switch on orbital magnetization
   LCHIMAG   =     F  perturbation theory with respect to B field
   DQ        =  0.001000  dq finite difference perturbation B field
   LLRAUG    =     F  two centre corrections for induced B field



--------------------------------------------------------------------------------------------------------


 Static calculation
 charge density and potential will be updated during run
 spin polarized calculation
 Variant of blocked Davidson
 Davidson routine will perform the subspace rotation
 perform sub-space diagonalisation
    after iterative eigenvector-optimisation
 modified Broyden-mixing scheme, WC =      100.0
 initial mixing is a Kerker type mixing with AMIX =  0.4000 and BMIX =      1.0000
 Hartree-type preconditioning will be used
 using additional bands          220
 reciprocal scheme for non local part
 use partial core corrections
 calculate Harris-corrections to forces 
   (improved forces if not selfconsistent)
 use gradient corrections 
 use of overlap-Matrix (Vanderbilt PP)
 Gauss-broadening in eV      SIGMA  =   0.05


--------------------------------------------------------------------------------------------------------


  energy-cutoff  :      650.00
  volume of cell :     1944.98
      direct lattice vectors                 reciprocal lattice vectors
    15.375637120  0.000000000  0.000000000     0.065037955  0.000000000  0.000000000
     0.000000000 11.247570840  0.082590060     0.000000000  0.088913005 -0.000669805
     0.000000000  0.084728700 11.247277940     0.000000000 -0.000652898  0.088915320

  length of vectors
    15.375637120 11.247874062 11.247597077     0.065037955  0.088915528  0.088917717


 
 k-points in units of 2pi/SCALE and weight: # No comment                            
   0.00000000  0.00000000  0.00000000       0.056
   0.03251898  0.00000000  0.00000000       0.056
   0.00000000  0.02963767 -0.00022327       0.111
   0.03251898  0.02963767 -0.00022327       0.111
   0.00000000 -0.00021763  0.02963844       0.111
   0.03251898 -0.00021763  0.02963844       0.111
   0.00000000  0.02942004  0.02941517       0.111
   0.03251898  0.02942004  0.02941517       0.111
   0.00000000 -0.02985530  0.02986171       0.111
   0.03251898 -0.02985530  0.02986171       0.111
 
 k-points in reciprocal lattice and weights: # No comment                            
   0.00000000  0.00000000  0.00000000       0.056
   0.50000000  0.00000000  0.00000000       0.056
   0.00000000  0.33333333 -0.00000000       0.111
   0.50000000  0.33333333 -0.00000000       0.111
   0.00000000 -0.00000000  0.33333333       0.111
   0.50000000 -0.00000000  0.33333333       0.111
   0.00000000  0.33333333  0.33333333       0.111
   0.50000000  0.33333333  0.33333333       0.111
   0.00000000 -0.33333333  0.33333333       0.111
   0.50000000 -0.33333333  0.33333333       0.111
 
 position of ions in fractional coordinates (direct lattice) 
   0.12525680  0.27553588  0.47453981
   0.62525680  0.27553588  0.47453981
   0.12525680  0.77553588  0.47453981
   0.62525680  0.77553588  0.47453981
   0.12525680  0.27553588  0.97453981
   0.62525680  0.27553588  0.97453981
   0.12525680  0.77553588  0.97453981
   0.62525680  0.77553588  0.97453981
   0.12525680  0.47446412  0.27546019
   0.62525680  0.47446412  0.27546019
   0.12525680  0.97446412  0.27546019
   0.62525680  0.97446412  0.27546019
   0.12525680  0.47446412  0.77546019
   0.62525680  0.47446412  0.77546019
   0.12525680  0.97446412  0.77546019
   0.62525680  0.97446412  0.77546019
   0.37474320  0.22446412  0.02546019
   0.87474320  0.22446412  0.02546019
   0.37474320  0.72446412  0.02546019
   0.87474320  0.72446412  0.02546019
   0.37474320  0.22446412  0.52546019
   0.87474320  0.22446412  0.52546019
   0.37474320  0.72446412  0.52546019
   0.87474320  0.72446412  0.52546019
   0.37474320  0.02553588  0.22453981
   0.87474320  0.02553588  0.22453981
   0.37474320  0.52553588  0.22453981
   0.87474320  0.52553588  0.22453981
   0.37474320  0.02553588  0.72453981
   0.87474320  0.02553588  0.72453981
   0.37474320  0.52553588  0.72453981
   0.87474320  0.52553588  0.72453981
   0.27600236  0.37500000  0.37500000
   0.77600236  0.37500000  0.37500000
   0.27600236  0.87500000  0.37500000
   0.77600236  0.87500000  0.37500000
   0.27600236  0.37500000  0.87500000
   0.77600236  0.37500000  0.87500000
   0.27600236  0.87500000  0.87500000
   0.77600236  0.87500000  0.87500000
   0.22399764  0.12500000  0.12500000
   0.72399764  0.12500000  0.12500000
   0.22399764  0.62500000  0.12500000
   0.72399764  0.62500000  0.12500000
   0.22399764  0.12500000  0.62500000
   0.72399764  0.12500000  0.62500000
   0.22399764  0.62500000  0.62500000
   0.72399764  0.62500000  0.62500000
   0.49994073  0.37500000  0.12500000
   0.99994073  0.37500000  0.12500000
   0.49994073  0.87500000  0.12500000
   0.99994073  0.87500000  0.12500000
   0.49994073  0.37500000  0.62500000
   0.99994073  0.37500000  0.62500000
   0.49994073  0.87500000  0.62500000
   0.99994073  0.87500000  0.62500000
   0.00005927  0.12500000  0.37500000
   0.50005927  0.12500000  0.37500000
   0.00005927  0.62500000  0.37500000
   0.50005927  0.62500000  0.37500000
   0.00005927  0.12500000  0.87500000
   0.50005927  0.12500000  0.87500000
   0.00005927  0.62500000  0.87500000
   0.50005927  0.62500000  0.87500000
   0.47912905  0.37500000  0.37500000
   0.97912905  0.37500000  0.37500000
   0.47912905  0.87500000  0.37500000
   0.97912905  0.87500000  0.37500000
   0.47912905  0.37500000  0.87500000
   0.97912905  0.37500000  0.87500000
   0.47912905  0.87500000  0.87500000
   0.97912905  0.87500000  0.87500000
   0.02087095  0.12500000  0.12500000
   0.52087095  0.12500000  0.12500000
   0.02087095  0.62500000  0.12500000
   0.52087095  0.62500000  0.12500000
   0.02087095  0.12500000  0.62500000
   0.52087095  0.12500000  0.62500000
   0.02087095  0.62500000  0.62500000
   0.52087095  0.62500000  0.62500000
   0.25003487  0.37500000  0.12500000
   0.75003487  0.37500000  0.12500000
   0.25003487  0.87500000  0.12500000
   0.75003487  0.87500000  0.12500000
   0.25003487  0.37500000  0.62500000
   0.75003487  0.37500000  0.62500000
   0.25003487  0.87500000  0.62500000
   0.75003487  0.87500000  0.62500000
   0.24996513  0.12500000  0.37500000
   0.74996513  0.12500000  0.37500000
   0.24996513  0.62500000  0.37500000
   0.74996513  0.62500000  0.37500000
   0.24996513  0.12500000  0.87500000
   0.74996513  0.12500000  0.87500000
   0.24996513  0.62500000  0.87500000
   0.74996513  0.62500000  0.87500000
   0.12546906  0.49959881  0.49958956
   0.62546906  0.49959881  0.49958956
   0.12546906  0.99959881  0.49958956
   0.62546906  0.99959881  0.49958956
   0.12546906  0.49959881  0.99958956
   0.62546906  0.49959881  0.99958956
   0.12546906  0.99959881  0.99958956
   0.62546906  0.99959881  0.99958956
   0.12546906  0.25040119  0.25041044
   0.62546906  0.25040119  0.25041044
   0.12546906  0.75040119  0.25041044
   0.62546906  0.75040119  0.25041044
   0.12546906  0.25040119  0.75041044
   0.62546906  0.25040119  0.75041044
   0.12546906  0.75040119  0.75041044
   0.62546906  0.75040119  0.75041044
   0.37453094  0.00040119  0.00041044
   0.87453094  0.00040119  0.00041044
   0.37453094  0.50040119  0.00041044
   0.87453094  0.50040119  0.00041044
   0.37453094  0.00040119  0.50041044
   0.87453094  0.00040119  0.50041044
   0.37453094  0.50040119  0.50041044
   0.87453094  0.50040119  0.50041044
   0.37453094  0.24959881  0.24958956
   0.87453094  0.24959881  0.24958956
   0.37453094  0.74959881  0.24958956
   0.87453094  0.74959881  0.24958956
   0.37453094  0.24959881  0.74958956
   0.87453094  0.24959881  0.74958956
   0.37453094  0.74959881  0.74958956
   0.87453094  0.74959881  0.74958956
   0.00000000  0.25088906  0.00000000
   0.50000000  0.25000000  0.00000000
   0.00000000  0.75000000  0.00000000
   0.50000000  0.75000000  0.00000000
   0.00000000  0.25000000  0.50000000
   0.50000000  0.25000000  0.50000000
   0.00000000  0.75000000  0.50000000
   0.50000000  0.75000000  0.50000000
   0.00000000  0.00000000  0.25000000
   0.50000000  0.00000000  0.25000000
   0.00000000  0.50000000  0.25000000
   0.50000000  0.50000000  0.25000000
   0.00000000  0.00000000  0.75000000
   0.50000000  0.00000000  0.75000000
   0.00000000  0.50000000  0.75000000
   0.50000000  0.50000000  0.75000000
   0.25000000  0.25000000  0.00000000
   0.75000000  0.25000000  0.00000000
   0.25000000  0.75000000  0.00000000
   0.75000000  0.75000000  0.00000000
   0.25000000  0.25000000  0.50000000
   0.75000000  0.25000000  0.50000000
   0.25000000  0.75000000  0.50000000
   0.75000000  0.75000000  0.50000000
   0.25000000  0.00000000  0.25000000
   0.75000000  0.00000000  0.25000000
   0.25000000  0.50000000  0.25000000
   0.75000000  0.50000000  0.25000000
   0.25000000  0.00000000  0.75000000
   0.75000000  0.00000000  0.75000000
   0.25000000  0.50000000  0.75000000
   0.75000000  0.50000000  0.75000000
 
 position of ions in cartesian coordinates  (Angst):
   1.92590310  3.13931647  5.36003766
   9.61372166  3.13931647  5.36003766
   1.92590310  8.76310189  5.40133269
   9.61372166  8.76310189  5.40133269
   1.92590310  3.18168082 10.98367663
   9.61372166  3.18168082 10.98367663
   1.92590310  8.80546624 11.02497166
   9.61372166  8.80546624 11.02497166
   1.92590310  5.35990818  3.13736334
   9.61372166  5.35990818  3.13736334
   1.92590310 10.98369360  3.17865837
   9.61372166 10.98369360  3.17865837
   1.92590310  5.40227253  8.76100231
   9.61372166  5.40227253  8.76100231
   1.92590310 11.02605795  8.80229734
   9.61372166 11.02605795  8.80229734
   5.76191546  2.52683330  0.30489634
  13.44973402  2.52683330  0.30489634
   5.76191546  8.15061872  0.34619137
  13.44973402  8.15061872  0.34619137
   5.76191546  2.56919765  5.92853531
  13.44973402  2.56919765  5.92853531
   5.76191546  8.19298307  5.96983034
  13.44973402  8.19298307  5.96983034
   5.76191546  0.30624159  2.52757066
  13.44973402  0.30624159  2.52757066
   5.76191546  5.93002701  2.56886569
  13.44973402  5.93002701  2.56886569
   5.76191546  0.34860594  8.15120963
  13.44973402  0.34860594  8.15120963
   5.76191546  5.97239136  8.19250466
  13.44973402  5.97239136  8.19250466
   4.24371213  4.24961233  4.24870050
  11.93153069  4.24961233  4.24870050
   4.24371213  9.87339775  4.28999553
  11.93153069  9.87339775  4.28999553
   4.24371213  4.29197668  9.87233947
  11.93153069  4.29197668  9.87233947
   4.24371213  9.91576210  9.91363450
  11.93153069  9.91576210  9.91363450
   3.44410643  1.41653744  1.41623350
  11.13192499  1.41653744  1.41623350
   3.44410643  7.04032286  1.45752853
  11.13192499  7.04032286  1.45752853
   3.44410643  1.45890179  7.03987247
  11.13192499  1.45890179  7.03987247
   3.44410643  7.08268721  7.08116750
  11.13192499  7.08268721  7.08116750
   7.68690717  4.22843015  1.43688101
  15.37472573  4.22843015  1.43688101
   7.68690717  9.85221557  1.47817605
  15.37472573  9.85221557  1.47817605
   7.68690717  4.27079450  7.06051999
  15.37472573  4.27079450  7.06051999
   7.68690717  9.89457992  7.10181502
  15.37472573  9.89457992  7.10181502
   0.00091139  1.43771962  4.22805298
   7.68872995  1.43771962  4.22805298
   0.00091139  7.06150504  4.26934801
   7.68872995  7.06150504  4.26934801
   0.00091139  1.48008397  9.85169195
   7.68872995  1.48008397  9.85169195
   0.00091139  7.10386939  9.89298699
   7.68872995  7.10386939  9.89298699
   7.36691433  4.24961233  4.24870050
  15.05473289  4.24961233  4.24870050
   7.36691433  9.87339775  4.28999553
  15.05473289  9.87339775  4.28999553
   7.36691433  4.29197668  9.87233947
  15.05473289  4.29197668  9.87233947
   7.36691433  9.91576210  9.91363450
  15.05473289  9.91576210  9.91363450
   0.32090423  1.41653744  1.41623350
   8.00872279  1.41653744  1.41623350
   0.32090423  7.04032286  1.45752853
   8.00872279  7.04032286  1.45752853
   0.32090423  1.45890179  7.03987247
   8.00872279  1.45890179  7.03987247
   0.32090423  7.08268721  7.08116750
   8.00872279  7.08268721  7.08116750
   3.84444535  4.22843015  1.43688101
  11.53226391  4.22843015  1.43688101
   3.84444535  9.85221557  1.47817605
  11.53226391  9.85221557  1.47817605
   3.84444535  4.27079450  7.06051999
  11.53226391  4.27079450  7.06051999
   3.84444535  9.89457992  7.10181502
  11.53226391  9.89457992  7.10181502
   3.84337321  1.43771962  4.22805298
  11.53119177  1.43771962  4.22805298
   3.84337321  7.06150504  4.26934801
  11.53119177  7.06150504  4.26934801
   3.84337321  1.48008397  9.85169195
  11.53119177  1.48008397  9.85169195
   3.84337321  7.10386939  9.89298699
  11.53119177  7.10386939  9.89298699
   1.92916681  5.66160258  5.66028448
   9.61698537  5.66160258  5.66028448
   1.92916681 11.28538800  5.70157951
   9.61698537 11.28538800  5.70157951
   1.92916681  5.70396693 11.28392345
   9.61698537  5.70396693 11.28392345
   1.92916681 11.32775235 11.32521848
   9.61698537 11.32775235 11.32521848
   1.92916681  2.83762207  2.83711652
   9.61698537  2.83762207  2.83711652
   1.92916681  8.46140749  2.87841155
   9.61698537  8.46140749  2.87841155
   1.92916681  2.87998642  8.46075549
   9.61698537  2.87998642  8.46075549
   1.92916681  8.50377184  8.50205052
   9.61698537  8.50377184  8.50205052
   5.75865175  0.00454719  0.00464952
  13.44647031  0.00454719  0.00464952
   5.75865175  5.62833261  0.04594455
  13.44647031  5.62833261  0.04594455
   5.75865175  0.04691154  5.62828849
  13.44647031  0.04691154  5.62828849
   5.75865175  5.67069696  5.66958352
  13.44647031  5.67069696  5.66958352
   5.75865175  2.82852770  2.82781748
  13.44647031  2.82852770  2.82781748
   5.75865175  8.45231312  2.86911251
  13.44647031  8.45231312  2.86911251
   5.75865175  2.87089205  8.45145645
  13.44647031  2.87089205  8.45145645
   5.75865175  8.49467747  8.49275148
  13.44647031  8.49467747  8.49275148
   0.00000000  2.82189244  0.02072094
   7.68781856  2.81189271  0.02064752
   0.00000000  8.43567813  0.06194255
   7.68781856  8.43567813  0.06194255
   0.00000000  2.85425706  5.64428649
   7.68781856  2.85425706  5.64428649
   0.00000000  8.47804248  5.68558151
   7.68781856  8.47804248  5.68558151
   0.00000000  0.02118218  2.81181949
   7.68781856  0.02118218  2.81181949
   0.00000000  5.64496759  2.85311452
   7.68781856  5.64496759  2.85311452
   0.00000000  0.06354653  8.43545845
   7.68781856  0.06354653  8.43545845
   0.00000000  5.68733194  8.47675348
   7.68781856  5.68733194  8.47675348
   3.84390928  2.81189271  0.02064752
  11.53172784  2.81189271  0.02064752
   3.84390928  8.43567813  0.06194255
  11.53172784  8.43567813  0.06194255
   3.84390928  2.85425706  5.64428649
  11.53172784  2.85425706  5.64428649
   3.84390928  8.47804248  5.68558151
  11.53172784  8.47804248  5.68558151
   3.84390928  0.02118218  2.81181949
  11.53172784  0.02118218  2.81181949
   3.84390928  5.64496759  2.85311452
  11.53172784  5.64496759  2.85311452
   3.84390928  0.06354653  8.43545845
  11.53172784  0.06354653  8.43545845
   3.84390928  5.68733194  8.47675348
  11.53172784  5.68733194  8.47675348
 


--------------------------------------------------------------------------------------------------------


 k-point  1 :   0.0000 0.0000 0.0000  plane waves:   73163
 k-point  2 :   0.5000 0.0000 0.0000  plane waves:   73208
 k-point  3 :   0.0000 0.3333-0.0000  plane waves:   73197
 k-point  4 :   0.5000 0.3333-0.0000  plane waves:   73182
 k-point  5 :   0.0000-0.0000 0.3333  plane waves:   73195
 k-point  6 :   0.5000-0.0000 0.3333  plane waves:   73178
 k-point  7 :   0.0000 0.3333 0.3333  plane waves:   73141
 k-point  8 :   0.5000 0.3333 0.3333  plane waves:   73198
 k-point  9 :   0.0000-0.3333 0.3333  plane waves:   73095
 k-point 10 :   0.5000-0.3333 0.3333  plane waves:   73224

 maximum and minimum number of plane-waves per node :     12268    12150

 maximum number of plane-waves:     73224
 maximum index in each direction: 
   IXMAX=   31   IYMAX=   23   IZMAX=   23
   IXMIN=  -32   IYMIN=  -23   IZMIN=  -23


 parallel 3D FFT for wavefunctions:
    minimum data exchange during FFTs selected (reduces bandwidth)
 parallel 3D FFT for charge:
    minimum data exchange during FFTs selected (reduces bandwidth)


 total amount of memory used by VASP MPI-rank0   985864. kBytes
=======================================================================

   base      :      30000. kBytes
   nonl-proj :     102069. kBytes
   fftplans  :      64934. kBytes
   grid      :      55554. kBytes
   one-center:        839. kBytes
   wavefun   :     732468. kBytes
 
     INWAV:  cpu time    0.0000: real time    0.0000
 Broyden mixing: mesh for mixing (old mesh)
   NGX = 63   NGY = 47   NGZ = 47
  (NGX  =256   NGY  =192   NGZ  =192)
  gives a total of 139167 points

 initial charge density was supplied:
 number of electron    1024.0000024 magnetization     128.0000040
 keeping initial charge density in first step


--------------------------------------------------------------------------------------------------------


 Maximum index for augmentation-charges         8015 (set IRDMAX)


--------------------------------------------------------------------------------------------------------


 First call to EWALD:  gamma=   0.142
 Maximum number of real-space cells 2x 3x 3
 Maximum number of reciprocal cells 3x 3x 3

    FEWALD:  cpu time    0.0175: real time    0.0175


--------------------------------------- Iteration      1(   1)  ---------------------------------------


    POTLOK:  cpu time    0.6843: real time    0.7032
    SETDIJ:  cpu time    1.6496: real time    1.6942
     EDDAV:  cpu time  360.7498: real time  368.3997
       DOS:  cpu time    0.0046: real time    0.0047
    --------------------------------------------
      LOOP:  cpu time  363.0884: real time  370.8017

 eigenvalue-minimisations  : 30712
 total energy-change (2. order) : 0.1347182E+05  (-0.5518315E+05)
 number of electron    1024.0000024 magnetization     128.0000040
 augmentation part     1024.0000024 magnetization     128.0000040

 Free energy of the ion-electron system (eV)
  ---------------------------------------------------
  alpha Z        PSCENC =      2580.95227926
  Ewald energy   TEWEN  =    -67508.66253847
  -Hartree energ DENC   =    -35943.96880990
  -exchange      EXHF   =         0.00000000
  -V(xc)+E(xc)   XCENC  =      4397.38244725
  PAW double counting   =    108731.45464712  -112348.03830957
  entropy T*S    EENTRO =        -0.03740287
  eigenvalues    EBANDS =      -746.54523116
  atomic energy  EATOM  =    114309.28505226
  Solvation  Ediel_sol  =         0.00000000
  ---------------------------------------------------
  free energy    TOTEN  =     13471.82213393 eV

  energy without entropy =    13471.85953680  energy(sigma->0) =    13471.84083536


--------------------------------------------------------------------------------------------------------




--------------------------------------- Iteration      1(   2)  ---------------------------------------


     EDDAV:  cpu time  345.6610: real time  353.6103
       DOS:  cpu time    0.0043: real time    0.0043
    --------------------------------------------
      LOOP:  cpu time  345.6653: real time  353.6146

 eigenvalue-minimisations  : 29280
 total energy-change (2. order) :-0.1205990E+05  (-0.1121276E+05)
 number of electron    1024.0000024 magnetization     128.0000040
 augmentation part     1024.0000024 magnetization     128.0000040

 Free energy of the ion-electron system (eV)
  ---------------------------------------------------
  alpha Z        PSCENC =      2580.95227926
  Ewald energy   TEWEN  =    -67508.66253847
  -Hartree energ DENC   =    -35943.96880990
  -exchange      EXHF   =         0.00000000
  -V(xc)+E(xc)   XCENC  =      4397.38244725
  PAW double counting   =    108731.45464712  -112348.03830957
  entropy T*S    EENTRO =        -0.06524224
  eigenvalues    EBANDS =    -12806.41632016
  atomic energy  EATOM  =    114309.28505226
  Solvation  Ediel_sol  =         0.00000000
  ---------------------------------------------------
  free energy    TOTEN  =      1411.92320556 eV

  energy without entropy =     1411.98844780  energy(sigma->0) =     1411.95582668


--------------------------------------------------------------------------------------------------------




--------------------------------------- Iteration      1(   3)  ---------------------------------------


     EDDAV:  cpu time  378.2030: real time  386.8940
       DOS:  cpu time    0.0016: real time    0.0016
    --------------------------------------------
      LOOP:  cpu time  378.2046: real time  386.8955

 eigenvalue-minimisations  : 32904
 total energy-change (2. order) :-0.1937311E+04  (-0.1738704E+04)
 number of electron    1024.0000024 magnetization     128.0000040
 augmentation part     1024.0000024 magnetization     128.0000040

 Free energy of the ion-electron system (eV)
  ---------------------------------------------------
  alpha Z        PSCENC =      2580.95227926
  Ewald energy   TEWEN  =    -67508.66253847
  -Hartree energ DENC   =    -35943.96880990
  -exchange      EXHF   =         0.00000000
  -V(xc)+E(xc)   XCENC  =      4397.38244725
  PAW double counting   =    108731.45464712  -112348.03830957
  entropy T*S    EENTRO =        -0.00000000
  eigenvalues    EBANDS =    -14743.79302298
  atomic energy  EATOM  =    114309.28505226
  Solvation  Ediel_sol  =         0.00000000
  ---------------------------------------------------
  free energy    TOTEN  =      -525.38825503 eV

  energy without entropy =     -525.38825503  energy(sigma->0) =     -525.38825503


--------------------------------------------------------------------------------------------------------




--------------------------------------- Iteration      1(   4)  ---------------------------------------


     EDDAV:  cpu time  437.2924: real time  447.4119
       DOS:  cpu time    0.0018: real time    0.0018
    --------------------------------------------
      LOOP:  cpu time  437.2942: real time  447.4136

 eigenvalue-minimisations  : 39296
 total energy-change (2. order) :-0.2634102E+03  (-0.2605410E+03)
 number of electron    1024.0000024 magnetization     128.0000040
 augmentation part     1024.0000024 magnetization     128.0000040

 Free energy of the ion-electron system (eV)
  ---------------------------------------------------
  alpha Z        PSCENC =      2580.95227926
  Ewald energy   TEWEN  =    -67508.66253847
  -Hartree energ DENC   =    -35943.96880990
  -exchange      EXHF   =         0.00000000
  -V(xc)+E(xc)   XCENC  =      4397.38244725
  PAW double counting   =    108731.45464712  -112348.03830957
  entropy T*S    EENTRO =        -0.00000000
  eigenvalues    EBANDS =    -15007.20321565
  atomic energy  EATOM  =    114309.28505226
  Solvation  Ediel_sol  =         0.00000000
  ---------------------------------------------------
  free energy    TOTEN  =      -788.79844769 eV

  energy without entropy =     -788.79844769  energy(sigma->0) =     -788.79844769


--------------------------------------------------------------------------------------------------------




--------------------------------------- Iteration      1(   5)  ---------------------------------------


     EDDAV:  cpu time  547.7801: real time  560.0750
       DOS:  cpu time    0.0019: real time    0.0019
    CHARGE:  cpu time    8.5730: real time    8.6349
    MIXING:  cpu time    0.0338: real time    0.0338
    --------------------------------------------
      LOOP:  cpu time  556.3888: real time  568.7457

 eigenvalue-minimisations  : 51448
 total energy-change (2. order) :-0.3177519E+02  (-0.3152058E+02)
 number of electron    1024.0000024 magnetization     128.0000033
 augmentation part      329.1712852 magnetization      84.1725362

 Broyden mixing:
  rms(total) = 0.31593E+00    rms(broyden)= 0.31559E+00
  rms(prec ) = 0.31943E+00
  weight for this iteration     100.00

 Free energy of the ion-electron system (eV)
  ---------------------------------------------------
  alpha Z        PSCENC =      2580.95227926
  Ewald energy   TEWEN  =    -67508.66253847
  -Hartree energ DENC   =    -35943.96880990
  -exchange      EXHF   =         0.00000000
  -V(xc)+E(xc)   XCENC  =      4397.38244725
  PAW double counting   =    108731.45464712  -112348.03830957
  entropy T*S    EENTRO =        -0.00000000
  eigenvalues    EBANDS =    -15038.97840500
  atomic energy  EATOM  =    114309.28505226
  Solvation  Ediel_sol  =         0.00000000
  ---------------------------------------------------
  free energy    TOTEN  =      -820.57363704 eV

  energy without entropy =     -820.57363704  energy(sigma->0) =     -820.57363704


--------------------------------------------------------------------------------------------------------




--------------------------------------- Iteration      1(   6)  ---------------------------------------


    POTLOK:  cpu time    0.6822: real time    0.6867
    SETDIJ:  cpu time    1.6895: real time    1.6926
     EDDAV:  cpu time  449.7999: real time  460.3616
       DOS:  cpu time    0.0020: real time    0.0020
    CHARGE:  cpu time    8.5588: real time    8.5983
    MIXING:  cpu time    0.0223: real time    0.0223
    --------------------------------------------
      LOOP:  cpu time  460.7547: real time  471.3634

 eigenvalue-minimisations  : 40640
 total energy-change (2. order) :-0.1420883E+01  (-0.1467400E+01)
 number of electron    1024.0000024 magnetization     128.0000028
 augmentation part      327.4406785 magnetization      84.3644481

 Broyden mixing:
  rms(total) = 0.13361E+00    rms(broyden)= 0.13329E+00
  rms(prec ) = 0.13432E+00
  weight for this iteration     100.00

 eigenvalues of (default mixing * dielectric matrix)
  average eigenvalue GAMMA=   0.6599
  0.6599

 Free energy of the ion-electron system (eV)
  ---------------------------------------------------
  alpha Z        PSCENC =      2580.95227926
  Ewald energy   TEWEN  =    -67508.66253847
  -Hartree energ DENC   =    -35935.64828143
  -exchange      EXHF   =         0.00000000
  -V(xc)+E(xc)   XCENC  =      4396.14501228
  PAW double counting   =    108543.55643540  -112154.59430433
  entropy T*S    EENTRO =        -0.00000000
  eigenvalues    EBANDS =    -15053.02817493
  atomic energy  EATOM  =    114309.28505226
  Solvation  Ediel_sol  =         0.00000000
  ---------------------------------------------------
  free energy    TOTEN  =      -821.99451995 eV

  energy without entropy =     -821.99451995  energy(sigma->0) =     -821.99451995


--------------------------------------------------------------------------------------------------------




--------------------------------------- Iteration      1(   7)  ---------------------------------------


    POTLOK:  cpu time    0.7228: real time    0.7254
    SETDIJ:  cpu time    1.6498: real time    1.6501
     EDDAV:  cpu time  508.0863: real time  518.0377
       DOS:  cpu time    0.0033: real time    0.0033
    CHARGE:  cpu time    8.4224: real time    8.6493
    MIXING:  cpu time    0.0347: real time    0.0347
    --------------------------------------------
      LOOP:  cpu time  518.9193: real time  529.1004

 eigenvalue-minimisations  : 47280
 total energy-change (2. order) :-0.7211160E-01  (-0.7138185E-01)
 number of electron    1024.0000024 magnetization     128.0000026
 augmentation part      327.1451359 magnetization      84.2982769

 Broyden mixing:
  rms(total) = 0.97634E-01    rms(broyden)= 0.97514E-01
  rms(prec ) = 0.98987E-01
  weight for this iteration     100.00

 eigenvalues of (default mixing * dielectric matrix)
  average eigenvalue GAMMA=   0.5954
  0.5954  0.5954

 Free energy of the ion-electron system (eV)
  ---------------------------------------------------
  alpha Z        PSCENC =      2580.95227926
  Ewald energy   TEWEN  =    -67508.66253847
  -Hartree energ DENC   =    -35938.27857631
  -exchange      EXHF   =         0.00000000
  -V(xc)+E(xc)   XCENC  =      4396.48588258
  PAW double counting   =    108586.46924364  -112198.93483631
  entropy T*S    EENTRO =        -0.00000000
  eigenvalues    EBANDS =    -15049.38313819
  atomic energy  EATOM  =    114309.28505226
  Solvation  Ediel_sol  =         0.00000000
  ---------------------------------------------------
  free energy    TOTEN  =      -822.06663155 eV

  energy without entropy =     -822.06663155  energy(sigma->0) =     -822.06663155


--------------------------------------------------------------------------------------------------------




--------------------------------------- Iteration      1(   8)  ---------------------------------------


    POTLOK:  cpu time    0.6828: real time    0.6954
    SETDIJ:  cpu time    1.6506: real time    1.6632
     EDDAV:  cpu time  484.4161: real time  494.8253
       DOS:  cpu time    0.0017: real time    0.0017
    CHARGE:  cpu time    8.4014: real time    8.7131
    MIXING:  cpu time    0.0405: real time    0.0423
    --------------------------------------------
      LOOP:  cpu time  495.1932: real time  505.9411

 eigenvalue-minimisations  : 44504
 total energy-change (2. order) :-0.8388983E-04  (-0.2761362E-02)
 number of electron    1024.0000024 magnetization     128.0000025
 augmentation part      327.0920420 magnetization      84.2863632

 Broyden mixing:
  rms(total) = 0.84556E-01    rms(broyden)= 0.84545E-01
  rms(prec ) = 0.85881E-01
  weight for this iteration     100.00

 eigenvalues of (default mixing * dielectric matrix)
  average eigenvalue GAMMA=   0.5482
  0.6240  0.6240  0.3965

 Free energy of the ion-electron system (eV)
  ---------------------------------------------------
  alpha Z        PSCENC =      2580.95227926
  Ewald energy   TEWEN  =    -67508.66253847
  -Hartree energ DENC   =    -35939.12868923
  -exchange      EXHF   =         0.00000000
  -V(xc)+E(xc)   XCENC  =      4396.62799531
  PAW double counting   =    108612.37701230  -112225.56651803
  entropy T*S    EENTRO =        -0.00000000
  eigenvalues    EBANDS =    -15047.95130884
  atomic energy  EATOM  =    114309.28505226
  Solvation  Ediel_sol  =         0.00000000
  ---------------------------------------------------
  free energy    TOTEN  =      -822.06671544 eV

  energy without entropy =     -822.06671544  energy(sigma->0) =     -822.06671544


--------------------------------------------------------------------------------------------------------




--------------------------------------- Iteration      1(   9)  ---------------------------------------


    POTLOK:  cpu time    0.6723: real time    0.7008
    SETDIJ:  cpu time    1.6363: real time    1.6575
     EDDAV:  cpu time  513.4312: real time  524.8295
       DOS:  cpu time    0.0018: real time    0.0019
    CHARGE:  cpu time    8.7464: real time    8.7815
    MIXING:  cpu time    0.0290: real time    0.0290
    --------------------------------------------
      LOOP:  cpu time  524.5171: real time  536.0003

 eigenvalue-minimisations  : 47824
 total energy-change (2. order) : 0.1069067E-02  (-0.1716398E-03)
 number of electron    1024.0000024 magnetization     128.0000024
 augmentation part      327.1006370 magnetization      84.2816605

 Broyden mixing:
  rms(total) = 0.76900E-01    rms(broyden)= 0.76899E-01
  rms(prec ) = 0.78091E-01
  weight for this iteration     100.00

 eigenvalues of (default mixing * dielectric matrix)
  average eigenvalue GAMMA=   0.6046
  0.7519  0.7519  0.4574  0.4574

 Free energy of the ion-electron system (eV)
  ---------------------------------------------------
  alpha Z        PSCENC =      2580.95227926
  Ewald energy   TEWEN  =    -67508.66253847
  -Hartree energ DENC   =    -35939.42523351
  -exchange      EXHF   =         0.00000000
  -V(xc)+E(xc)   XCENC  =      4396.69548838
  PAW double counting   =    108621.29652193  -112234.78739237
  entropy T*S    EENTRO =        -0.00000000
  eigenvalues    EBANDS =    -15047.41982386
  atomic energy  EATOM  =    114309.28505226
  Solvation  Ediel_sol  =         0.00000000
  ---------------------------------------------------
  free energy    TOTEN  =      -822.06564638 eV

  energy without entropy =     -822.06564638  energy(sigma->0) =     -822.06564638


--------------------------------------------------------------------------------------------------------




--------------------------------------- Iteration      1(  10)  ---------------------------------------


    POTLOK:  cpu time    0.6764: real time    0.6830
    SETDIJ:  cpu time    1.6602: real time    1.7108
     EDDAV:  cpu time  524.8056: real time  535.7800
       DOS:  cpu time    0.0053: real time    0.0053
    CHARGE:  cpu time    8.6453: real time    8.8902
    MIXING:  cpu time    0.0389: real time    0.0408
    --------------------------------------------
      LOOP:  cpu time  535.8318: real time  547.1103

 eigenvalue-minimisations  : 48976
 total energy-change (2. order) : 0.1397792E-02  (-0.3548815E-04)
 number of electron    1024.0000024 magnetization     128.0000018
 augmentation part      327.1122861 magnetization      84.2794379

 Broyden mixing:
  rms(total) = 0.65120E-01    rms(broyden)= 0.65120E-01
  rms(prec ) = 0.66077E-01
  weight for this iteration     100.00

 eigenvalues of (default mixing * dielectric matrix)
  average eigenvalue GAMMA=   0.8099
  1.1923  1.1923  0.6030  0.6030  0.4590

 Free energy of the ion-electron system (eV)
  ---------------------------------------------------
  alpha Z        PSCENC =      2580.95227926
  Ewald energy   TEWEN  =    -67508.66253847
  -Hartree energ DENC   =    -35940.16684438
  -exchange      EXHF   =         0.00000000
  -V(xc)+E(xc)   XCENC  =      4396.81469232
  PAW double counting   =    108636.04046331  -112250.04007645
  entropy T*S    EENTRO =        -0.00000000
  eigenvalues    EBANDS =    -15046.28727643
  atomic energy  EATOM  =    114309.28505226
  Solvation  Ediel_sol  =         0.00000000
  ---------------------------------------------------
  free energy    TOTEN  =      -822.06424858 eV

  energy without entropy =     -822.06424858  energy(sigma->0) =     -822.06424858


--------------------------------------------------------------------------------------------------------




--------------------------------------- Iteration      1(  11)  ---------------------------------------


    POTLOK:  cpu time    0.6702: real time    0.6792
    SETDIJ:  cpu time    1.6917: real time    1.6930
     EDDAV:  cpu time  540.6012: real time  551.1427
       DOS:  cpu time    0.0027: real time    0.0027
    CHARGE:  cpu time    8.5368: real time    8.7430
    MIXING:  cpu time    0.0288: real time    0.0291
    --------------------------------------------
      LOOP:  cpu time  551.5314: real time  562.2897

 eigenvalue-minimisations  : 50712
 total energy-change (2. order) : 0.2586381E-02  (-0.1946914E-03)
 number of electron    1024.0000024 magnetization     128.0000015
 augmentation part      327.1452893 magnetization      84.2809189

 Broyden mixing:
  rms(total) = 0.28836E-01    rms(broyden)= 0.28835E-01
  rms(prec ) = 0.29113E-01
  weight for this iteration     100.00

 eigenvalues of (default mixing * dielectric matrix)
  average eigenvalue GAMMA=   0.8428
  1.3897  1.3897  0.6538  0.6538  0.4849  0.4849

 Free energy of the ion-electron system (eV)
  ---------------------------------------------------
  alpha Z        PSCENC =      2580.95227926
  Ewald energy   TEWEN  =    -67508.66253847
  -Hartree energ DENC   =    -35942.49747322
  -exchange      EXHF   =         0.00000000
  -V(xc)+E(xc)   XCENC  =      4397.17685276
  PAW double counting   =    108685.57125020  -112301.16659022
  entropy T*S    EENTRO =        -0.00000000
  eigenvalues    EBANDS =    -15042.72049477
  atomic energy  EATOM  =    114309.28505226
  Solvation  Ediel_sol  =         0.00000000
  ---------------------------------------------------
  free energy    TOTEN  =      -822.06166220 eV

  energy without entropy =     -822.06166220  energy(sigma->0) =     -822.06166220


--------------------------------------------------------------------------------------------------------




--------------------------------------- Iteration      1(  12)  ---------------------------------------


    POTLOK:  cpu time    0.6670: real time    0.6898
    SETDIJ:  cpu time    1.6558: real time    1.6818
     EDDAV:  cpu time  432.3910: real time  442.1928
       DOS:  cpu time    0.0019: real time    0.0018
    CHARGE:  cpu time    8.7737: real time    8.8763
    MIXING:  cpu time    0.0248: real time    0.0261
    --------------------------------------------
      LOOP:  cpu time  443.5141: real time  453.4686

 eigenvalue-minimisations  : 38976
 total energy-change (2. order) : 0.2089391E-03  (-0.1093302E-03)
 number of electron    1024.0000024 magnetization     128.0000013
 augmentation part      327.1608502 magnetization      84.2791987

 Broyden mixing:
  rms(total) = 0.16588E-01    rms(broyden)= 0.16586E-01
  rms(prec ) = 0.16680E-01
  weight for this iteration     100.00

 eigenvalues of (default mixing * dielectric matrix)
  average eigenvalue GAMMA=   0.9361
  1.5930  1.5930  0.8979  0.8979  0.5468  0.5468  0.4773

 Free energy of the ion-electron system (eV)
  ---------------------------------------------------
  alpha Z        PSCENC =      2580.95227926
  Ewald energy   TEWEN  =    -67508.66253847
  -Hartree energ DENC   =    -35943.23509820
  -exchange      EXHF   =         0.00000000
  -V(xc)+E(xc)   XCENC  =      4397.29072418
  PAW double counting   =    108703.22258870  -112319.32831686
  entropy T*S    EENTRO =        -0.00000000
  eigenvalues    EBANDS =    -15041.58614414
  atomic energy  EATOM  =    114309.28505226
  Solvation  Ediel_sol  =         0.00000000
  ---------------------------------------------------
  free energy    TOTEN  =      -822.06145326 eV

  energy without entropy =     -822.06145326  energy(sigma->0) =     -822.06145326


--------------------------------------------------------------------------------------------------------




--------------------------------------- Iteration      1(  13)  ---------------------------------------


    POTLOK:  cpu time    0.6601: real time    0.6654
    SETDIJ:  cpu time    1.6967: real time    1.7022
     EDDAV:  cpu time  515.6585: real time  526.8098
       DOS:  cpu time    0.0020: real time    0.0020
    CHARGE:  cpu time    8.4561: real time    8.6637
    MIXING:  cpu time    0.0395: real time    0.0410
    --------------------------------------------
      LOOP:  cpu time  526.5129: real time  537.8841

 eigenvalue-minimisations  : 48024
 total energy-change (2. order) : 0.3709229E-04  (-0.2649839E-04)
 number of electron    1024.0000024 magnetization     128.0000012
 augmentation part      327.1700605 magnetization      84.2796832

 Broyden mixing:
  rms(total) = 0.91514E-02    rms(broyden)= 0.91506E-02
  rms(prec ) = 0.91888E-02
  weight for this iteration     100.00

 eigenvalues of (default mixing * dielectric matrix)
  average eigenvalue GAMMA=   0.9674
  1.8327  1.8327  0.9940  0.9940  0.5557  0.5557  0.4870  0.4870

 Free energy of the ion-electron system (eV)
  ---------------------------------------------------
  alpha Z        PSCENC =      2580.95227926
  Ewald energy   TEWEN  =    -67508.66253847
  -Hartree energ DENC   =    -35943.64983120
  -exchange      EXHF   =         0.00000000
  -V(xc)+E(xc)   XCENC  =      4397.35802293
  PAW double counting   =    108715.81263058  -112332.21203857
  entropy T*S    EENTRO =        -0.00000000
  eigenvalues    EBANDS =    -15040.94499295
  atomic energy  EATOM  =    114309.28505226
  Solvation  Ediel_sol  =         0.00000000
  ---------------------------------------------------
  free energy    TOTEN  =      -822.06141617 eV

  energy without entropy =     -822.06141617  energy(sigma->0) =     -822.06141617


--------------------------------------------------------------------------------------------------------




--------------------------------------- Iteration      1(  14)  ---------------------------------------


    POTLOK:  cpu time    0.6895: real time    0.7109
    SETDIJ:  cpu time    1.6441: real time    1.6674
     EDDAV:  cpu time  468.7531: real time  478.7068
       DOS:  cpu time    0.0017: real time    0.0017
    CHARGE:  cpu time    8.4722: real time    8.6448
    MIXING:  cpu time    0.0315: real time    0.0315
    --------------------------------------------
      LOOP:  cpu time  479.5920: real time  489.7630

 eigenvalue-minimisations  : 42928
 total energy-change (2. order) :-0.1805021E-04  (-0.7652528E-05)
 number of electron    1024.0000024 magnetization     128.0000010
 augmentation part      327.1754372 magnetization      84.2794505

 Broyden mixing:
  rms(total) = 0.64585E-02    rms(broyden)= 0.64577E-02
  rms(prec ) = 0.64921E-02
  weight for this iteration     100.00

 eigenvalues of (default mixing * dielectric matrix)
  average eigenvalue GAMMA=   1.0771
  2.2656  2.2656  1.1402  1.1402  0.6707  0.6707  0.5272  0.5272  0.4862

 Free energy of the ion-electron system (eV)
  ---------------------------------------------------
  alpha Z        PSCENC =      2580.95227926
  Ewald energy   TEWEN  =    -67508.66253847
  -Hartree energ DENC   =    -35943.69355995
  -exchange      EXHF   =         0.00000000
  -V(xc)+E(xc)   XCENC  =      4397.35680128
  PAW double counting   =    108719.98640457  -112336.38580582
  entropy T*S    EENTRO =        -0.00000000
  eigenvalues    EBANDS =    -15040.90006735
  atomic energy  EATOM  =    114309.28505226
  Solvation  Ediel_sol  =         0.00000000
  ---------------------------------------------------
  free energy    TOTEN  =      -822.06143422 eV

  energy without entropy =     -822.06143422  energy(sigma->0) =     -822.06143422


--------------------------------------------------------------------------------------------------------




--------------------------------------- Iteration      1(  15)  ---------------------------------------


    POTLOK:  cpu time    0.6764: real time    0.6766
    SETDIJ:  cpu time    1.6867: real time    1.6874
     EDDAV:  cpu time  415.7188: real time  424.2673
       DOS:  cpu time    0.0019: real time    0.0019
    CHARGE:  cpu time    8.5565: real time    8.7716
    MIXING:  cpu time    0.0291: real time    0.0291
    --------------------------------------------
      LOOP:  cpu time  426.6694: real time  435.4339

 eigenvalue-minimisations  : 36792
 total energy-change (2. order) :-0.2539979E-05  (-0.1061873E-05)
 number of electron    1024.0000024 magnetization     128.0000008
 augmentation part      327.1756210 magnetization      84.2791091

 Broyden mixing:
  rms(total) = 0.29891E-02    rms(broyden)= 0.29883E-02
  rms(prec ) = 0.30071E-02
  weight for this iteration     100.00

 eigenvalues of (default mixing * dielectric matrix)
  average eigenvalue GAMMA=   1.0679
  1.8954  1.8954  1.4682  1.4682  0.8627  0.8627  0.6156  0.5541  0.5541  0.5025

 Free energy of the ion-electron system (eV)
  ---------------------------------------------------
  alpha Z        PSCENC =      2580.95227926
  Ewald energy   TEWEN  =    -67508.66253847
  -Hartree energ DENC   =    -35943.87009372
  -exchange      EXHF   =         0.00000000
  -V(xc)+E(xc)   XCENC  =      4397.37368672
  PAW double counting   =    108726.32719727  -112342.82122678
  entropy T*S    EENTRO =        -0.00000000
  eigenvalues    EBANDS =    -15040.64579330
  atomic energy  EATOM  =    114309.28505226
  Solvation  Ediel_sol  =         0.00000000
  ---------------------------------------------------
  free energy    TOTEN  =      -822.06143676 eV

  energy without entropy =     -822.06143676  energy(sigma->0) =     -822.06143676


--------------------------------------------------------------------------------------------------------




--------------------------------------- Iteration      1(  16)  ---------------------------------------


    POTLOK:  cpu time    0.6894: real time    0.6898
    SETDIJ:  cpu time    1.6755: real time    1.6761
     EDDAV:  cpu time  432.6429: real time  441.1902
       DOS:  cpu time    0.0019: real time    0.0019
    CHARGE:  cpu time    8.6610: real time    8.7268
    MIXING:  cpu time    0.0389: real time    0.0544
    --------------------------------------------
      LOOP:  cpu time  443.7096: real time  452.3393

 eigenvalue-minimisations  : 38640
 total energy-change (2. order) :-0.4889414E-05  (-0.1232060E-05)
 number of electron    1024.0000024 magnetization     128.0000008
 augmentation part      327.1760255 magnetization      84.2792103

 Broyden mixing:
  rms(total) = 0.62029E-03    rms(broyden)= 0.61703E-03
  rms(prec ) = 0.63467E-03
  weight for this iteration     100.00

 eigenvalues of (default mixing * dielectric matrix)
  average eigenvalue GAMMA=   1.0773
  2.5801  1.6891  1.6891  1.0291  1.0291  0.8401  0.7027  0.7027  0.5437  0.5222
  0.5222

 Free energy of the ion-electron system (eV)
  ---------------------------------------------------
  alpha Z        PSCENC =      2580.95227926
  Ewald energy   TEWEN  =    -67508.66253847
  -Hartree energ DENC   =    -35944.00221301
  -exchange      EXHF   =         0.00000000
  -V(xc)+E(xc)   XCENC  =      4397.38660036
  PAW double counting   =    108731.29986769  -112347.87331298
  entropy T*S    EENTRO =        -0.00000000
  eigenvalues    EBANDS =    -15040.44717676
  atomic energy  EATOM  =    114309.28505226
  Solvation  Ediel_sol  =         0.00000000
  ---------------------------------------------------
  free energy    TOTEN  =      -822.06144165 eV

  energy without entropy =     -822.06144165  energy(sigma->0) =     -822.06144165


--------------------------------------------------------------------------------------------------------




--------------------------------------- Iteration      1(  17)  ---------------------------------------


    POTLOK:  cpu time    0.6802: real time    0.6894
    SETDIJ:  cpu time    1.6830: real time    1.7076
     EDDAV:  cpu time  435.6983: real time  445.0238
       DOS:  cpu time    0.0018: real time    0.0020
    CHARGE:  cpu time    8.5639: real time    8.8080
    MIXING:  cpu time    0.0342: real time    0.0365
    --------------------------------------------
      LOOP:  cpu time  446.6614: real time  456.2673

 eigenvalue-minimisations  : 39208
 total energy-change (2. order) :-0.2483270E-05  (-0.2104222E-06)
 number of electron    1024.0000024 magnetization     128.0000007
 augmentation part      327.1763607 magnetization      84.2793043

 Broyden mixing:
  rms(total) = 0.39500E-03    rms(broyden)= 0.39009E-03
  rms(prec ) = 0.40179E-03
  weight for this iteration     100.00

 eigenvalues of (default mixing * dielectric matrix)
  average eigenvalue GAMMA=   1.0944
  2.5755  1.9074  1.5248  1.5248  1.0138  0.8613  0.8613  0.7042  0.5025  0.5483
  0.5483  0.5601

 Free energy of the ion-electron system (eV)
  ---------------------------------------------------
  alpha Z        PSCENC =      2580.95227926
  Ewald energy   TEWEN  =    -67508.66253847
  -Hartree energ DENC   =    -35943.98441983
  -exchange      EXHF   =         0.00000000
  -V(xc)+E(xc)   XCENC  =      4397.38305783
  PAW double counting   =    108731.67317179  -112348.24062168
  entropy T*S    EENTRO =        -0.00000000
  eigenvalues    EBANDS =    -15040.46742528
  atomic energy  EATOM  =    114309.28505226
  Solvation  Ediel_sol  =         0.00000000
  ---------------------------------------------------
  free energy    TOTEN  =      -822.06144414 eV

  energy without entropy =     -822.06144414  energy(sigma->0) =     -822.06144414


--------------------------------------------------------------------------------------------------------




--------------------------------------- Iteration      1(  18)  ---------------------------------------


    POTLOK:  cpu time    0.6693: real time    0.6751
    SETDIJ:  cpu time    1.6493: real time    1.6797
     EDDAV:  cpu time  430.3626: real time  440.0439
       DOS:  cpu time    0.0016: real time    0.0016
    CHARGE:  cpu time    8.6612: real time    8.7570
    MIXING:  cpu time    0.0371: real time    0.0371
    --------------------------------------------
      LOOP:  cpu time  441.3811: real time  451.1944

 eigenvalue-minimisations  : 38448
 total energy-change (2. order) :-0.1350971E-05  (-0.2011470E-07)
 number of electron    1024.0000024 magnetization     128.0000007
 augmentation part      327.1761992 magnetization      84.2793306

 Broyden mixing:
  rms(total) = 0.30713E-03    rms(broyden)= 0.30097E-03
  rms(prec ) = 0.31025E-03
  weight for this iteration     100.00

 eigenvalues of (default mixing * dielectric matrix)
  average eigenvalue GAMMA=   1.1777
  3.1604  1.9881  1.9881  1.3740  1.3740  0.8814  0.8814  0.7458  0.7458  0.5761
  0.5443  0.5443  0.5067

 Free energy of the ion-electron system (eV)
  ---------------------------------------------------
  alpha Z        PSCENC =      2580.95227926
  Ewald energy   TEWEN  =    -67508.66253847
  -Hartree energ DENC   =    -35943.97330798
  -exchange      EXHF   =         0.00000000
  -V(xc)+E(xc)   XCENC  =      4397.38109635
  PAW double counting   =    108731.58459366  -112348.15054989
  entropy T*S    EENTRO =        -0.00000000
  eigenvalues    EBANDS =    -15040.47807067
  atomic energy  EATOM  =    114309.28505226
  Solvation  Ediel_sol  =         0.00000000
  ---------------------------------------------------
  free energy    TOTEN  =      -822.06144549 eV

  energy without entropy =     -822.06144549  energy(sigma->0) =     -822.06144549


--------------------------------------------------------------------------------------------------------




--------------------------------------- Iteration      1(  19)  ---------------------------------------


    POTLOK:  cpu time    0.6671: real time    0.6677
    SETDIJ:  cpu time    1.6859: real time    1.6863
     EDDAV:  cpu time  420.0236: real time  428.4572
       DOS:  cpu time    0.0018: real time    0.0018
    CHARGE:  cpu time    8.5115: real time    8.7575
    MIXING:  cpu time    0.0455: real time    0.0486
    --------------------------------------------
      LOOP:  cpu time  430.9355: real time  439.6191

 eigenvalue-minimisations  : 37296
 total energy-change (2. order) :-0.3614987E-06  (-0.1899650E-07)
 number of electron    1024.0000024 magnetization     128.0000007
 augmentation part      327.1761644 magnetization      84.2793337

 Broyden mixing:
  rms(total) = 0.19035E-03    rms(broyden)= 0.18019E-03
  rms(prec ) = 0.18602E-03
  weight for this iteration     100.00

 eigenvalues of (default mixing * dielectric matrix)
  average eigenvalue GAMMA=   1.2073
  3.6448  2.0082  2.0082  1.4734  1.4734  0.9739  0.9739  0.7743  0.7743  0.6111
  0.6111  0.5042  0.5356  0.5356

 Free energy of the ion-electron system (eV)
  ---------------------------------------------------
  alpha Z        PSCENC =      2580.95227926
  Ewald energy   TEWEN  =    -67508.66253847
  -Hartree energ DENC   =    -35943.98234258
  -exchange      EXHF   =         0.00000000
  -V(xc)+E(xc)   XCENC  =      4397.38295958
  PAW double counting   =    108731.62995213  -112348.21131136
  entropy T*S    EENTRO =        -0.00000000
[...]
   0.103E-03 0.112E-01 -.193E-03   0.000E+00 -.101E-01 -.322E-04   -.102E-03 -.156E-02 0.445E-03   0.558E-06 0.295E-05 0.758E-06
   -.515E-03 -.131E+00 -.132E-02   -.178E-13 0.124E+00 0.802E-03   0.446E-03 0.107E-01 -.151E-03   -.272E-05 -.317E-05 0.127E-05
   0.959E-04 -.103E-01 -.206E-03   -.249E-13 0.940E-02 0.271E-04   -.153E-03 0.137E-02 0.153E-03   -.559E-05 -.393E-05 -.279E-06
   -.493E-03 0.395E-01 -.260E-03   -.142E-13 -.386E-01 0.203E-02   0.643E-03 -.104E-02 -.240E-02   0.862E-05 0.264E-05 -.187E-05
   0.111E-03 0.633E-02 -.183E-04   -.711E-14 -.609E-02 0.144E-03   -.144E-03 -.342E-03 -.148E-03   -.290E-05 0.153E-05 0.772E-06
   -.133E-03 -.313E-01 0.209E-02   -.320E-13 0.302E-01 -.123E-02   0.821E-04 0.198E-02 -.162E-02   -.410E-05 -.318E-05 0.478E-05
   0.880E-04 -.617E-02 0.403E-03   -.249E-13 0.592E-02 -.135E-03   -.148E-03 0.411E-03 -.450E-03   0.547E-05 0.715E-06 0.166E-05
   0.633E-03 -.637E-01 0.124E+00   0.320E-13 0.603E-01 -.117E+00   -.366E-03 0.714E-02 -.129E-01   -.686E-05 -.613E-05 -.914E-05
   0.114E-03 -.136E-03 0.225E-02   0.320E-13 0.143E-03 -.187E-02   -.143E-03 0.217E-04 -.544E-03   -.756E-06 0.113E-05 -.371E-06
   -.256E-03 -.621E-01 -.118E+00   0.426E-13 0.601E-01 0.113E+00   0.236E-03 0.242E-02 0.820E-02   -.414E-05 0.678E-06 -.255E-05
   0.940E-04 -.303E-03 -.225E-02   0.497E-13 0.268E-03 0.187E-02   -.145E-03 0.187E-04 0.556E-03   0.436E-05 -.190E-05 -.205E-05
   -.259E-03 -.624E-01 -.118E+00   0.462E-13 0.603E-01 0.112E+00   0.237E-03 0.243E-02 0.817E-02   -.819E-06 -.718E-06 -.120E-05
   0.928E-04 -.350E-03 -.225E-02   0.178E-13 0.312E-03 0.187E-02   -.145E-03 0.255E-04 0.550E-03   0.635E-05 -.299E-05 0.545E-06
   0.636E-03 -.635E-01 0.125E+00   0.426E-13 0.600E-01 -.118E+00   -.368E-03 0.717E-02 -.131E-01   -.631E-05 -.420E-05 -.629E-05
   0.114E-03 -.879E-04 0.225E-02   0.497E-13 0.989E-04 -.187E-02   -.144E-03 0.169E-04 -.548E-03   -.443E-06 0.675E-06 0.661E-06
   0.135E-03 0.837E-01 -.549E-03   -.346E-03 -.793E-01 -.509E-03   0.348E-03 -.617E-02 0.113E-02   -.362E-05 0.249E-05 -.122E-05
   -.596E-03 0.837E-01 -.555E-03   0.346E-03 -.793E-01 -.509E-03   0.402E-03 -.618E-02 0.114E-02   -.475E-05 0.186E-06 0.209E-05
   -.149E-03 -.487E-01 -.483E-03   0.990E-04 0.409E-01 0.228E-03   0.778E-04 0.115E-01 0.113E-02   0.804E-05 -.352E-05 -.186E-05
   0.755E-04 -.487E-01 -.481E-03   -.990E-04 0.409E-01 0.228E-03   0.484E-04 0.115E-01 0.113E-02   0.283E-05 0.368E-08 -.472E-05
   0.265E-03 0.178E-01 0.891E-03   -.308E-04 -.175E-01 0.667E-03   -.316E-03 -.571E-03 -.234E-02   -.358E-05 0.611E-05 -.244E-05
   0.180E-03 0.178E-01 0.893E-03   0.308E-04 -.175E-01 0.667E-03   -.286E-03 -.570E-03 -.234E-02   -.127E-05 0.397E-05 -.854E-06
   -.536E-04 -.159E-01 0.728E-03   0.240E-04 0.154E-01 -.515E-03   0.390E-04 0.601E-03 -.230E-03   0.331E-05 0.890E-06 -.231E-05
   -.150E-05 -.159E-01 0.727E-03   -.240E-04 0.154E-01 -.515E-03   0.404E-04 0.603E-03 -.232E-03   -.281E-05 -.390E-05 0.163E-05
   0.298E-01 -.585E-02 0.207E-01   -.281E-01 0.561E-02 -.186E-01   -.236E-02 0.110E-03 -.303E-02   -.383E-05 -.359E-05 0.347E-05
   -.296E-01 -.562E-02 0.206E-01   0.281E-01 0.561E-02 -.186E-01   0.204E-02 -.210E-03 -.300E-02   0.598E-05 0.397E-05 -.255E-05
   -.284E-01 -.533E-02 -.205E-01   0.276E-01 0.624E-02 0.184E-01   0.106E-02 -.110E-02 0.300E-02   -.269E-06 -.186E-05 0.397E-05
   0.286E-01 -.557E-02 -.207E-01   -.276E-01 0.624E-02 0.184E-01   -.137E-02 -.753E-03 0.336E-02   0.206E-05 -.230E-05 0.282E-05
   0.286E-01 -.575E-02 -.206E-01   -.276E-01 0.640E-02 0.183E-01   -.136E-02 -.735E-03 0.334E-02   -.400E-05 -.259E-05 0.126E-05
   -.283E-01 -.550E-02 -.204E-01   0.276E-01 0.640E-02 0.183E-01   0.105E-02 -.108E-02 0.299E-02   -.703E-06 -.244E-05 0.229E-05
   -.296E-01 -.544E-02 0.207E-01   0.281E-01 0.545E-02 -.186E-01   0.205E-02 -.232E-03 -.302E-02   0.299E-05 0.445E-06 0.170E-05
   0.298E-01 -.567E-02 0.207E-01   -.281E-01 0.545E-02 -.186E-01   -.237E-02 0.859E-04 -.304E-02   -.133E-05 0.143E-05 -.126E-05
 -----------------------------------------------------------------------------------------------
   0.780E-01 -.296E+00 0.347E+00   -.483E-12 -.508E-14 0.366E-13   -.780E-01 0.296E+00 -.347E+00   0.618E-06 0.195E-04 -.476E-04
 
 
 POSITION                                       TOTAL-FORCE (eV/Angst)
 -----------------------------------------------------------------------------------
      1.92590      3.13932      5.36004        -0.000083     -0.000021      0.000497
      9.61372      3.13932      5.36004         0.000028     -0.000005     -0.000029
      1.92590      8.76310      5.40133         0.000036     -0.000158      0.000011
      9.61372      8.76310      5.40133         0.000013     -0.000113     -0.000016
      1.92590      3.18168     10.98368         0.001266      0.006589     -0.001214
      9.61372      3.18168     10.98368         0.000026      0.000137     -0.000075
      1.92590      8.80547     11.02497        -0.000185     -0.002523     -0.000201
      9.61372      8.80547     11.02497         0.000012     -0.000259     -0.000132
      1.92590      5.35991      3.13736        -0.000286      0.000548     -0.000613
      9.61372      5.35991      3.13736         0.000106      0.000087      0.000013
      1.92590     10.98369      3.17866         0.000717     -0.000306      0.000855
      9.61372     10.98369      3.17866        -0.000119      0.000044      0.000137
      1.92590      5.40227      8.76100        -0.001263     -0.000141      0.001244
      9.61372      5.40227      8.76100         0.000162      0.000107      0.000135
      1.92590     11.02606      8.80230         0.000115     -0.000045     -0.001143
      9.61372     11.02606      8.80230        -0.000053      0.000008     -0.000036
      5.76192      2.52683      0.30490         0.000019      0.000257      0.000050
     13.44973      2.52683      0.30490         0.001257      0.006734     -0.001092
      5.76192      8.15062      0.34619         0.000003     -0.000139     -0.000007
     13.44973      8.15062      0.34619        -0.000196     -0.002401     -0.000077
      5.76192      2.56920      5.92854         0.000022      0.000116      0.000096
     13.44973      2.56920      5.92854        -0.000090      0.000097      0.000620
      5.76192      8.19298      5.96983         0.000005      0.000008      0.000109
     13.44973      8.19298      5.96983         0.000028     -0.000037      0.000137
      5.76192      0.30624      2.52757         0.000148     -0.000015      0.000009
     13.44973      0.30624      2.52757        -0.001271     -0.000266      0.001114
      5.76192      5.93003      2.56887        -0.000066     -0.000112     -0.000162
     13.44973      5.93003      2.56887         0.000102     -0.000163     -0.001273
      5.76192      0.34861      8.15121         0.000093     -0.000035     -0.000112
     13.44973      0.34861      8.15121        -0.000300      0.000422     -0.000736
      5.76192      5.97239      8.19250        -0.000132     -0.000076      0.000013
     13.44973      5.97239      8.19250         0.000709     -0.000426      0.000737
      4.24371      4.24961      4.24870         0.000334      0.000316      0.000146
     11.93153      4.24961      4.24870        -0.000165      0.000393      0.000226
      4.24371      9.87340      4.29000         0.000084     -0.000168      0.000118
     11.93153      9.87340      4.29000         0.000044     -0.000172      0.000116
      4.24371      4.29198      9.87234        -0.000485      0.000454      0.000170
     11.93153      4.29198      9.87234         0.001168      0.000596      0.000426
      4.24371      9.91576      9.91363         0.000891     -0.000664     -0.000573
     11.93153      9.91576      9.91363        -0.000765     -0.000905     -0.001082
      3.44411      1.41654      1.41623         0.001044      0.000589      0.000424
     11.13192      1.41654      1.41623        -0.000610      0.000450      0.000169
      3.44411      7.04032      1.45753        -0.000889     -0.000905     -0.001086
     11.13192      7.04032      1.45753         0.000772     -0.000664     -0.000577
      3.44411      1.45890      7.03987        -0.000285      0.000386      0.000226
     11.13192      1.45890      7.03987         0.000208      0.000312      0.000147
      3.44411      7.08269      7.08117        -0.000080     -0.000171      0.000117
     11.13192      7.08269      7.08117        -0.000040     -0.000167      0.000119
      7.68691      4.22843      1.43688         0.000099      0.000200     -0.000160
     15.37473      4.22843      1.43688        -0.000173      0.009125      0.002414
      7.68691      9.85222      1.47818         0.000096     -0.000155      0.000073
     15.37473      9.85222      1.47818        -0.000061     -0.001989      0.000266
      7.68691      4.27079      7.06052         0.000100      0.000060      0.000021
     15.37473      4.27079      7.06052        -0.000006      0.000513      0.000842
      7.68691      9.89458      7.10182         0.000094     -0.000104      0.000063
     15.37473      9.89458      7.10182         0.000049     -0.000337     -0.000051
      0.00091      1.43772      4.22805        -0.000152      0.000505      0.000841
      7.68873      1.43772      4.22805        -0.000045      0.000059      0.000020
      0.00091      7.06151      4.26935        -0.000097     -0.000335     -0.000053
      7.68873      7.06151      4.26935        -0.000051     -0.000103      0.000062
      0.00091      1.48008      9.85169        -0.000317      0.008713      0.001922
      7.68873      1.48008      9.85169        -0.000046      0.000199     -0.000159
      0.00091      7.10387      9.89299        -0.000208     -0.002000      0.000266
      7.68873      7.10387      9.89299        -0.000049     -0.000154      0.000074
      7.36691      4.24961      4.24870         0.000111      0.000169      0.000057
     15.05473      4.24961      4.24870         0.000074      0.001041     -0.000259
      7.36691      9.87340      4.29000         0.000107     -0.000119      0.000096
     15.05473      9.87340      4.29000        -0.000335     -0.002064      0.001934
      7.36691      4.29198      9.87234         0.000128      0.000320      0.000107
     15.05473      4.29198      9.87234        -0.005016      0.028706     -0.020794
      7.36691      9.91576      9.91363         0.000099     -0.000365     -0.000252
     15.05473      9.91576      9.91363         0.000197     -0.002457     -0.001075
      0.32090      1.41654      1.41623        -0.004813      0.027569     -0.019306
      8.00872      1.41654      1.41623        -0.000011      0.000318      0.000105
      0.32090      7.04032      1.45753         0.000060     -0.002460     -0.001082
      8.00872      7.04032      1.45753        -0.000039     -0.000364     -0.000253
      0.32090      1.45890      7.03987        -0.000066      0.001030     -0.000259
      8.00872      1.45890      7.03987        -0.000028      0.000167      0.000057
      0.32090      7.08269      7.08117        -0.000476     -0.002069      0.001942
      8.00872      7.08269      7.08117        -0.000032     -0.000117      0.000096
      3.84445      4.22843      1.43688        -0.000803      0.001541     -0.001142
     11.53226      4.22843      1.43688         0.001028      0.001587     -0.001160
      3.84445      9.85222      1.47818         0.001676     -0.001596      0.001103
     11.53226      9.85222      1.47818        -0.001710     -0.001585      0.001182
      3.84445      4.27079      7.06052        -0.000209      0.000302      0.000474
     11.53226      4.27079      7.06052         0.000230      0.000161      0.000516
      3.84445      9.89458      7.10182        -0.000060     -0.000446     -0.000059
     11.53226      9.89458      7.10182        -0.000058     -0.000359     -0.000002
      3.84337      1.43772      4.22805         0.000357      0.000149      0.000515
     11.53119      1.43772      4.22805        -0.000097      0.000290      0.000475
      3.84337      7.06151      4.26935         0.000061     -0.000358     -0.000004
     11.53119      7.06151      4.26935         0.000060     -0.000444     -0.000061
      3.84337      1.48008      9.85169         0.001149      0.001574     -0.001158
     11.53119      1.48008      9.85169        -0.000685      0.001527     -0.001139
      3.84337      7.10387      9.89299        -0.001597     -0.001584      0.001194
     11.53119      7.10387      9.89299         0.001803     -0.001595      0.001114
      1.92917      5.66160      5.66028         0.000355     -0.000126     -0.000533
      9.61699      5.66160      5.66028        -0.000162      0.000043     -0.000093
      1.92917     11.28539      5.70158        -0.000283     -0.000032     -0.000491
      9.61699     11.28539      5.70158         0.000062      0.000005     -0.000099
      1.92917      5.70397     11.28392         0.007814      0.008002      0.000795
      9.61699      5.70397     11.28392        -0.000658     -0.000002      0.000071
      1.92917     11.32775     11.32522        -0.007330      0.008463      0.001039
      9.61699     11.32775     11.32522         0.000531     -0.000061      0.000074
      1.92917      2.83762      2.83712        -0.001408     -0.002947     -0.001547
      9.61699      2.83762      2.83712         0.000023     -0.000291      0.000051
      1.92917      8.46141      2.87841        -0.000059      0.001394      0.000027
      9.61699      8.46141      2.87841         0.000073      0.000299     -0.000027
      1.92917      2.87999      8.46076         0.001451     -0.002783     -0.000781
      9.61699      2.87999      8.46076        -0.000189     -0.000270      0.000056
      1.92917      8.50377      8.50205         0.000133      0.001380      0.000042
      9.61699      8.50377      8.50205        -0.000159      0.000265     -0.000046
      5.75865      0.00455      0.00465        -0.000630     -0.000026      0.000100
     13.44647      0.00455      0.00465         0.007768      0.007919      0.000818
      5.75865      5.62833      0.04594         0.000559     -0.000091      0.000103
     13.44647      5.62833      0.04594        -0.007375      0.008488      0.001071
      5.75865      0.04691      5.62829        -0.000138      0.000018     -0.000063
     13.44647      0.04691      5.62829         0.000378     -0.000147     -0.000503
      5.75865      5.67070      5.66958         0.000086     -0.000024     -0.000069
     13.44647      5.67070      5.66958        -0.000260     -0.000065     -0.000462
      5.75865      2.82853      2.82782        -0.000167     -0.000244      0.000028
     13.44647      2.82853      2.82782         0.001506     -0.002747     -0.000850
      5.75865      8.45231      2.86911        -0.000133      0.000292     -0.000073
     13.44647      8.45231      2.86911         0.000157      0.001407      0.000018
      5.75865      2.87089      8.45146         0.000045     -0.000264      0.000021
     13.44647      2.87089      8.45146        -0.001352     -0.002928     -0.001531
      5.75865      8.49468      8.49275         0.000099      0.000326     -0.000057
     13.44647      8.49468      8.49275        -0.000035      0.001422     -0.000005
      0.00000      2.82189      0.02072         0.006887     -0.111511      0.043509
      7.68782      2.81189      0.02065         0.000001     -0.000521      0.000221
      0.00000      8.43568      0.06194        -0.000071      0.003423     -0.000663
      7.68782      8.43568      0.06194        -0.000063      0.000429     -0.000026
      0.00000      2.85426      5.64429         0.000158     -0.000228     -0.000636
      7.68782      2.85426      5.64429        -0.000036     -0.000103     -0.000022
      0.00000      8.47804      5.68558        -0.000055      0.000841     -0.000755
      7.68782      8.47804      5.68558        -0.000054      0.000165     -0.000181
      0.00000      0.02118      2.81182         0.000260      0.003721     -0.005439
      7.68782      0.02118      2.81182        -0.000031      0.000030     -0.000170
      0.00000      5.64497      2.85311        -0.000025      0.000373      0.002375
      7.68782      5.64497      2.85311        -0.000047     -0.000018      0.000175
      0.00000      0.06355      8.43546        -0.000023      0.000378      0.002365
      7.68782      0.06355      8.43546        -0.000046     -0.000016      0.000173
      0.00000      5.68733      8.47675         0.000261      0.003731     -0.005473
      7.68782      5.68733      8.47675        -0.000031      0.000028     -0.000171
      3.84391      2.81189      0.02065         0.000133     -0.001829      0.000073
     11.53173      2.81189      0.02065         0.000147     -0.001831      0.000076
      3.84391      8.43568      0.06194         0.000036      0.003733      0.000871
     11.53173      8.43568      0.06194         0.000027      0.003733      0.000871
      3.84391      2.85426      5.64429        -0.000086     -0.000284     -0.000783
     11.53173      2.85426      5.64429        -0.000077     -0.000284     -0.000784
      3.84391      8.47804      5.68558         0.000012      0.000185     -0.000018
     11.53173      8.47804      5.68558         0.000012      0.000185     -0.000018
      3.84391      0.02118      2.81182        -0.000623     -0.000129     -0.000948
     11.53173      0.02118      2.81182         0.000519     -0.000216     -0.000957
      3.84391      5.64497      2.85311         0.000287     -0.000192      0.000890
     11.53173      5.64497      2.85311        -0.000370     -0.000091      0.001029
      3.84391      0.06355      8.43546        -0.000369     -0.000086      0.001024
     11.53173      0.06355      8.43546         0.000285     -0.000188      0.000887
      3.84391      5.68733      8.47675         0.000520     -0.000224     -0.000964
     11.53173      5.68733      8.47675        -0.000624     -0.000136     -0.000955
 -----------------------------------------------------------------------------------
    total drift:                                0.000052      0.000012      0.000016


--------------------------------------------------------------------------------------------------------



  FREE ENERGIE OF THE ION-ELECTRON SYSTEM (eV)
  ---------------------------------------------------
  free  energy   TOTEN  =      -822.06144664 eV

  energy  without entropy=     -822.06144664  energy(sigma->0) =     -822.06144664
 


--------------------------------------------------------------------------------------------------------


    POTLOK:  cpu time    2.3294: real time    2.3768


--------------------------------------------------------------------------------------------------------


     LOOP+:  cpu time12513.9633: real time12777.1499
    4ORBIT:  cpu time    0.0000: real time    0.0000

 total amount of memory used by VASP MPI-rank0   985864. kBytes
=======================================================================

   base      :      30000. kBytes
   nonl-proj :     102069. kBytes
   fftplans  :      64934. kBytes
   grid      :      55554. kBytes
   one-center:        839. kBytes
   wavefun   :     732468. kBytes
 
  
  
 General timing and accounting informations for this job:
 ========================================================
  
                  Total CPU time used (sec):    12662.521
                            User time (sec):    12583.289
                          System time (sec):       79.233
                         Elapsed time (sec):    12928.673
  
                   Maximum memory used (kb):     1179576.
                   Average memory used (kb):           0.
  
                          Minor page faults:       562100
                          Major page faults:           10
                 Voluntary context switches:        75784
