 160 160   0   0
  0.1215613E+02  0.1537564E-08  0.1124787E-08  0.1124760E-08  0.5000000E-15
  1.000000000000000E-004
  CAR 
 unknown system                          
     17.04843640    -54.79163924  301      4.89549027      1.00000000
    -54.792  0.0000E+00  0.0000E+00  0.0000E+00  0.0000E+00
    -54.552  0.0000E+00  0.0000E+00  0.0000E+00  0.0000E+00
    -54.313  0.0000E+00  0.0000E+00  0.0000E+00  0.0000E+00
    -54.073  0.0000E+00  0.0000E+00  0.0000E+00  0.0000E+00
    -53.834  0.0000E+00  0.0000E+00  0.0000E+00  0.0000E+00
    -53.594  0.0000E+00  0.0000E+00  0.0000E+00  0.0000E+00
    -53.355  0.0000E+00  0.0000E+00  0.0000E+00  0.0000E+00
    -53.115  0.0000E+00  0.0000E+00  0.0000E+00  0.0000E+00
    -52.876  0.0000E+00  0.0000E+00  0.0000E+00  0.0000E+00
    -52.636  0.0000E+00  0.0000E+00  0.0000E+00  0.0000E+00
    -52.397  0.0000E+00  0.0000E+00  0.0000E+00  0.0000E+00
    -52.158  0.0000E+00  0.0000E+00  0.0000E+00  0.0000E+00
    -51.918  0.0000E+00  0.0000E+00  0.0000E+00  0.0000E+00
    -51.679  0.3143E-03  0.0000E+00  0.7526E-04  0.0000E+00
    -51.439  0.8086E+02  0.0000E+00  0.1936E+02  0.0000E+00
    -51.200  0.5277E+02  0.0000E+00  0.3200E+02  0.0000E+00
    -50.960  0.0000E+00  0.0000E+00  0.3200E+02  0.0000E+00
    -50.721  0.0000E+00  0.0000E+00  0.3200E+02  0.0000E+00
    -50.481  0.3712E-13  0.0000E+00  0.3200E+02  0.0000E+00
    -50.242  0.7138E+01  0.0000E+00  0.3371E+02  0.0000E+00
    -50.002  0.1660E+03  0.0000E+00  0.7346E+02  0.0000E+00
    -49.763  0.9412E+02  0.0000E+00  0.9600E+02  0.0000E+00
    -49.523  0.0000E+00  0.0000E+00  0.9600E+02  0.0000E+00
    -49.284  0.0000E+00  0.0000E+00  0.9600E+02  0.0000E+00
    -49.044  0.0000E+00  0.0000E+00  0.9600E+02  0.0000E+00
    -48.805  0.0000E+00  0.0000E+00  0.9600E+02  0.0000E+00
    -48.565  0.0000E+00  0.0000E+00  0.9600E+02  0.0000E+00
    -48.326  0.0000E+00  0.0000E+00  0.9600E+02  0.0000E+00
    -48.087  0.0000E+00  0.0000E+00  0.9600E+02  0.0000E+00
    -47.847  0.0000E+00  0.0000E+00  0.9600E+02  0.0000E+00
    -47.608  0.0000E+00  0.0000E+00  0.9600E+02  0.0000E+00
    -47.368  0.0000E+00  0.0000E+00  0.9600E+02  0.0000E+00
    -47.129  0.0000E+00  0.0000E+00  0.9600E+02  0.0000E+00
    -46.889  0.0000E+00  0.1690E+00  0.9600E+02  0.4048E-01
    -46.650  0.0000E+00  0.1048E+03  0.9600E+02  0.2514E+02
    -46.410  0.0000E+00  0.1040E+03  0.9600E+02  0.5004E+02
    -46.171  0.0000E+00  0.1916E+03  0.9600E+02  0.9591E+02
    -45.931  0.0000E+00  0.3586E+00  0.9600E+02  0.9600E+02
    -45.692  0.0000E+00  0.0000E+00  0.9600E+02  0.9600E+02
    -45.452  0.0000E+00  0.0000E+00  0.9600E+02  0.9600E+02
    -45.213  0.0000E+00  0.0000E+00  0.9600E+02  0.9600E+02
    -44.973  0.0000E+00  0.0000E+00  0.9600E+02  0.9600E+02
    -44.734  0.0000E+00  0.0000E+00  0.9600E+02  0.9600E+02
    -44.495  0.0000E+00  0.0000E+00  0.9600E+02  0.9600E+02
    -44.255  0.0000E+00  0.0000E+00  0.9600E+02  0.9600E+02
    -44.016  0.0000E+00  0.0000E+00  0.9600E+02  0.9600E+02
    -43.776  0.0000E+00  0.0000E+00  0.9600E+02  0.9600E+02
    -43.537  0.0000E+00  0.0000E+00  0.9600E+02  0.9600E+02
    -43.297  0.0000E+00  0.0000E+00  0.9600E+02  0.9600E+02
    -43.058  0.0000E+00  0.0000E+00  0.9600E+02  0.9600E+02
    -42.818  0.0000E+00  0.0000E+00  0.9600E+02  0.9600E+02
    -42.579  0.0000E+00  0.0000E+00  0.9600E+02  0.9600E+02
    -42.339  0.0000E+00  0.0000E+00  0.9600E+02  0.9600E+02
    -42.100  0.0000E+00  0.0000E+00  0.9600E+02  0.9600E+02
    -41.860  0.0000E+00  0.0000E+00  0.9600E+02  0.9600E+02
    -41.621  0.0000E+00  0.0000E+00  0.9600E+02  0.9600E+02
    -41.381  0.0000E+00  0.0000E+00  0.9600E+02  0.9600E+02
    -41.142  0.0000E+00  0.0000E+00  0.9600E+02  0.9600E+02
    -40.903  0.0000E+00  0.0000E+00  0.9600E+02  0.9600E+02
    -40.663  0.0000E+00  0.0000E+00  0.9600E+02  0.9600E+02
    -40.424  0.3378E+01  0.2964E+01  0.9681E+02  0.9671E+02
    -40.184  0.1780E+03  0.1804E+03  0.1394E+03  0.1399E+03
    -39.945  0.8588E+02  0.8386E+02  0.1600E+03  0.1600E+03
    -39.705  0.0000E+00  0.0000E+00  0.1600E+03  0.1600E+03
    -39.466  0.0000E+00  0.0000E+00  0.1600E+03  0.1600E+03
    -39.226  0.0000E+00  0.0000E+00  0.1600E+03  0.1600E+03
    -38.987  0.0000E+00  0.0000E+00  0.1600E+03  0.1600E+03
    -38.747  0.0000E+00  0.0000E+00  0.1600E+03  0.1600E+03
    -38.508  0.0000E+00  0.0000E+00  0.1600E+03  0.1600E+03
    -38.268  0.0000E+00  0.0000E+00  0.1600E+03  0.1600E+03
    -38.029  0.0000E+00  0.0000E+00  0.1600E+03  0.1600E+03
    -37.789  0.0000E+00  0.0000E+00  0.1600E+03  0.1600E+03
    -37.550  0.0000E+00  0.0000E+00  0.1600E+03  0.1600E+03
    -37.311  0.0000E+00  0.0000E+00  0.1600E+03  0.1600E+03
    -37.071  0.0000E+00  0.0000E+00  0.1600E+03  0.1600E+03
    -36.832  0.0000E+00  0.0000E+00  0.1600E+03  0.1600E+03
    -36.592  0.0000E+00  0.0000E+00  0.1600E+03  0.1600E+03
    -36.353  0.0000E+00  0.0000E+00  0.1600E+03  0.1600E+03
    -36.113  0.0000E+00  0.0000E+00  0.1600E+03  0.1600E+03
    -35.874  0.0000E+00  0.0000E+00  0.1600E+03  0.1600E+03
    -35.634  0.0000E+00  0.0000E+00  0.1600E+03  0.1600E+03
    -35.395  0.0000E+00  0.0000E+00  0.1600E+03  0.1600E+03
    -35.155  0.0000E+00  0.0000E+00  0.1600E+03  0.1600E+03
    -34.916  0.0000E+00  0.0000E+00  0.1600E+03  0.1600E+03
    -34.676  0.0000E+00  0.0000E+00  0.1600E+03  0.1600E+03
    -34.437  0.0000E+00  0.0000E+00  0.1600E+03  0.1600E+03
    -34.197  0.0000E+00  0.0000E+00  0.1600E+03  0.1600E+03
    -33.958  0.0000E+00  0.0000E+00  0.1600E+03  0.1600E+03
    -33.719  0.0000E+00  0.0000E+00  0.1600E+03  0.1600E+03
    -33.479  0.0000E+00  0.0000E+00  0.1600E+03  0.1600E+03
    -33.240  0.0000E+00  0.0000E+00  0.1600E+03  0.1600E+03
    -33.000  0.0000E+00  0.0000E+00  0.1600E+03  0.1600E+03
    -32.761  0.0000E+00  0.0000E+00  0.1600E+03  0.1600E+03
    -32.521  0.0000E+00  0.0000E+00  0.1600E+03  0.1600E+03
    -32.282  0.0000E+00  0.0000E+00  0.1600E+03  0.1600E+03
    -32.042  0.0000E+00  0.0000E+00  0.1600E+03  0.1600E+03
    -31.803  0.0000E+00  0.0000E+00  0.1600E+03  0.1600E+03
    -31.563  0.0000E+00  0.0000E+00  0.1600E+03  0.1600E+03
    -31.324  0.0000E+00  0.0000E+00  0.1600E+03  0.1600E+03
    -31.084  0.0000E+00  0.0000E+00  0.1600E+03  0.1600E+03
    -30.845  0.0000E+00  0.0000E+00  0.1600E+03  0.1600E+03
    -30.605  0.0000E+00  0.0000E+00  0.1600E+03  0.1600E+03
    -30.366  0.0000E+00  0.0000E+00  0.1600E+03  0.1600E+03
    -30.127  0.0000E+00  0.0000E+00  0.1600E+03  0.1600E+03
    -29.887  0.0000E+00  0.0000E+00  0.1600E+03  0.1600E+03
    -29.648  0.0000E+00  0.0000E+00  0.1600E+03  0.1600E+03
    -29.408  0.0000E+00  0.0000E+00  0.1600E+03  0.1600E+03
    -29.169  0.0000E+00  0.0000E+00  0.1600E+03  0.1600E+03
    -28.929  0.0000E+00  0.0000E+00  0.1600E+03  0.1600E+03
    -28.690  0.0000E+00  0.0000E+00  0.1600E+03  0.1600E+03
    -28.450  0.0000E+00  0.0000E+00  0.1600E+03  0.1600E+03
    -28.211  0.0000E+00  0.0000E+00  0.1600E+03  0.1600E+03
    -27.971  0.0000E+00  0.0000E+00  0.1600E+03  0.1600E+03
    -27.732  0.0000E+00  0.0000E+00  0.1600E+03  0.1600E+03
    -27.492  0.0000E+00  0.0000E+00  0.1600E+03  0.1600E+03
    -27.253  0.0000E+00  0.0000E+00  0.1600E+03  0.1600E+03
    -27.013  0.0000E+00  0.0000E+00  0.1600E+03  0.1600E+03
    -26.774  0.0000E+00  0.0000E+00  0.1600E+03  0.1600E+03
    -26.535  0.0000E+00  0.0000E+00  0.1600E+03  0.1600E+03
    -26.295  0.0000E+00  0.0000E+00  0.1600E+03  0.1600E+03
    -26.056  0.0000E+00  0.0000E+00  0.1600E+03  0.1600E+03
    -25.816  0.0000E+00  0.0000E+00  0.1600E+03  0.1600E+03
    -25.577  0.0000E+00  0.0000E+00  0.1600E+03  0.1600E+03
    -25.337  0.0000E+00  0.0000E+00  0.1600E+03  0.1600E+03
    -25.098  0.0000E+00  0.0000E+00  0.1600E+03  0.1600E+03
    -24.858  0.0000E+00  0.0000E+00  0.1600E+03  0.1600E+03
    -24.619  0.0000E+00  0.0000E+00  0.1600E+03  0.1600E+03
    -24.379  0.0000E+00  0.0000E+00  0.1600E+03  0.1600E+03
    -24.140  0.0000E+00  0.0000E+00  0.1600E+03  0.1600E+03
    -23.900  0.0000E+00  0.0000E+00  0.1600E+03  0.1600E+03
    -23.661  0.0000E+00  0.0000E+00  0.1600E+03  0.1600E+03
    -23.421  0.0000E+00  0.0000E+00  0.1600E+03  0.1600E+03
    -23.182  0.0000E+00  0.0000E+00  0.1600E+03  0.1600E+03
    -22.943  0.0000E+00  0.0000E+00  0.1600E+03  0.1600E+03
    -22.703  0.0000E+00  0.0000E+00  0.1600E+03  0.1600E+03
    -22.464  0.0000E+00  0.0000E+00  0.1600E+03  0.1600E+03
    -22.224  0.0000E+00  0.0000E+00  0.1600E+03  0.1600E+03
    -21.985  0.0000E+00  0.0000E+00  0.1600E+03  0.1600E+03
    -21.745  0.0000E+00  0.0000E+00  0.1600E+03  0.1600E+03
    -21.506  0.0000E+00  0.0000E+00  0.1600E+03  0.1600E+03
    -21.266  0.0000E+00  0.0000E+00  0.1600E+03  0.1600E+03
    -21.027  0.0000E+00  0.0000E+00  0.1600E+03  0.1600E+03
    -20.787  0.0000E+00  0.0000E+00  0.1600E+03  0.1600E+03
    -20.548  0.0000E+00  0.0000E+00  0.1600E+03  0.1600E+03
    -20.308  0.0000E+00  0.0000E+00  0.1600E+03  0.1600E+03
    -20.069  0.0000E+00  0.0000E+00  0.1600E+03  0.1600E+03
    -19.829  0.0000E+00  0.0000E+00  0.1600E+03  0.1600E+03
    -19.590  0.0000E+00  0.0000E+00  0.1600E+03  0.1600E+03
    -19.351  0.0000E+00  0.0000E+00  0.1600E+03  0.1600E+03
    -19.111  0.0000E+00  0.0000E+00  0.1600E+03  0.1600E+03
    -18.872  0.0000E+00  0.0000E+00  0.1600E+03  0.1600E+03
    -18.632  0.0000E+00  0.0000E+00  0.1600E+03  0.1600E+03
    -18.393  0.0000E+00  0.0000E+00  0.1600E+03  0.1600E+03
    -18.153  0.0000E+00  0.0000E+00  0.1600E+03  0.1600E+03
    -17.914  0.0000E+00  0.0000E+00  0.1600E+03  0.1600E+03
    -17.674  0.0000E+00  0.0000E+00  0.1600E+03  0.1600E+03
    -17.435  0.0000E+00  0.0000E+00  0.1600E+03  0.1600E+03
    -17.195  0.0000E+00  0.0000E+00  0.1600E+03  0.1600E+03
    -16.956  0.0000E+00  0.0000E+00  0.1600E+03  0.1600E+03
    -16.716  0.0000E+00  0.0000E+00  0.1600E+03  0.1600E+03
    -16.477  0.0000E+00  0.0000E+00  0.1600E+03  0.1600E+03
    -16.237  0.0000E+00  0.0000E+00  0.1600E+03  0.1600E+03
    -15.998  0.0000E+00  0.0000E+00  0.1600E+03  0.1600E+03
    -15.759  0.0000E+00  0.0000E+00  0.1600E+03  0.1600E+03
    -15.519  0.0000E+00  0.0000E+00  0.1600E+03  0.1600E+03
    -15.280  0.0000E+00  0.0000E+00  0.1600E+03  0.1600E+03
    -15.040  0.0000E+00  0.0000E+00  0.1600E+03  0.1600E+03
    -14.801  0.0000E+00  0.0000E+00  0.1600E+03  0.1600E+03
    -14.561  0.0000E+00  0.0000E+00  0.1600E+03  0.1600E+03
    -14.322  0.0000E+00  0.0000E+00  0.1600E+03  0.1600E+03
    -14.082  0.0000E+00  0.0000E+00  0.1600E+03  0.1600E+03
    -13.843  0.0000E+00  0.0000E+00  0.1600E+03  0.1600E+03
    -13.603  0.1682E-01  0.0000E+00  0.1600E+03  0.1600E+03
    -13.364  0.5264E+02  0.1737E-05  0.1726E+03  0.1600E+03
    -13.124  0.7228E+02  0.2841E+02  0.1899E+03  0.1668E+03
    -12.885  0.8692E+01  0.1003E+03  0.1920E+03  0.1908E+03
    -12.645  0.0000E+00  0.4958E+01  0.1920E+03  0.1920E+03
    -12.406  0.0000E+00  0.0000E+00  0.1920E+03  0.1920E+03
    -12.167  0.0000E+00  0.0000E+00  0.1920E+03  0.1920E+03
    -11.927  0.0000E+00  0.0000E+00  0.1920E+03  0.1920E+03
    -11.688  0.0000E+00  0.0000E+00  0.1920E+03  0.1920E+03
    -11.448  0.0000E+00  0.0000E+00  0.1920E+03  0.1920E+03
    -11.209  0.0000E+00  0.0000E+00  0.1920E+03  0.1920E+03
    -10.969  0.0000E+00  0.0000E+00  0.1920E+03  0.1920E+03
    -10.730  0.0000E+00  0.0000E+00  0.1920E+03  0.1920E+03
    -10.490  0.0000E+00  0.0000E+00  0.1920E+03  0.1920E+03
    -10.251  0.0000E+00  0.0000E+00  0.1920E+03  0.1920E+03
    -10.011  0.0000E+00  0.0000E+00  0.1920E+03  0.1920E+03
     -9.772  0.0000E+00  0.0000E+00  0.1920E+03  0.1920E+03
     -9.532  0.0000E+00  0.0000E+00  0.1920E+03  0.1920E+03
     -9.293  0.0000E+00  0.0000E+00  0.1920E+03  0.1920E+03
     -9.053  0.0000E+00  0.0000E+00  0.1920E+03  0.1920E+03
     -8.814  0.0000E+00  0.0000E+00  0.1920E+03  0.1920E+03
     -8.575  0.0000E+00  0.0000E+00  0.1920E+03  0.1920E+03
     -8.335  0.0000E+00  0.0000E+00  0.1920E+03  0.1920E+03
     -8.096  0.0000E+00  0.0000E+00  0.1920E+03  0.1920E+03
     -7.856  0.3526E-10  0.0000E+00  0.1920E+03  0.1920E+03
     -7.617  0.1489E+01  0.3489E-07  0.1924E+03  0.1920E+03
     -7.377  0.4657E+02  0.7467E+01  0.2035E+03  0.1938E+03
     -7.138  0.6534E+02  0.6064E+02  0.2192E+03  0.2083E+03
     -6.898  0.2023E+02  0.5452E+02  0.2240E+03  0.2214E+03
     -6.659  0.1085E-01  0.1099E+02  0.2240E+03  0.2240E+03
     -6.419  0.0000E+00  0.4048E-02  0.2240E+03  0.2240E+03
     -6.180  0.0000E+00  0.0000E+00  0.2240E+03  0.2240E+03
     -5.940  0.0000E+00  0.0000E+00  0.2240E+03  0.2240E+03
     -5.701  0.0000E+00  0.0000E+00  0.2240E+03  0.2240E+03
     -5.461  0.0000E+00  0.0000E+00  0.2240E+03  0.2240E+03
     -5.222  0.0000E+00  0.0000E+00  0.2240E+03  0.2240E+03
     -4.983  0.0000E+00  0.0000E+00  0.2240E+03  0.2240E+03
     -4.743  0.0000E+00  0.0000E+00  0.2240E+03  0.2240E+03
     -4.504  0.0000E+00  0.0000E+00  0.2240E+03  0.2240E+03
     -4.264  0.0000E+00  0.0000E+00  0.2240E+03  0.2240E+03
     -4.025  0.0000E+00  0.0000E+00  0.2240E+03  0.2240E+03
     -3.785  0.0000E+00  0.0000E+00  0.2240E+03  0.2240E+03
     -3.546  0.0000E+00  0.0000E+00  0.2240E+03  0.2240E+03
     -3.306  0.0000E+00  0.0000E+00  0.2240E+03  0.2240E+03
     -3.067  0.0000E+00  0.0000E+00  0.2240E+03  0.2240E+03
     -2.827  0.3606E-15  0.0000E+00  0.2240E+03  0.2240E+03
     -2.588  0.3768E+00  0.0000E+00  0.2241E+03  0.2240E+03
     -2.348  0.3084E+02  0.0000E+00  0.2315E+03  0.2240E+03
     -2.109  0.1153E+02  0.0000E+00  0.2342E+03  0.2240E+03
     -1.869  0.1293E+02  0.0000E+00  0.2373E+03  0.2240E+03
     -1.630  0.1132E+02  0.0000E+00  0.2400E+03  0.2240E+03
     -1.391  0.1558E+02  0.0000E+00  0.2438E+03  0.2240E+03
     -1.151  0.6272E+02  0.1963E-05  0.2588E+03  0.2240E+03
     -0.912  0.7646E+02  0.3328E+01  0.2771E+03  0.2248E+03
     -0.672  0.6756E+02  0.3284E+02  0.2933E+03  0.2327E+03
     -0.433  0.7775E+02  0.1892E+02  0.3119E+03  0.2372E+03
     -0.193  0.1060E+03  0.1910E+02  0.3373E+03  0.2418E+03
      0.046  0.7876E+02  0.1220E+02  0.3561E+03  0.2447E+03
      0.286  0.5349E+02  0.3167E+02  0.3690E+03  0.2523E+03
      0.525  0.4754E+02  0.8125E+02  0.3803E+03  0.2717E+03
      0.765  0.4629E+02  0.6835E+02  0.3914E+03  0.2881E+03
      1.004  0.4659E+02  0.6982E+02  0.4026E+03  0.3048E+03
      1.244  0.7664E+02  0.6358E+02  0.4209E+03  0.3200E+03
      1.483  0.8758E+02  0.2169E+02  0.4419E+03  0.3252E+03
      1.723  0.5841E+02  0.5067E+02  0.4559E+03  0.3374E+03
      1.962  0.4008E+02  0.5157E+02  0.4655E+03  0.3497E+03
      2.201  0.4711E+02  0.3063E+02  0.4768E+03  0.3571E+03
      2.441  0.4172E+02  0.3898E+02  0.4868E+03  0.3664E+03
      2.680  0.5329E+02  0.6453E+02  0.4995E+03  0.3818E+03
      2.920  0.5380E+02  0.7223E+02  0.5124E+03  0.3991E+03
      3.159  0.5660E+02  0.6012E+02  0.5260E+03  0.4135E+03
      3.399  0.5309E+02  0.1614E+02  0.5387E+03  0.4174E+03
      3.638  0.5330E+02  0.3605E+02  0.5514E+03  0.4260E+03
      3.878  0.3997E+02  0.5938E+02  0.5610E+03  0.4403E+03
      4.117  0.3552E+02  0.3232E+02  0.5695E+03  0.4480E+03
      4.357  0.1928E+02  0.4628E-01  0.5741E+03  0.4480E+03
      4.596  0.7467E+01  0.0000E+00  0.5759E+03  0.4480E+03
      4.836  0.3274E+00  0.0000E+00  0.5760E+03  0.4480E+03
      5.075  0.0000E+00  0.0000E+00  0.5760E+03  0.4480E+03
      5.315  0.0000E+00  0.0000E+00  0.5760E+03  0.4480E+03
      5.554  0.0000E+00  0.0000E+00  0.5760E+03  0.4480E+03
      5.793  0.0000E+00  0.0000E+00  0.5760E+03  0.4480E+03
      6.033  0.0000E+00  0.0000E+00  0.5760E+03  0.4480E+03
      6.272  0.0000E+00  0.1288E-15  0.5760E+03  0.4480E+03
      6.512  0.0000E+00  0.6430E-01  0.5760E+03  0.4480E+03
      6.751  0.0000E+00  0.2412E+02  0.5760E+03  0.4538E+03
      6.991  0.6247E-06  0.7763E+02  0.5760E+03  0.4724E+03
      7.230  0.2290E+00  0.6329E+02  0.5761E+03  0.4875E+03
      7.470  0.1828E+00  0.6376E+02  0.5761E+03  0.5028E+03
      7.709  0.1388E+01  0.6310E+02  0.5764E+03  0.5179E+03
      7.949  0.3002E+01  0.9491E+02  0.5771E+03  0.5406E+03
      8.188  0.6532E+01  0.7288E+02  0.5787E+03  0.5581E+03
      8.428  0.9492E+01  0.4925E+02  0.5810E+03  0.5699E+03
      8.667  0.1869E+02  0.2510E+02  0.5855E+03  0.5759E+03
      8.907  0.2337E+02  0.7272E+01  0.5911E+03  0.5776E+03
      9.146  0.3138E+02  0.8593E+01  0.5986E+03  0.5797E+03
      9.385  0.2849E+02  0.1779E+02  0.6054E+03  0.5840E+03
      9.625  0.2981E+02  0.2679E+02  0.6125E+03  0.5904E+03
      9.864  0.2622E+02  0.3190E+02  0.6188E+03  0.5980E+03
     10.104  0.1757E+02  0.3784E+02  0.6230E+03  0.6071E+03
     10.343  0.2592E+02  0.3351E+02  0.6292E+03  0.6151E+03
     10.583  0.3625E+02  0.2857E+02  0.6379E+03  0.6219E+03
     10.822  0.4024E+02  0.3306E+02  0.6475E+03  0.6299E+03
     11.062  0.3299E+02  0.2824E+02  0.6554E+03  0.6366E+03
     11.301  0.4926E+02  0.2601E+02  0.6672E+03  0.6428E+03
     11.541  0.4115E+02  0.2918E+02  0.6771E+03  0.6498E+03
     11.780  0.4151E+02  0.5090E+02  0.6870E+03  0.6620E+03
     12.020  0.3403E+02  0.5025E+02  0.6952E+03  0.6741E+03
     12.259  0.3280E+02  0.5609E+02  0.7030E+03  0.6875E+03
     12.499  0.3251E+02  0.3155E+02  0.7108E+03  0.6950E+03
     12.738  0.3681E+02  0.3267E+02  0.7196E+03  0.7029E+03
     12.977  0.3456E+02  0.3215E+02  0.7279E+03  0.7106E+03
     13.217  0.1564E+02  0.3812E+02  0.7317E+03  0.7197E+03
     13.456  0.1046E+01  0.3380E+02  0.7319E+03  0.7278E+03
     13.696  0.3613E+00  0.1681E+02  0.7320E+03  0.7318E+03
     13.935  0.0000E+00  0.7680E+00  0.7320E+03  0.7320E+03
     14.175  0.0000E+00  0.3388E-05  0.7320E+03  0.7320E+03
     14.414  0.0000E+00  0.0000E+00  0.7320E+03  0.7320E+03
     14.654  0.0000E+00  0.0000E+00  0.7320E+03  0.7320E+03
     14.893  0.0000E+00  0.0000E+00  0.7320E+03  0.7320E+03
     15.133  0.0000E+00  0.0000E+00  0.7320E+03  0.7320E+03
     15.372  0.0000E+00  0.0000E+00  0.7320E+03  0.7320E+03
     15.612  0.0000E+00  0.0000E+00  0.7320E+03  0.7320E+03
     15.851  0.0000E+00  0.0000E+00  0.7320E+03  0.7320E+03
     16.091  0.0000E+00  0.0000E+00  0.7320E+03  0.7320E+03
     16.330  0.0000E+00  0.0000E+00  0.7320E+03  0.7320E+03
     16.570  0.0000E+00  0.0000E+00  0.7320E+03  0.7320E+03
     16.809  0.0000E+00  0.0000E+00  0.7320E+03  0.7320E+03
     17.048  0.0000E+00  0.0000E+00  0.7320E+03  0.7320E+03
