 vasp.5.4.4.18Apr17-6-g9f103f2a35 (build Oct 25 2017 14:42:18) complex          
  
 executed on             LinuxIFC date 2021.06.17  00:16:29
 running on   48 total cores
 distrk:  each k-point on   24 cores,    2 groups
 distr:  one band on NCORES_PER_BAND=   6 cores,    4 groups


--------------------------------------------------------------------------------------------------------


 INCAR:
 POTCAR:    PAW_PBE Li_sv 10Sep2004               
 POTCAR:    PAW_PBE Fe_pv 02Aug2007               
 POTCAR:    PAW_PBE S 06Sep2000                   
 POTCAR:    PAW_PBE O 08Apr2002                   

 ----------------------------------------------------------------------------- 
|                                                                             |
|           W    W    AA    RRRRR   N    N  II  N    N   GGGG   !!!           |
|           W    W   A  A   R    R  NN   N  II  NN   N  G    G  !!!           |
|           W    W  A    A  R    R  N N  N  II  N N  N  G       !!!           |
|           W WW W  AAAAAA  RRRRR   N  N N  II  N  N N  G  GGG   !            |
|           WW  WW  A    A  R   R   N   NN  II  N   NN  G    G                |
|           W    W  A    A  R    R  N    N  II  N    N   GGGG   !!!           |
|                                                                             |
|      You have enabled k-point parallelism (KPAR>1).                         |
|      This developmental code was originally  written by Paul Kent at ORNL,  |
|      and carefully double checked in Vienna.                                |
|      GW as well as linear response parallelism added by Martijn Marsman     |
|      and Georg Kresse.                                                      |
|      Carefully verify results versus KPAR=1.                                |
|      Report problems to Paul Kent and Vienna.                               |
|                                                                             |
 ----------------------------------------------------------------------------- 

 POTCAR:    PAW_PBE Li_sv 10Sep2004               
  local pseudopotential read in
  atomic valenz-charges read in
  non local Contribution for L=           0  read in
    real space projection operators read in
  non local Contribution for L=           0  read in
    real space projection operators read in
  non local Contribution for L=           1  read in
    real space projection operators read in
    PAW grid and wavefunctions read in
 
   number of l-projection  operators is LMAX  =           3
   number of lm-projection operators is LMMAX =           5
 
 POTCAR:    PAW_PBE Fe_pv 02Aug2007               
  local pseudopotential read in
  partial core-charges read in
  partial kinetic energy density read in
  atomic valenz-charges read in
  non local Contribution for L=           1  read in
    real space projection operators read in
  non local Contribution for L=           1  read in
    real space projection operators read in
  non local Contribution for L=           2  read in
    real space projection operators read in
  non local Contribution for L=           2  read in
    real space projection operators read in
  non local Contribution for L=           0  read in
    real space projection operators read in
  non local Contribution for L=           0  read in
    real space projection operators read in
    PAW grid and wavefunctions read in
 
   number of l-projection  operators is LMAX  =           6
   number of lm-projection operators is LMMAX =          18
 
 POTCAR:    PAW_PBE S 06Sep2000                   
  local pseudopotential read in
  partial core-charges read in
  partial kinetic energy density read in
  atomic valenz-charges read in
  non local Contribution for L=           0  read in
    real space projection operators read in
  non local Contribution for L=           0  read in
    real space projection operators read in
  non local Contribution for L=           1  read in
    real space projection operators read in
  non local Contribution for L=           1  read in
    real space projection operators read in
    PAW grid and wavefunctions read in
 
   number of l-projection  operators is LMAX  =           4
   number of lm-projection operators is LMMAX =           8
 
 POTCAR:    PAW_PBE O 08Apr2002                   
  local pseudopotential read in
  partial core-charges read in
  partial kinetic energy density read in
  kinetic energy density of atom read in
  atomic valenz-charges read in
  non local Contribution for L=           0  read in
    real space projection operators read in
  non local Contribution for L=           0  read in
    real space projection operators read in
  non local Contribution for L=           1  read in
    real space projection operators read in
  non local Contribution for L=           1  read in
    real space projection operators read in
    PAW grid and wavefunctions read in
 
   number of l-projection  operators is LMAX  =           4
   number of lm-projection operators is LMMAX =           8
 

 ----------------------------------------------------------------------------- 
|                                                                             |
|  ADVICE TO THIS USER RUNNING 'VASP/VAMP'   (HEAR YOUR MASTER'S VOICE ...):  |
|                                                                             |
|      You have a (more or less) 'large supercell' and for larger cells       |
|      it might be more efficient to use real space projection opertators     |
|      So try LREAL= Auto  in the INCAR   file.                               |
|      Mind:          For very  accurate calculation you might also keep the  |
|      reciprocal projection scheme          (i.e. LREAL=.FALSE.)             |
|                                                                             |
 ----------------------------------------------------------------------------- 

  PAW_PBE Li_sv 10Sep2004               :
 energy of atom  1       EATOM= -202.7858
 kinetic energy error for atom=    0.0072 (will be added to EATOM!!)
  PAW_PBE Fe_pv 02Aug2007               :
 energy of atom  2       EATOM=-2457.4239
 kinetic energy error for atom=    0.0041 (will be added to EATOM!!)
  PAW_PBE S 06Sep2000                   :
 energy of atom  3       EATOM= -276.8230
 kinetic energy error for atom=    0.0008 (will be added to EATOM!!)
  PAW_PBE O 08Apr2002                   :
 energy of atom  4       EATOM= -432.3788
 kinetic energy error for atom=    0.0129 (will be added to EATOM!!)
 
 
 POSCAR: # Compound: Li64Fe32S32O32. Old comment:
  positions in direct lattice
  No initial velocities read in
 exchange correlation table for  LEXCH =        8
   RHO(1)=    0.500       N(1)  =     2000
   RHO(2)=  100.500       N(2)  =     4000
 


--------------------------------------------------------------------------------------------------------


 ion  position               nearest neighbor table
   1  0.125  0.276  0.475- 149 1.96 133 1.97  97 2.54 105 2.54
   2  0.625  0.276  0.475- 150 1.96 134 1.97  98 2.54 106 2.54
   3  0.125  0.776  0.475- 151 1.96 135 1.97  99 2.54 107 2.54
   4  0.625  0.776  0.475- 152 1.96 136 1.97 100 2.54 108 2.54
   5  0.125  0.276  0.975- 129 1.96 145 1.96 101 2.54 109 2.54
   6  0.625  0.276  0.975- 146 1.96 130 1.97 102 2.54 110 2.54
   7  0.125  0.776  0.975- 147 1.96 131 1.97 103 2.54 111 2.54
   8  0.625  0.776  0.975- 148 1.96 132 1.97 104 2.54 112 2.54
   9  0.125  0.474  0.275- 155 1.96 139 1.97 105 2.54  97 2.54
  10  0.625  0.474  0.275- 156 1.96 140 1.97 106 2.54  98 2.54
  11  0.125  0.974  0.275- 153 1.96 137 1.97 107 2.54  99 2.54
  12  0.625  0.974  0.275- 154 1.96 138 1.97 108 2.54 100 2.54
  13  0.125  0.474  0.775- 159 1.96 143 1.97 109 2.54 101 2.54
  14  0.625  0.474  0.775- 160 1.96 144 1.97 110 2.54 102 2.54
  15  0.125  0.974  0.775- 157 1.96 141 1.97 111 2.54 103 2.54
  16  0.625  0.974  0.775- 158 1.96 142 1.97 112 2.54 104 2.54
  17  0.375  0.224  0.025- 145 1.96 130 1.97 113 2.54 121 2.54
  18  0.875  0.224  0.025- 146 1.96 129 1.98 114 2.54 122 2.54
  19  0.375  0.724  0.025- 147 1.96 132 1.97 115 2.54 123 2.54
  20  0.875  0.724  0.025- 148 1.96 131 1.97 116 2.54 124 2.54
  21  0.375  0.224  0.525- 149 1.96 134 1.97 117 2.54 125 2.54
  22  0.875  0.224  0.525- 150 1.96 133 1.97 118 2.54 126 2.54
  23  0.375  0.724  0.525- 151 1.96 136 1.97 119 2.54 127 2.54
  24  0.875  0.724  0.525- 152 1.96 135 1.97 120 2.54 128 2.54
  25  0.375  0.026  0.225- 153 1.96 138 1.97 121 2.54 113 2.54
  26  0.875  0.026  0.225- 154 1.96 137 1.97 122 2.54 114 2.54
  27  0.375  0.526  0.225- 155 1.96 140 1.97 123 2.54 115 2.54
  28  0.875  0.526  0.225- 156 1.96 139 1.97 124 2.54 116 2.54
  29  0.375  0.026  0.725- 157 1.96 142 1.97 125 2.54 117 2.54
  30  0.875  0.026  0.725- 158 1.96 141 1.97 126 2.54 118 2.54
  31  0.375  0.526  0.725- 159 1.96 144 1.97 127 2.54 119 2.54
  32  0.875  0.526  0.725- 160 1.96 143 1.97 128 2.54 120 2.54
  33  0.276  0.375  0.375- 149 2.01 155 2.01 119 2.52 121 2.52
  34  0.776  0.375  0.375- 150 2.01 156 2.01 120 2.52 122 2.52
  35  0.276  0.875  0.375- 151 2.01 153 2.01 117 2.52 123 2.52
  36  0.776  0.875  0.375- 152 2.01 154 2.01 118 2.52 124 2.52
  37  0.276  0.375  0.875- 145 2.01 159 2.01 115 2.52 125 2.52
  38  0.776  0.375  0.875- 146 2.01 160 2.01 116 2.52 126 2.52
  39  0.276  0.875  0.875- 147 2.01 157 2.01 113 2.52 127 2.52
  40  0.776  0.875  0.875- 148 2.01 158 2.01 114 2.52 128 2.52
  41  0.224  0.125  0.125- 145 2.01 153 2.01 103 2.52 105 2.52
  42  0.724  0.125  0.125- 146 2.01 154 2.01 104 2.52 106 2.52
  43  0.224  0.625  0.125- 147 2.01 155 2.01 101 2.52 107 2.52
  44  0.724  0.625  0.125- 148 2.01 156 2.01 102 2.52 108 2.52
  45  0.224  0.125  0.625- 149 2.01 157 2.01  99 2.52 109 2.52
  46  0.724  0.125  0.625- 150 2.01 158 2.01 100 2.52 110 2.52
  47  0.224  0.625  0.625- 151 2.01 159 2.01  97 2.52 111 2.52
  48  0.724  0.625  0.625- 152 2.01 160 2.01  98 2.52 112 2.52
  49  0.500  0.375  0.125- 130 2.00 140 2.00
  50  1.000  0.375  0.125- 139 2.00 129 2.00
  51  0.500  0.875  0.125- 132 2.00 138 2.00
  52  1.000  0.875  0.125- 131 2.00 137 2.00
  53  0.500  0.375  0.625- 134 2.00 144 2.00
  54  1.000  0.375  0.625- 133 2.00 143 2.00
  55  0.500  0.875  0.625- 136 2.00 142 2.00
  56  1.000  0.875  0.625- 135 2.00 141 2.00
  57  0.000  0.125  0.375- 133 2.00 137 2.00
  58  0.500  0.125  0.375- 134 2.00 138 2.00
  59  0.000  0.625  0.375- 135 2.00 139 2.00
  60  0.500  0.625  0.375- 136 2.00 140 2.00
  61  0.000  0.125  0.875- 141 2.00 129 2.00
  62  0.500  0.125  0.875- 130 2.00 142 2.00
  63  0.000  0.625  0.875- 131 2.00 143 2.00
  64  0.500  0.625  0.875- 132 2.00 144 2.00
  65  0.479  0.375  0.375- 134 2.00 140 2.00 119 2.57 121 2.57
  66  0.979  0.375  0.375- 133 2.00 139 2.00 120 2.57 122 2.57
  67  0.479  0.875  0.375- 136 2.00 138 2.00 117 2.57 123 2.57
  68  0.979  0.875  0.375- 135 2.00 137 2.00 118 2.57 124 2.57
  69  0.479  0.375  0.875- 130 2.00 144 2.00 115 2.57 125 2.57
  70  0.979  0.375  0.875- 143 2.00 129 2.00 116 2.57 126 2.57
  71  0.479  0.875  0.875- 132 2.00 142 2.00 113 2.57 127 2.57
  72  0.979  0.875  0.875- 131 2.00 141 2.00 114 2.57 128 2.57
  73  0.021  0.125  0.125- 129 2.00 137 2.00 103 2.57 105 2.57
  74  0.521  0.125  0.125- 130 2.00 138 2.00 104 2.57 106 2.57
  75  0.021  0.625  0.125- 131 2.00 139 2.00 101 2.57 107 2.57
  76  0.521  0.625  0.125- 132 2.00 140 2.00 102 2.57 108 2.57
  77  0.021  0.125  0.625- 133 2.00 141 2.00  99 2.57 109 2.57
  78  0.521  0.125  0.625- 134 2.00 142 2.00 100 2.57 110 2.57
  79  0.021  0.625  0.625- 135 2.00 143 2.00  97 2.57 111 2.57
  80  0.521  0.625  0.625- 136 2.00 144 2.00  98 2.57 112 2.57
  81  0.250  0.375  0.125- 145 2.00 155 2.00 115 2.75 121 2.75 101 2.75 105 2.75
  82  0.750  0.375  0.125- 146 2.00 156 2.00 116 2.75 122 2.75 102 2.75 106 2.75
  83  0.250  0.875  0.125- 147 2.00 153 2.00 113 2.75 123 2.75 103 2.75 107 2.75
  84  0.750  0.875  0.125- 148 2.00 154 2.00 114 2.75 124 2.75 104 2.75 108 2.75
  85  0.250  0.375  0.625- 149 2.00 159 2.00 119 2.75 125 2.75  97 2.75 109 2.75
  86  0.750  0.375  0.625- 150 2.00 160 2.00 120 2.75 126 2.75  98 2.75 110 2.75
  87  0.250  0.875  0.625- 151 2.00 157 2.00 117 2.75 127 2.75  99 2.75 111 2.75
  88  0.750  0.875  0.625- 152 2.00 158 2.00 118 2.75 128 2.75 100 2.75 112 2.75
  89  0.250  0.125  0.375- 149 2.00 153 2.00  99 2.75 105 2.75 117 2.75 121 2.75
  90  0.750  0.125  0.375- 150 2.00 154 2.00 100 2.75 106 2.75 118 2.75 122 2.75
  91  0.250  0.625  0.375- 151 2.00 155 2.00  97 2.75 107 2.75 119 2.75 123 2.75
  92  0.750  0.625  0.375- 152 2.00 156 2.00  98 2.75 108 2.75 120 2.75 124 2.75
  93  0.250  0.125  0.875- 145 2.00 157 2.00 103 2.75 109 2.75 113 2.75 125 2.75
  94  0.750  0.125  0.875- 146 2.00 158 2.00 104 2.75 110 2.75 114 2.75 126 2.75
  95  0.250  0.625  0.875- 147 2.00 159 2.00 101 2.75 111 2.75 115 2.75 127 2.75
  96  0.750  0.625  0.875- 148 2.00 160 2.00 102 2.75 112 2.75 116 2.75 128 2.75
  97  0.125  0.500  0.500-  47 2.52   1 2.54   9 2.54  79 2.57  91 2.75  85 2.75
  98  0.625  0.500  0.500-  48 2.52   2 2.54  10 2.54  80 2.57  92 2.75  86 2.75
  99  0.125  1.000  0.500-  45 2.52   3 2.54  11 2.54  77 2.57  89 2.75  87 2.75
 100  0.625  1.000  0.500-  46 2.52   4 2.54  12 2.54  78 2.57  90 2.75  88 2.75
 101  0.125  0.500  1.000-  43 2.52   5 2.54  13 2.54  75 2.57  95 2.75  81 2.75
 102  0.625  0.500  1.000-  44 2.52   6 2.54  14 2.54  76 2.57  96 2.75  82 2.75
 103  0.125  1.000  1.000-  41 2.52   7 2.54  15 2.54  73 2.57  93 2.75  83 2.75
 104  0.625  1.000  1.000-  42 2.52   8 2.54  16 2.54  74 2.57  94 2.75  84 2.75
 105  0.125  0.250  0.250-  41 2.52   9 2.54   1 2.54  73 2.57  89 2.75  81 2.75
 106  0.625  0.250  0.250-  42 2.52  10 2.54   2 2.54  74 2.57  90 2.75  82 2.75
 107  0.125  0.750  0.250-  43 2.52  11 2.54   3 2.54  75 2.57  91 2.75  83 2.75
 108  0.625  0.750  0.250-  44 2.52  12 2.54   4 2.54  76 2.57  92 2.75  84 2.75
 109  0.125  0.250  0.750-  45 2.52  13 2.54   5 2.54  77 2.57  93 2.75  85 2.75
 110  0.625  0.250  0.750-  46 2.52  14 2.54   6 2.54  78 2.57  94 2.75  86 2.75
 111  0.125  0.750  0.750-  47 2.52  15 2.54   7 2.54  79 2.57  95 2.75  87 2.75
 112  0.625  0.750  0.750-  48 2.52  16 2.54   8 2.54  80 2.57  96 2.75  88 2.75
 113  0.375  0.000  0.000-  39 2.52  17 2.54  25 2.54  71 2.57  83 2.75  93 2.75
 114  0.875  0.000  0.000-  40 2.52  18 2.54  26 2.54  72 2.57  84 2.75  94 2.75
 115  0.375  0.500  0.000-  37 2.52  19 2.54  27 2.54  69 2.57  81 2.75  95 2.75
 116  0.875  0.500  0.000-  38 2.52  20 2.54  28 2.54  70 2.57  82 2.75  96 2.75
 117  0.375  0.000  0.500-  35 2.52  21 2.54  29 2.54  67 2.57  87 2.75  89 2.75
 118  0.875  0.000  0.500-  36 2.52  22 2.54  30 2.54  68 2.57  88 2.75  90 2.75
 119  0.375  0.500  0.500-  33 2.52  23 2.54  31 2.54  65 2.57  85 2.75  91 2.75
 120  0.875  0.500  0.500-  34 2.52  24 2.54  32 2.54  66 2.57  86 2.75  92 2.75
 121  0.375  0.250  0.250-  33 2.52  25 2.54  17 2.54  65 2.57  81 2.75  89 2.75
 122  0.875  0.250  0.250-  34 2.52  26 2.54  18 2.54  66 2.57  82 2.75  90 2.75
 123  0.375  0.750  0.250-  35 2.52  27 2.54  19 2.54  67 2.57  83 2.75  91 2.75
 124  0.875  0.750  0.250-  36 2.52  28 2.54  20 2.54  68 2.57  84 2.75  92 2.75
 125  0.375  0.250  0.750-  37 2.52  29 2.54  21 2.54  69 2.57  85 2.75  93 2.75
 126  0.875  0.250  0.750-  38 2.52  30 2.54  22 2.54  70 2.57  86 2.75  94 2.75
 127  0.375  0.750  0.750-  39 2.52  31 2.54  23 2.54  71 2.57  87 2.75  95 2.75
 128  0.875  0.750  0.750-  40 2.52  32 2.54  24 2.54  72 2.57  88 2.75  96 2.75
 129  0.001  0.250  0.000-   5 1.96  18 1.98  73 2.00  70 2.00  61 2.00  50 2.00
 130  0.500  0.250  0.000-   6 1.97  17 1.97  69 2.00  74 2.00  49 2.00  62 2.00
 131  0.000  0.750  0.000-   7 1.97  20 1.97  72 2.00  75 2.00  52 2.00  63 2.00
 132  0.500  0.750  0.000-   8 1.97  19 1.97  71 2.00  76 2.00  51 2.00  64 2.00
 133  0.000  0.250  0.500-   1 1.97  22 1.97  66 2.00  77 2.00  54 2.00  57 2.00
 134  0.500  0.250  0.500-   2 1.97  21 1.97  65 2.00  78 2.00  53 2.00  58 2.00
 135  0.000  0.750  0.500-   3 1.97  24 1.97  68 2.00  79 2.00  56 2.00  59 2.00
 136  0.500  0.750  0.500-   4 1.97  23 1.97  67 2.00  80 2.00  55 2.00  60 2.00
 137  0.000  0.000  0.250-  11 1.97  26 1.97  68 2.00  73 2.00  52 2.00  57 2.00
 138  0.500  0.000  0.250-  12 1.97  25 1.97  67 2.00  74 2.00  51 2.00  58 2.00
 139  0.000  0.500  0.250-   9 1.97  28 1.97  66 2.00  75 2.00  50 2.00  59 2.00
 140  0.500  0.500  0.250-  10 1.97  27 1.97  65 2.00  76 2.00  49 2.00  60 2.00
 141  0.000  0.000  0.750-  15 1.97  30 1.97  72 2.00  77 2.00  56 2.00  61 2.00
 142  0.500  0.000  0.750-  16 1.97  29 1.97  71 2.00  78 2.00  55 2.00  62 2.00
 143  0.000  0.500  0.750-  13 1.97  32 1.97  70 2.00  79 2.00  54 2.00  63 2.00
 144  0.500  0.500  0.750-  14 1.97  31 1.97  69 2.00  80 2.00  53 2.00  64 2.00
 145  0.250  0.250  0.000-   5 1.96  17 1.96  81 2.00  93 2.00  37 2.01  41 2.01
 146  0.750  0.250  0.000-   6 1.96  18 1.96  82 2.00  94 2.00  38 2.01  42 2.01
 147  0.250  0.750  0.000-   7 1.96  19 1.96  83 2.00  95 2.00  39 2.01  43 2.01
 148  0.750  0.750  0.000-   8 1.96  20 1.96  84 2.00  96 2.00  40 2.01  44 2.01
 149  0.250  0.250  0.500-   1 1.96  21 1.96  85 2.00  89 2.00  33 2.01  45 2.01
 150  0.750  0.250  0.500-   2 1.96  22 1.96  86 2.00  90 2.00  34 2.01  46 2.01
 151  0.250  0.750  0.500-   3 1.96  23 1.96  87 2.00  91 2.00  35 2.01  47 2.01
 152  0.750  0.750  0.500-   4 1.96  24 1.96  88 2.00  92 2.00  36 2.01  48 2.01
 153  0.250  0.000  0.250-  11 1.96  25 1.96  83 2.00  89 2.00  35 2.01  41 2.01
 154  0.750  0.000  0.250-  12 1.96  26 1.96  84 2.00  90 2.00  36 2.01  42 2.01
 155  0.250  0.500  0.250-   9 1.96  27 1.96  81 2.00  91 2.00  33 2.01  43 2.01
 156  0.750  0.500  0.250-  10 1.96  28 1.96  82 2.00  92 2.00  34 2.01  44 2.01
 157  0.250  0.000  0.750-  15 1.96  29 1.96  87 2.00  93 2.00  39 2.01  45 2.01
 158  0.750  0.000  0.750-  16 1.96  30 1.96  88 2.00  94 2.00  40 2.01  46 2.01
 159  0.250  0.500  0.750-  13 1.96  31 1.96  85 2.00  95 2.00  37 2.01  47 2.01
 160  0.750  0.500  0.750-  14 1.96  32 1.96  86 2.00  96 2.00  38 2.01  48 2.01
 
  LATTYP: Found a simple monoclinic cell.
 ALAT       =    16.0245724362
 B/A-ratio  =     0.9595037360
 C/A-ratio  =     1.5788311284
 COS(beta)  =    -0.9500776273
  
  Lattice vectors:
  
 A1 = (   0.0000000000, -11.3322995400, -11.3298680000)
 A2 = ( -15.3756371200,   0.0000000000,   0.0000000000)
 A3 = (   0.0000000000,  22.5798703800,  11.4124580600)


Analysis of symmetry for initial positions (statically):
=====================================================================
 Subroutine PRICEL returns:
 Original cell was already a primitive cell.
 

 Routine SETGRP: Setting up the symmetry group for a 
 simple monoclinic supercell.


 Subroutine GETGRP returns: Found  1 space group operations
 (whereof  1 operations were pure point group operations)
 out of a pool of  4 trial point group operations.


The static configuration has the point symmetry C_1 .


Analysis of symmetry for dynamics (positions and initial velocities):
=====================================================================
 Subroutine PRICEL returns:
 Original cell was already a primitive cell.
 

 Routine SETGRP: Setting up the symmetry group for a 
 simple monoclinic supercell.


 Subroutine GETGRP returns: Found  1 space group operations
 (whereof  1 operations were pure point group operations)
 out of a pool of  4 trial point group operations.


The dynamic configuration has the point symmetry C_1 .


Analysis of structural, dynamic, and magnetic symmetry:
=====================================================================
 Subroutine PRICEL returns:
 Original cell was already a primitive cell.
 

 Routine SETGRP: Setting up the symmetry group for a 
 simple monoclinic supercell.


 Subroutine GETGRP returns: Found  1 space group operations
 (whereof  1 operations were pure point group operations)
 out of a pool of  4 trial point group operations.


The magnetic configuration has the point symmetry C_1 .


 Subroutine INISYM returns: Found  1 space group operations
 (whereof  1 operations are pure point group operations),
 and found     1 'primitive' translations

 
 
 KPOINTS: # No comment                            

Automatic generation of k-mesh.
Space group operators:
 irot       det(A)        alpha          n_x          n_y          n_z        tau_x        tau_y        tau_z
    1     1.000000     0.000001     1.000000     0.000000     0.000000     0.000000     0.000000     0.000000
 
 Subroutine IBZKPT returns following result:
 ===========================================
 
 Found     10 irreducible k-points:
 
 Following reciprocal coordinates:
            Coordinates               Weight
  0.000000  0.000000  0.000000      1.000000
  0.500000  0.000000  0.000000      1.000000
  0.000000  0.333333 -0.000000      2.000000
  0.500000  0.333333 -0.000000      2.000000
  0.000000 -0.000000  0.333333      2.000000
  0.500000 -0.000000  0.333333      2.000000
  0.000000  0.333333  0.333333      2.000000
  0.500000  0.333333  0.333333      2.000000
  0.000000 -0.333333  0.333333      2.000000
  0.500000 -0.333333  0.333333      2.000000
 
 Following cartesian coordinates:
            Coordinates               Weight
  0.000000  0.000000  0.000000      1.000000
  0.032519  0.000000  0.000000      1.000000
  0.000000  0.029638 -0.000223      2.000000
  0.032519  0.029638 -0.000223      2.000000
  0.000000 -0.000218  0.029638      2.000000
  0.032519 -0.000218  0.029638      2.000000
  0.000000  0.029420  0.029415      2.000000
  0.032519  0.029420  0.029415      2.000000
  0.000000 -0.029855  0.029862      2.000000
  0.032519 -0.029855  0.029862      2.000000
 


--------------------------------------------------------------------------------------------------------




 Dimension of arrays:
   k-points           NKPTS =     10   k-points in BZ     NKDIM =     10   number of bands    NBANDS=    732
   number of dos      NEDOS =    301   number of ions     NIONS =    160
   non local maximal  LDIM  =      6   non local SUM 2l+1 LMDIM =     18
   total plane-waves  NPLWV = ******
   max r-space proj   IRMAX =      1   max aug-charges    IRDMAX= 153046
   dimension x,y,z NGX =   128 NGY =   96 NGZ =   96
   dimension x,y,z NGXF=   256 NGYF=  192 NGZF=  192
   support grid    NGXF=   512 NGYF=  384 NGZF=  384
   ions per type =              64  32  32  32
   NGX,Y,Z   is equivalent  to a cutoff of  13.84, 14.19, 14.19 a.u.
   NGXF,Y,Z  is equivalent  to a cutoff of  27.68, 28.38, 28.38 a.u.

 SYSTEM =  unknown system                          
 POSCAR =  # Compound: Li64Fe32S32O32. Old comment:

 Startparameter for this run:
   NWRITE =      1    write-flag & timer
   PREC   = accura    normal or accurate (medium, high low for compatibility)
   ISTART =      0    job   : 0-new  1-cont  2-samecut
   ICHARG =      1    charge: 1-file 2-atom 10-const
   ISPIN  =      2    spin polarized calculation?
   LNONCOLLINEAR =      F non collinear calculations
   LSORBIT =      F    spin-orbit coupling
   INIWAV =      1    electr: 0-lowe 1-rand  2-diag
   LASPH  =      T    aspherical Exc in radial PAW
   METAGGA=      F    non-selfconsistent MetaGGA calc.

 Electronic Relaxation 1
   ENCUT  =  650.0 eV  47.77 Ry    6.91 a.u.  31.96 23.38 23.38*2*pi/ulx,y,z
   ENINI  =  650.0     initial cutoff
   ENAUG  =  628.9 eV  augmentation charge cutoff
   NELM   =    200;   NELMIN=  8; NELMDL=  0     # of ELM steps 
   EDIFF  = 0.1E-07   stopping-criterion for ELM
   LREAL  =      F    real-space projection
   NLSPLINE    = F    spline interpolate recip. space projectors
   LCOMPAT=      F    compatible to vasp.4.4
   GGA_COMPAT  = T    GGA compatible to vasp.4.4-vasp.4.6
   LMAXPAW     = -100 max onsite density
   LMAXMIX     =    4 max onsite mixed and CHGCAR
   VOSKOWN=      0    Vosko Wilk Nusair interpolation
   ROPT   =    0.00000   0.00000   0.00000   0.00000
 Ionic relaxation
   EDIFFG = 0.1E-06   stopping-criterion for IOM
   NSW    =      0    number of steps for IOM
   NBLOCK =      1;   KBLOCK =      1    inner block; outer block 
   IBRION =     -1    ionic relax: 0-MD 1-quasi-New 2-CG
   NFREE  =      0    steps in history (QN), initial steepest desc. (CG)
   ISIF   =      2    stress and relaxation
   IWAVPR =     10    prediction:  0-non 1-charg 2-wave 3-comb
   ISYM   =      2    0-nonsym 1-usesym 2-fastsym
   LCORR  =      T    Harris-Foulkes like correction to forces

   POTIM  = 0.5000    time-step for ionic-motion
   TEIN   =    0.0    initial temperature
   TEBEG  =    0.0;   TEEND  =   0.0 temperature during run
   SMASS  =  -3.00    Nose mass-parameter (am)
   estimated Nose-frequenzy (Omega)   =  0.10E-29 period in steps =****** mass=  -0.540E-26a.u.
   SCALEE = 1.0000    scale energy and forces
   NPACO  =    256;   APACO  = 16.0  distance and # of slots for P.C.
   PSTRESS=    0.0 pullay stress

  Mass of Ions in am
   POMASS =   7.01 55.85 32.07 16.00
  Ionic Valenz
   ZVAL   =   3.00 14.00  6.00  6.00
  Atomic Wigner-Seitz radii
   RWIGS  =  -1.00 -1.00 -1.00 -1.00
  virtual crystal weights 
   VCA    =   1.00  1.00  1.00  1.00
   NELECT =    1024.0000    total number of electrons
   NUPDOWN=      -1.0000    fix difference up-down

 DOS related values:
   EMIN   =  10.00;   EMAX   =-10.00  energy-range for DOS
   EFERMI =   0.00
   ISMEAR =     0;   SIGMA  =   0.05  broadening in eV -4-tet -1-fermi 0-gaus

 Electronic relaxation 2 (details)
   IALGO  =     38    algorithm
   LDIAG  =      T    sub-space diagonalisation (order eigenvalues)
   LSUBROT=      F    optimize rotation matrix (better conditioning)
   TURBO    =      0    0=normal 1=particle mesh
   IRESTART =      0    0=no restart 2=restart with 2 vectors
   NREBOOT  =      0    no. of reboots
   NMIN     =      0    reboot dimension
   EREF     =   0.00    reference energy to select bands
   IMIX   =      4    mixing-type and parameters
     AMIX     =   0.40;   BMIX     =  1.00
     AMIX_MAG =   1.60;   BMIX_MAG =  1.00
     AMIN     =   0.10
     WC   =   100.;   INIMIX=   1;  MIXPRE=   1;  MAXMIX= -45

 Intra band minimization:
   WEIMIN = 0.0000     energy-eigenvalue tresh-hold
   EBREAK =  0.34E-11  absolut break condition
   DEPER  =   0.30     relativ break condition  

   TIME   =   0.40     timestep for ELM

  volume/ion in A,a.u.               =      12.16        82.03
  Fermi-wavevector in a.u.,A,eV,Ry     =   1.321914  2.498054 23.775576  1.747456
  Thomas-Fermi vector in A             =   2.451633
 
 Write flags
   LWAVE        =      F    write WAVECAR
   LDOWNSAMPLE  =      F    k-point downsampling of WAVECAR
   LCHARG       =      T    write CHGCAR
   LVTOT        =      F    write LOCPOT, total local potential
   LVHAR        =      F    write LOCPOT, Hartree potential only
   LELF         =      F    write electronic localiz. function (ELF)
   LORBIT       =      0    0 simple, 1 ext, 2 COOP (PROOUT), +10 PAW based schemes


 Dipole corrections
   LMONO  =      F    monopole corrections only (constant potential shift)
   LDIPOL =      F    correct potential (dipole corrections)
   IDIPOL =      0    1-x, 2-y, 3-z, 4-all directions 
   EPSILON=  1.0000000 bulk dielectric constant

 LDA+U is selected, type is set to LDAUTYPE =  2
   angular momentum for each species LDAUL =    -1    2   -1   -1
   U (eV)           for each species LDAUU =   0.0  4.0  0.0  0.0
   J (eV)           for each species LDAUJ =   0.0  0.0  0.0  0.0
 Exchange correlation treatment:
   GGA     =    PE    GGA type
   LEXCH   =     8    internal setting for exchange type
   VOSKOWN=      0    Vosko Wilk Nusair interpolation
   LHFCALC =     F    Hartree Fock is set to
   LHFONE  =     F    Hartree Fock one center treatment
   AEXX    =    0.0000 exact exchange contribution

 Linear response parameters
   LEPSILON=     F    determine dielectric tensor
   LRPA    =     F    only Hartree local field effects (RPA)
   LNABLA  =     F    use nabla operator in PAW spheres
   LVEL    =     F    velocity operator in full k-point grid
   LINTERFAST=   F  fast interpolation
   KINTER  =     0    interpolate to denser k-point grid
   CSHIFT  =0.1000    complex shift for real part using Kramers Kronig
   OMEGAMAX=  -1.0    maximum frequency
   DEG_THRESHOLD= 0.2000000E-02 threshold for treating states as degnerate
   RTIME   =   -0.100 relaxation time in fs
  (WPLASMAI=    0.000 imaginary part of plasma frequency in eV, 0.658/RTIME)
   DFIELD  = 0.0000000 0.0000000 0.0000000 field for delta impulse in time
 
 Orbital magnetization related:
   ORBITALMAG=     F  switch on orbital magnetization
   LCHIMAG   =     F  perturbation theory with respect to B field
   DQ        =  0.001000  dq finite difference perturbation B field
   LLRAUG    =     F  two centre corrections for induced B field



--------------------------------------------------------------------------------------------------------


 Static calculation
 charge density and potential will be updated during run
 spin polarized calculation
 Variant of blocked Davidson
 Davidson routine will perform the subspace rotation
 perform sub-space diagonalisation
    after iterative eigenvector-optimisation
 modified Broyden-mixing scheme, WC =      100.0
 initial mixing is a Kerker type mixing with AMIX =  0.4000 and BMIX =      1.0000
 Hartree-type preconditioning will be used
 using additional bands          220
 reciprocal scheme for non local part
 use partial core corrections
 calculate Harris-corrections to forces 
   (improved forces if not selfconsistent)
 use gradient corrections 
 use of overlap-Matrix (Vanderbilt PP)
 Gauss-broadening in eV      SIGMA  =   0.05


--------------------------------------------------------------------------------------------------------


  energy-cutoff  :      650.00
  volume of cell :     1944.98
      direct lattice vectors                 reciprocal lattice vectors
    15.375637120  0.000000000  0.000000000     0.065037955  0.000000000  0.000000000
     0.000000000 11.247570840  0.082590060     0.000000000  0.088913005 -0.000669805
     0.000000000  0.084728700 11.247277940     0.000000000 -0.000652898  0.088915320

  length of vectors
    15.375637120 11.247874062 11.247597077     0.065037955  0.088915528  0.088917717


 
 k-points in units of 2pi/SCALE and weight: # No comment                            
   0.00000000  0.00000000  0.00000000       0.056
   0.03251898  0.00000000  0.00000000       0.056
   0.00000000  0.02963767 -0.00022327       0.111
   0.03251898  0.02963767 -0.00022327       0.111
   0.00000000 -0.00021763  0.02963844       0.111
   0.03251898 -0.00021763  0.02963844       0.111
   0.00000000  0.02942004  0.02941517       0.111
   0.03251898  0.02942004  0.02941517       0.111
   0.00000000 -0.02985530  0.02986171       0.111
   0.03251898 -0.02985530  0.02986171       0.111
 
 k-points in reciprocal lattice and weights: # No comment                            
   0.00000000  0.00000000  0.00000000       0.056
   0.50000000  0.00000000  0.00000000       0.056
   0.00000000  0.33333333 -0.00000000       0.111
   0.50000000  0.33333333 -0.00000000       0.111
   0.00000000 -0.00000000  0.33333333       0.111
   0.50000000 -0.00000000  0.33333333       0.111
   0.00000000  0.33333333  0.33333333       0.111
   0.50000000  0.33333333  0.33333333       0.111
   0.00000000 -0.33333333  0.33333333       0.111
   0.50000000 -0.33333333  0.33333333       0.111
 
 position of ions in fractional coordinates (direct lattice) 
   0.12525680  0.27553588  0.47453981
   0.62525680  0.27553588  0.47453981
   0.12525680  0.77553588  0.47453981
   0.62525680  0.77553588  0.47453981
   0.12525680  0.27553588  0.97453981
   0.62525680  0.27553588  0.97453981
   0.12525680  0.77553588  0.97453981
   0.62525680  0.77553588  0.97453981
   0.12525680  0.47446412  0.27546019
   0.62525680  0.47446412  0.27546019
   0.12525680  0.97446412  0.27546019
   0.62525680  0.97446412  0.27546019
   0.12525680  0.47446412  0.77546019
   0.62525680  0.47446412  0.77546019
   0.12525680  0.97446412  0.77546019
   0.62525680  0.97446412  0.77546019
   0.37474320  0.22446412  0.02546019
   0.87474320  0.22446412  0.02546019
   0.37474320  0.72446412  0.02546019
   0.87474320  0.72446412  0.02546019
   0.37474320  0.22446412  0.52546019
   0.87474320  0.22446412  0.52546019
   0.37474320  0.72446412  0.52546019
   0.87474320  0.72446412  0.52546019
   0.37474320  0.02553588  0.22453981
   0.87474320  0.02553588  0.22453981
   0.37474320  0.52553588  0.22453981
   0.87474320  0.52553588  0.22453981
   0.37474320  0.02553588  0.72453981
   0.87474320  0.02553588  0.72453981
   0.37474320  0.52553588  0.72453981
   0.87474320  0.52553588  0.72453981
   0.27600236  0.37500000  0.37500000
   0.77600236  0.37500000  0.37500000
   0.27600236  0.87500000  0.37500000
   0.77600236  0.87500000  0.37500000
   0.27600236  0.37500000  0.87500000
   0.77600236  0.37500000  0.87500000
   0.27600236  0.87500000  0.87500000
   0.77600236  0.87500000  0.87500000
   0.22399764  0.12500000  0.12500000
   0.72399764  0.12500000  0.12500000
   0.22399764  0.62500000  0.12500000
   0.72399764  0.62500000  0.12500000
   0.22399764  0.12500000  0.62500000
   0.72399764  0.12500000  0.62500000
   0.22399764  0.62500000  0.62500000
   0.72399764  0.62500000  0.62500000
   0.49994073  0.37500000  0.12500000
   0.99994073  0.37500000  0.12500000
   0.49994073  0.87500000  0.12500000
   0.99994073  0.87500000  0.12500000
   0.49994073  0.37500000  0.62500000
   0.99994073  0.37500000  0.62500000
   0.49994073  0.87500000  0.62500000
   0.99994073  0.87500000  0.62500000
   0.00005927  0.12500000  0.37500000
   0.50005927  0.12500000  0.37500000
   0.00005927  0.62500000  0.37500000
   0.50005927  0.62500000  0.37500000
   0.00005927  0.12500000  0.87500000
   0.50005927  0.12500000  0.87500000
   0.00005927  0.62500000  0.87500000
   0.50005927  0.62500000  0.87500000
   0.47912905  0.37500000  0.37500000
   0.97912905  0.37500000  0.37500000
   0.47912905  0.87500000  0.37500000
   0.97912905  0.87500000  0.37500000
   0.47912905  0.37500000  0.87500000
   0.97912905  0.37500000  0.87500000
   0.47912905  0.87500000  0.87500000
   0.97912905  0.87500000  0.87500000
   0.02087095  0.12500000  0.12500000
   0.52087095  0.12500000  0.12500000
   0.02087095  0.62500000  0.12500000
   0.52087095  0.62500000  0.12500000
   0.02087095  0.12500000  0.62500000
   0.52087095  0.12500000  0.62500000
   0.02087095  0.62500000  0.62500000
   0.52087095  0.62500000  0.62500000
   0.25003487  0.37500000  0.12500000
   0.75003487  0.37500000  0.12500000
   0.25003487  0.87500000  0.12500000
   0.75003487  0.87500000  0.12500000
   0.25003487  0.37500000  0.62500000
   0.75003487  0.37500000  0.62500000
   0.25003487  0.87500000  0.62500000
   0.75003487  0.87500000  0.62500000
   0.24996513  0.12500000  0.37500000
   0.74996513  0.12500000  0.37500000
   0.24996513  0.62500000  0.37500000
   0.74996513  0.62500000  0.37500000
   0.24996513  0.12500000  0.87500000
   0.74996513  0.12500000  0.87500000
   0.24996513  0.62500000  0.87500000
   0.74996513  0.62500000  0.87500000
   0.12546906  0.49959881  0.49958956
   0.62546906  0.49959881  0.49958956
   0.12546906  0.99959881  0.49958956
   0.62546906  0.99959881  0.49958956
   0.12546906  0.49959881  0.99958956
   0.62546906  0.49959881  0.99958956
   0.12546906  0.99959881  0.99958956
   0.62546906  0.99959881  0.99958956
   0.12546906  0.25040119  0.25041044
   0.62546906  0.25040119  0.25041044
   0.12546906  0.75040119  0.25041044
   0.62546906  0.75040119  0.25041044
   0.12546906  0.25040119  0.75041044
   0.62546906  0.25040119  0.75041044
   0.12546906  0.75040119  0.75041044
   0.62546906  0.75040119  0.75041044
   0.37453094  0.00040119  0.00041044
   0.87453094  0.00040119  0.00041044
   0.37453094  0.50040119  0.00041044
   0.87453094  0.50040119  0.00041044
   0.37453094  0.00040119  0.50041044
   0.87453094  0.00040119  0.50041044
   0.37453094  0.50040119  0.50041044
   0.87453094  0.50040119  0.50041044
   0.37453094  0.24959881  0.24958956
   0.87453094  0.24959881  0.24958956
   0.37453094  0.74959881  0.24958956
   0.87453094  0.74959881  0.24958956
   0.37453094  0.24959881  0.74958956
   0.87453094  0.24959881  0.74958956
   0.37453094  0.74959881  0.74958956
   0.87453094  0.74959881  0.74958956
   0.00065038  0.25000000  0.00000000
   0.50000000  0.25000000  0.00000000
   0.00000000  0.75000000  0.00000000
   0.50000000  0.75000000  0.00000000
   0.00000000  0.25000000  0.50000000
   0.50000000  0.25000000  0.50000000
   0.00000000  0.75000000  0.50000000
   0.50000000  0.75000000  0.50000000
   0.00000000  0.00000000  0.25000000
   0.50000000  0.00000000  0.25000000
   0.00000000  0.50000000  0.25000000
   0.50000000  0.50000000  0.25000000
   0.00000000  0.00000000  0.75000000
   0.50000000  0.00000000  0.75000000
   0.00000000  0.50000000  0.75000000
   0.50000000  0.50000000  0.75000000
   0.25000000  0.25000000  0.00000000
   0.75000000  0.25000000  0.00000000
   0.25000000  0.75000000  0.00000000
   0.75000000  0.75000000  0.00000000
   0.25000000  0.25000000  0.50000000
   0.75000000  0.25000000  0.50000000
   0.25000000  0.75000000  0.50000000
   0.75000000  0.75000000  0.50000000
   0.25000000  0.00000000  0.25000000
   0.75000000  0.00000000  0.25000000
   0.25000000  0.50000000  0.25000000
   0.75000000  0.50000000  0.25000000
   0.25000000  0.00000000  0.75000000
   0.75000000  0.00000000  0.75000000
   0.25000000  0.50000000  0.75000000
   0.75000000  0.50000000  0.75000000
 
 position of ions in cartesian coordinates  (Angst):
   1.92590310  3.13931647  5.36003766
   9.61372166  3.13931647  5.36003766
   1.92590310  8.76310189  5.40133269
   9.61372166  8.76310189  5.40133269
   1.92590310  3.18168082 10.98367663
   9.61372166  3.18168082 10.98367663
   1.92590310  8.80546624 11.02497166
   9.61372166  8.80546624 11.02497166
   1.92590310  5.35990818  3.13736334
   9.61372166  5.35990818  3.13736334
   1.92590310 10.98369360  3.17865837
   9.61372166 10.98369360  3.17865837
   1.92590310  5.40227253  8.76100231
   9.61372166  5.40227253  8.76100231
   1.92590310 11.02605795  8.80229734
   9.61372166 11.02605795  8.80229734
   5.76191546  2.52683330  0.30489634
  13.44973402  2.52683330  0.30489634
   5.76191546  8.15061872  0.34619137
  13.44973402  8.15061872  0.34619137
   5.76191546  2.56919765  5.92853531
  13.44973402  2.56919765  5.92853531
   5.76191546  8.19298307  5.96983034
  13.44973402  8.19298307  5.96983034
   5.76191546  0.30624159  2.52757066
  13.44973402  0.30624159  2.52757066
   5.76191546  5.93002701  2.56886569
  13.44973402  5.93002701  2.56886569
   5.76191546  0.34860594  8.15120963
  13.44973402  0.34860594  8.15120963
   5.76191546  5.97239136  8.19250466
  13.44973402  5.97239136  8.19250466
   4.24371213  4.24961233  4.24870050
  11.93153069  4.24961233  4.24870050
   4.24371213  9.87339775  4.28999553
  11.93153069  9.87339775  4.28999553
   4.24371213  4.29197668  9.87233947
  11.93153069  4.29197668  9.87233947
   4.24371213  9.91576210  9.91363450
  11.93153069  9.91576210  9.91363450
   3.44410643  1.41653744  1.41623350
  11.13192499  1.41653744  1.41623350
   3.44410643  7.04032286  1.45752853
  11.13192499  7.04032286  1.45752853
   3.44410643  1.45890179  7.03987247
  11.13192499  1.45890179  7.03987247
   3.44410643  7.08268721  7.08116750
  11.13192499  7.08268721  7.08116750
   7.68690717  4.22843015  1.43688101
  15.37472573  4.22843015  1.43688101
   7.68690717  9.85221557  1.47817605
  15.37472573  9.85221557  1.47817605
   7.68690717  4.27079450  7.06051999
  15.37472573  4.27079450  7.06051999
   7.68690717  9.89457992  7.10181502
  15.37472573  9.89457992  7.10181502
   0.00091139  1.43771962  4.22805298
   7.68872995  1.43771962  4.22805298
   0.00091139  7.06150504  4.26934801
   7.68872995  7.06150504  4.26934801
   0.00091139  1.48008397  9.85169195
   7.68872995  1.48008397  9.85169195
   0.00091139  7.10386939  9.89298699
   7.68872995  7.10386939  9.89298699
   7.36691433  4.24961233  4.24870050
  15.05473289  4.24961233  4.24870050
   7.36691433  9.87339775  4.28999553
  15.05473289  9.87339775  4.28999553
   7.36691433  4.29197668  9.87233947
  15.05473289  4.29197668  9.87233947
   7.36691433  9.91576210  9.91363450
  15.05473289  9.91576210  9.91363450
   0.32090423  1.41653744  1.41623350
   8.00872279  1.41653744  1.41623350
   0.32090423  7.04032286  1.45752853
   8.00872279  7.04032286  1.45752853
   0.32090423  1.45890179  7.03987247
   8.00872279  1.45890179  7.03987247
   0.32090423  7.08268721  7.08116750
   8.00872279  7.08268721  7.08116750
   3.84444535  4.22843015  1.43688101
  11.53226391  4.22843015  1.43688101
   3.84444535  9.85221557  1.47817605
  11.53226391  9.85221557  1.47817605
   3.84444535  4.27079450  7.06051999
  11.53226391  4.27079450  7.06051999
   3.84444535  9.89457992  7.10181502
  11.53226391  9.89457992  7.10181502
   3.84337321  1.43771962  4.22805298
  11.53119177  1.43771962  4.22805298
   3.84337321  7.06150504  4.26934801
  11.53119177  7.06150504  4.26934801
   3.84337321  1.48008397  9.85169195
  11.53119177  1.48008397  9.85169195
   3.84337321  7.10386939  9.89298699
  11.53119177  7.10386939  9.89298699
   1.92916681  5.66160258  5.66028448
   9.61698537  5.66160258  5.66028448
   1.92916681 11.28538800  5.70157951
   9.61698537 11.28538800  5.70157951
   1.92916681  5.70396693 11.28392345
   9.61698537  5.70396693 11.28392345
   1.92916681 11.32775235 11.32521848
   9.61698537 11.32775235 11.32521848
   1.92916681  2.83762207  2.83711652
   9.61698537  2.83762207  2.83711652
   1.92916681  8.46140749  2.87841155
   9.61698537  8.46140749  2.87841155
   1.92916681  2.87998642  8.46075549
   9.61698537  2.87998642  8.46075549
   1.92916681  8.50377184  8.50205052
   9.61698537  8.50377184  8.50205052
   5.75865175  0.00454719  0.00464952
  13.44647031  0.00454719  0.00464952
   5.75865175  5.62833261  0.04594455
  13.44647031  5.62833261  0.04594455
   5.75865175  0.04691154  5.62828849
  13.44647031  0.04691154  5.62828849
   5.75865175  5.67069696  5.66958352
  13.44647031  5.67069696  5.66958352
   5.75865175  2.82852770  2.82781748
  13.44647031  2.82852770  2.82781748
   5.75865175  8.45231312  2.86911251
  13.44647031  8.45231312  2.86911251
   5.75865175  2.87089205  8.45145645
  13.44647031  2.87089205  8.45145645
   5.75865175  8.49467747  8.49275148
  13.44647031  8.49467747  8.49275148
   0.01000000  2.81189271  0.02064752
   7.68781856  2.81189271  0.02064752
   0.00000000  8.43567813  0.06194255
   7.68781856  8.43567813  0.06194255
   0.00000000  2.85425706  5.64428649
   7.68781856  2.85425706  5.64428649
   0.00000000  8.47804248  5.68558151
   7.68781856  8.47804248  5.68558151
   0.00000000  0.02118218  2.81181949
   7.68781856  0.02118218  2.81181949
   0.00000000  5.64496759  2.85311452
   7.68781856  5.64496759  2.85311452
   0.00000000  0.06354653  8.43545845
   7.68781856  0.06354653  8.43545845
   0.00000000  5.68733194  8.47675348
   7.68781856  5.68733194  8.47675348
   3.84390928  2.81189271  0.02064752
  11.53172784  2.81189271  0.02064752
   3.84390928  8.43567813  0.06194255
  11.53172784  8.43567813  0.06194255
   3.84390928  2.85425706  5.64428649
  11.53172784  2.85425706  5.64428649
   3.84390928  8.47804248  5.68558151
  11.53172784  8.47804248  5.68558151
   3.84390928  0.02118218  2.81181949
  11.53172784  0.02118218  2.81181949
   3.84390928  5.64496759  2.85311452
  11.53172784  5.64496759  2.85311452
   3.84390928  0.06354653  8.43545845
  11.53172784  0.06354653  8.43545845
   3.84390928  5.68733194  8.47675348
  11.53172784  5.68733194  8.47675348
 


--------------------------------------------------------------------------------------------------------


 k-point  1 :   0.0000 0.0000 0.0000  plane waves:   73163
 k-point  2 :   0.5000 0.0000 0.0000  plane waves:   73208
 k-point  3 :   0.0000 0.3333-0.0000  plane waves:   73197
 k-point  4 :   0.5000 0.3333-0.0000  plane waves:   73182
 k-point  5 :   0.0000-0.0000 0.3333  plane waves:   73195
 k-point  6 :   0.5000-0.0000 0.3333  plane waves:   73178
 k-point  7 :   0.0000 0.3333 0.3333  plane waves:   73141
 k-point  8 :   0.5000 0.3333 0.3333  plane waves:   73198
 k-point  9 :   0.0000-0.3333 0.3333  plane waves:   73095
 k-point 10 :   0.5000-0.3333 0.3333  plane waves:   73224

 maximum and minimum number of plane-waves per node :     12268    12150

 maximum number of plane-waves:     73224
 maximum index in each direction: 
   IXMAX=   31   IYMAX=   23   IZMAX=   23
   IXMIN=  -32   IYMIN=  -23   IZMIN=  -23


 parallel 3D FFT for wavefunctions:
    minimum data exchange during FFTs selected (reduces bandwidth)
 parallel 3D FFT for charge:
    minimum data exchange during FFTs selected (reduces bandwidth)


 total amount of memory used by VASP MPI-rank0   985864. kBytes
=======================================================================

   base      :      30000. kBytes
   nonl-proj :     102069. kBytes
   fftplans  :      64934. kBytes
   grid      :      55554. kBytes
   one-center:        839. kBytes
   wavefun   :     732468. kBytes
 
     INWAV:  cpu time    0.0000: real time    0.0000
 Broyden mixing: mesh for mixing (old mesh)
   NGX = 63   NGY = 47   NGZ = 47
  (NGX  =256   NGY  =192   NGZ  =192)
  gives a total of 139167 points

 initial charge density was supplied:
 number of electron    1024.0000024 magnetization     128.0000040
 keeping initial charge density in first step


--------------------------------------------------------------------------------------------------------


 Maximum index for augmentation-charges         8015 (set IRDMAX)


--------------------------------------------------------------------------------------------------------


 First call to EWALD:  gamma=   0.142
 Maximum number of real-space cells 2x 3x 3
 Maximum number of reciprocal cells 3x 3x 3

    FEWALD:  cpu time    0.0245: real time    0.0329


--------------------------------------- Iteration      1(   1)  ---------------------------------------


    POTLOK:  cpu time    0.6735: real time    0.6862
    SETDIJ:  cpu time    1.6774: real time    1.6996
     EDDAV:  cpu time  349.0495: real time  355.5073
       DOS:  cpu time    0.0048: real time    0.0050
    --------------------------------------------
      LOOP:  cpu time  351.4051: real time  357.8982

 eigenvalue-minimisations  : 30712
 total energy-change (2. order) : 0.1347182E+05  (-0.5518315E+05)
 number of electron    1024.0000024 magnetization     128.0000040
 augmentation part     1024.0000024 magnetization     128.0000040

 Free energy of the ion-electron system (eV)
  ---------------------------------------------------
  alpha Z        PSCENC =      2580.95227926
  Ewald energy   TEWEN  =    -67508.67668393
  -Hartree energ DENC   =    -35943.95646928
  -exchange      EXHF   =         0.00000000
  -V(xc)+E(xc)   XCENC  =      4397.38234938
  PAW double counting   =    108731.45464712  -112348.03830957
  entropy T*S    EENTRO =        -0.03773626
  eigenvalues    EBANDS =      -746.54500962
  atomic energy  EATOM  =    114309.28505226
  Solvation  Ediel_sol  =         0.00000000
  ---------------------------------------------------
  free energy    TOTEN  =     13471.82011935 eV

  energy without entropy =    13471.85785561  energy(sigma->0) =    13471.83898748


--------------------------------------------------------------------------------------------------------




--------------------------------------- Iteration      1(   2)  ---------------------------------------


     EDDAV:  cpu time  337.6054: real time  344.5407
       DOS:  cpu time    0.0050: real time    0.0050
    --------------------------------------------
      LOOP:  cpu time  337.6104: real time  344.5456

 eigenvalue-minimisations  : 29280
 total energy-change (2. order) :-0.1205990E+05  (-0.1121275E+05)
 number of electron    1024.0000024 magnetization     128.0000040
 augmentation part     1024.0000024 magnetization     128.0000040

 Free energy of the ion-electron system (eV)
  ---------------------------------------------------
  alpha Z        PSCENC =      2580.95227926
  Ewald energy   TEWEN  =    -67508.67668393
  -Hartree energ DENC   =    -35943.95646928
  -exchange      EXHF   =         0.00000000
  -V(xc)+E(xc)   XCENC  =      4397.38234938
  PAW double counting   =    108731.45464712  -112348.03830957
  entropy T*S    EENTRO =        -0.06538185
  eigenvalues    EBANDS =    -12806.41588206
  atomic energy  EATOM  =    114309.28505226
  Solvation  Ediel_sol  =         0.00000000
  ---------------------------------------------------
  free energy    TOTEN  =      1411.92160132 eV

  energy without entropy =     1411.98698317  energy(sigma->0) =     1411.95429225


--------------------------------------------------------------------------------------------------------




--------------------------------------- Iteration      1(   3)  ---------------------------------------


     EDDAV:  cpu time  368.4047: real time  376.1503
       DOS:  cpu time    0.0020: real time    0.0020
    --------------------------------------------
      LOOP:  cpu time  368.4067: real time  376.1522

 eigenvalue-minimisations  : 32896
 total energy-change (2. order) :-0.1937313E+04  (-0.1738694E+04)
 number of electron    1024.0000024 magnetization     128.0000040
 augmentation part     1024.0000024 magnetization     128.0000040

 Free energy of the ion-electron system (eV)
  ---------------------------------------------------
  alpha Z        PSCENC =      2580.95227926
  Ewald energy   TEWEN  =    -67508.67668393
  -Hartree energ DENC   =    -35943.95646928
  -exchange      EXHF   =         0.00000000
  -V(xc)+E(xc)   XCENC  =      4397.38234938
  PAW double counting   =    108731.45464712  -112348.03830957
  entropy T*S    EENTRO =        -0.00000000
  eigenvalues    EBANDS =    -14743.79413359
  atomic energy  EATOM  =    114309.28505226
  Solvation  Ediel_sol  =         0.00000000
  ---------------------------------------------------
  free energy    TOTEN  =      -525.39126836 eV

  energy without entropy =     -525.39126836  energy(sigma->0) =     -525.39126836


--------------------------------------------------------------------------------------------------------




--------------------------------------- Iteration      1(   4)  ---------------------------------------


     EDDAV:  cpu time  426.1648: real time  433.8775
       DOS:  cpu time    0.0022: real time    0.0025
    --------------------------------------------
      LOOP:  cpu time  426.1670: real time  433.8800

 eigenvalue-minimisations  : 39304
 total energy-change (2. order) :-0.2634071E+03  (-0.2605362E+03)
 number of electron    1024.0000024 magnetization     128.0000040
 augmentation part     1024.0000024 magnetization     128.0000040

 Free energy of the ion-electron system (eV)
  ---------------------------------------------------
  alpha Z        PSCENC =      2580.95227926
  Ewald energy   TEWEN  =    -67508.67668393
  -Hartree energ DENC   =    -35943.95646928
  -exchange      EXHF   =         0.00000000
  -V(xc)+E(xc)   XCENC  =      4397.38234938
  PAW double counting   =    108731.45464712  -112348.03830957
  entropy T*S    EENTRO =        -0.00000000
  eigenvalues    EBANDS =    -15007.20122226
  atomic energy  EATOM  =    114309.28505226
  Solvation  Ediel_sol  =         0.00000000
  ---------------------------------------------------
  free energy    TOTEN  =      -788.79835703 eV

  energy without entropy =     -788.79835703  energy(sigma->0) =     -788.79835703


--------------------------------------------------------------------------------------------------------




--------------------------------------- Iteration      1(   5)  ---------------------------------------


     EDDAV:  cpu time  533.5328: real time  543.0785
       DOS:  cpu time    0.0026: real time    0.0034
    CHARGE:  cpu time    8.3739: real time    8.5831
    MIXING:  cpu time    0.0232: real time    0.0232
    --------------------------------------------
      LOOP:  cpu time  541.9325: real time  551.6882

 eigenvalue-minimisations  : 51424
 total energy-change (2. order) :-0.3175892E+02  (-0.3150415E+02)
 number of electron    1024.0000024 magnetization     128.0000033
 augmentation part      329.1874810 magnetization      84.1885803

 Broyden mixing:
  rms(total) = 0.31552E+00    rms(broyden)= 0.31517E+00
  rms(prec ) = 0.31906E+00
  weight for this iteration     100.00

 Free energy of the ion-electron system (eV)
  ---------------------------------------------------
  alpha Z        PSCENC =      2580.95227926
  Ewald energy   TEWEN  =    -67508.67668393
  -Hartree energ DENC   =    -35943.95646928
  -exchange      EXHF   =         0.00000000
  -V(xc)+E(xc)   XCENC  =      4397.38234938
  PAW double counting   =    108731.45464712  -112348.03830957
  entropy T*S    EENTRO =        -0.00000000
  eigenvalues    EBANDS =    -15038.96014114
  atomic energy  EATOM  =    114309.28505226
  Solvation  Ediel_sol  =         0.00000000
  ---------------------------------------------------
  free energy    TOTEN  =      -820.55727591 eV

  energy without entropy =     -820.55727591  energy(sigma->0) =     -820.55727591


--------------------------------------------------------------------------------------------------------




--------------------------------------- Iteration      1(   6)  ---------------------------------------


    POTLOK:  cpu time    0.6637: real time    0.6671
    SETDIJ:  cpu time    1.6735: real time    1.6847
     EDDAV:  cpu time  436.8421: real time  444.9237
       DOS:  cpu time    0.0018: real time    0.0018
    CHARGE:  cpu time    8.3134: real time    8.5788
    MIXING:  cpu time    0.0245: real time    0.0245
    --------------------------------------------
      LOOP:  cpu time  447.5191: real time  455.8807

 eigenvalue-minimisations  : 40648
 total energy-change (2. order) :-0.1436875E+01  (-0.1484137E+01)
 number of electron    1024.0000024 magnetization     128.0000028
 augmentation part      327.4419189 magnetization      84.3701842

 Broyden mixing:
  rms(total) = 0.13348E+00    rms(broyden)= 0.13316E+00
  rms(prec ) = 0.13419E+00
  weight for this iteration     100.00

 eigenvalues of (default mixing * dielectric matrix)
  average eigenvalue GAMMA=   0.6595
  0.6595

 Free energy of the ion-electron system (eV)
  ---------------------------------------------------
  alpha Z        PSCENC =      2580.95227926
  Ewald energy   TEWEN  =    -67508.67668393
  -Hartree energ DENC   =    -35935.57945626
  -exchange      EXHF   =         0.00000000
  -V(xc)+E(xc)   XCENC  =      4396.13716918
  PAW double counting   =    108544.91974559  -112155.90761380
  entropy T*S    EENTRO =        -0.00000000
  eigenvalues    EBANDS =    -15053.12464291
  atomic energy  EATOM  =    114309.28505226
  Solvation  Ediel_sol  =         0.00000000
  ---------------------------------------------------
  free energy    TOTEN  =      -821.99415062 eV

  energy without entropy =     -821.99415062  energy(sigma->0) =     -821.99415062


--------------------------------------------------------------------------------------------------------




--------------------------------------- Iteration      1(   7)  ---------------------------------------


    POTLOK:  cpu time    0.6763: real time    0.6793
    SETDIJ:  cpu time    1.6791: real time    1.6997
     EDDAV:  cpu time  495.4942: real time  504.6108
       DOS:  cpu time    0.0019: real time    0.0019
    CHARGE:  cpu time    8.3728: real time    8.5779
    MIXING:  cpu time    0.0278: real time    0.0291
    --------------------------------------------
      LOOP:  cpu time  506.2522: real time  515.5987

 eigenvalue-minimisations  : 47328
 total energy-change (2. order) :-0.7275333E-01  (-0.7202003E-01)
 number of electron    1024.0000024 magnetization     128.0000026
 augmentation part      327.1441719 magnetization      84.3007490

 Broyden mixing:
  rms(total) = 0.97220E-01    rms(broyden)= 0.97097E-01
  rms(prec ) = 0.98600E-01
  weight for this iteration     100.00

 eigenvalues of (default mixing * dielectric matrix)
  average eigenvalue GAMMA=   0.6003
  0.6003  0.6003

 Free energy of the ion-electron system (eV)
  ---------------------------------------------------
  alpha Z        PSCENC =      2580.95227926
  Ewald energy   TEWEN  =    -67508.67668393
  -Hartree energ DENC   =    -35938.22443289
  -exchange      EXHF   =         0.00000000
  -V(xc)+E(xc)   XCENC  =      4396.47920623
  PAW double counting   =    108587.64710843  -112200.07434441
  entropy T*S    EENTRO =        -0.00000000
  eigenvalues    EBANDS =    -15049.45508889
  atomic energy  EATOM  =    114309.28505226
  Solvation  Ediel_sol  =         0.00000000
  ---------------------------------------------------
  free energy    TOTEN  =      -822.06690394 eV

  energy without entropy =     -822.06690394  energy(sigma->0) =     -822.06690394


--------------------------------------------------------------------------------------------------------




--------------------------------------- Iteration      1(   8)  ---------------------------------------


    POTLOK:  cpu time    0.6667: real time    0.6789
    SETDIJ:  cpu time    1.6581: real time    1.6858
     EDDAV:  cpu time  470.9079: real time  478.8621
       DOS:  cpu time    0.0017: real time    0.0017
    CHARGE:  cpu time    8.2360: real time    8.5723
    MIXING:  cpu time    0.0273: real time    0.0273
    --------------------------------------------
      LOOP:  cpu time  481.4977: real time  489.8281

 eigenvalue-minimisations  : 44584
 total energy-change (2. order) :-0.2635417E-04  (-0.2797660E-02)
 number of electron    1024.0000024 magnetization     128.0000026
 augmentation part      327.0912129 magnetization      84.2870597

 Broyden mixing:
  rms(total) = 0.84380E-01    rms(broyden)= 0.84369E-01
  rms(prec ) = 0.85721E-01
  weight for this iteration     100.00

 eigenvalues of (default mixing * dielectric matrix)
  average eigenvalue GAMMA=   0.5423
  0.6211  0.6211  0.3847

 Free energy of the ion-electron system (eV)
  ---------------------------------------------------
  alpha Z        PSCENC =      2580.95227926
  Ewald energy   TEWEN  =    -67508.67668393
  -Hartree energ DENC   =    -35939.09175691
  -exchange      EXHF   =         0.00000000
  -V(xc)+E(xc)   XCENC  =      4396.62465321
  PAW double counting   =    108613.72028785  -112226.88865431
  entropy T*S    EENTRO =        -0.00000000
  eigenvalues    EBANDS =    -15047.99210771
  atomic energy  EATOM  =    114309.28505226
  Solvation  Ediel_sol  =         0.00000000
  ---------------------------------------------------
  free energy    TOTEN  =      -822.06693030 eV

  energy without entropy =     -822.06693030  energy(sigma->0) =     -822.06693030


--------------------------------------------------------------------------------------------------------




--------------------------------------- Iteration      1(   9)  ---------------------------------------


    POTLOK:  cpu time    0.6764: real time    0.6778
    SETDIJ:  cpu time    1.6964: real time    1.6996
     EDDAV:  cpu time  497.3489: real time  505.7235
       DOS:  cpu time    0.0019: real time    0.0020
    CHARGE:  cpu time    8.3118: real time    8.5255
    MIXING:  cpu time    0.0301: real time    0.0324
    --------------------------------------------
      LOOP:  cpu time  508.0656: real time  516.6608

 eigenvalue-minimisations  : 47416
 total energy-change (2. order) : 0.9776948E-03  (-0.1747759E-03)
 number of electron    1024.0000024 magnetization     128.0000025
 augmentation part      327.1002190 magnetization      84.2820098

 Broyden mixing:
  rms(total) = 0.77356E-01    rms(broyden)= 0.77355E-01
  rms(prec ) = 0.78573E-01
  weight for this iteration     100.00

 eigenvalues of (default mixing * dielectric matrix)
  average eigenvalue GAMMA=   0.5551
  0.6795  0.6795  0.4307  0.4307

 Free energy of the ion-electron system (eV)
  ---------------------------------------------------
  alpha Z        PSCENC =      2580.95227926
  Ewald energy   TEWEN  =    -67508.67668393
  -Hartree energ DENC   =    -35939.35981413
  -exchange      EXHF   =         0.00000000
  -V(xc)+E(xc)   XCENC  =      4396.68603439
  PAW double counting   =    108621.64495625  -112235.08586802
  entropy T*S    EENTRO =        -0.00000000
  eigenvalues    EBANDS =    -15047.51190868
  atomic energy  EATOM  =    114309.28505226
  Solvation  Ediel_sol  =         0.00000000
  ---------------------------------------------------
  free energy    TOTEN  =      -822.06595260 eV

  energy without entropy =     -822.06595260  energy(sigma->0) =     -822.06595260


--------------------------------------------------------------------------------------------------------




--------------------------------------- Iteration      1(  10)  ---------------------------------------


    POTLOK:  cpu time    0.6680: real time    0.6773
    SETDIJ:  cpu time    1.6820: real time    1.7311
     EDDAV:  cpu time  527.3734: real time  536.8911
       DOS:  cpu time    0.0019: real time    0.0019
    CHARGE:  cpu time    8.3093: real time    8.5575
    MIXING:  cpu time    0.0376: real time    0.0408
    --------------------------------------------
      LOOP:  cpu time  538.0723: real time  547.8998

 eigenvalue-minimisations  : 50368
 total energy-change (2. order) : 0.9290533E-03  (-0.2251281E-04)
 number of electron    1024.0000024 magnetization     128.0000019
 augmentation part      327.1076139 magnetization      84.2801881

 Broyden mixing:
  rms(total) = 0.70037E-01    rms(broyden)= 0.70037E-01
  rms(prec ) = 0.71106E-01
  weight for this iteration     100.00

 eigenvalues of (default mixing * dielectric matrix)
  average eigenvalue GAMMA=   0.7850
  1.1404  1.1404  0.5947  0.5947  0.4547

 Free energy of the ion-electron system (eV)
  ---------------------------------------------------
  alpha Z        PSCENC =      2580.95227926
  Ewald energy   TEWEN  =    -67508.67668393
  -Hartree energ DENC   =    -35939.82955990
  -exchange      EXHF   =         0.00000000
  -V(xc)+E(xc)   XCENC  =      4396.76094325
  PAW double counting   =    108630.76172302  -112244.52383952
  entropy T*S    EENTRO =        -0.00000000
  eigenvalues    EBANDS =    -15046.79493797
  atomic energy  EATOM  =    114309.28505226
  Solvation  Ediel_sol  =         0.00000000
  ---------------------------------------------------
  free energy    TOTEN  =      -822.06502355 eV

  energy without entropy =     -822.06502355  energy(sigma->0) =     -822.06502355


--------------------------------------------------------------------------------------------------------




--------------------------------------- Iteration      1(  11)  ---------------------------------------


    POTLOK:  cpu time    0.6653: real time    0.6712
    SETDIJ:  cpu time    1.6646: real time    1.6796
     EDDAV:  cpu time  539.8154: real time  550.0699
       DOS:  cpu time    0.0017: real time    0.0017
    CHARGE:  cpu time    8.3505: real time    8.5609
    MIXING:  cpu time    0.0406: real time    0.0439
    --------------------------------------------
      LOOP:  cpu time  550.5382: real time  561.0271

 eigenvalue-minimisations  : 52000
 total energy-change (2. order) : 0.2873730E-02  (-0.1694488E-03)
 number of electron    1024.0000024 magnetization     128.0000018
 augmentation part      327.1388756 magnetization      84.2815823

 Broyden mixing:
  rms(total) = 0.35592E-01    rms(broyden)= 0.35590E-01
  rms(prec ) = 0.36004E-01
  weight for this iteration     100.00

 eigenvalues of (default mixing * dielectric matrix)
  average eigenvalue GAMMA=   0.8083
  1.3015  1.3015  0.6504  0.6504  0.4729  0.4729

 Free energy of the ion-electron system (eV)
  ---------------------------------------------------
  alpha Z        PSCENC =      2580.95227926
  Ewald energy   TEWEN  =    -67508.67668393
  -Hartree energ DENC   =    -35942.00576342
  -exchange      EXHF   =         0.00000000
  -V(xc)+E(xc)   XCENC  =      4397.10447716
  PAW double counting   =    108676.93748414  -112292.22389099
  entropy T*S    EENTRO =        -0.00000000
  eigenvalues    EBANDS =    -15043.43510428
  atomic energy  EATOM  =    114309.28505226
  Solvation  Ediel_sol  =         0.00000000
  ---------------------------------------------------
  free energy    TOTEN  =      -822.06214982 eV

  energy without entropy =     -822.06214982  energy(sigma->0) =     -822.06214982


--------------------------------------------------------------------------------------------------------




--------------------------------------- Iteration      1(  12)  ---------------------------------------


    POTLOK:  cpu time    0.6624: real time    0.6772
    SETDIJ:  cpu time    1.6495: real time    1.6862
     EDDAV:  cpu time  419.0898: real time  426.3405
       DOS:  cpu time    0.0018: real time    0.0018
    CHARGE:  cpu time    8.2926: real time    8.5924
    MIXING:  cpu time    0.0318: real time    0.0342
    --------------------------------------------
      LOOP:  cpu time  429.7279: real time  437.3323

 eigenvalue-minimisations  : 38744
 total energy-change (2. order) : 0.1718015E-03  (-0.7553413E-04)
 number of electron    1024.0000024 magnetization     128.0000015
 augmentation part      327.1510819 magnetization      84.2795277

 Broyden mixing:
  rms(total) = 0.28801E-01    rms(broyden)= 0.28800E-01
  rms(prec ) = 0.29101E-01
  weight for this iteration     100.00

 eigenvalues of (default mixing * dielectric matrix)
  average eigenvalue GAMMA=   0.8771
  1.5090  1.5090  0.7989  0.7989  0.5298  0.5298  0.4646

 Free energy of the ion-electron system (eV)
  ---------------------------------------------------
  alpha Z        PSCENC =      2580.95227926
  Ewald energy   TEWEN  =    -67508.67668393
  -Hartree energ DENC   =    -35942.39792173
  -exchange      EXHF   =         0.00000000
  -V(xc)+E(xc)   XCENC  =      4397.16162072
  PAW double counting   =    108686.14244195  -112301.68816112
  entropy T*S    EENTRO =        -0.00000000
  eigenvalues    EBANDS =    -15042.84060542
  atomic energy  EATOM  =    114309.28505226
  Solvation  Ediel_sol  =         0.00000000
  ---------------------------------------------------
  free energy    TOTEN  =      -822.06197802 eV

  energy without entropy =     -822.06197802  energy(sigma->0) =     -822.06197802


--------------------------------------------------------------------------------------------------------




--------------------------------------- Iteration      1(  13)  ---------------------------------------


    POTLOK:  cpu time    0.6585: real time    0.6759
    SETDIJ:  cpu time    1.6777: real time    1.7048
     EDDAV:  cpu time  512.1573: real time  521.7992
       DOS:  cpu time    0.0019: real time    0.0019
    CHARGE:  cpu time    8.5060: real time    8.6326
    MIXING:  cpu time    0.0416: real time    0.0426
    --------------------------------------------
      LOOP:  cpu time  523.0429: real time  532.8570

 eigenvalue-minimisations  : 48832
 total energy-change (2. order) : 0.2987484E-03  (-0.2092676E-04)
 number of electron    1024.0000024 magnetization     128.0000013
 augmentation part      327.1608018 magnetization      84.2791299

 Broyden mixing:
  rms(total) = 0.17117E-01    rms(broyden)= 0.17116E-01
  rms(prec ) = 0.17253E-01
  weight for this iteration     100.00

 eigenvalues of (default mixing * dielectric matrix)
  average eigenvalue GAMMA=   0.9350
  1.7837  1.7837  0.9149  0.9149  0.5717  0.5717  0.4695  0.4695

 Free energy of the ion-electron system (eV)
  ---------------------------------------------------
  alpha Z        PSCENC =      2580.95227926
  Ewald energy   TEWEN  =    -67508.67668393
  -Hartree energ DENC   =    -35943.07097509
  -exchange      EXHF   =         0.00000000
  -V(xc)+E(xc)   XCENC  =      4397.26788259
  PAW double counting   =    108702.91924075  -112318.93494791
  entropy T*S    EENTRO =        -0.00000000
  eigenvalues    EBANDS =    -15041.80352719
  atomic energy  EATOM  =    114309.28505226
  Solvation  Ediel_sol  =         0.00000000
  ---------------------------------------------------
  free energy    TOTEN  =      -822.06167927 eV

  energy without entropy =     -822.06167927  energy(sigma->0) =     -822.06167927


--------------------------------------------------------------------------------------------------------




--------------------------------------- Iteration      1(  14)  ---------------------------------------


    POTLOK:  cpu time    0.6594: real time    0.6727
    SETDIJ:  cpu time    1.6634: real time    1.6918
     EDDAV:  cpu time  481.9136: real time  491.0945
       DOS:  cpu time    0.0020: real time    0.0043
    CHARGE:  cpu time    8.4938: real time    8.6413
    MIXING:  cpu time    0.0320: real time    0.0339
    --------------------------------------------
      LOOP:  cpu time  492.7640: real time  502.1386

 eigenvalue-minimisations  : 45624
 total energy-change (2. order) : 0.1848646E-04  (-0.1358477E-04)
 number of electron    1024.0000024 magnetization     128.0000010
 augmentation part      327.1671031 magnetization      84.2793127

 Broyden mixing:
  rms(total) = 0.12262E-01    rms(broyden)= 0.12262E-01
  rms(prec ) = 0.12365E-01
  weight for this iteration     100.00

 eigenvalues of (default mixing * dielectric matrix)
  average eigenvalue GAMMA=   1.0832
  2.3913  2.3913  1.0719  1.0719  0.6628  0.6628  0.4811  0.5077  0.5077

 Free energy of the ion-electron system (eV)
  ---------------------------------------------------
  alpha Z        PSCENC =      2580.95227926
  Ewald energy   TEWEN  =    -67508.67668393
  -Hartree energ DENC   =    -35943.30222231
  -exchange      EXHF   =         0.00000000
  -V(xc)+E(xc)   XCENC  =      4397.29577621
  PAW double counting   =    108710.94632009  -112327.08632129
  entropy T*S    EENTRO =        -0.00000000
  eigenvalues    EBANDS =    -15041.47586107
  atomic energy  EATOM  =    114309.28505226
  Solvation  Ediel_sol  =         0.00000000
  ---------------------------------------------------
  free energy    TOTEN  =      -822.06166078 eV

  energy without entropy =     -822.06166078  energy(sigma->0) =     -822.06166078


--------------------------------------------------------------------------------------------------------




--------------------------------------- Iteration      1(  15)  ---------------------------------------


    POTLOK:  cpu time    0.6711: real time    0.6731
    SETDIJ:  cpu time    1.6668: real time    1.6917
     EDDAV:  cpu time  432.2046: real time  440.2870
       DOS:  cpu time    0.0019: real time    0.0020
    CHARGE:  cpu time    8.5539: real time    8.6039
    MIXING:  cpu time    0.0411: real time    0.0411
    --------------------------------------------
      LOOP:  cpu time  443.1393: real time  451.2987

 eigenvalue-minimisations  : 39840
 total energy-change (2. order) : 0.3686866E-04  (-0.3131206E-05)
 number of electron    1024.0000024 magnetization     128.0000009
 augmentation part      327.1699826 magnetization      84.2789549

 Broyden mixing:
  rms(total) = 0.62259E-02    rms(broyden)= 0.62255E-02
  rms(prec ) = 0.62918E-02
  weight for this iteration     100.00

 eigenvalues of (default mixing * dielectric matrix)
  average eigenvalue GAMMA=   1.1052
  2.5426  2.5426  1.1839  1.1839  0.7486  0.7486  0.5608  0.5608  0.4903  0.4903

 Free energy of the ion-electron system (eV)
  ---------------------------------------------------
  alpha Z        PSCENC =      2580.95227926
  Ewald energy   TEWEN  =    -67508.67668393
  -Hartree energ DENC   =    -35943.61996439
  -exchange      EXHF   =         0.00000000
  -V(xc)+E(xc)   XCENC  =      4397.33617505
  PAW double counting   =    108720.97977119  -112337.30631490
  entropy T*S    EENTRO =        -0.00000000
  eigenvalues    EBANDS =    -15041.01193843
  atomic energy  EATOM  =    114309.28505226
  Solvation  Ediel_sol  =         0.00000000
  ---------------------------------------------------
  free energy    TOTEN  =      -822.06162391 eV

  energy without entropy =     -822.06162391  energy(sigma->0) =     -822.06162391


--------------------------------------------------------------------------------------------------------




--------------------------------------- Iteration      1(  16)  ---------------------------------------


    POTLOK:  cpu time    0.6672: real time    0.6676
    SETDIJ:  cpu time    1.6801: real time    1.6898
     EDDAV:  cpu time  481.4139: real time  490.1946
       DOS:  cpu time    0.0019: real time    0.0019
    CHARGE:  cpu time    8.3232: real time    8.5532
    MIXING:  cpu time    0.0300: real time    0.0409
    --------------------------------------------
      LOOP:  cpu time  492.1162: real time  501.1479

 eigenvalue-minimisations  : 45120
 total energy-change (2. order) : 0.1489095E-04  (-0.3983376E-05)
 number of electron    1024.0000024 magnetization     128.0000008
 augmentation part      327.1727235 magnetization      84.2793839

 Broyden mixing:
  rms(total) = 0.22650E-02    rms(broyden)= 0.22638E-02
  rms(prec ) = 0.22863E-02
  weight for this iteration     100.00

 eigenvalues of (default mixing * dielectric matrix)
  average eigenvalue GAMMA=   1.0824
  2.4924  2.4924  1.2707  1.2707  0.8324  0.8324  0.6202  0.6202  0.4955  0.4955
  0.4836

 Free energy of the ion-electron system (eV)
  ---------------------------------------------------
  alpha Z        PSCENC =      2580.95227926
  Ewald energy   TEWEN  =    -67508.67668393
  -Hartree energ DENC   =    -35943.86913128
  -exchange      EXHF   =         0.00000000
  -V(xc)+E(xc)   XCENC  =      4397.36839070
  PAW double counting   =    108727.53748489  -112344.01670101
  entropy T*S    EENTRO =        -0.00000000
  eigenvalues    EBANDS =    -15040.64229991
  atomic energy  EATOM  =    114309.28505226
  Solvation  Ediel_sol  =         0.00000000
  ---------------------------------------------------
  free energy    TOTEN  =      -822.06160902 eV

  energy without entropy =     -822.06160902  energy(sigma->0) =     -822.06160902


--------------------------------------------------------------------------------------------------------




--------------------------------------- Iteration      1(  17)  ---------------------------------------


    POTLOK:  cpu time    0.6629: real time    0.6773
    SETDIJ:  cpu time    1.6729: real time    1.6906
     EDDAV:  cpu time  470.3895: real time  479.0853
       DOS:  cpu time    0.0018: real time    0.0024
    CHARGE:  cpu time    8.4890: real time    8.5472
    MIXING:  cpu time    0.0348: real time    0.0348
    --------------------------------------------
      LOOP:  cpu time  481.2510: real time  490.0376

 eigenvalue-minimisations  : 44664
 total energy-change (2. order) : 0.4208559E-06  (-0.1388154E-05)
 number of electron    1024.0000024 magnetization     128.0000008
 augmentation part      327.1749065 magnetization      84.2793794

 Broyden mixing:
  rms(total) = 0.12740E-02    rms(broyden)= 0.12721E-02
  rms(prec ) = 0.12815E-02
  weight for this iteration     100.00

 eigenvalues of (default mixing * dielectric matrix)
  average eigenvalue GAMMA=   1.0475
  2.5692  2.5692  1.2695  1.2695  0.8649  0.8649  0.6395  0.6395  0.4955  0.4955
  0.4817  0.4115

 Free energy of the ion-electron system (eV)
  ---------------------------------------------------
  alpha Z        PSCENC =      2580.95227926
  Ewald energy   TEWEN  =    -67508.67668393
  -Hartree energ DENC   =    -35943.92193622
  -exchange      EXHF   =         0.00000000
  -V(xc)+E(xc)   XCENC  =      4397.37651815
  PAW double counting   =    108729.30358402  -112345.82586580
  entropy T*S    EENTRO =        -0.00000000
  eigenvalues    EBANDS =    -15040.55455633
  atomic energy  EATOM  =    114309.28505226
  Solvation  Ediel_sol  =         0.00000000
  ---------------------------------------------------
  free energy    TOTEN  =      -822.06160860 eV

  energy without entropy =     -822.06160860  energy(sigma->0) =     -822.06160860


--------------------------------------------------------------------------------------------------------




--------------------------------------- Iteration      1(  18)  ---------------------------------------


    POTLOK:  cpu time    0.6632: real time    0.6667
    SETDIJ:  cpu time    1.6927: real time    1.7114
     EDDAV:  cpu time  441.9440: real time  449.9306
       DOS:  cpu time    0.0017: real time    0.0017
    CHARGE:  cpu time    8.3212: real time    8.5452
    MIXING:  cpu time    0.0534: real time    0.0551
    --------------------------------------------
      LOOP:  cpu time  452.6763: real time  460.9107

 eigenvalue-minimisations  : 41432
 total energy-change (2. order) :-0.1185850E-05  (-0.1884783E-06)
 number of electron    1024.0000024 magnetization     128.0000007
 augmentation part      327.1756802 magnetization      84.2793871

 Broyden mixing:
  rms(total) = 0.11631E-02    rms(broyden)= 0.11615E-02
  rms(prec ) = 0.11718E-02
  weight for this iteration     100.00

 eigenvalues of (default mixing * dielectric matrix)
  average eigenvalue GAMMA=   1.1808
  3.1922  3.1922  1.4889  1.4889  0.9426  0.9426  0.7362  0.7362  0.5931  0.5931
  0.5053  0.5053  0.4342

 Free energy of the ion-electron system (eV)
  ---------------------------------------------------
  alpha Z        PSCENC =      2580.95227926
  Ewald energy   TEWEN  =    -67508.67668393
  -Hartree energ DENC   =    -35943.91567193
  -exchange      EXHF   =         0.00000000
  -V(xc)+E(xc)   XCENC  =      4397.37546975
  PAW double counting   =    108729.40859441  -112345.93038400
  entropy T*S    EENTRO =        -0.00000000
  eigenvalues    EBANDS =    -15040.56026560
  atomic energy  EATOM  =    114309.28505226
  Solvation  Ediel_sol  =         0.00000000
  ---------------------------------------------------
  free energy    TOTEN  =      -822.06160979 eV

  energy without entropy =     -822.06160979  energy(sigma->0) =     -822.06160979


--------------------------------------------------------------------------------------------------------




--------------------------------------- Iteration      1(  19)  ---------------------------------------


    POTLOK:  cpu time    0.6714: real time    0.6755
    SETDIJ:  cpu time    1.6883: real time    1.6922
     EDDAV:  cpu time  390.2168: real time  397.0346
       DOS:  cpu time    0.0017: real time    0.0017
    CHARGE:  cpu time    8.3135: real time    8.5354
    MIXING:  cpu time    0.0374: real time    0.0379
    --------------------------------------------
      LOOP:  cpu time  400.9292: real time  407.9774

 eigenvalue-minimisations  : 35280
 total energy-change (2. order) :-0.5788082E-05  (-0.1135302E-06)
 number of electron    1024.0000024 magnetization     128.0000007
 augmentation part      327.1753412 magnetization      84.2793360

 Broyden mixing:
  rms(total) = 0.79339E-03    rms(broyden)= 0.79095E-03
  rms(prec ) = 0.81606E-03
  weight for this iteration     100.00

 eigenvalues of (default mixing * dielectric matrix)
  average eigenvalue GAMMA=   1.1585
  3.9796  1.9845  1.9845  1.3239  1.3239  0.8614  0.8614  0.6740  0.6740  0.5677
  0.5677  0.4888  0.4888  0.4384

 Free energy of the ion-electron system (eV)
  ---------------------------------------------------
  alpha Z        PSCENC =      2580.95227926
  Ewald energy   TEWEN  =    -67508.67668393
  -Hartree energ DENC   =    -35943.92771309
  -exchange      EXHF   =         0.00000000
  -V(xc)+E(xc)   XCENC  =      4397.37452288
  PAW double counting   =    108731.04034759  -112347.58639294
  entropy T*S    EENTRO =        -0.00000000
[...]
   -.561E-01 -.855E-04 0.851E-04   0.538E-01 -.808E-13 -.888E-14   0.315E-02 0.869E-04 -.862E-04   0.183E-07 -.970E-07 -.247E-07
   0.565E-01 0.517E-03 0.131E-03   -.516E-01 -.897E-13 0.657E-13   -.674E-02 -.587E-03 -.287E-03   -.184E-06 -.228E-06 -.319E-06
   -.320E-01 0.595E-04 0.292E-04   0.302E-01 -.790E-13 0.480E-13   0.250E-02 -.122E-03 0.729E-05   0.186E-06 0.778E-07 -.115E-06
   0.565E-01 -.131E-03 -.516E-03   -.516E-01 -.879E-13 -.266E-14   -.674E-02 0.288E-03 0.586E-03   -.412E-06 0.127E-06 0.296E-06
   -.320E-01 -.293E-04 -.595E-04   0.302E-01 -.950E-13 -.444E-14   0.250E-02 -.696E-05 0.122E-03   -.220E-06 0.102E-07 0.976E-07
   0.290E-01 0.137E-03 -.136E-03   -.269E-01 -.995E-13 0.169E-13   -.293E-02 -.192E-03 0.191E-03   -.992E-08 0.976E-08 0.337E-07
   -.231E-01 0.455E-04 -.457E-04   0.216E-01 -.817E-13 0.275E-13   0.203E-02 -.100E-03 0.101E-03   -.285E-06 -.620E-08 0.175E-06
   0.942E-01 0.318E-03 -.318E-03   -.886E-01 0.218E-03 -.218E-03   -.794E-02 -.795E-03 0.795E-03   -.143E-06 0.450E-07 0.361E-08
   -.349E-01 0.358E-04 -.358E-04   0.332E-01 -.216E-04 0.216E-04   0.234E-02 0.161E-04 -.163E-04   -.327E-07 0.722E-07 -.106E-07
   0.895E-01 -.136E-04 0.442E-03   -.852E-01 -.205E-03 -.205E-03   -.585E-02 0.239E-03 -.265E-03   0.262E-06 -.474E-07 0.150E-06
   -.347E-01 -.382E-04 -.433E-05   0.329E-01 0.212E-04 0.212E-04   0.238E-02 0.641E-04 -.639E-04   0.391E-06 -.131E-06 0.112E-06
   0.895E-01 -.439E-03 0.170E-04   -.852E-01 0.205E-03 0.205E-03   -.585E-02 0.260E-03 -.243E-03   0.239E-06 -.162E-06 0.927E-07
   -.347E-01 0.455E-05 0.385E-04   0.329E-01 -.212E-04 -.212E-04   0.238E-02 0.635E-04 -.644E-04   0.246E-06 -.746E-07 0.193E-07
   0.942E-01 0.769E-03 -.770E-03   -.886E-01 -.218E-03 0.218E-03   -.792E-02 -.822E-03 0.822E-03   0.305E-06 -.261E-07 0.408E-08
   -.349E-01 -.779E-05 0.791E-05   0.332E-01 0.216E-04 -.216E-04   0.234E-02 0.168E-04 -.168E-04   -.254E-07 0.184E-07 -.149E-06
   -.201E+00 0.445E-03 -.443E-03   0.193E+00 -.213E-13 -.291E-13   0.109E-01 -.677E-03 0.675E-03   -.296E-06 0.605E-07 -.245E-06
   -.199E+00 0.435E-03 -.433E-03   0.191E+00 -.178E-13 -.462E-13   0.108E-01 -.663E-03 0.661E-03   0.388E-06 0.751E-07 -.825E-07
   -.128E-01 0.623E-03 0.535E-06   0.101E-01 -.711E-14 0.131E-13   0.380E-02 -.919E-03 -.385E-04   -.279E-06 -.385E-07 -.300E-06
   -.129E-01 0.625E-03 0.131E-06   0.102E-01 -.711E-14 0.355E-14   0.379E-02 -.922E-03 -.381E-04   0.196E-06 0.169E-06 -.146E-06
   -.128E-01 -.115E-05 -.622E-03   0.101E-01 -.207E-13 -.340E-13   0.380E-02 0.393E-04 0.917E-03   -.881E-07 0.249E-06 -.139E-06
   -.129E-01 -.625E-06 -.624E-03   0.102E-01 -.178E-13 -.320E-13   0.379E-02 0.391E-04 0.921E-03   0.600E-06 0.159E-06 0.517E-07
   -.290E-02 0.638E-04 -.637E-04   0.256E-02 -.253E-13 0.666E-15   0.464E-03 -.879E-04 0.875E-04   0.530E-06 -.308E-06 0.205E-06
   -.300E-02 0.638E-04 -.636E-04   0.266E-02 -.178E-13 -.355E-14   0.466E-03 -.880E-04 0.876E-04   0.236E-06 -.224E-06 0.147E-06
   -.237E-01 0.294E-01 -.294E-01   0.221E-01 -.284E-01 0.284E-01   0.222E-02 -.140E-02 0.140E-02   -.178E-06 0.168E-06 -.398E-07
   -.232E-01 -.290E-01 0.290E-01   0.222E-01 0.282E-01 -.282E-01   0.140E-02 0.106E-02 -.106E-02   0.341E-06 0.192E-06 -.228E-06
   -.223E-01 -.286E-01 -.282E-01   0.211E-01 0.275E-01 0.275E-01   0.173E-02 0.174E-02 0.118E-02   -.536E-06 -.224E-06 0.283E-06
   -.224E-01 0.281E-01 0.284E-01   0.212E-01 -.273E-01 -.273E-01   0.174E-02 -.118E-02 -.174E-02   0.955E-07 -.208E-06 0.179E-06
   -.223E-01 0.282E-01 0.285E-01   0.211E-01 -.275E-01 -.275E-01   0.173E-02 -.118E-02 -.174E-02   -.472E-06 -.333E-07 0.193E-06
   -.224E-01 -.284E-01 -.280E-01   0.212E-01 0.273E-01 0.273E-01   0.174E-02 0.174E-02 0.118E-02   0.131E-06 -.508E-08 0.111E-06
   -.231E-01 -.291E-01 0.291E-01   0.221E-01 0.284E-01 -.284E-01   0.139E-02 0.106E-02 -.106E-02   -.327E-06 -.328E-07 0.834E-07
   -.238E-01 0.293E-01 -.293E-01   0.222E-01 -.282E-01 0.282E-01   0.223E-02 -.140E-02 0.140E-02   -.274E-07 -.179E-06 -.195E-07
 -----------------------------------------------------------------------------------------------
   0.945E-02 0.640E-01 -.639E-01   -.442E-12 -.102E-12 0.171E-13   -.924E-02 -.640E-01 0.639E-01   0.344E-05 0.306E-06 -.916E-06
 
 
 POSITION                                       TOTAL-FORCE (eV/Angst)
 -----------------------------------------------------------------------------------
      1.92590      3.13932      5.36004         0.000595     -0.000277     -0.000493
      9.61372      3.13932      5.36004        -0.000387     -0.000027     -0.000080
      1.92590      8.76310      5.40133         0.000150     -0.000033     -0.000090
      9.61372      8.76310      5.40133        -0.000144     -0.000054     -0.000069
      1.92590      3.18168     10.98368         0.016172      0.002394     -0.002509
      9.61372      3.18168     10.98368        -0.000543     -0.000035     -0.000088
      1.92590      8.80547     11.02497         0.000595      0.000371      0.000153
      9.61372      8.80547     11.02497        -0.000387     -0.000043     -0.000095
      1.92590      5.35991      3.13736         0.000313     -0.000542     -0.000231
      9.61372      5.35991      3.13736        -0.000269      0.000094      0.000112
      1.92590     10.98369      3.17866         0.000083      0.000667     -0.000544
      9.61372     10.98369      3.17866        -0.000263      0.000017      0.000106
      1.92590      5.40227      8.76100         0.000246     -0.000369      0.000491
      9.61372      5.40227      8.76100        -0.000315      0.000091      0.000032
      1.92590     11.02606      8.80230         0.000313      0.000354      0.000665
      9.61372     11.02606      8.80230        -0.000268      0.000011      0.000029
      5.76192      2.52683      0.30490        -0.000554      0.000086      0.000036
     13.44973      2.52683      0.30490         0.014820      0.002276     -0.002147
      5.76192      8.15062      0.34619        -0.000394      0.000078      0.000029
     13.44973      8.15062      0.34619         0.000588      0.000494      0.000277
      5.76192      2.56920      5.92854        -0.000394      0.000094      0.000045
     13.44973      2.56920      5.92854         0.000588     -0.000155     -0.000370
      5.76192      8.19298      5.96983        -0.000152      0.000067      0.000056
     13.44973      8.19298      5.96983         0.000141      0.000089      0.000034
      5.76192      0.30624      2.52757        -0.000328     -0.000030     -0.000093
     13.44973      0.30624      2.52757         0.000226     -0.000491      0.000368
      5.76192      5.93003      2.56887        -0.000281     -0.000110     -0.000096
     13.44973      5.93003      2.56887         0.000299      0.000233      0.000541
      5.76192      0.34861      8.15121        -0.000281     -0.000027     -0.000012
     13.44973      0.34861      8.15121         0.000299     -0.000664     -0.000356
      5.76192      5.97239      8.19250        -0.000276     -0.000104     -0.000019
     13.44973      5.97239      8.19250         0.000068      0.000546     -0.000669
      4.24371      4.24961      4.24870        -0.000477     -0.000392     -0.000176
     11.93153      4.24961      4.24870        -0.000283      0.000499      0.000140
      4.24371      9.87340      4.29000        -0.000046      0.000117     -0.000117
     11.93153      9.87340      4.29000         0.000011     -0.000075      0.000075
      4.24371      4.29198      9.87234        -0.000493     -0.000256      0.000256
     11.93153      4.29198      9.87234        -0.000768      0.000259     -0.000259
      4.24371      9.91576      9.91363        -0.000477      0.000176      0.000391
     11.93153      9.91576      9.91363        -0.000283     -0.000140     -0.000499
      3.44411      1.41654      1.41623        -0.000892      0.000264     -0.000264
     11.13192      1.41654      1.41623        -0.000614     -0.000253      0.000253
      3.44411      7.04032      1.45753        -0.000406     -0.000140     -0.000499
     11.13192      7.04032      1.45753        -0.000601      0.000177      0.000392
      3.44411      1.45890      7.03987        -0.000406      0.000499      0.000140
     11.13192      1.45890      7.03987        -0.000600     -0.000392     -0.000176
      3.44411      7.08269      7.08117        -0.000112     -0.000075      0.000075
     11.13192      7.08269      7.08117        -0.000169      0.000117     -0.000117
      7.68691      4.22843      1.43688        -0.000438     -0.000021      0.000021
     15.37473      4.22843      1.43688         0.005758     -0.000262      0.000233
      7.68691      9.85222      1.47818        -0.000354      0.000010      0.000001
     15.37473      9.85222      1.47818         0.001202      0.000201      0.000020
      7.68691      4.27079      7.06052        -0.000354     -0.000001     -0.000010
     15.37473      4.27079      7.06052         0.001203     -0.000021     -0.000205
      7.68691      9.89458      7.10182        -0.000298      0.000012     -0.000012
     15.37473      9.89458      7.10182         0.000617      0.000034     -0.000034
      0.00091      1.43772      4.22805         0.001057     -0.000019     -0.000201
      7.68873      1.43772      4.22805        -0.000500     -0.000001     -0.000010
      0.00091      7.06151      4.26935         0.000472      0.000034     -0.000034
      7.68873      7.06151      4.26935        -0.000443      0.000012     -0.000012
      0.00091      1.48008      9.85169         0.005613     -0.000236      0.000259
      7.68873      1.48008      9.85169        -0.000584     -0.000021      0.000021
      0.00091      7.10387      9.89299         0.001057      0.000204      0.000022
      7.68873      7.10387      9.89299        -0.000500      0.000010      0.000001
      7.36691      4.24961      4.24870        -0.000648     -0.000048     -0.000044
     15.05473      4.24961      4.24870         0.002015      0.000021      0.000036
      7.36691      9.87340      4.29000        -0.000535      0.000007     -0.000007
     15.05473      9.87340      4.29000         0.000972      0.000288     -0.000288
      7.36691      4.29198      9.87234        -0.000775     -0.000015      0.000015
     15.05473      4.29198      9.87234         0.009850     -0.004923      0.004924
      7.36691      9.91576      9.91363        -0.000648      0.000044      0.000048
     15.05473      9.91576      9.91363         0.002015     -0.000035     -0.000021
      0.32090      1.41654      1.41623         0.009611     -0.004791      0.004792
      8.00872      1.41654      1.41623        -0.000914     -0.000015      0.000015
      0.32090      7.04032      1.45753         0.001878     -0.000032     -0.000025
      8.00872      7.04032      1.45753        -0.000787      0.000044      0.000047
      0.32090      1.45890      7.03987         0.001878      0.000024      0.000032
      8.00872      1.45890      7.03987        -0.000787     -0.000047     -0.000044
      0.32090      7.08269      7.08117         0.000834      0.000292     -0.000292
      8.00872      7.08269      7.08117        -0.000674      0.000007     -0.000007
      3.84445      4.22843      1.43688        -0.001421     -0.000890     -0.000576
     11.53226      4.22843      1.43688        -0.001419      0.000567      0.000881
      3.84445      9.85222      1.47818        -0.001225      0.000472     -0.000992
     11.53226      9.85222      1.47818        -0.000929     -0.000211      0.000914
      3.84445      4.27079      7.06052        -0.000930     -0.000915      0.000210
     11.53226      4.27079      7.06052        -0.001226      0.000992     -0.000474
      3.84445      9.89458      7.10182        -0.000228      0.000280      0.000213
     11.53226      9.89458      7.10182        -0.000228     -0.000213     -0.000280
      3.84337      1.43772      4.22805        -0.001106      0.000992     -0.000472
     11.53119      1.43772      4.22805        -0.000810     -0.000914      0.000211
      3.84337      7.06151      4.26935        -0.000108     -0.000212     -0.000279
     11.53119      7.06151      4.26935        -0.000109      0.000280      0.000213
      3.84337      1.48008      9.85169        -0.001302      0.000576      0.000890
     11.53119      1.48008      9.85169        -0.001299     -0.000881     -0.000567
      3.84337      7.10387      9.89299        -0.000810     -0.000210      0.000915
     11.53119      7.10387      9.89299        -0.001106      0.000474     -0.000991
      1.92917      5.66160      5.66028        -0.000641      0.000489      0.000093
      9.61699      5.66160      5.66028         0.000584     -0.000144      0.000037
      1.92917     11.28539      5.70158        -0.000556     -0.000448      0.000175
      9.61699     11.28539      5.70158         0.000545      0.000151     -0.000029
      1.92917      5.70397     11.28392         0.001700      0.005114     -0.000403
      9.61699      5.70397     11.28392         0.000993     -0.000066     -0.000056
      1.92917     11.32775     11.32522         0.002557     -0.006459     -0.000287
      9.61699     11.32775     11.32522         0.000906      0.000084     -0.000043
      1.92917      2.83762      2.83712         0.002556      0.000261      0.006486
      9.61699      2.83762      2.83712         0.000906      0.000015     -0.000056
      1.92917      8.46141      2.87841        -0.000556     -0.000203      0.000475
      9.61699      8.46141      2.87841         0.000545      0.000000     -0.000123
      1.92917      2.87999      8.46076         0.001701      0.000372     -0.005091
      9.61699      2.87999      8.46076         0.000992      0.000028      0.000094
      1.92917      8.50377      8.50205        -0.000641     -0.000121     -0.000461
      9.61699      8.50377      8.50205         0.000584     -0.000065      0.000171
      5.75865      0.00455      0.00465         0.001017     -0.000095     -0.000027
     13.44647      0.00455      0.00465         0.001732      0.005064     -0.000372
      5.75865      5.62833      0.04594         0.000931      0.000059     -0.000014
     13.44647      5.62833      0.04594         0.002590     -0.006460     -0.000263
      5.75865      0.04691      5.62829         0.000608     -0.000171      0.000065
     13.44647      0.04691      5.62829        -0.000615      0.000461      0.000122
      5.75865      5.67070      5.66958         0.000570      0.000124      0.000001
     13.44647      5.67070      5.66958        -0.000530     -0.000474      0.000205
      5.75865      2.82853      2.82782         0.001017      0.000055      0.000067
     13.44647      2.82853      2.82782         0.001734      0.000398     -0.005096
      5.75865      8.45231      2.86911         0.000608     -0.000038      0.000143
     13.44647      8.45231      2.86911        -0.000615     -0.000094     -0.000488
      5.75865      2.87089      8.45146         0.000931      0.000042     -0.000086
     13.44647      2.87089      8.45146         0.002588      0.000292      0.006432
      5.75865      8.49468      8.49275         0.000569      0.000027     -0.000152
     13.44647      8.49468      8.49275        -0.000530     -0.000177      0.000446
      0.01000      2.81189      0.02065        -0.077996      0.006922     -0.006916
      7.68782      2.81189      0.02065         0.000841      0.000001     -0.000001
      0.00000      8.43568      0.06194        -0.001821     -0.000070     -0.000157
      7.68782      8.43568      0.06194         0.000670     -0.000063      0.000036
      0.00000      2.85426      5.64429        -0.001822      0.000157      0.000070
      7.68782      2.85426      5.64429         0.000670     -0.000036      0.000063
      0.00000      8.47804      5.68558        -0.000792     -0.000055      0.000055
      7.68782      8.47804      5.68558         0.000557     -0.000055      0.000055
      0.00000      0.02118      2.81182        -0.002315     -0.000259      0.000259
      7.68782      0.02118      2.81182         0.000630      0.000030     -0.000030
      0.00000      5.64497      2.85311        -0.001545      0.000020     -0.000028
      7.68782      5.64497      2.85311         0.000645      0.000047     -0.000047
      0.00000      0.06355      8.43546        -0.001545      0.000026     -0.000022
      7.68782      0.06355      8.43546         0.000645      0.000047     -0.000047
      0.00000      5.68733      8.47675        -0.002310     -0.000270      0.000270
      7.68782      5.68733      8.47675         0.000630      0.000031     -0.000031
      3.84391      2.81189      0.02065         0.002803     -0.000232      0.000232
     11.53173      2.81189      0.02065         0.002773     -0.000228      0.000228
      3.84391      8.43568      0.06194         0.001059     -0.000296     -0.000038
     11.53173      8.43568      0.06194         0.001057     -0.000297     -0.000038
      3.84391      2.85426      5.64429         0.001059      0.000038      0.000296
     11.53173      2.85426      5.64429         0.001058      0.000039      0.000297
      3.84391      8.47804      5.68558         0.000126     -0.000024      0.000024
     11.53173      8.47804      5.68558         0.000126     -0.000024      0.000024
      3.84391      0.02118      2.81182         0.000584     -0.000364      0.000364
     11.53173      0.02118      2.81182         0.000374      0.000281     -0.000281
      3.84391      5.64497      2.85311         0.000479      0.000651      0.000467
     11.53173      5.64497      2.85311         0.000481     -0.000466     -0.000650
      3.84391      0.06355      8.43546         0.000480     -0.000468     -0.000650
     11.53173      0.06355      8.43546         0.000481      0.000650      0.000466
      3.84391      5.68733      8.47675         0.000373      0.000282     -0.000281
     11.53173      5.68733      8.47675         0.000585     -0.000364      0.000364
 -----------------------------------------------------------------------------------
    total drift:                                0.000206      0.000001     -0.000000


--------------------------------------------------------------------------------------------------------



  FREE ENERGIE OF THE ION-ELECTRON SYSTEM (eV)
  ---------------------------------------------------
  free  energy   TOTEN  =      -822.06161284 eV

  energy  without entropy=     -822.06161284  energy(sigma->0) =     -822.06161284
 


--------------------------------------------------------------------------------------------------------


    POTLOK:  cpu time    2.3387: real time    2.3770


--------------------------------------------------------------------------------------------------------


     LOOP+:  cpu time14516.6080: real time14785.1863
    4ORBIT:  cpu time    0.0000: real time    0.0000

 total amount of memory used by VASP MPI-rank0   985864. kBytes
=======================================================================

   base      :      30000. kBytes
   nonl-proj :     102069. kBytes
   fftplans  :      64934. kBytes
   grid      :      55554. kBytes
   one-center:        839. kBytes
   wavefun   :     732468. kBytes
 
  
  
 General timing and accounting informations for this job:
 ========================================================
  
                  Total CPU time used (sec):    14656.091
                            User time (sec):    14566.318
                          System time (sec):       89.772
                         Elapsed time (sec):    14927.554
  
                   Maximum memory used (kb):     1175676.
                   Average memory used (kb):           0.
  
                          Minor page faults:      1582519
                          Major page faults:            9
                 Voluntary context switches:        88141
