 126 126   0   0
  0.1357194E+02  0.1157659E-08  0.1157660E-08  0.1387803E-08  0.5000000E-15
  1.000000000000000E-004
  CAR 
 unknown system                          
     17.62621647    -54.41933895  301      5.40849103      1.00000000
    -54.419  0.0000E+00  0.0000E+00  0.0000E+00  0.0000E+00
    -54.179  0.0000E+00  0.0000E+00  0.0000E+00  0.0000E+00
    -53.939  0.0000E+00  0.0000E+00  0.0000E+00  0.0000E+00
    -53.699  0.0000E+00  0.0000E+00  0.0000E+00  0.0000E+00
    -53.459  0.0000E+00  0.0000E+00  0.0000E+00  0.0000E+00
    -53.219  0.0000E+00  0.0000E+00  0.0000E+00  0.0000E+00
    -52.978  0.0000E+00  0.0000E+00  0.0000E+00  0.0000E+00
    -52.738  0.0000E+00  0.0000E+00  0.0000E+00  0.0000E+00
    -52.498  0.0000E+00  0.0000E+00  0.0000E+00  0.0000E+00
    -52.258  0.0000E+00  0.0000E+00  0.0000E+00  0.0000E+00
    -52.018  0.0000E+00  0.0000E+00  0.0000E+00  0.0000E+00
    -51.778  0.0000E+00  0.0000E+00  0.0000E+00  0.0000E+00
    -51.538  0.0000E+00  0.0000E+00  0.0000E+00  0.0000E+00
    -51.297  0.6133E-03  0.0000E+00  0.1473E-03  0.0000E+00
    -51.057  0.1484E+03  0.0000E+00  0.3564E+02  0.0000E+00
    -50.817  0.1512E+01  0.0000E+00  0.3600E+02  0.0000E+00
    -50.577  0.0000E+00  0.0000E+00  0.3600E+02  0.0000E+00
    -50.337  0.0000E+00  0.0000E+00  0.3600E+02  0.0000E+00
    -50.097  0.0000E+00  0.0000E+00  0.3600E+02  0.0000E+00
    -49.856  0.1443E-05  0.0000E+00  0.3600E+02  0.0000E+00
    -49.616  0.2553E+03  0.0000E+00  0.9731E+02  0.0000E+00
    -49.376  0.4450E+02  0.0000E+00  0.1080E+03  0.0000E+00
    -49.136  0.0000E+00  0.0000E+00  0.1080E+03  0.0000E+00
    -48.896  0.0000E+00  0.0000E+00  0.1080E+03  0.0000E+00
    -48.656  0.0000E+00  0.0000E+00  0.1080E+03  0.0000E+00
    -48.416  0.0000E+00  0.0000E+00  0.1080E+03  0.0000E+00
    -48.175  0.0000E+00  0.0000E+00  0.1080E+03  0.0000E+00
    -47.935  0.0000E+00  0.0000E+00  0.1080E+03  0.0000E+00
    -47.695  0.0000E+00  0.0000E+00  0.1080E+03  0.0000E+00
    -47.455  0.0000E+00  0.0000E+00  0.1080E+03  0.0000E+00
    -47.215  0.0000E+00  0.0000E+00  0.1080E+03  0.0000E+00
    -46.975  0.0000E+00  0.0000E+00  0.1080E+03  0.0000E+00
    -46.734  0.0000E+00  0.0000E+00  0.1080E+03  0.0000E+00
    -46.494  0.0000E+00  0.3074E+00  0.1080E+03  0.7383E-01
    -46.254  0.0000E+00  0.1496E+03  0.1080E+03  0.3600E+02
    -46.014  0.0000E+00  0.4275E+01  0.1080E+03  0.3702E+02
    -45.774  0.0000E+00  0.2955E+03  0.1080E+03  0.1080E+03
    -45.534  0.0000E+00  0.7046E-04  0.1080E+03  0.1080E+03
    -45.294  0.0000E+00  0.0000E+00  0.1080E+03  0.1080E+03
    -45.053  0.0000E+00  0.0000E+00  0.1080E+03  0.1080E+03
    -44.813  0.0000E+00  0.0000E+00  0.1080E+03  0.1080E+03
    -44.573  0.0000E+00  0.0000E+00  0.1080E+03  0.1080E+03
    -44.333  0.0000E+00  0.0000E+00  0.1080E+03  0.1080E+03
    -44.093  0.0000E+00  0.0000E+00  0.1080E+03  0.1080E+03
    -43.853  0.0000E+00  0.0000E+00  0.1080E+03  0.1080E+03
    -43.613  0.0000E+00  0.0000E+00  0.1080E+03  0.1080E+03
    -43.372  0.0000E+00  0.0000E+00  0.1080E+03  0.1080E+03
    -43.132  0.0000E+00  0.0000E+00  0.1080E+03  0.1080E+03
    -42.892  0.0000E+00  0.0000E+00  0.1080E+03  0.1080E+03
    -42.652  0.0000E+00  0.0000E+00  0.1080E+03  0.1080E+03
    -42.412  0.0000E+00  0.0000E+00  0.1080E+03  0.1080E+03
    -42.172  0.0000E+00  0.0000E+00  0.1080E+03  0.1080E+03
    -41.931  0.0000E+00  0.0000E+00  0.1080E+03  0.1080E+03
    -41.691  0.0000E+00  0.0000E+00  0.1080E+03  0.1080E+03
    -41.451  0.0000E+00  0.0000E+00  0.1080E+03  0.1080E+03
    -41.211  0.0000E+00  0.0000E+00  0.1080E+03  0.1080E+03
    -40.971  0.0000E+00  0.0000E+00  0.1080E+03  0.1080E+03
    -40.731  0.0000E+00  0.0000E+00  0.1080E+03  0.1080E+03
    -40.491  0.0000E+00  0.0000E+00  0.1080E+03  0.1080E+03
    -40.250  0.0000E+00  0.0000E+00  0.1080E+03  0.1080E+03
    -40.010  0.0000E+00  0.0000E+00  0.1080E+03  0.1080E+03
    -39.770  0.1700E-02  0.1570E-02  0.1080E+03  0.1080E+03
    -39.530  0.1476E+03  0.1475E+03  0.1434E+03  0.1434E+03
    -39.290  0.2294E+01  0.2378E+01  0.1440E+03  0.1440E+03
    -39.050  0.0000E+00  0.0000E+00  0.1440E+03  0.1440E+03
    -38.809  0.0000E+00  0.0000E+00  0.1440E+03  0.1440E+03
    -38.569  0.0000E+00  0.0000E+00  0.1440E+03  0.1440E+03
    -38.329  0.0000E+00  0.0000E+00  0.1440E+03  0.1440E+03
    -38.089  0.0000E+00  0.0000E+00  0.1440E+03  0.1440E+03
    -37.849  0.0000E+00  0.0000E+00  0.1440E+03  0.1440E+03
    -37.609  0.0000E+00  0.0000E+00  0.1440E+03  0.1440E+03
    -37.369  0.0000E+00  0.0000E+00  0.1440E+03  0.1440E+03
    -37.128  0.0000E+00  0.0000E+00  0.1440E+03  0.1440E+03
    -36.888  0.0000E+00  0.0000E+00  0.1440E+03  0.1440E+03
    -36.648  0.0000E+00  0.0000E+00  0.1440E+03  0.1440E+03
    -36.408  0.0000E+00  0.0000E+00  0.1440E+03  0.1440E+03
    -36.168  0.0000E+00  0.0000E+00  0.1440E+03  0.1440E+03
    -35.928  0.0000E+00  0.0000E+00  0.1440E+03  0.1440E+03
    -35.687  0.0000E+00  0.0000E+00  0.1440E+03  0.1440E+03
    -35.447  0.0000E+00  0.0000E+00  0.1440E+03  0.1440E+03
    -35.207  0.0000E+00  0.0000E+00  0.1440E+03  0.1440E+03
    -34.967  0.0000E+00  0.0000E+00  0.1440E+03  0.1440E+03
    -34.727  0.0000E+00  0.0000E+00  0.1440E+03  0.1440E+03
    -34.487  0.0000E+00  0.0000E+00  0.1440E+03  0.1440E+03
    -34.247  0.0000E+00  0.0000E+00  0.1440E+03  0.1440E+03
    -34.006  0.0000E+00  0.0000E+00  0.1440E+03  0.1440E+03
    -33.766  0.0000E+00  0.0000E+00  0.1440E+03  0.1440E+03
    -33.526  0.0000E+00  0.0000E+00  0.1440E+03  0.1440E+03
    -33.286  0.0000E+00  0.0000E+00  0.1440E+03  0.1440E+03
    -33.046  0.0000E+00  0.0000E+00  0.1440E+03  0.1440E+03
    -32.806  0.0000E+00  0.0000E+00  0.1440E+03  0.1440E+03
    -32.566  0.0000E+00  0.0000E+00  0.1440E+03  0.1440E+03
    -32.325  0.0000E+00  0.0000E+00  0.1440E+03  0.1440E+03
    -32.085  0.0000E+00  0.0000E+00  0.1440E+03  0.1440E+03
    -31.845  0.0000E+00  0.0000E+00  0.1440E+03  0.1440E+03
    -31.605  0.0000E+00  0.0000E+00  0.1440E+03  0.1440E+03
    -31.365  0.0000E+00  0.0000E+00  0.1440E+03  0.1440E+03
    -31.125  0.0000E+00  0.0000E+00  0.1440E+03  0.1440E+03
    -30.884  0.0000E+00  0.0000E+00  0.1440E+03  0.1440E+03
    -30.644  0.0000E+00  0.0000E+00  0.1440E+03  0.1440E+03
    -30.404  0.0000E+00  0.0000E+00  0.1440E+03  0.1440E+03
    -30.164  0.0000E+00  0.0000E+00  0.1440E+03  0.1440E+03
    -29.924  0.0000E+00  0.0000E+00  0.1440E+03  0.1440E+03
    -29.684  0.0000E+00  0.0000E+00  0.1440E+03  0.1440E+03
    -29.444  0.0000E+00  0.0000E+00  0.1440E+03  0.1440E+03
    -29.203  0.0000E+00  0.0000E+00  0.1440E+03  0.1440E+03
    -28.963  0.0000E+00  0.0000E+00  0.1440E+03  0.1440E+03
    -28.723  0.0000E+00  0.0000E+00  0.1440E+03  0.1440E+03
    -28.483  0.0000E+00  0.0000E+00  0.1440E+03  0.1440E+03
    -28.243  0.0000E+00  0.0000E+00  0.1440E+03  0.1440E+03
    -28.003  0.0000E+00  0.0000E+00  0.1440E+03  0.1440E+03
    -27.762  0.0000E+00  0.0000E+00  0.1440E+03  0.1440E+03
    -27.522  0.0000E+00  0.0000E+00  0.1440E+03  0.1440E+03
    -27.282  0.0000E+00  0.0000E+00  0.1440E+03  0.1440E+03
    -27.042  0.0000E+00  0.0000E+00  0.1440E+03  0.1440E+03
    -26.802  0.0000E+00  0.0000E+00  0.1440E+03  0.1440E+03
    -26.562  0.0000E+00  0.0000E+00  0.1440E+03  0.1440E+03
    -26.322  0.0000E+00  0.0000E+00  0.1440E+03  0.1440E+03
    -26.081  0.0000E+00  0.0000E+00  0.1440E+03  0.1440E+03
    -25.841  0.0000E+00  0.0000E+00  0.1440E+03  0.1440E+03
    -25.601  0.0000E+00  0.0000E+00  0.1440E+03  0.1440E+03
    -25.361  0.0000E+00  0.0000E+00  0.1440E+03  0.1440E+03
    -25.121  0.0000E+00  0.0000E+00  0.1440E+03  0.1440E+03
    -24.881  0.0000E+00  0.0000E+00  0.1440E+03  0.1440E+03
    -24.641  0.0000E+00  0.0000E+00  0.1440E+03  0.1440E+03
    -24.400  0.0000E+00  0.0000E+00  0.1440E+03  0.1440E+03
    -24.160  0.0000E+00  0.0000E+00  0.1440E+03  0.1440E+03
    -23.920  0.0000E+00  0.0000E+00  0.1440E+03  0.1440E+03
    -23.680  0.0000E+00  0.0000E+00  0.1440E+03  0.1440E+03
    -23.440  0.0000E+00  0.0000E+00  0.1440E+03  0.1440E+03
    -23.200  0.0000E+00  0.0000E+00  0.1440E+03  0.1440E+03
    -22.959  0.0000E+00  0.0000E+00  0.1440E+03  0.1440E+03
    -22.719  0.0000E+00  0.0000E+00  0.1440E+03  0.1440E+03
    -22.479  0.0000E+00  0.0000E+00  0.1440E+03  0.1440E+03
    -22.239  0.0000E+00  0.0000E+00  0.1440E+03  0.1440E+03
    -21.999  0.0000E+00  0.0000E+00  0.1440E+03  0.1440E+03
    -21.759  0.0000E+00  0.0000E+00  0.1440E+03  0.1440E+03
    -21.519  0.0000E+00  0.0000E+00  0.1440E+03  0.1440E+03
    -21.278  0.0000E+00  0.0000E+00  0.1440E+03  0.1440E+03
    -21.038  0.0000E+00  0.0000E+00  0.1440E+03  0.1440E+03
    -20.798  0.0000E+00  0.0000E+00  0.1440E+03  0.1440E+03
    -20.558  0.0000E+00  0.0000E+00  0.1440E+03  0.1440E+03
    -20.318  0.0000E+00  0.0000E+00  0.1440E+03  0.1440E+03
    -20.078  0.0000E+00  0.0000E+00  0.1440E+03  0.1440E+03
    -19.837  0.0000E+00  0.0000E+00  0.1440E+03  0.1440E+03
    -19.597  0.0000E+00  0.0000E+00  0.1440E+03  0.1440E+03
    -19.357  0.0000E+00  0.0000E+00  0.1440E+03  0.1440E+03
    -19.117  0.0000E+00  0.0000E+00  0.1440E+03  0.1440E+03
    -18.877  0.0000E+00  0.0000E+00  0.1440E+03  0.1440E+03
    -18.637  0.0000E+00  0.0000E+00  0.1440E+03  0.1440E+03
    -18.397  0.0000E+00  0.0000E+00  0.1440E+03  0.1440E+03
    -18.156  0.0000E+00  0.0000E+00  0.1440E+03  0.1440E+03
    -17.916  0.0000E+00  0.0000E+00  0.1440E+03  0.1440E+03
    -17.676  0.0000E+00  0.0000E+00  0.1440E+03  0.1440E+03
    -17.436  0.0000E+00  0.0000E+00  0.1440E+03  0.1440E+03
    -17.196  0.0000E+00  0.0000E+00  0.1440E+03  0.1440E+03
    -16.956  0.0000E+00  0.0000E+00  0.1440E+03  0.1440E+03
    -16.715  0.0000E+00  0.0000E+00  0.1440E+03  0.1440E+03
    -16.475  0.0000E+00  0.0000E+00  0.1440E+03  0.1440E+03
    -16.235  0.0000E+00  0.0000E+00  0.1440E+03  0.1440E+03
    -15.995  0.0000E+00  0.0000E+00  0.1440E+03  0.1440E+03
    -15.755  0.0000E+00  0.0000E+00  0.1440E+03  0.1440E+03
    -15.515  0.0000E+00  0.0000E+00  0.1440E+03  0.1440E+03
    -15.275  0.0000E+00  0.0000E+00  0.1440E+03  0.1440E+03
    -15.034  0.0000E+00  0.0000E+00  0.1440E+03  0.1440E+03
    -14.794  0.0000E+00  0.0000E+00  0.1440E+03  0.1440E+03
    -14.554  0.0000E+00  0.0000E+00  0.1440E+03  0.1440E+03
    -14.314  0.0000E+00  0.0000E+00  0.1440E+03  0.1440E+03
    -14.074  0.0000E+00  0.0000E+00  0.1440E+03  0.1440E+03
    -13.834  0.0000E+00  0.0000E+00  0.1440E+03  0.1440E+03
    -13.594  0.0000E+00  0.0000E+00  0.1440E+03  0.1440E+03
    -13.353  0.0000E+00  0.0000E+00  0.1440E+03  0.1440E+03
    -13.113  0.0000E+00  0.0000E+00  0.1440E+03  0.1440E+03
    -12.873  0.3193E-01  0.0000E+00  0.1440E+03  0.1440E+03
    -12.633  0.7319E+02  0.6161E-03  0.1616E+03  0.1440E+03
    -12.393  0.1728E+01  0.6471E+02  0.1620E+03  0.1595E+03
    -12.153  0.0000E+00  0.1024E+02  0.1620E+03  0.1620E+03
    -11.912  0.0000E+00  0.0000E+00  0.1620E+03  0.1620E+03
    -11.672  0.0000E+00  0.0000E+00  0.1620E+03  0.1620E+03
    -11.432  0.0000E+00  0.0000E+00  0.1620E+03  0.1620E+03
    -11.192  0.0000E+00  0.0000E+00  0.1620E+03  0.1620E+03
    -10.952  0.0000E+00  0.0000E+00  0.1620E+03  0.1620E+03
    -10.712  0.0000E+00  0.0000E+00  0.1620E+03  0.1620E+03
    -10.472  0.0000E+00  0.0000E+00  0.1620E+03  0.1620E+03
    -10.231  0.0000E+00  0.0000E+00  0.1620E+03  0.1620E+03
     -9.991  0.0000E+00  0.0000E+00  0.1620E+03  0.1620E+03
     -9.751  0.0000E+00  0.0000E+00  0.1620E+03  0.1620E+03
     -9.511  0.0000E+00  0.0000E+00  0.1620E+03  0.1620E+03
     -9.271  0.0000E+00  0.0000E+00  0.1620E+03  0.1620E+03
     -9.031  0.0000E+00  0.0000E+00  0.1620E+03  0.1620E+03
     -8.790  0.0000E+00  0.0000E+00  0.1620E+03  0.1620E+03
     -8.550  0.0000E+00  0.0000E+00  0.1620E+03  0.1620E+03
     -8.310  0.0000E+00  0.0000E+00  0.1620E+03  0.1620E+03
     -8.070  0.0000E+00  0.0000E+00  0.1620E+03  0.1620E+03
     -7.830  0.8454E-02  0.1926E-14  0.1620E+03  0.1620E+03
     -7.590  0.7946E+01  0.9259E-01  0.1639E+03  0.1620E+03
     -7.350  0.1445E+02  0.9783E+01  0.1674E+03  0.1644E+03
     -7.109  0.2471E+02  0.1726E+02  0.1733E+03  0.1685E+03
     -6.869  0.7419E+02  0.2414E+02  0.1911E+03  0.1743E+03
     -6.629  0.2860E+02  0.7038E+02  0.1980E+03  0.1912E+03
     -6.389  0.1195E-03  0.2824E+02  0.1980E+03  0.1980E+03
     -6.149  0.0000E+00  0.1036E-01  0.1980E+03  0.1980E+03
     -5.909  0.0000E+00  0.0000E+00  0.1980E+03  0.1980E+03
     -5.669  0.0000E+00  0.0000E+00  0.1980E+03  0.1980E+03
     -5.428  0.0000E+00  0.0000E+00  0.1980E+03  0.1980E+03
     -5.188  0.0000E+00  0.0000E+00  0.1980E+03  0.1980E+03
     -4.948  0.0000E+00  0.0000E+00  0.1980E+03  0.1980E+03
     -4.708  0.0000E+00  0.0000E+00  0.1980E+03  0.1980E+03
     -4.468  0.0000E+00  0.0000E+00  0.1980E+03  0.1980E+03
     -4.228  0.0000E+00  0.0000E+00  0.1980E+03  0.1980E+03
     -3.987  0.0000E+00  0.0000E+00  0.1980E+03  0.1980E+03
     -3.747  0.0000E+00  0.0000E+00  0.1980E+03  0.1980E+03
     -3.507  0.0000E+00  0.0000E+00  0.1980E+03  0.1980E+03
     -3.267  0.0000E+00  0.0000E+00  0.1980E+03  0.1980E+03
     -3.027  0.0000E+00  0.0000E+00  0.1980E+03  0.1980E+03
     -2.787  0.0000E+00  0.0000E+00  0.1980E+03  0.1980E+03
     -2.547  0.0000E+00  0.0000E+00  0.1980E+03  0.1980E+03
     -2.306  0.0000E+00  0.0000E+00  0.1980E+03  0.1980E+03
     -2.066  0.0000E+00  0.0000E+00  0.1980E+03  0.1980E+03
     -1.826  0.6036E-15  0.0000E+00  0.1980E+03  0.1980E+03
     -1.586  0.1584E+00  0.0000E+00  0.1980E+03  0.1980E+03
     -1.346  0.4690E+02  0.0000E+00  0.2093E+03  0.1980E+03
     -1.106  0.2789E+02  0.0000E+00  0.2160E+03  0.1980E+03
     -0.865  0.3204E+01  0.0000E+00  0.2168E+03  0.1980E+03
     -0.625  0.4068E+02  0.7511E-10  0.2265E+03  0.1980E+03
     -0.385  0.1103E+03  0.1369E+01  0.2530E+03  0.1983E+03
     -0.145  0.1152E+03  0.1266E+02  0.2807E+03  0.2014E+03
      0.095  0.1049E+03  0.2008E+02  0.3059E+03  0.2062E+03
      0.335  0.8737E+02  0.2753E+02  0.3269E+03  0.2128E+03
      0.575  0.7672E+02  0.3096E+02  0.3453E+03  0.2202E+03
      0.816  0.3470E+02  0.3740E+02  0.3536E+03  0.2292E+03
      1.056  0.3034E+02  0.3608E+02  0.3609E+03  0.2379E+03
      1.296  0.4997E+02  0.4689E+02  0.3729E+03  0.2491E+03
      1.536  0.3217E+02  0.3091E+02  0.3807E+03  0.2566E+03
      1.776  0.5684E+02  0.6179E+02  0.3943E+03  0.2714E+03
      2.016  0.1239E+03  0.4688E+02  0.4241E+03  0.2827E+03
      2.256  0.7797E+02  0.1851E+02  0.4428E+03  0.2871E+03
      2.497  0.5317E+02  0.3042E+02  0.4556E+03  0.2944E+03
      2.737  0.3976E+02  0.5973E+02  0.4651E+03  0.3088E+03
      2.977  0.2521E+02  0.4960E+02  0.4712E+03  0.3207E+03
      3.217  0.1592E+02  0.5667E+02  0.4750E+03  0.3343E+03
      3.457  0.2766E+02  0.7521E+02  0.4816E+03  0.3523E+03
      3.697  0.4034E+02  0.2616E+02  0.4913E+03  0.3586E+03
      3.938  0.4260E+02  0.1965E+02  0.5015E+03  0.3633E+03
      4.178  0.4505E+02  0.9422E+02  0.5124E+03  0.3860E+03
      4.418  0.4512E+02  0.4011E+02  0.5232E+03  0.3956E+03
      4.658  0.2496E+02  0.1627E+01  0.5292E+03  0.3960E+03
      4.898  0.2767E+02  0.0000E+00  0.5358E+03  0.3960E+03
      5.138  0.1729E+02  0.0000E+00  0.5400E+03  0.3960E+03
      5.378  0.3344E-01  0.0000E+00  0.5400E+03  0.3960E+03
      5.619  0.0000E+00  0.0000E+00  0.5400E+03  0.3960E+03
      5.859  0.0000E+00  0.0000E+00  0.5400E+03  0.3960E+03
      6.099  0.0000E+00  0.5347E-13  0.5400E+03  0.3960E+03
      6.339  0.0000E+00  0.1869E+00  0.5400E+03  0.3960E+03
      6.579  0.0000E+00  0.4486E+01  0.5400E+03  0.3971E+03
      6.819  0.0000E+00  0.1390E+02  0.5400E+03  0.4005E+03
      7.060  0.0000E+00  0.3007E+02  0.5400E+03  0.4077E+03
      7.300  0.8324E-05  0.5705E+02  0.5400E+03  0.4214E+03
      7.540  0.5460E+00  0.7995E+02  0.5401E+03  0.4406E+03
      7.780  0.2317E+01  0.6711E+02  0.5407E+03  0.4567E+03
      8.020  0.1705E+01  0.8375E+02  0.5411E+03  0.4768E+03
      8.260  0.7095E+01  0.9877E+02  0.5428E+03  0.5005E+03
      8.500  0.7677E+01  0.3844E+02  0.5446E+03  0.5098E+03
      8.741  0.4751E+01  0.4451E+02  0.5458E+03  0.5205E+03
      8.981  0.1140E+02  0.4018E+02  0.5485E+03  0.5301E+03
      9.221  0.2027E+02  0.3926E+02  0.5534E+03  0.5395E+03
      9.461  0.2087E+02  0.1497E+02  0.5584E+03  0.5431E+03
      9.701  0.3079E+02  0.1553E+02  0.5658E+03  0.5469E+03
      9.941  0.2750E+02  0.1312E+02  0.5724E+03  0.5500E+03
     10.182  0.1724E+02  0.2593E+02  0.5765E+03  0.5562E+03
     10.422  0.1460E+02  0.2202E+02  0.5800E+03  0.5615E+03
     10.662  0.1899E+02  0.2782E+02  0.5846E+03  0.5682E+03
     10.902  0.2376E+02  0.2479E+02  0.5903E+03  0.5742E+03
     11.142  0.2889E+02  0.2489E+02  0.5972E+03  0.5801E+03
     11.382  0.2906E+02  0.2051E+02  0.6042E+03  0.5851E+03
     11.622  0.3033E+02  0.2432E+02  0.6115E+03  0.5909E+03
     11.863  0.3012E+02  0.2688E+02  0.6187E+03  0.5974E+03
     12.103  0.4172E+02  0.2651E+02  0.6288E+03  0.6037E+03
     12.343  0.5014E+02  0.3625E+02  0.6408E+03  0.6124E+03
     12.583  0.2522E+02  0.3834E+02  0.6469E+03  0.6216E+03
     12.823  0.2744E+02  0.4645E+02  0.6534E+03  0.6328E+03
     13.063  0.3294E+02  0.3533E+02  0.6614E+03  0.6413E+03
     13.303  0.3666E+02  0.3018E+02  0.6702E+03  0.6485E+03
     13.544  0.2425E+02  0.4814E+02  0.6760E+03  0.6601E+03
     13.784  0.1251E+02  0.3838E+02  0.6790E+03  0.6693E+03
     14.024  0.4197E+01  0.2082E+02  0.6800E+03  0.6743E+03
     14.264  0.2819E-02  0.1810E+02  0.6800E+03  0.6786E+03
     14.504  0.0000E+00  0.5637E+01  0.6800E+03  0.6800E+03
     14.744  0.0000E+00  0.5248E-05  0.6800E+03  0.6800E+03
     14.985  0.0000E+00  0.0000E+00  0.6800E+03  0.6800E+03
     15.225  0.0000E+00  0.0000E+00  0.6800E+03  0.6800E+03
     15.465  0.0000E+00  0.0000E+00  0.6800E+03  0.6800E+03
     15.705  0.0000E+00  0.0000E+00  0.6800E+03  0.6800E+03
     15.945  0.0000E+00  0.0000E+00  0.6800E+03  0.6800E+03
     16.185  0.0000E+00  0.0000E+00  0.6800E+03  0.6800E+03
     16.425  0.0000E+00  0.0000E+00  0.6800E+03  0.6800E+03
     16.666  0.0000E+00  0.0000E+00  0.6800E+03  0.6800E+03
     16.906  0.0000E+00  0.0000E+00  0.6800E+03  0.6800E+03
     17.146  0.0000E+00  0.0000E+00  0.6800E+03  0.6800E+03
     17.386  0.0000E+00  0.0000E+00  0.6800E+03  0.6800E+03
     17.626  0.0000E+00  0.0000E+00  0.6800E+03  0.6800E+03
