  99  99   0   0
  0.1430410E+02  0.1177748E-08  0.1177748E-08  0.1058004E-08  0.5000000E-15
  1.000000000000000E-004
  CAR 
 unknown system                          
     17.97920686    -54.33919831  301      5.26322061      1.00000000
    -54.339  0.0000E+00  0.0000E+00  0.0000E+00  0.0000E+00
    -54.098  0.0000E+00  0.0000E+00  0.0000E+00  0.0000E+00
    -53.857  0.0000E+00  0.0000E+00  0.0000E+00  0.0000E+00
    -53.616  0.0000E+00  0.0000E+00  0.0000E+00  0.0000E+00
    -53.375  0.0000E+00  0.0000E+00  0.0000E+00  0.0000E+00
    -53.134  0.0000E+00  0.0000E+00  0.0000E+00  0.0000E+00
    -52.893  0.0000E+00  0.0000E+00  0.0000E+00  0.0000E+00
    -52.652  0.0000E+00  0.0000E+00  0.0000E+00  0.0000E+00
    -52.411  0.0000E+00  0.0000E+00  0.0000E+00  0.0000E+00
    -52.170  0.0000E+00  0.0000E+00  0.0000E+00  0.0000E+00
    -51.929  0.0000E+00  0.0000E+00  0.0000E+00  0.0000E+00
    -51.688  0.0000E+00  0.0000E+00  0.0000E+00  0.0000E+00
    -51.446  0.0000E+00  0.0000E+00  0.0000E+00  0.0000E+00
    -51.205  0.4319E-03  0.0000E+00  0.1041E-03  0.0000E+00
    -50.964  0.1471E+03  0.0000E+00  0.3547E+02  0.0000E+00
    -50.723  0.2191E+01  0.0000E+00  0.3600E+02  0.0000E+00
    -50.482  0.0000E+00  0.0000E+00  0.3600E+02  0.0000E+00
    -50.241  0.0000E+00  0.0000E+00  0.3600E+02  0.0000E+00
    -50.000  0.0000E+00  0.0000E+00  0.3600E+02  0.0000E+00
    -49.759  0.1804E+01  0.0000E+00  0.3643E+02  0.0000E+00
    -49.518  0.2712E+03  0.0000E+00  0.1018E+03  0.0000E+00
    -49.277  0.2569E+02  0.0000E+00  0.1080E+03  0.0000E+00
    -49.036  0.0000E+00  0.0000E+00  0.1080E+03  0.0000E+00
    -48.795  0.0000E+00  0.0000E+00  0.1080E+03  0.0000E+00
    -48.554  0.0000E+00  0.0000E+00  0.1080E+03  0.0000E+00
    -48.313  0.0000E+00  0.0000E+00  0.1080E+03  0.0000E+00
    -48.072  0.0000E+00  0.0000E+00  0.1080E+03  0.0000E+00
    -47.831  0.0000E+00  0.0000E+00  0.1080E+03  0.0000E+00
    -47.589  0.0000E+00  0.0000E+00  0.1080E+03  0.0000E+00
    -47.348  0.0000E+00  0.0000E+00  0.1080E+03  0.0000E+00
    -47.107  0.0000E+00  0.0000E+00  0.1080E+03  0.0000E+00
    -46.866  0.0000E+00  0.0000E+00  0.1080E+03  0.0000E+00
    -46.625  0.0000E+00  0.0000E+00  0.1080E+03  0.0000E+00
    -46.384  0.0000E+00  0.4320E+00  0.1080E+03  0.1041E+00
    -46.143  0.0000E+00  0.1489E+03  0.1080E+03  0.3599E+02
    -45.902  0.0000E+00  0.7273E+02  0.1080E+03  0.5353E+02
    -45.661  0.0000E+00  0.2260E+03  0.1080E+03  0.1080E+03
    -45.420  0.0000E+00  0.0000E+00  0.1080E+03  0.1080E+03
    -45.179  0.0000E+00  0.0000E+00  0.1080E+03  0.1080E+03
    -44.938  0.0000E+00  0.0000E+00  0.1080E+03  0.1080E+03
    -44.697  0.0000E+00  0.0000E+00  0.1080E+03  0.1080E+03
    -44.456  0.0000E+00  0.0000E+00  0.1080E+03  0.1080E+03
    -44.215  0.0000E+00  0.0000E+00  0.1080E+03  0.1080E+03
    -43.974  0.0000E+00  0.0000E+00  0.1080E+03  0.1080E+03
    -43.732  0.0000E+00  0.0000E+00  0.1080E+03  0.1080E+03
    -43.491  0.0000E+00  0.0000E+00  0.1080E+03  0.1080E+03
    -43.250  0.0000E+00  0.0000E+00  0.1080E+03  0.1080E+03
    -43.009  0.0000E+00  0.0000E+00  0.1080E+03  0.1080E+03
    -42.768  0.0000E+00  0.0000E+00  0.1080E+03  0.1080E+03
    -42.527  0.0000E+00  0.0000E+00  0.1080E+03  0.1080E+03
    -42.286  0.0000E+00  0.0000E+00  0.1080E+03  0.1080E+03
    -42.045  0.0000E+00  0.0000E+00  0.1080E+03  0.1080E+03
    -41.804  0.0000E+00  0.0000E+00  0.1080E+03  0.1080E+03
    -41.563  0.0000E+00  0.0000E+00  0.1080E+03  0.1080E+03
    -41.322  0.0000E+00  0.0000E+00  0.1080E+03  0.1080E+03
    -41.081  0.0000E+00  0.0000E+00  0.1080E+03  0.1080E+03
    -40.840  0.0000E+00  0.0000E+00  0.1080E+03  0.1080E+03
    -40.599  0.0000E+00  0.0000E+00  0.1080E+03  0.1080E+03
    -40.358  0.0000E+00  0.0000E+00  0.1080E+03  0.1080E+03
    -40.117  0.2514E-10  0.1632E-10  0.1080E+03  0.1080E+03
    -39.876  0.2657E+02  0.2496E+02  0.1144E+03  0.1140E+03
    -39.634  0.4810E+02  0.4971E+02  0.1260E+03  0.1260E+03
    -39.393  0.0000E+00  0.0000E+00  0.1260E+03  0.1260E+03
    -39.152  0.0000E+00  0.0000E+00  0.1260E+03  0.1260E+03
    -38.911  0.0000E+00  0.0000E+00  0.1260E+03  0.1260E+03
    -38.670  0.0000E+00  0.0000E+00  0.1260E+03  0.1260E+03
    -38.429  0.0000E+00  0.0000E+00  0.1260E+03  0.1260E+03
    -38.188  0.0000E+00  0.0000E+00  0.1260E+03  0.1260E+03
    -37.947  0.0000E+00  0.0000E+00  0.1260E+03  0.1260E+03
    -37.706  0.0000E+00  0.0000E+00  0.1260E+03  0.1260E+03
    -37.465  0.0000E+00  0.0000E+00  0.1260E+03  0.1260E+03
    -37.224  0.0000E+00  0.0000E+00  0.1260E+03  0.1260E+03
    -36.983  0.0000E+00  0.0000E+00  0.1260E+03  0.1260E+03
    -36.742  0.0000E+00  0.0000E+00  0.1260E+03  0.1260E+03
    -36.501  0.0000E+00  0.0000E+00  0.1260E+03  0.1260E+03
    -36.260  0.0000E+00  0.0000E+00  0.1260E+03  0.1260E+03
    -36.019  0.0000E+00  0.0000E+00  0.1260E+03  0.1260E+03
    -35.777  0.0000E+00  0.0000E+00  0.1260E+03  0.1260E+03
    -35.536  0.0000E+00  0.0000E+00  0.1260E+03  0.1260E+03
    -35.295  0.0000E+00  0.0000E+00  0.1260E+03  0.1260E+03
    -35.054  0.0000E+00  0.0000E+00  0.1260E+03  0.1260E+03
    -34.813  0.0000E+00  0.0000E+00  0.1260E+03  0.1260E+03
    -34.572  0.0000E+00  0.0000E+00  0.1260E+03  0.1260E+03
    -34.331  0.0000E+00  0.0000E+00  0.1260E+03  0.1260E+03
    -34.090  0.0000E+00  0.0000E+00  0.1260E+03  0.1260E+03
    -33.849  0.0000E+00  0.0000E+00  0.1260E+03  0.1260E+03
    -33.608  0.0000E+00  0.0000E+00  0.1260E+03  0.1260E+03
    -33.367  0.0000E+00  0.0000E+00  0.1260E+03  0.1260E+03
    -33.126  0.0000E+00  0.0000E+00  0.1260E+03  0.1260E+03
    -32.885  0.0000E+00  0.0000E+00  0.1260E+03  0.1260E+03
    -32.644  0.0000E+00  0.0000E+00  0.1260E+03  0.1260E+03
    -32.403  0.0000E+00  0.0000E+00  0.1260E+03  0.1260E+03
    -32.162  0.0000E+00  0.0000E+00  0.1260E+03  0.1260E+03
    -31.920  0.0000E+00  0.0000E+00  0.1260E+03  0.1260E+03
    -31.679  0.0000E+00  0.0000E+00  0.1260E+03  0.1260E+03
    -31.438  0.0000E+00  0.0000E+00  0.1260E+03  0.1260E+03
    -31.197  0.0000E+00  0.0000E+00  0.1260E+03  0.1260E+03
    -30.956  0.0000E+00  0.0000E+00  0.1260E+03  0.1260E+03
    -30.715  0.0000E+00  0.0000E+00  0.1260E+03  0.1260E+03
    -30.474  0.0000E+00  0.0000E+00  0.1260E+03  0.1260E+03
    -30.233  0.0000E+00  0.0000E+00  0.1260E+03  0.1260E+03
    -29.992  0.0000E+00  0.0000E+00  0.1260E+03  0.1260E+03
    -29.751  0.0000E+00  0.0000E+00  0.1260E+03  0.1260E+03
    -29.510  0.0000E+00  0.0000E+00  0.1260E+03  0.1260E+03
    -29.269  0.0000E+00  0.0000E+00  0.1260E+03  0.1260E+03
    -29.028  0.0000E+00  0.0000E+00  0.1260E+03  0.1260E+03
    -28.787  0.0000E+00  0.0000E+00  0.1260E+03  0.1260E+03
    -28.546  0.0000E+00  0.0000E+00  0.1260E+03  0.1260E+03
    -28.305  0.0000E+00  0.0000E+00  0.1260E+03  0.1260E+03
    -28.064  0.0000E+00  0.0000E+00  0.1260E+03  0.1260E+03
    -27.822  0.0000E+00  0.0000E+00  0.1260E+03  0.1260E+03
    -27.581  0.0000E+00  0.0000E+00  0.1260E+03  0.1260E+03
    -27.340  0.0000E+00  0.0000E+00  0.1260E+03  0.1260E+03
    -27.099  0.0000E+00  0.0000E+00  0.1260E+03  0.1260E+03
    -26.858  0.0000E+00  0.0000E+00  0.1260E+03  0.1260E+03
    -26.617  0.0000E+00  0.0000E+00  0.1260E+03  0.1260E+03
    -26.376  0.0000E+00  0.0000E+00  0.1260E+03  0.1260E+03
    -26.135  0.0000E+00  0.0000E+00  0.1260E+03  0.1260E+03
    -25.894  0.0000E+00  0.0000E+00  0.1260E+03  0.1260E+03
    -25.653  0.0000E+00  0.0000E+00  0.1260E+03  0.1260E+03
    -25.412  0.0000E+00  0.0000E+00  0.1260E+03  0.1260E+03
    -25.171  0.0000E+00  0.0000E+00  0.1260E+03  0.1260E+03
    -24.930  0.0000E+00  0.0000E+00  0.1260E+03  0.1260E+03
    -24.689  0.0000E+00  0.0000E+00  0.1260E+03  0.1260E+03
    -24.448  0.0000E+00  0.0000E+00  0.1260E+03  0.1260E+03
    -24.207  0.0000E+00  0.0000E+00  0.1260E+03  0.1260E+03
    -23.965  0.0000E+00  0.0000E+00  0.1260E+03  0.1260E+03
    -23.724  0.0000E+00  0.0000E+00  0.1260E+03  0.1260E+03
    -23.483  0.0000E+00  0.0000E+00  0.1260E+03  0.1260E+03
    -23.242  0.0000E+00  0.0000E+00  0.1260E+03  0.1260E+03
    -23.001  0.0000E+00  0.0000E+00  0.1260E+03  0.1260E+03
    -22.760  0.0000E+00  0.0000E+00  0.1260E+03  0.1260E+03
    -22.519  0.0000E+00  0.0000E+00  0.1260E+03  0.1260E+03
    -22.278  0.0000E+00  0.0000E+00  0.1260E+03  0.1260E+03
    -22.037  0.0000E+00  0.0000E+00  0.1260E+03  0.1260E+03
    -21.796  0.0000E+00  0.0000E+00  0.1260E+03  0.1260E+03
    -21.555  0.0000E+00  0.0000E+00  0.1260E+03  0.1260E+03
    -21.314  0.0000E+00  0.0000E+00  0.1260E+03  0.1260E+03
    -21.073  0.0000E+00  0.0000E+00  0.1260E+03  0.1260E+03
    -20.832  0.0000E+00  0.0000E+00  0.1260E+03  0.1260E+03
    -20.591  0.0000E+00  0.0000E+00  0.1260E+03  0.1260E+03
    -20.350  0.0000E+00  0.0000E+00  0.1260E+03  0.1260E+03
    -20.108  0.0000E+00  0.0000E+00  0.1260E+03  0.1260E+03
    -19.867  0.0000E+00  0.0000E+00  0.1260E+03  0.1260E+03
    -19.626  0.0000E+00  0.0000E+00  0.1260E+03  0.1260E+03
    -19.385  0.0000E+00  0.0000E+00  0.1260E+03  0.1260E+03
    -19.144  0.0000E+00  0.0000E+00  0.1260E+03  0.1260E+03
    -18.903  0.0000E+00  0.0000E+00  0.1260E+03  0.1260E+03
    -18.662  0.0000E+00  0.0000E+00  0.1260E+03  0.1260E+03
    -18.421  0.0000E+00  0.0000E+00  0.1260E+03  0.1260E+03
    -18.180  0.0000E+00  0.0000E+00  0.1260E+03  0.1260E+03
    -17.939  0.0000E+00  0.0000E+00  0.1260E+03  0.1260E+03
    -17.698  0.0000E+00  0.0000E+00  0.1260E+03  0.1260E+03
    -17.457  0.0000E+00  0.0000E+00  0.1260E+03  0.1260E+03
    -17.216  0.0000E+00  0.0000E+00  0.1260E+03  0.1260E+03
    -16.975  0.0000E+00  0.0000E+00  0.1260E+03  0.1260E+03
    -16.734  0.0000E+00  0.0000E+00  0.1260E+03  0.1260E+03
    -16.493  0.0000E+00  0.0000E+00  0.1260E+03  0.1260E+03
    -16.252  0.0000E+00  0.0000E+00  0.1260E+03  0.1260E+03
    -16.010  0.0000E+00  0.0000E+00  0.1260E+03  0.1260E+03
    -15.769  0.0000E+00  0.0000E+00  0.1260E+03  0.1260E+03
    -15.528  0.0000E+00  0.0000E+00  0.1260E+03  0.1260E+03
    -15.287  0.0000E+00  0.0000E+00  0.1260E+03  0.1260E+03
    -15.046  0.0000E+00  0.0000E+00  0.1260E+03  0.1260E+03
    -14.805  0.0000E+00  0.0000E+00  0.1260E+03  0.1260E+03
    -14.564  0.0000E+00  0.0000E+00  0.1260E+03  0.1260E+03
    -14.323  0.0000E+00  0.0000E+00  0.1260E+03  0.1260E+03
    -14.082  0.0000E+00  0.0000E+00  0.1260E+03  0.1260E+03
    -13.841  0.0000E+00  0.0000E+00  0.1260E+03  0.1260E+03
    -13.600  0.0000E+00  0.0000E+00  0.1260E+03  0.1260E+03
    -13.359  0.1612E-02  0.0000E+00  0.1260E+03  0.1260E+03
    -13.118  0.3445E+02  0.7420E-15  0.1343E+03  0.1260E+03
    -12.877  0.4016E+02  0.7956E+00  0.1440E+03  0.1262E+03
    -12.636  0.5460E-01  0.6343E+02  0.1440E+03  0.1415E+03
    -12.395  0.0000E+00  0.1045E+02  0.1440E+03  0.1440E+03
    -12.153  0.0000E+00  0.0000E+00  0.1440E+03  0.1440E+03
    -11.912  0.0000E+00  0.0000E+00  0.1440E+03  0.1440E+03
    -11.671  0.0000E+00  0.0000E+00  0.1440E+03  0.1440E+03
    -11.430  0.0000E+00  0.0000E+00  0.1440E+03  0.1440E+03
    -11.189  0.0000E+00  0.0000E+00  0.1440E+03  0.1440E+03
    -10.948  0.0000E+00  0.0000E+00  0.1440E+03  0.1440E+03
    -10.707  0.0000E+00  0.0000E+00  0.1440E+03  0.1440E+03
    -10.466  0.0000E+00  0.0000E+00  0.1440E+03  0.1440E+03
    -10.225  0.0000E+00  0.0000E+00  0.1440E+03  0.1440E+03
     -9.984  0.0000E+00  0.0000E+00  0.1440E+03  0.1440E+03
     -9.743  0.0000E+00  0.0000E+00  0.1440E+03  0.1440E+03
     -9.502  0.0000E+00  0.0000E+00  0.1440E+03  0.1440E+03
     -9.261  0.0000E+00  0.0000E+00  0.1440E+03  0.1440E+03
     -9.020  0.0000E+00  0.0000E+00  0.1440E+03  0.1440E+03
     -8.779  0.0000E+00  0.0000E+00  0.1440E+03  0.1440E+03
     -8.538  0.0000E+00  0.0000E+00  0.1440E+03  0.1440E+03
     -8.296  0.0000E+00  0.0000E+00  0.1440E+03  0.1440E+03
     -8.055  0.0000E+00  0.0000E+00  0.1440E+03  0.1440E+03
     -7.814  0.1302E-08  0.0000E+00  0.1440E+03  0.1440E+03
     -7.573  0.1059E+01  0.2031E-09  0.1443E+03  0.1440E+03
     -7.332  0.2003E+02  0.9461E+00  0.1491E+03  0.1442E+03
     -7.091  0.3120E+02  0.2204E+02  0.1566E+03  0.1495E+03
     -6.850  0.3777E+02  0.2948E+02  0.1657E+03  0.1566E+03
     -6.609  0.2194E+02  0.2825E+02  0.1710E+03  0.1635E+03
     -6.368  0.3849E-05  0.3126E+02  0.1710E+03  0.1710E+03
     -6.127  0.0000E+00  0.2535E-01  0.1710E+03  0.1710E+03
     -5.886  0.0000E+00  0.0000E+00  0.1710E+03  0.1710E+03
     -5.645  0.0000E+00  0.0000E+00  0.1710E+03  0.1710E+03
     -5.404  0.0000E+00  0.0000E+00  0.1710E+03  0.1710E+03
     -5.163  0.0000E+00  0.0000E+00  0.1710E+03  0.1710E+03
     -4.922  0.0000E+00  0.0000E+00  0.1710E+03  0.1710E+03
     -4.681  0.0000E+00  0.0000E+00  0.1710E+03  0.1710E+03
     -4.439  0.0000E+00  0.0000E+00  0.1710E+03  0.1710E+03
     -4.198  0.0000E+00  0.0000E+00  0.1710E+03  0.1710E+03
     -3.957  0.0000E+00  0.0000E+00  0.1710E+03  0.1710E+03
     -3.716  0.0000E+00  0.0000E+00  0.1710E+03  0.1710E+03
     -3.475  0.0000E+00  0.0000E+00  0.1710E+03  0.1710E+03
     -3.234  0.0000E+00  0.0000E+00  0.1710E+03  0.1710E+03
     -2.993  0.0000E+00  0.0000E+00  0.1710E+03  0.1710E+03
     -2.752  0.0000E+00  0.0000E+00  0.1710E+03  0.1710E+03
     -2.511  0.0000E+00  0.0000E+00  0.1710E+03  0.1710E+03
     -2.270  0.0000E+00  0.0000E+00  0.1710E+03  0.1710E+03
     -2.029  0.5763E-01  0.0000E+00  0.1710E+03  0.1710E+03
     -1.788  0.2709E+02  0.0000E+00  0.1775E+03  0.1710E+03
     -1.547  0.1842E+02  0.0000E+00  0.1820E+03  0.1710E+03
     -1.306  0.1492E+02  0.0000E+00  0.1856E+03  0.1710E+03
     -1.065  0.2445E+02  0.0000E+00  0.1915E+03  0.1710E+03
     -0.824  0.5738E+02  0.0000E+00  0.2053E+03  0.1710E+03
     -0.583  0.6232E+02  0.1931E-02  0.2203E+03  0.1710E+03
     -0.341  0.4195E+02  0.1174E+02  0.2304E+03  0.1738E+03
     -0.100  0.8204E+02  0.1998E+02  0.2502E+03  0.1786E+03
      0.141  0.9055E+02  0.1374E+02  0.2720E+03  0.1820E+03
      0.382  0.8250E+02  0.2405E+02  0.2919E+03  0.1878E+03
      0.623  0.7300E+02  0.3331E+02  0.3095E+03  0.1958E+03
      0.864  0.5768E+02  0.4710E+02  0.3234E+03  0.2071E+03
      1.105  0.3783E+02  0.4049E+02  0.3326E+03  0.2169E+03
      1.346  0.3769E+02  0.3261E+02  0.3416E+03  0.2248E+03
      1.587  0.4922E+02  0.2552E+02  0.3535E+03  0.2309E+03
      1.828  0.5703E+02  0.3264E+02  0.3673E+03  0.2388E+03
      2.069  0.7668E+02  0.4105E+02  0.3857E+03  0.2487E+03
      2.310  0.5832E+02  0.2597E+02  0.3998E+03  0.2549E+03
      2.551  0.3294E+02  0.2995E+02  0.4077E+03  0.2622E+03
      2.792  0.5086E+02  0.4181E+02  0.4200E+03  0.2722E+03
      3.033  0.2106E+02  0.4682E+02  0.4251E+03  0.2835E+03
      3.274  0.1149E+02  0.4647E+02  0.4278E+03  0.2947E+03
      3.516  0.3892E+02  0.3887E+02  0.4372E+03  0.3041E+03
      3.757  0.2567E+02  0.6843E+01  0.4434E+03  0.3057E+03
      3.998  0.3874E+02  0.2656E+02  0.4528E+03  0.3121E+03
      4.239  0.3844E+02  0.7566E+02  0.4620E+03  0.3304E+03
      4.480  0.3881E+02  0.3903E+02  0.4714E+03  0.3398E+03
      4.721  0.3500E+02  0.9162E+01  0.4798E+03  0.3420E+03
      4.962  0.2348E+02  0.0000E+00  0.4855E+03  0.3420E+03
      5.203  0.2188E+01  0.0000E+00  0.4860E+03  0.3420E+03
      5.444  0.0000E+00  0.0000E+00  0.4860E+03  0.3420E+03
      5.685  0.0000E+00  0.0000E+00  0.4860E+03  0.3420E+03
      5.926  0.0000E+00  0.0000E+00  0.4860E+03  0.3420E+03
      6.167  0.0000E+00  0.3511E-07  0.4860E+03  0.3420E+03
      6.408  0.0000E+00  0.1687E+01  0.4860E+03  0.3424E+03
      6.649  0.0000E+00  0.5096E+01  0.4860E+03  0.3436E+03
      6.890  0.0000E+00  0.1184E+02  0.4860E+03  0.3465E+03
      7.131  0.3298E-11  0.2248E+02  0.4860E+03  0.3519E+03
      7.373  0.9048E-01  0.6148E+02  0.4860E+03  0.3667E+03
      7.614  0.6317E-01  0.6264E+02  0.4860E+03  0.3818E+03
      7.855  0.6103E+00  0.6279E+02  0.4862E+03  0.3970E+03
      8.096  0.8200E+00  0.7562E+02  0.4864E+03  0.4152E+03
      8.337  0.2557E+01  0.8161E+02  0.4870E+03  0.4349E+03
      8.578  0.4685E+01  0.6799E+02  0.4881E+03  0.4513E+03
      8.819  0.1021E+02  0.6417E+02  0.4906E+03  0.4667E+03
      9.060  0.1460E+02  0.4378E+02  0.4941E+03  0.4773E+03
      9.301  0.1760E+02  0.3082E+02  0.4984E+03  0.4847E+03
      9.542  0.1895E+02  0.8009E+01  0.5029E+03  0.4866E+03
      9.783  0.1657E+02  0.6085E+01  0.5069E+03  0.4881E+03
     10.024  0.2475E+02  0.1186E+02  0.5129E+03  0.4910E+03
     10.265  0.1663E+02  0.1832E+02  0.5169E+03  0.4954E+03
     10.506  0.2179E+02  0.2242E+02  0.5221E+03  0.5008E+03
     10.747  0.1270E+02  0.2268E+02  0.5252E+03  0.5063E+03
     10.988  0.1588E+02  0.2374E+02  0.5290E+03  0.5120E+03
     11.229  0.2349E+02  0.2984E+02  0.5347E+03  0.5192E+03
     11.471  0.3269E+02  0.2003E+02  0.5426E+03  0.5240E+03
     11.712  0.2787E+02  0.1750E+02  0.5493E+03  0.5282E+03
     11.953  0.3377E+02  0.1135E+02  0.5574E+03  0.5309E+03
     12.194  0.3536E+02  0.2737E+02  0.5660E+03  0.5375E+03
     12.435  0.2206E+02  0.4587E+02  0.5713E+03  0.5486E+03
     12.676  0.1943E+02  0.3475E+02  0.5760E+03  0.5570E+03
     12.917  0.2466E+02  0.3045E+02  0.5819E+03  0.5643E+03
     13.158  0.2687E+02  0.2071E+02  0.5884E+03  0.5693E+03
     13.399  0.2846E+02  0.2529E+02  0.5952E+03  0.5754E+03
     13.640  0.2452E+02  0.3281E+02  0.6012E+03  0.5833E+03
     13.881  0.1726E+02  0.2598E+02  0.6053E+03  0.5896E+03
     14.122  0.2838E+01  0.2543E+02  0.6060E+03  0.5957E+03
     14.363  0.1579E-04  0.2337E+02  0.6060E+03  0.6013E+03
     14.604  0.0000E+00  0.1773E+02  0.6060E+03  0.6056E+03
     14.845  0.0000E+00  0.1566E+01  0.6060E+03  0.6060E+03
     15.086  0.0000E+00  0.2200E-05  0.6060E+03  0.6060E+03
     15.328  0.0000E+00  0.0000E+00  0.6060E+03  0.6060E+03
     15.569  0.0000E+00  0.0000E+00  0.6060E+03  0.6060E+03
     15.810  0.0000E+00  0.0000E+00  0.6060E+03  0.6060E+03
     16.051  0.0000E+00  0.0000E+00  0.6060E+03  0.6060E+03
     16.292  0.0000E+00  0.0000E+00  0.6060E+03  0.6060E+03
     16.533  0.0000E+00  0.0000E+00  0.6060E+03  0.6060E+03
     16.774  0.0000E+00  0.0000E+00  0.6060E+03  0.6060E+03
     17.015  0.0000E+00  0.0000E+00  0.6060E+03  0.6060E+03
     17.256  0.0000E+00  0.0000E+00  0.6060E+03  0.6060E+03
     17.497  0.0000E+00  0.0000E+00  0.6060E+03  0.6060E+03
     17.738  0.0000E+00  0.0000E+00  0.6060E+03  0.6060E+03
     17.979  0.0000E+00  0.0000E+00  0.6060E+03  0.6060E+03
